<event>
 7    1  0.6485470E-006  0.6644177E+02  0.7818608E-02  0.1383241E+00
          2   -1    0    0  502    0  0.00000000000E+00  0.00000000000E+00  0.40575871833E+03  0.40575871833E+03  0.00000000000E+00 0. -1.
          1   -1    0    0  501    0 -0.00000000000E+00 -0.00000000000E+00 -0.70782096385E+03  0.70782096385E+03  0.00000000000E+00 0. -1.
         25    2    1    2    0    0 -0.21680506776E+02 -0.12283389627E+03 -0.12974578109E+03  0.21912897499E+03  0.12500131808E+03 0.  0.
          2    1    1    2  501    0  0.84117312244E+01  0.63379439898E+02 -0.52887516159E+03  0.53272567722E+03  0.00000000000E+00 0. -1.
          1    1    1    2  502    0  0.13268775552E+02  0.59454456368E+02  0.35655869716E+03  0.36172502997E+03  0.00000000000E+00 0. -1.
         22    1    3    3    0    0 -0.62831480688E+02 -0.30491810875E+02 -0.80823622327E+02  0.10681761756E+03  0.00000000000E+00 0.  1.
         22    1    3    3    0    0  0.41150973912E+02 -0.92342085391E+02 -0.48922158765E+02  0.11231135742E+03  0.00000000000E+00 0.  1.
</event>
<event>
 7    1  0.1169330E-005  0.7524336E+02  0.7818608E-02  0.1375384E+00
          2   -1    0    0  502    0  0.00000000000E+00  0.00000000000E+00  0.11742931441E+04  0.11742931441E+04  0.00000000000E+00 0. -1.
          1   -1    0    0  501    0 -0.00000000000E+00 -0.00000000000E+00 -0.15192672758E+04  0.15192672758E+04  0.00000000000E+00 0. -1.
         25    2    1    2    0    0 -0.71487326600E+02 -0.92750757354E+02 -0.12721360768E+03  0.21336597098E+03  0.12501437814E+03 0.  0.
          2    1    1    2  501    0  0.65342928361E+02  0.35726020017E+02 -0.13472214471E+04  0.13492782049E+04  0.00000000000E+00 0. -1.
          1    1    1    2  502    0  0.61443982392E+01  0.57024737337E+02  0.11294609231E+04  0.11309162440E+04  0.00000000000E+00 0. -1.
         22    1    3    3    0    0  0.25526318882E+02 -0.64583771728E+02 -0.41635377685E+02  0.80970125362E+02  0.00000000000E+00 0. -1.
         22    1    3    3    0    0 -0.97013645481E+02 -0.28166985626E+02 -0.85578229993E+02  0.13239584562E+03  0.00000000000E+00 0. -1.
</event>
<event>
 7    1  0.6485470E-006  0.4916349E+02  0.7818608E-02  0.1472178E+00
          2   -1    0    0  502    0  0.00000000000E+00  0.00000000000E+00  0.25547481831E+04  0.25547481831E+04  0.00000000000E+00 0. -1.
          1   -1    0    0  501    0 -0.00000000000E+00 -0.00000000000E+00 -0.12441550625E+03  0.12441550625E+03  0.00000000000E+00 0. -1.
         25    2    1    2    0    0  0.22478714510E+02  0.71990144295E+01  0.12143328828E+03  0.17586277715E+03  0.12499821787E+03 0.  0.
          2    1    1    2  501    0  0.15627129475E+02 -0.38800884839E+02 -0.92433540599E+02  0.10145775115E+03  0.00000000000E+00 0. -1.
          1    1    1    2  502    0 -0.38105843985E+02  0.31601870410E+02  0.24013329292E+04  0.24018431610E+04  0.00000000000E+00 0. -1.
         22    1    3    3    0    0  0.25576915440E+02 -0.54493698958E+02  0.84970603618E+02  0.10413330547E+03  0.00000000000E+00 0.  1.
         22    1    3    3    0    0 -0.30982009296E+01  0.61692713388E+02  0.36462684658E+02  0.71729471674E+02  0.00000000000E+00 0.  1.
</event>
<event>
 7    1  0.6485470E-006  0.3841365E+02  0.7818608E-02  0.1525084E+00
          2   -1    0    0  502    0  0.00000000000E+00  0.00000000000E+00  0.26141882371E+03  0.26141882371E+03  0.00000000000E+00 0. -1.
          1   -1    0    0  501    0 -0.00000000000E+00 -0.00000000000E+00 -0.46919289495E+03  0.46919289495E+03  0.00000000000E+00 0. -1.
         25    2    1    2    0    0 -0.77160910016E+01 -0.91506028556E+01 -0.65336911317E+02  0.14156495047E+03  0.12501380575E+03 0.  0.
          2    1    1    2  501    0 -0.20055198683E+02  0.33884674295E+02 -0.36312191753E+03  0.36525047452E+03  0.00000000000E+00 0. -1.
          1    1    1    2  502    0  0.27771289685E+02 -0.24734071440E+02  0.22068475761E+03  0.22379629367E+03  0.00000000000E+00 0. -1.
         22    1    3    3    0    0  0.23824458027E+02 -0.44361737606E+02 -0.77803726252E+02  0.92676795275E+02  0.00000000000E+00 0.  1.
         22    1    3    3    0    0 -0.31540549029E+02  0.35211134750E+02  0.12466814935E+02  0.48888155192E+02  0.00000000000E+00 0.  1.
</event>
<event>
 7    1  0.6485470E-006  0.3293898E+02  0.7818608E-02  0.1617680E+00
          2   -1    0    0  502    0  0.00000000000E+00  0.00000000000E+00  0.19340429628E+03  0.19340429628E+03  0.00000000000E+00 0. -1.
          1   -1    0    0  501    0 -0.00000000000E+00 -0.00000000000E+00 -0.67612121141E+03  0.67612121141E+03  0.00000000000E+00 0. -1.
         25    2    1    2    0    0  0.28013242989E+01 -0.43587570582E+02  0.85624851099E+02  0.15768844354E+03  0.12500522538E+03 0.  0.
          2    1    1    2  501    0  0.16741864847E+02  0.17631862801E+02 -0.63616694590E+03  0.63663141274E+03  0.00000000000E+00 0. -1.
          1    1    1    2  502    0 -0.19543189146E+02  0.25955707782E+02  0.67825179670E+02  0.75205651421E+02  0.00000000000E+00 0. -1.
         22    1    3    3    0    0  0.63687363557E+02 -0.26203821468E+02  0.39965827576E+02  0.79624041032E+02  0.00000000000E+00 0. -1.
         22    1    3    3    0    0 -0.60886039258E+02 -0.17383749114E+02  0.45659023522E+02  0.78064402507E+02  0.00000000000E+00 0. -1.
</event>
<event>
 7    1  0.6485470E-006  0.6959429E+02  0.7818608E-02  0.1408430E+00
          2   -1    0    0  502    0  0.00000000000E+00  0.00000000000E+00  0.12239204071E+04  0.12239204071E+04  0.00000000000E+00 0. -1.
          1   -1    0    0  501    0 -0.00000000000E+00 -0.00000000000E+00 -0.22807203449E+03  0.22807203449E+03  0.00000000000E+00 0. -1.
         25    2    1    2    0    0  0.80454665631E+02 -0.66505230325E+02 -0.13067051678E+03  0.20878866003E+03  0.12498808630E+03 0.  0.
          2    1    1    2  501    0 -0.41392887013E+02  0.39333251702E+02 -0.43770945827E+02  0.71947004686E+02  0.00000000000E+00 0. -1.
          1    1    1    2  502    0 -0.39061778618E+02  0.27171978623E+02  0.11702898352E+04  0.11712567769E+04  0.00000000000E+00 0. -1.
         22    1    3    3    0    0  0.99517564333E+02 -0.82444061068E+02 -0.13089271882E+03  0.18393931786E+03  0.00000000000E+00 0.  1.
         22    1    3    3    0    0 -0.19062898702E+02  0.15938830743E+02  0.22220203494E+00  0.24849342167E+02  0.00000000000E+00 0.  1.
</event>
<event>
 7    1  0.6485470E-006  0.7382340E+02  0.7818608E-02  0.1469894E+00
          2   -1    0    0  502    0  0.00000000000E+00  0.00000000000E+00  0.24409058598E+03  0.24409058598E+03  0.00000000000E+00 0. -1.
          1   -1    0    0  501    0 -0.00000000000E+00 -0.00000000000E+00 -0.16155354809E+03  0.16155354809E+03  0.00000000000E+00 0. -1.
         25    2    1    2    0    0 -0.40172285148E+02 -0.47726399798E+02  0.71502828369E+02  0.15694112222E+03  0.12500495850E+03 0.  0.
          2    1    1    2  501    0  0.66108515247E+02  0.36364907632E+02 -0.10498136208E+03  0.12928197353E+03  0.00000000000E+00 0. -1.
          1    1    1    2  502    0 -0.25936230099E+02  0.11361492165E+02  0.11601557161E+03  0.11942103831E+03  0.00000000000E+00 0. -1.
         22    1    3    3    0    0 -0.66322626256E+02 -0.52572262686E+02  0.90767114047E+02  0.12410158158E+03  0.00000000000E+00 0.  1.
         22    1    3    3    0    0  0.26150341108E+02  0.48458628887E+01 -0.19264285678E+02  0.32839540647E+02  0.00000000000E+00 0.  1.
</event>
<event>
 7    1  0.6485470E-006  0.3193492E+03  0.7818608E-02  0.1162636E+00
          2   -1    0    0  502    0  0.00000000000E+00  0.00000000000E+00  0.12815591484E+04  0.12815591484E+04  0.00000000000E+00 0. -1.
          1   -1    0    0  501    0 -0.00000000000E+00 -0.00000000000E+00 -0.12092142758E+04  0.12092142758E+04  0.00000000000E+00 0. -1.
         25    2    1    2    0    0  0.68489271082E+01  0.25503517219E+03  0.63771377883E+03  0.69813599434E+03  0.12500062410E+03 0.  0.
          2    1    1    2  501    0  0.85617130185E+02 -0.31022961598E+03 -0.11520489790E+04  0.11961561594E+04  0.00000000000E+00 0. -1.
          1    1    1    2  502    0 -0.92466057293E+02  0.55194443794E+02  0.58668007274E+03  0.59648127056E+03  0.00000000000E+00 0. -1.
         22    1    3    3    0    0 -0.10807037569E+02  0.26213797656E+03  0.61418182738E+03  0.66787156542E+03  0.00000000000E+00 0. -1.
         22    1    3    3    0    0  0.17655964677E+02 -0.71028043712E+01  0.23531951449E+02  0.30264428915E+02  0.00000000000E+00 0. -1.
</event>
<event>
 7    1  0.6485470E-006  0.1502548E+03  0.7818608E-02  0.1351770E+00
          2   -1    0    0  502    0  0.00000000000E+00  0.00000000000E+00  0.13825655161E+04  0.13825655161E+04  0.00000000000E+00 0. -1.
          1   -1    0    0  501    0 -0.00000000000E+00 -0.00000000000E+00 -0.11401956989E+03  0.11401956989E+03  0.00000000000E+00 0. -1.
         25    2    1    2    0    0  0.38706896800E+02 -0.12782356189E+03  0.74147509660E+03  0.76370776448E+03  0.12500857502E+03 0.  0.
          2    1    1    2  501    0 -0.73339367594E+02  0.13280394295E+03 -0.46162956000E+02  0.15857669629E+03  0.00000000000E+00 0. -1.
          1    1    1    2  502    0  0.34632470794E+02 -0.49803810580E+01  0.57323380560E+03  0.57430062520E+03  0.00000000000E+00 0. -1.
         22    1    3    3    0    0  0.27974914457E+01 -0.31058102787E+02  0.25363408527E+02  0.40196196328E+02  0.00000000000E+00 0. -1.
         22    1    3    3    0    0  0.35909405354E+02 -0.96765459101E+02  0.71611168807E+03  0.72351156816E+03  0.00000000000E+00 0. -1.
</event>
<event>
 7    1  0.6485470E-006  0.1355183E+03  0.7818608E-02  0.1344799E+00
          2   -1    0    0  502    0  0.00000000000E+00  0.00000000000E+00  0.32420489554E+03  0.32420489554E+03  0.00000000000E+00 0. -1.
          1   -1    0    0  501    0 -0.00000000000E+00 -0.00000000000E+00 -0.58489364420E+03  0.58489364420E+03  0.00000000000E+00 0. -1.
         25    2    1    2    0    0 -0.78089015367E+02 -0.13349716154E+03 -0.15442531105E+03  0.25178969885E+03  0.12502595448E+03 0.  0.
          2    1    1    2  501    0  0.40939965635E+02  0.44136228739E+01 -0.36418540593E+03  0.36650589456E+03  0.00000000000E+00 0. -1.
          1    1    1    2  502    0  0.37149049731E+02  0.12908353867E+03  0.25792196832E+03  0.29080294633E+03  0.00000000000E+00 0. -1.
         22    1    3    3    0    0 -0.45009443698E+02 -0.13485918714E+02 -0.10999751991E+03  0.11961260140E+03  0.00000000000E+00 0. -1.
         22    1    3    3    0    0 -0.33079571668E+02 -0.12001124283E+03 -0.44427791136E+02  0.13217709746E+03  0.00000000000E+00 0. -1.
</event>
<event>
 7    1  0.6485470E-006  0.1325266E+03  0.7818608E-02  0.1229397E+00
          2   -1    0    0  502    0  0.00000000000E+00  0.00000000000E+00  0.44564841542E+03  0.44564841542E+03  0.00000000000E+00 0. -1.
          1   -1    0    0  501    0 -0.00000000000E+00 -0.00000000000E+00 -0.12977726021E+04  0.12977726021E+04  0.00000000000E+00 0. -1.
         25    2    1    2    0    0 -0.23731161374E+03  0.80713968778E+02  0.36249168799E+02  0.28243671686E+03  0.12499980008E+03 0.  0.
          2    1    1    2  501    0  0.11357772170E+03 -0.63080356926E+02 -0.11572282355E+04  0.11644982693E+04  0.00000000000E+00 0. -1.
          1    1    1    2  502    0  0.12373389204E+03 -0.17633611852E+02  0.26885487997E+03  0.29648603136E+03  0.00000000000E+00 0. -1.
         22    1    3    3    0    0 -0.22637958247E+03  0.48539174021E+02 -0.16544885266E+01  0.23153078436E+03  0.00000000000E+00 0.  1.
         22    1    3    3    0    0 -0.10932031271E+02  0.32174794757E+02  0.37903657326E+02  0.50905932503E+02  0.00000000000E+00 0.  1.
</event>
<event>
 7    1  0.6485470E-006  0.8633606E+02  0.7818608E-02  0.1368831E+00
          2   -1    0    0  502    0  0.00000000000E+00  0.00000000000E+00  0.14867765080E+03  0.14867765080E+03  0.00000000000E+00 0. -1.
          1   -1    0    0  501    0 -0.00000000000E+00 -0.00000000000E+00 -0.65423470394E+03  0.65423470394E+03  0.00000000000E+00 0. -1.
         25    2    1    2    0    0  0.68598499962E+02  0.10684497643E+03  0.79607202943E+01  0.17835248496E+03  0.12499853055E+03 0.  0.
          2    1    1    2  501    0 -0.27595602074E+02 -0.44971139001E+02 -0.54236441563E+03  0.54492483880E+03  0.00000000000E+00 0. -1.
          1    1    1    2  502    0 -0.41002897888E+02 -0.61873837434E+02  0.28846642191E+02  0.79635030983E+02  0.00000000000E+00 0. -1.
         22    1    3    3    0    0  0.58822510005E+02  0.10998221290E+03  0.50523471155E+02  0.13456892649E+03  0.00000000000E+00 0. -1.
         22    1    3    3    0    0  0.97759899562E+01 -0.31372364665E+01 -0.42562750860E+02  0.43783558479E+02  0.00000000000E+00 0. -1.
</event>
<event>
 7    1  0.6485470E-006  0.7389012E+02  0.7818608E-02  0.1392079E+00
          2   -1    0    0  502    0  0.00000000000E+00  0.00000000000E+00  0.14609678593E+02  0.14609678593E+02  0.00000000000E+00 0. -1.
          1   -1    0    0  501    0 -0.00000000000E+00 -0.00000000000E+00 -0.17495170397E+04  0.17495170397E+04  0.00000000000E+00 0. -1.
         25    2    1    2    0    0 -0.54815490621E+02  0.19394100141E+02 -0.55755032356E+03  0.57434194218E+03  0.12500173645E+03 0.  0.
          2    1    1    2  501    0 -0.30838560901E+02 -0.40631045940E+02 -0.82391413720E+03  0.82549161365E+03  0.00000000000E+00 0. -1.
          1    1    1    2  502    0  0.85654051522E+02  0.21236945799E+02 -0.35344290038E+03  0.36429316250E+03  0.00000000000E+00 0. -1.
         22    1    3    3    0    0  0.38668225651E+02 -0.98659438038E+01 -0.16207190271E+03  0.16691276215E+03  0.00000000000E+00 0. -1.
         22    1    3    3    0    0 -0.93483716272E+02  0.29260043945E+02 -0.39547842085E+03  0.40742918003E+03  0.00000000000E+00 0. -1.
</event>
<event>
 7    1  0.6485470E-006  0.9515849E+02  0.7818608E-02  0.1329248E+00
          2   -1    0    0  502    0  0.00000000000E+00  0.00000000000E+00  0.19058914803E+04  0.19058914803E+04  0.00000000000E+00 0. -1.
          1   -1    0    0  501    0 -0.00000000000E+00 -0.00000000000E+00 -0.10933366182E+04  0.10933366182E+04  0.00000000000E+00 0. -1.
         25    2    1    2    0    0 -0.50130819800E+02  0.13749359904E+03  0.62317734180E+02  0.20230097738E+03  0.12499838633E+03 0.  0.
          2    1    1    2  501    0 -0.11661779555E+02 -0.66119165880E+02 -0.10209853293E+04  0.10231904925E+04  0.00000000000E+00 0. -1.
          1    1    1    2  502    0  0.61792599355E+02 -0.71374433160E+02  0.17712224572E+04  0.17737366287E+04  0.00000000000E+00 0. -1.
         22    1    3    3    0    0  0.16076721159E+02  0.97326391359E+02  0.74884045786E+02  0.12384872923E+03  0.00000000000E+00 0.  1.
         22    1    3    3    0    0 -0.66207540959E+02  0.40167207682E+02 -0.12566311606E+02  0.78452248153E+02  0.00000000000E+00 0.  1.
</event>
<event>
 7    1  0.6485470E-006  0.6806863E+02  0.7818608E-02  0.1420700E+00
          2   -1    0    0  502    0  0.00000000000E+00  0.00000000000E+00  0.82360989296E+02  0.82360989296E+02  0.00000000000E+00 0. -1.
          1   -1    0    0  501    0 -0.00000000000E+00 -0.00000000000E+00 -0.26629528313E+03  0.26629528313E+03  0.00000000000E+00 0. -1.
         25    2    1    2    0    0 -0.23283316282E+02  0.31616048504E+02 -0.11019633936E+03  0.17120521836E+03  0.12500522487E+03 0.  0.
          2    1    1    2  501    0  0.38126412504E+02 -0.73286904925E+02 -0.97049650348E+02  0.12744892466E+03  0.00000000000E+00 0. -1.
          1    1    1    2  502    0 -0.14843096222E+02  0.41670856421E+02  0.23311695879E+02  0.50002129406E+02  0.00000000000E+00 0. -1.
         22    1    3    3    0    0 -0.33147996052E+02 -0.35232861325E+02 -0.87393203321E+02  0.99888518590E+02  0.00000000000E+00 0.  1.
         22    1    3    3    0    0  0.98646797705E+01  0.66848909830E+02 -0.22803136039E+02  0.71316699767E+02  0.00000000000E+00 0.  1.
</event>
<event>
 7    1  0.6485470E-006  0.1285371E+03  0.7818608E-02  0.1395264E+00
          2   -1    0    0  502    0  0.00000000000E+00  0.00000000000E+00  0.73899231786E+03  0.73899231786E+03  0.00000000000E+00 0. -1.
          1   -1    0    0  501    0 -0.00000000000E+00 -0.00000000000E+00 -0.11387248622E+04  0.11387248622E+04  0.00000000000E+00 0. -1.
         25    2    1    2    0    0 -0.14528327538E+03  0.41943993401E+02  0.21770474979E+03  0.29306416681E+03  0.12499887638E+03 0.  0.
          2    1    1    2  501    0  0.24502529041E+02 -0.14723103822E+02 -0.10929309322E+04  0.10933046996E+04  0.00000000000E+00 0. -1.
          1    1    1    2  502    0  0.12078074634E+03 -0.27220889579E+02  0.47549363803E+03  0.49134831364E+03  0.00000000000E+00 0. -1.
         22    1    3    3    0    0 -0.28524324460E+02 -0.42999791532E+02  0.51558584615E+02  0.72944546097E+02  0.00000000000E+00 0.  1.
         22    1    3    3    0    0 -0.11675895092E+03  0.84943784933E+02  0.16614616517E+03  0.22011962071E+03  0.00000000000E+00 0.  1.
</event>
<event>
 7    1  0.6485470E-006  0.1000580E+03  0.7818608E-02  0.1335263E+00
          2   -1    0    0  502    0  0.00000000000E+00  0.00000000000E+00  0.28827164279E+04  0.28827164279E+04  0.00000000000E+00 0. -1.
          1   -1    0    0  501    0 -0.00000000000E+00 -0.00000000000E+00 -0.64913294087E+03  0.64913294087E+03  0.00000000000E+00 0. -1.
         25    2    1    2    0    0 -0.92722274989E+02  0.64402588094E+02  0.21309024755E+03  0.27162746648E+03  0.12501565226E+03 0.  0.
          2    1    1    2  501    0 -0.73772549190E+01 -0.60121528498E+02 -0.61743129318E+03  0.62039537706E+03  0.00000000000E+00 0. -1.
          1    1    1    2  502    0  0.10009952991E+03 -0.42810595959E+01  0.26379245326E+04  0.26398265252E+04  0.00000000000E+00 0. -1.
         22    1    3    3    0    0 -0.60845938374E+02  0.23868395082E+02  0.15166659849E+02  0.67096617436E+02  0.00000000000E+00 0. -1.
         22    1    3    3    0    0 -0.31876336615E+02  0.40534193012E+02  0.19792358771E+03  0.20453084904E+03  0.00000000000E+00 0. -1.
</event>
<event>
 7    1  0.6485470E-006  0.7594883E+02  0.7818608E-02  0.1363281E+00
          2   -1    0    0  502    0  0.00000000000E+00  0.00000000000E+00  0.96405730472E+03  0.96405730472E+03  0.00000000000E+00 0. -1.
          1   -1    0    0  501    0 -0.00000000000E+00 -0.00000000000E+00 -0.20654258095E+03  0.20654258095E+03  0.00000000000E+00 0. -1.
         25    2    1    2    0    0 -0.54533644928E+01 -0.13727602533E+02 -0.10529548608E+03  0.16410480366E+03  0.12500024376E+03 0.  0.
          2    1    1    2  501    0 -0.43656259589E+02 -0.45166304585E+02 -0.56202500409E+02  0.84288701042E+02  0.00000000000E+00 0. -1.
          1    1    1    2  502    0  0.49109624081E+02  0.58893907118E+02  0.91901271026E+03  0.92220638097E+03  0.00000000000E+00 0. -1.
         22    1    3    3    0    0 -0.59325624320E+02 -0.29896455775E+02 -0.75098030899E+02  0.10026485932E+03  0.00000000000E+00 0.  1.
         22    1    3    3    0    0  0.53872259827E+02  0.16168853242E+02 -0.30197455185E+02  0.63839944343E+02  0.00000000000E+00 0.  1.
</event>
<event>
 7    1  0.6485470E-006  0.1014201E+03  0.7818608E-02  0.1307595E+00
          2   -1    0    0  502    0  0.00000000000E+00  0.00000000000E+00  0.24535711832E+04  0.24535711832E+04  0.00000000000E+00 0. -1.
          1   -1    0    0  501    0 -0.00000000000E+00 -0.00000000000E+00 -0.29167958496E+03  0.29167958496E+03  0.00000000000E+00 0. -1.
         25    2    1    2    0    0  0.50571699330E+02 -0.91238623248E+02  0.19025129153E+03  0.25040436708E+03  0.12499923991E+03 0.  0.
          2    1    1    2  501    0 -0.97731269725E+02  0.31033865449E+02 -0.25087188490E+03  0.27101882687E+03  0.00000000000E+00 0. -1.
          1    1    1    2  502    0  0.47159570395E+02  0.60204757798E+02  0.22225121916E+04  0.22238275742E+04  0.00000000000E+00 0. -1.
         22    1    3    3    0    0  0.15493809708E+02 -0.11767211892E+03  0.14425025148E+03  0.18680182216E+03  0.00000000000E+00 0.  1.
         22    1    3    3    0    0  0.35077889622E+02  0.26433495676E+02  0.46001040047E+02  0.63602544913E+02  0.00000000000E+00 0.  1.
</event>
<event>
 7    1  0.6485470E-006  0.6521882E+02  0.7818608E-02  0.1428171E+00
          2   -1    0    0  502    0  0.00000000000E+00  0.00000000000E+00  0.19181007522E+04  0.19181007522E+04  0.00000000000E+00 0. -1.
          1   -1    0    0  501    0 -0.00000000000E+00 -0.00000000000E+00 -0.16425821413E+02  0.16425821413E+02  0.00000000000E+00 0. -1.
         25    2    1    2    0    0  0.86467436647E+02 -0.25215234310E+02  0.46632530584E+03  0.49111941413E+03  0.12500624957E+03 0.  0.
          2    1    1    2  501    0 -0.43865942618E+02  0.34523446554E+02  0.21032751650E+03  0.21760917601E+03  0.00000000000E+00 0. -1.
          1    1    1    2  502    0 -0.42601494028E+02 -0.93082122446E+01  0.12250221085E+04  0.12257979835E+04  0.00000000000E+00 0. -1.
         22    1    3    3    0    0  0.55885675472E+02 -0.64798125934E+02  0.39398133405E+03  0.40316658769E+03  0.00000000000E+00 0. -1.
         22    1    3    3    0    0  0.30581761174E+02  0.39582891624E+02  0.72343971791E+02  0.87952826449E+02  0.00000000000E+00 0. -1.
</event>
<event>
 7    1  0.6485470E-006  0.8331717E+02  0.7818608E-02  0.1465899E+00
          2   -1    0    0  502    0  0.00000000000E+00  0.00000000000E+00  0.15317232201E+04  0.15317232201E+04  0.00000000000E+00 0. -1.
          1   -1    0    0  501    0 -0.00000000000E+00 -0.00000000000E+00 -0.27307326523E+03  0.27307326523E+03  0.00000000000E+00 0. -1.
         25    2    1    2    0    0 -0.78175671382E+02  0.66338877656E+02  0.56723944273E+03  0.58982878688E+03  0.12500052064E+03 0.  0.
          2    1    1    2  501    0  0.52421525437E+02 -0.64502018852E+02 -0.25500040477E+03  0.26820464798E+03  0.00000000000E+00 0. -1.
          1    1    1    2  502    0  0.25754145945E+02 -0.18368588037E+01  0.94641091693E+03  0.94676305049E+03  0.00000000000E+00 0. -1.
         22    1    3    3    0    0  0.10485534250E+02  0.67284498089E+02  0.32015749914E+03  0.32731937671E+03  0.00000000000E+00 0. -1.
         22    1    3    3    0    0 -0.88661205632E+02 -0.94562043364E+00  0.24708194359E+03  0.26250941017E+03  0.00000000000E+00 0. -1.
</event>
<event>
 7    1  0.6485470E-006  0.1014539E+03  0.7818608E-02  0.1373668E+00
          2   -1    0    0  502    0  0.00000000000E+00  0.00000000000E+00  0.58164276261E+03  0.58164276261E+03  0.00000000000E+00 0. -1.
          1   -1    0    0  501    0 -0.00000000000E+00 -0.00000000000E+00 -0.98690468743E+02  0.98690468743E+02  0.00000000000E+00 0. -1.
         25    2    1    2    0    0  0.36034589035E+02  0.97557172756E+02  0.24511355268E+03  0.29414753699E+03  0.12500490488E+03 0.  0.
          2    1    1    2  501    0  0.35894884621E+02 -0.23932052535E+02 -0.58381611855E+02  0.72592000133E+02  0.00000000000E+00 0. -1.
          1    1    1    2  502    0 -0.71929473656E+02 -0.73625120222E+02  0.29622035304E+03  0.31359369423E+03  0.00000000000E+00 0. -1.
         22    1    3    3    0    0 -0.34670016803E+02 -0.26291348674E+01  0.89566771643E+02  0.96078764552E+02  0.00000000000E+00 0. -1.
         22    1    3    3    0    0  0.70704605837E+02  0.10018630762E+03  0.15554678104E+03  0.19806877244E+03  0.00000000000E+00 0. -1.
</event>
<event>
 7    1  0.6485470E-006  0.3229623E+02  0.7818608E-02  0.1587406E+00
          2   -1    0    0  502    0  0.00000000000E+00  0.00000000000E+00  0.12363703865E+04  0.12363703865E+04  0.00000000000E+00 0. -1.
          1   -1    0    0  501    0 -0.00000000000E+00 -0.00000000000E+00 -0.45272645271E+03  0.45272645271E+03  0.00000000000E+00 0. -1.
         25    2    1    2    0    0 -0.57466733532E+02 -0.13451337718E+02  0.51283634983E+03  0.53114044270E+03  0.12500273683E+03 0.  0.
          2    1    1    2  501    0  0.32193055582E+02 -0.22140006289E+01 -0.44267744975E+03  0.44385202393E+03  0.00000000000E+00 0. -1.
          1    1    1    2  502    0  0.25273677951E+02  0.15665338347E+02  0.71348503369E+03  0.71410437257E+03  0.00000000000E+00 0. -1.
         22    1    3    3    0    0 -0.55321731424E+02 -0.58832257933E+02  0.21140613461E+03  0.22630572748E+03  0.00000000000E+00 0.  1.
         22    1    3    3    0    0 -0.21450021082E+01  0.45380920215E+02  0.30143021523E+03  0.30483471522E+03  0.00000000000E+00 0.  1.
</event>
<event>
 7    1  0.6485470E-006  0.5253246E+02  0.7818608E-02  0.1536692E+00
          2   -1    0    0  502    0  0.00000000000E+00  0.00000000000E+00  0.29668697698E+02  0.29668697698E+02  0.00000000000E+00 0. -1.
          1   -1    0    0  501    0 -0.00000000000E+00 -0.00000000000E+00 -0.88810785530E+03  0.88810785530E+03  0.00000000000E+00 0. -1.
         25    2    1    2    0    0  0.60368325321E+02  0.56680386636E+01 -0.36138966759E+03  0.38717429273E+03  0.12499991899E+03 0.  0.
          2    1    1    2  501    0 -0.11039803860E+02 -0.22643575921E+02 -0.47210658983E+03  0.47277821540E+03  0.00000000000E+00 0. -1.
          1    1    1    2  502    0 -0.49328521461E+02  0.16975537257E+02 -0.24942900184E+02  0.57824044863E+02  0.00000000000E+00 0. -1.
         22    1    3    3    0    0 -0.20802913106E+02 -0.97800154340E+01 -0.81341493455E+01  0.24383893888E+02  0.00000000000E+00 0.  1.
         22    1    3    3    0    0  0.81171238427E+02  0.15448054098E+02 -0.35325551824E+03  0.36279039884E+03  0.00000000000E+00 0.  1.
</event>
<event>
 7    1  0.6485470E-006  0.8573860E+02  0.7818608E-02  0.1416929E+00
          2   -1    0    0  502    0  0.00000000000E+00  0.00000000000E+00  0.17042069004E+03  0.17042069004E+03  0.00000000000E+00 0. -1.
          1   -1    0    0  501    0 -0.00000000000E+00 -0.00000000000E+00 -0.10921658134E+04  0.10921658134E+04  0.00000000000E+00 0. -1.
         25    2    1    2    0    0  0.52482293331E+02 -0.11814837955E+02 -0.23230667968E+03  0.26923103756E+03  0.12499990662E+03 0.  0.
          2    1    1    2  501    0 -0.88183500343E+02  0.17519377253E+02 -0.83680388632E+03  0.84161986816E+03  0.00000000000E+00 0. -1.
          1    1    1    2  502    0  0.35701207013E+02 -0.57045392987E+01  0.14736544261E+03  0.15173559775E+03  0.00000000000E+00 0. -1.
         22    1    3    3    0    0 -0.25735659633E+02 -0.30473122483E+02 -0.25500369260E+02  0.47341358272E+02  0.00000000000E+00 0. -1.
         22    1    3    3    0    0  0.78217952964E+02  0.18658284528E+02 -0.20680631042E+03  0.22188967929E+03  0.00000000000E+00 0. -1.
</event>
<event>
 7    1  0.6485470E-006  0.2978466E+02  0.7818608E-02  0.1624245E+00
          2   -1    0    0  502    0  0.00000000000E+00  0.00000000000E+00  0.10507742513E+03  0.10507742513E+03  0.00000000000E+00 0. -1.
          1   -1    0    0  501    0 -0.00000000000E+00 -0.00000000000E+00 -0.19554036354E+04  0.19554036354E+04  0.00000000000E+00 0. -1.
         25    2    1    2    0    0 -0.25800524758E+02  0.48875824972E+02 -0.89862680442E+02  0.16356896280E+03  0.12499996365E+03 0.  0.
          2    1    1    2  501    0  0.11216916092E+02 -0.27502558908E+02 -0.18261093954E+04  0.18263509340E+04  0.00000000000E+00 0. -1.
          1    1    1    2  502    0  0.14583608667E+02 -0.21373266064E+02  0.65645865657E+02  0.70561163694E+02  0.00000000000E+00 0. -1.
         22    1    3    3    0    0 -0.42686039712E+01 -0.42113189664E+02 -0.19806872618E+02  0.46733862738E+02  0.00000000000E+00 0.  1.
         22    1    3    3    0    0 -0.21531920787E+02  0.90989014636E+02 -0.70055807824E+02  0.11683510006E+03  0.00000000000E+00 0.  1.
</event>
<event>
 7    1  0.6485470E-006  0.8599386E+02  0.7818608E-02  0.1421076E+00
          2   -1    0    0  502    0  0.00000000000E+00  0.00000000000E+00  0.21306029669E+04  0.21306029669E+04  0.00000000000E+00 0. -1.
          1   -1    0    0  501    0 -0.00000000000E+00 -0.00000000000E+00 -0.78715285952E+02  0.78715285952E+02  0.00000000000E+00 0. -1.
         25    2    1    2    0    0  0.46668123431E+02  0.69878046802E+02  0.11310542555E+03  0.18835632569E+03  0.12499765185E+03 0.  0.
          2    1    1    2  501    0  0.25932032781E+02 -0.23377437455E+02 -0.32557065577E+02  0.47738217657E+02  0.00000000000E+00 0. -1.
          1    1    1    2  502    0 -0.72600156213E+02 -0.46500609347E+02  0.19713393210E+04  0.19732237095E+04  0.00000000000E+00 0. -1.
         22    1    3    3    0    0  0.11148671407E+02  0.10081798990E+03  0.91211860260E+02  0.13641174221E+03  0.00000000000E+00 0. -1.
         22    1    3    3    0    0  0.35519452024E+02 -0.30939943098E+02  0.21893565292E+02  0.51944583473E+02  0.00000000000E+00 0. -1.
</event>
<event>
 7    1  0.6485470E-006  0.1739113E+03  0.7818608E-02  0.1277732E+00
          2   -1    0    0  502    0  0.00000000000E+00  0.00000000000E+00  0.42777327567E+04  0.42777327567E+04  0.00000000000E+00 0. -1.
          1   -1    0    0  501    0 -0.00000000000E+00 -0.00000000000E+00 -0.21756869201E+03  0.21756869201E+03  0.00000000000E+00 0. -1.
         25    2    1    2    0    0 -0.22684779069E+03  0.23973246007E+02  0.17049757324E+04  0.17247036159E+04  0.12500271213E+03 0.  0.
          2    1    1    2  501    0  0.17279712856E+03 -0.51171503726E+00 -0.17136235210E+03  0.24336015534E+03  0.00000000000E+00 0. -1.
          1    1    1    2  502    0  0.54050662129E+02 -0.23461530970E+02  0.25265506844E+04  0.25272376774E+04  0.00000000000E+00 0. -1.
         22    1    3    3    0    0 -0.35561263707E+02 -0.15704986324E+02  0.69022664019E+03  0.69132052255E+03  0.00000000000E+00 0. -1.
         22    1    3    3    0    0 -0.19128652698E+03  0.39678232331E+02  0.10147490922E+04  0.10333830934E+04  0.00000000000E+00 0. -1.
</event>
<event>
 7    1  0.6485470E-006  0.1918765E+03  0.7818608E-02  0.1175288E+00
          2   -1    0    0  502    0  0.00000000000E+00  0.00000000000E+00  0.53467409330E+03  0.53467409330E+03  0.00000000000E+00 0. -1.
          1   -1    0    0  501    0 -0.00000000000E+00 -0.00000000000E+00 -0.19454686436E+03  0.19454686436E+03  0.00000000000E+00 0. -1.
         25    2    1    2    0    0 -0.77462145669E+02 -0.19925740086E+03  0.79073265567E+02  0.25996726345E+03  0.12500600357E+03 0.  0.
          2    1    1    2  501    0 -0.10419925912E+03  0.11480365170E+03  0.20789740353E+02  0.15642754664E+03  0.00000000000E+00 0. -1.
          1    1    1    2  502    0  0.18166140479E+03  0.84453749162E+02  0.24026422302E+03  0.31282614757E+03  0.00000000000E+00 0. -1.
         22    1    3    3    0    0 -0.99252020274E+02 -0.20218700081E+03  0.67557063946E+02  0.23514783374E+03  0.00000000000E+00 0.  1.
         22    1    3    3    0    0  0.21789874605E+02  0.29295999511E+01  0.11516201620E+02  0.24819429706E+02  0.00000000000E+00 0.  1.
</event>
<event>
 7    1  0.6485470E-006  0.6049642E+02  0.7818608E-02  0.1470283E+00
          2   -1    0    0  502    0  0.00000000000E+00  0.00000000000E+00  0.70733875338E+03  0.70733875338E+03  0.00000000000E+00 0. -1.
          1   -1    0    0  501    0 -0.00000000000E+00 -0.00000000000E+00 -0.15296790791E+04  0.15296790791E+04  0.00000000000E+00 0. -1.
         25    2    1    2    0    0  0.27756344342E+02  0.63327935013E+02 -0.12722046196E+03  0.19129208171E+03  0.12500709012E+03 0.  0.
          2    1    1    2  501    0  0.20910998056E+02 -0.27386525729E+02 -0.13688505088E+04  0.13692841221E+04  0.00000000000E+00 0. -1.
          1    1    1    2  502    0 -0.48667342398E+02 -0.35941409284E+02  0.67373064497E+03  0.67644162873E+03  0.00000000000E+00 0. -1.
         22    1    3    3    0    0  0.35471299412E+02  0.90795974045E+02 -0.51227641671E+02  0.11011990400E+03  0.00000000000E+00 0. -1.
         22    1    3    3    0    0 -0.77149550704E+01 -0.27468039032E+02 -0.75992820284E+02  0.81172177713E+02  0.00000000000E+00 0. -1.
</event>
<event>
 7    1  0.1063871E-005  0.6403991E+02  0.7818608E-02  0.1449569E+00
          2   -1    0    0  502    0  0.00000000000E+00  0.00000000000E+00  0.12467350595E+04  0.12467350595E+04  0.00000000000E+00 0. -1.
          1   -1    0    0  501    0 -0.00000000000E+00 -0.00000000000E+00 -0.10047241583E+04  0.10047241583E+04  0.00000000000E+00 0. -1.
         25    2    1    2    0    0  0.30036378541E+02  0.66739760372E+02 -0.26333412086E+03  0.30054310999E+03  0.12499968842E+03 0.  0.
          2    1    1    2  501    0  0.22640837656E+02 -0.30315444934E+02 -0.72145452191E+03  0.72244602630E+03  0.00000000000E+00 0. -1.
          1    1    1    2  502    0 -0.52677216197E+02 -0.36424315438E+02  0.12267995440E+04  0.12284700815E+04  0.00000000000E+00 0. -1.
         22    1    3    3    0    0  0.26001853009E+02  0.45817284416E+02 -0.27235577549E+03  0.27740401647E+03  0.00000000000E+00 0. -1.
         22    1    3    3    0    0  0.40345255317E+01  0.20922475956E+02  0.90216546367E+01  0.23139093517E+02  0.00000000000E+00 0. -1.
</event>
<event>
 7    1  0.6485470E-006  0.1442016E+03  0.7818608E-02  0.1303369E+00
          2   -1    0    0  502    0  0.00000000000E+00  0.00000000000E+00  0.50823117525E+03  0.50823117525E+03  0.00000000000E+00 0. -1.
          1   -1    0    0  501    0 -0.00000000000E+00 -0.00000000000E+00 -0.10686333786E+04  0.10686333786E+04  0.00000000000E+00 0. -1.
         25    2    1    2    0    0 -0.18999803462E+03  0.82481479863E+01 -0.22185043275E+03  0.31782141410E+03  0.12500220655E+03 0.  0.
          2    1    1    2  501    0  0.48831891592E+02 -0.27219293231E+02 -0.78676168544E+03  0.78874545529E+03  0.00000000000E+00 0. -1.
          1    1    1    2  502    0  0.14116614303E+03  0.18971145244E+02  0.44820991482E+03  0.47029768448E+03  0.00000000000E+00 0. -1.
         22    1    3    3    0    0 -0.10391577882E+03  0.65627145064E+02 -0.13674995499E+03  0.18386397539E+03  0.00000000000E+00 0.  1.
         22    1    3    3    0    0 -0.86082255805E+02 -0.57378997077E+02 -0.85100477761E+02  0.13395743871E+03  0.00000000000E+00 0.  1.
</event>
<event>
 7    1  0.6485470E-006  0.9275320E+02  0.7818608E-02  0.1472667E+00
          2   -1    0    0  502    0  0.00000000000E+00  0.00000000000E+00  0.12455019620E+04  0.12455019620E+04  0.00000000000E+00 0. -1.
          1   -1    0    0  501    0 -0.00000000000E+00 -0.00000000000E+00 -0.65528761542E+02  0.65528761542E+02  0.00000000000E+00 0. -1.
         25    2    1    2    0    0 -0.99690538130E+01 -0.76966584134E+02  0.53568922163E+03  0.55552813924E+03  0.12500133687E+03 0.  0.
          2    1    1    2  501    0 -0.42932193166E+01  0.93840992826E+02 -0.15619926065E+02  0.95228912401E+02  0.00000000000E+00 0. -1.
          1    1    1    2  502    0  0.14262273130E+02 -0.16874408692E+02  0.65990390491E+03  0.66027367191E+03  0.00000000000E+00 0. -1.
         22    1    3    3    0    0 -0.52642346825E+02 -0.78626816233E+02  0.26275984707E+03  0.27927787263E+03  0.00000000000E+00 0.  1.
         22    1    3    3    0    0  0.42673293012E+02  0.16602320988E+01  0.27292937456E+03  0.27625026661E+03  0.00000000000E+00 0.  1.
</event>
<event>
 7    1  0.6485470E-006  0.1159467E+03  0.7818608E-02  0.1377886E+00
          2   -1    0    0  502    0  0.00000000000E+00  0.00000000000E+00  0.30690397547E+03  0.30690397547E+03  0.00000000000E+00 0. -1.
          1   -1    0    0  501    0 -0.00000000000E+00 -0.00000000000E+00 -0.17219113063E+04  0.17219113063E+04  0.00000000000E+00 0. -1.
         25    2    1    2    0    0  0.22868662302E+02 -0.79712198764E+02 -0.16376019816E+02  0.15090053132E+03  0.12500314389E+03 0.  0.
          2    1    1    2  501    0 -0.46796003261E+02  0.10722843530E+03 -0.16347831486E+04  0.16389642297E+04  0.00000000000E+00 0. -1.
          1    1    1    2  502    0  0.23927340958E+02 -0.27516236533E+02  0.23615183765E+03  0.23895052070E+03  0.00000000000E+00 0. -1.
         22    1    3    3    0    0  0.56943463139E+02 -0.53054531689E+02  0.33623945736E+02  0.84781549018E+02  0.00000000000E+00 0. -1.
         22    1    3    3    0    0 -0.34074800836E+02 -0.26657667075E+02 -0.49999965552E+02  0.66118982306E+02  0.00000000000E+00 0. -1.
</event>
<event>
 7    1  0.6485470E-006  0.2275208E+03  0.7818608E-02  0.1271132E+00
          2   -1    0    0  502    0  0.00000000000E+00  0.00000000000E+00  0.10731400647E+04  0.10731400647E+04  0.00000000000E+00 0. -1.
          1   -1    0    0  501    0 -0.00000000000E+00 -0.00000000000E+00 -0.50361998168E+03  0.50361998168E+03  0.00000000000E+00 0. -1.
         25    2    1    2    0    0 -0.86525760573E+01  0.27105216375E+03 -0.20516294906E+03  0.36229921771E+03  0.12499897976E+03 0.  0.
          2    1    1    2  501    0 -0.12083026853E+02 -0.46439431756E+02 -0.20428332272E+03  0.20984350431E+03  0.00000000000E+00 0. -1.
          1    1    1    2  502    0  0.20735602910E+02 -0.22461273199E+03  0.97896635481E+03  0.10046173244E+04  0.00000000000E+00 0. -1.
         22    1    3    3    0    0 -0.21298741719E+02  0.51062686614E+02 -0.10826478861E+03  0.12158247742E+03  0.00000000000E+00 0. -1.
         22    1    3    3    0    0  0.12646165662E+02  0.21998947713E+03 -0.96898160445E+02  0.24071674028E+03  0.00000000000E+00 0. -1.
</event>
<event>
 7    1  0.6485470E-006  0.7482633E+02  0.7818608E-02  0.1383279E+00
          2   -1    0    0  502    0  0.00000000000E+00  0.00000000000E+00  0.13456884493E+04  0.13456884493E+04  0.00000000000E+00 0. -1.
          1   -1    0    0  501    0 -0.00000000000E+00 -0.00000000000E+00 -0.39640163026E+03  0.39640163026E+03  0.00000000000E+00 0. -1.
         25    2    1    2    0    0  0.25058133957E+02  0.11976696521E+03  0.73382748307E+02  0.18968946059E+03  0.12500011071E+03 0.  0.
          2    1    1    2  501    0  0.28199081013E+01 -0.73432714385E+02 -0.33364568362E+03  0.34164273389E+03  0.00000000000E+00 0. -1.
          1    1    1    2  502    0 -0.27878042058E+02 -0.46334250823E+02  0.12095497544E+04  0.12107578851E+04  0.00000000000E+00 0. -1.
         22    1    3    3    0    0 -0.12550204907E+01  0.12807305129E+03  0.90853423956E+02  0.15703065365E+03  0.00000000000E+00 0. -1.
         22    1    3    3    0    0  0.26313154447E+02 -0.83060860776E+01 -0.17470675649E+02  0.32658806937E+02  0.00000000000E+00 0. -1.
</event>
<event>
 7    1  0.6485470E-006  0.6958543E+02  0.7818608E-02  0.1402595E+00
          2   -1    0    0  502    0  0.00000000000E+00  0.00000000000E+00  0.10729678149E+03  0.10729678149E+03  0.00000000000E+00 0. -1.
          1   -1    0    0  501    0 -0.00000000000E+00 -0.00000000000E+00 -0.89275846432E+03  0.89275846432E+03  0.00000000000E+00 0. -1.
         25    2    1    2    0    0 -0.19016460309E+02  0.40374584676E+02 -0.67579055370E+03  0.68870424265E+03  0.12501571310E+03 0.  0.
          2    1    1    2  501    0 -0.48751670958E+02 -0.56173719594E+02 -0.19061238769E+03  0.20461010370E+03  0.00000000000E+00 0. -1.
          1    1    1    2  502    0  0.67768131266E+02  0.15799134918E+02  0.80941258568E+02  0.10674089946E+03  0.00000000000E+00 0. -1.
         22    1    3    3    0    0  0.98226895082E+01  0.58367925793E+02 -0.62371083496E+03  0.62651297324E+03  0.00000000000E+00 0.  1.
         22    1    3    3    0    0 -0.28839149817E+02 -0.17993341117E+02 -0.52079718741E+02  0.62191269411E+02  0.00000000000E+00 0.  1.
</event>
<event>
 7    1  0.6485470E-006  0.1728322E+03  0.7818608E-02  0.1180338E+00
          2   -1    0    0  502    0  0.00000000000E+00  0.00000000000E+00  0.25556441937E+04  0.25556441937E+04  0.00000000000E+00 0. -1.
          1   -1    0    0  501    0 -0.00000000000E+00 -0.00000000000E+00 -0.78823082680E+02  0.78823082680E+02  0.00000000000E+00 0. -1.
         25    2    1    2    0    0  0.91128223402E+02  0.21629393810E+03  0.64827897666E+03  0.70069685698E+03  0.12499213190E+03 0.  0.
          2    1    1    2  501    0 -0.15264177702E+03 -0.56005872178E+02  0.88188022861E+02  0.18496836807E+03  0.00000000000E+00 0. -1.
          1    1    1    2  502    0  0.61513553615E+02 -0.16028806592E+03  0.17403541115E+04  0.17488020513E+04  0.00000000000E+00 0. -1.
         22    1    3    3    0    0  0.30640372726E+02 -0.54803551686E+01  0.41815088553E+02  0.52128383480E+02  0.00000000000E+00 0.  1.
         22    1    3    3    0    0  0.60487850676E+02  0.22177429327E+03  0.60646388811E+03  0.64856847350E+03  0.00000000000E+00 0.  1.
</event>
<event>
 7    1  0.6485470E-006  0.2642140E+03  0.7818608E-02  0.1221654E+00
          2   -1    0    0  502    0  0.00000000000E+00  0.00000000000E+00  0.10422679916E+03  0.10422679916E+03  0.00000000000E+00 0. -1.
          1   -1    0    0  501    0 -0.00000000000E+00 -0.00000000000E+00 -0.13212283743E+04  0.13212283743E+04  0.00000000000E+00 0. -1.
         25    2    1    2    0    0  0.11312716414E+03 -0.18252429153E+03 -0.15510249890E+03  0.29290899994E+03  0.12500409919E+03 0.  0.
          2    1    1    2  501    0 -0.12163770837E+03  0.24993826459E+03 -0.10085571621E+04  0.10461607990E+04  0.00000000000E+00 0. -1.
          1    1    1    2  502    0  0.85105442214E+01 -0.67413973053E+02 -0.53341914235E+02  0.86385374572E+02  0.00000000000E+00 0. -1.
         22    1    3    3    0    0  0.11703349159E+03 -0.94102234660E+02 -0.13547354049E+03  0.20225021358E+03  0.00000000000E+00 0.  1.
         22    1    3    3    0    0 -0.39063274419E+01 -0.88422056873E+02 -0.19628958405E+02  0.90658786357E+02  0.00000000000E+00 0.  1.
</event>
<event>
 7    1  0.6485470E-006  0.8034596E+02  0.7818608E-02  0.1384341E+00
          2   -1    0    0  502    0  0.00000000000E+00  0.00000000000E+00  0.14698610536E+04  0.14698610536E+04  0.00000000000E+00 0. -1.
          1   -1    0    0  501    0 -0.00000000000E+00 -0.00000000000E+00 -0.72356307176E+02  0.72356307176E+02  0.00000000000E+00 0. -1.
         25    2    1    2    0    0  0.53310381652E+02 -0.19528226560E+02  0.65536130726E+03  0.66958706955E+03  0.12500020889E+03 0.  0.
          2    1    1    2  501    0  0.36699540982E+02  0.33851766568E+02 -0.52690122498E+02  0.72588204392E+02  0.00000000000E+00 0. -1.
          1    1    1    2  502    0 -0.90009922634E+02 -0.14323540007E+02  0.79483356171E+03  0.80004208688E+03  0.00000000000E+00 0. -1.
         22    1    3    3    0    0  0.63977559456E+02  0.16973543480E+02  0.59200599287E+03  0.59569482530E+03  0.00000000000E+00 0.  1.
         22    1    3    3    0    0 -0.10667177804E+02 -0.36501770041E+02  0.63355314391E+02  0.73892244248E+02  0.00000000000E+00 0.  1.
</event>
<event>
 7    1  0.8765461E-006  0.5050441E+02  0.7818608E-02  0.1505373E+00
          2   -1    0    0  502    0  0.00000000000E+00  0.00000000000E+00  0.10599274056E+04  0.10599274056E+04  0.00000000000E+00 0. -1.
          1   -1    0    0  501    0 -0.00000000000E+00 -0.00000000000E+00 -0.11201147994E+04  0.11201147994E+04  0.00000000000E+00 0. -1.
         25    2    1    2    0    0  0.25629433328E+02  0.50146684007E+01 -0.30480188107E+03  0.33046230335E+03  0.12497652771E+03 0.  0.
          2    1    1    2  501    0  0.21012782120E+02 -0.24528565202E+02 -0.80154695519E+03  0.80219742514E+03  0.00000000000E+00 0. -1.
          1    1    1    2  502    0 -0.46642215448E+02  0.19513896801E+02  0.10461614425E+04  0.10473824766E+04  0.00000000000E+00 0. -1.
         22    1    3    3    0    0 -0.18815678232E+01 -0.20937388911E+02 -0.28852244735E+03  0.28928725720E+03  0.00000000000E+00 0.  1.
         22    1    3    3    0    0  0.27511001151E+02  0.25952057312E+02 -0.16279433718E+02  0.41175046147E+02  0.00000000000E+00 0.  1.
</event>
<event>
 7    1  0.6485470E-006  0.7847574E+03  0.7818608E-02  0.1149696E+00
          2   -1    0    0  502    0  0.00000000000E+00  0.00000000000E+00  0.19702233169E+04  0.19702233169E+04  0.00000000000E+00 0. -1.
          1   -1    0    0  501    0 -0.00000000000E+00 -0.00000000000E+00 -0.15585806334E+04  0.15585806334E+04  0.00000000000E+00 0. -1.
         25    2    1    2    0    0 -0.45699337534E+02 -0.73619808651E+03  0.12058223043E+04  0.14190519013E+04  0.12499926813E+03 0.  0.
          2    1    1    2  501    0  0.49630141013E+02  0.78704351292E+03 -0.13436187965E+04  0.15579512549E+04  0.00000000000E+00 0. -1.
          1    1    1    2  502    0 -0.39308034796E+01 -0.50845426410E+02  0.54943917573E+03  0.55180079416E+03  0.00000000000E+00 0. -1.
         22    1    3    3    0    0  0.38169154892E+02 -0.11212388882E+03  0.19270854145E+03  0.22619733150E+03  0.00000000000E+00 0. -1.
         22    1    3    3    0    0 -0.83868492426E+02 -0.62407419768E+03  0.10131137628E+04  0.11928545698E+04  0.00000000000E+00 0. -1.
</event>
<event>
 7    1  0.6485470E-006  0.2356301E+03  0.7818608E-02  0.1274592E+00
          2   -1    0    0  502    0  0.00000000000E+00  0.00000000000E+00  0.70798561628E+03  0.70798561628E+03  0.00000000000E+00 0. -1.
          1   -1    0    0  501    0 -0.00000000000E+00 -0.00000000000E+00 -0.10277844344E+04  0.10277844344E+04  0.00000000000E+00 0. -1.
         25    2    1    2    0    0 -0.20718381370E+03  0.73249962669E+02  0.10133097213E+03  0.27236676923E+03  0.12500000551E+03 0.  0.
          2    1    1    2  501    0  0.20570472969E+03 -0.11804210760E+03 -0.92633515151E+03  0.95621398646E+03  0.00000000000E+00 0. -1.
          1    1    1    2  502    0  0.14790840077E+01  0.44792144934E+02  0.50520536125E+03  0.50718929501E+03  0.00000000000E+00 0. -1.
         22    1    3    3    0    0 -0.11871579176E+03  0.84363140997E+02  0.11038613565E+03  0.18274484320E+03  0.00000000000E+00 0. -1.
         22    1    3    3    0    0 -0.88468021940E+02 -0.11113178329E+02 -0.90551635258E+01  0.89621926028E+02  0.00000000000E+00 0. -1.
</event>
<event>
 7    1  0.6485470E-006  0.1133608E+03  0.7818608E-02  0.1256017E+00
          2   -1    0    0  502    0  0.00000000000E+00  0.00000000000E+00  0.10010551111E+03  0.10010551111E+03  0.00000000000E+00 0. -1.
          1   -1    0    0  501    0 -0.00000000000E+00 -0.00000000000E+00 -0.78935305478E+03  0.78935305478E+03  0.00000000000E+00 0. -1.
         25    2    1    2    0    0  0.51823294214E+02  0.34771231941E+02 -0.82800655731E+02  0.16240670646E+03  0.12500118927E+03 0.  0.
          2    1    1    2  501    0  0.11322394582E+03 -0.55695039707E+01 -0.53148841185E+03  0.54344329346E+03  0.00000000000E+00 0. -1.
          1    1    1    2  502    0 -0.16504724004E+03 -0.29201727970E+02 -0.74958476098E+02  0.18360856597E+03  0.00000000000E+00 0. -1.
         22    1    3    3    0    0 -0.52340411363E+01 -0.14275172201E+02 -0.85770684988E+02  0.87107899362E+02  0.00000000000E+00 0.  1.
         22    1    3    3    0    0  0.57057335350E+02  0.49046404142E+02  0.29700292574E+01  0.75298807097E+02  0.00000000000E+00 0.  1.
</event>
<event>
 7    1  0.6485470E-006  0.2998063E+02  0.7818608E-02  0.1627615E+00
          2   -1    0    0  502    0  0.00000000000E+00  0.00000000000E+00  0.21046635005E+04  0.21046635005E+04  0.00000000000E+00 0. -1.
          1   -1    0    0  501    0 -0.00000000000E+00 -0.00000000000E+00 -0.17347198808E+02  0.17347198808E+02  0.00000000000E+00 0. -1.
         25    2    1    2    0    0 -0.12136214142E+02 -0.11807239295E+02  0.75798922137E+03  0.76841257757E+03  0.12499412406E+03 0.  0.
          2    1    1    2  501    0  0.29882107301E+02 -0.60935299765E+01  0.73363044732E+01  0.31367065653E+02  0.00000000000E+00 0. -1.
          1    1    1    2  502    0 -0.17745893159E+02  0.17900769271E+02  0.13219907758E+04  0.13222310561E+04  0.00000000000E+00 0. -1.
         22    1    3    3    0    0 -0.66310285536E+02  0.10675495250E+02  0.37731746819E+03  0.38324860335E+03  0.00000000000E+00 0.  1.
         22    1    3    3    0    0  0.54174071394E+02 -0.22482734544E+02  0.38067175319E+03  0.38516397422E+03  0.00000000000E+00 0.  1.
</event>
<event>
 7    1  0.6485470E-006  0.8072714E+02  0.7818608E-02  0.1431326E+00
          2   -1    0    0  502    0  0.00000000000E+00  0.00000000000E+00  0.11779087796E+04  0.11779087796E+04  0.00000000000E+00 0. -1.
          1   -1    0    0  501    0 -0.00000000000E+00 -0.00000000000E+00 -0.33896322418E+03  0.33896322418E+03  0.00000000000E+00 0. -1.
         25    2    1    2    0    0 -0.59416024180E+01  0.55930517700E+02  0.23860902524E+03  0.27517261122E+03  0.12498869385E+03 0.  0.
          2    1    1    2  501    0  0.35822714813E+02 -0.72967069037E+02 -0.31520217526E+03  0.32551477900E+03  0.00000000000E+00 0. -1.
          1    1    1    2  502    0 -0.29881112395E+02  0.17036551337E+02  0.91553870545E+03  0.91618461357E+03  0.00000000000E+00 0. -1.
         22    1    3    3    0    0 -0.48729669193E+02  0.24243141349E+02  0.20524509164E+03  0.21233901715E+03  0.00000000000E+00 0. -1.
         22    1    3    3    0    0  0.42788066775E+02  0.31687376350E+02  0.33363933598E+02  0.62833594067E+02  0.00000000000E+00 0. -1.
</event>
<event>
 7    1  0.6485470E-006  0.8050047E+02  0.7818608E-02  0.1423779E+00
          2   -1    0    0  502    0  0.00000000000E+00  0.00000000000E+00  0.65323090546E+03  0.65323090546E+03  0.00000000000E+00 0. -1.
          1   -1    0    0  501    0 -0.00000000000E+00 -0.00000000000E+00 -0.75161137038E+02  0.75161137038E+02  0.00000000000E+00 0. -1.
         25    2    1    2    0    0  0.11423702744E+03  0.81333822608E+01  0.35839179968E+03  0.39647519109E+03  0.12502657610E+03 0.  0.
          2    1    1    2  501    0 -0.77826960962E+02 -0.51534045736E+01 -0.27007616568E+02  0.82540927933E+02  0.00000000000E+00 0. -1.
          1    1    1    2  502    0 -0.36410066474E+02 -0.29799776873E+01  0.24668558531E+03  0.24937592347E+03  0.00000000000E+00 0. -1.
         22    1    3    3    0    0  0.13477093433E+03  0.40060725217E+01  0.23179075669E+03  0.26815332972E+03  0.00000000000E+00 0.  1.
         22    1    3    3    0    0 -0.20533906895E+02  0.41273097391E+01  0.12660104299E+03  0.12832186137E+03  0.00000000000E+00 0.  1.
</event>
<event>
 7    1  0.6485470E-006  0.8126314E+02  0.7818608E-02  0.1365230E+00
          2   -1    0    0  502    0  0.00000000000E+00  0.00000000000E+00  0.28138647868E+04  0.28138647868E+04  0.00000000000E+00 0. -1.
          1   -1    0    0  501    0 -0.00000000000E+00 -0.00000000000E+00 -0.51982056933E+03  0.51982056933E+03  0.00000000000E+00 0. -1.
         25    2    1    2    0    0 -0.22445322895E+02  0.62945106588E+02  0.38085256285E+03  0.40637329214E+03  0.12499879587E+03 0.  0.
          2    1    1    2  501    0 -0.51764515603E+02 -0.25626428744E+02 -0.50469977635E+03  0.50799423538E+03  0.00000000000E+00 0. -1.
          1    1    1    2  502    0  0.74209838499E+02 -0.37318677844E+02  0.24178914310E+04  0.24193178286E+04  0.00000000000E+00 0. -1.
         22    1    3    3    0    0  0.62683045914E+01 -0.16268599128E+02  0.25084363594E+03  0.25144877938E+03  0.00000000000E+00 0. -1.
         22    1    3    3    0    0 -0.28713627487E+02  0.79213705716E+02  0.13000892691E+03  0.15492451276E+03  0.00000000000E+00 0. -1.
</event>
<event>
 7    1  0.6485470E-006  0.3817236E+02  0.7818608E-02  0.1580138E+00
          2   -1    0    0  502    0  0.00000000000E+00  0.00000000000E+00  0.16297644501E+04  0.16297644501E+04  0.00000000000E+00 0. -1.
          1   -1    0    0  501    0 -0.00000000000E+00 -0.00000000000E+00 -0.53690504066E+02  0.53690504066E+02  0.00000000000E+00 0. -1.
         25    2    1    2    0    0  0.72690613313E+01 -0.53611676176E+02  0.47284128976E+03  0.49206820311E+03  0.12500072054E+03 0.  0.
          2    1    1    2  501    0  0.13957628888E+02  0.22298313427E+02 -0.39810949869E+02  0.47717312532E+02  0.00000000000E+00 0. -1.
          1    1    1    2  502    0 -0.21226690219E+02  0.31313362750E+02  0.11430436062E+04  0.11436694385E+04  0.00000000000E+00 0. -1.
         22    1    3    3    0    0  0.55267566454E+02  0.93629992990E+01  0.16767612109E+03  0.17679776934E+03  0.00000000000E+00 0.  1.
         22    1    3    3    0    0 -0.47998505122E+02 -0.62974675475E+02  0.30516516867E+03  0.31527043378E+03  0.00000000000E+00 0.  1.
</event>
<event>
 7    1  0.6485470E-006  0.5497950E+02  0.7818608E-02  0.1427683E+00
          2   -1    0    0  502    0  0.00000000000E+00  0.00000000000E+00  0.35593579825E+04  0.35593579825E+04  0.00000000000E+00 0. -1.
          1   -1    0    0  501    0 -0.00000000000E+00 -0.00000000000E+00 -0.94736104008E+02  0.94736104008E+02  0.00000000000E+00 0. -1.
         25    2    1    2    0    0  0.10623063493E+02 -0.30360853745E-01  0.10657663153E+03  0.16460758517E+03  0.12499691318E+03 0.  0.
          2    1    1    2  501    0 -0.12610025638E+02 -0.54913221411E+02 -0.53382648272E+02  0.77615602612E+02  0.00000000000E+00 0. -1.
          1    1    1    2  502    0  0.19869621454E+01  0.54943582265E+02  0.34114278952E+04  0.34118708987E+04  0.00000000000E+00 0. -1.
         22    1    3    3    0    0 -0.30133398868E+01  0.12310042677E+02  0.13234438644E+03  0.13294981757E+03  0.00000000000E+00 0. -1.
         22    1    3    3    0    0  0.13636403380E+02 -0.12340403530E+02 -0.25767754908E+02  0.31657767600E+02  0.00000000000E+00 0. -1.
</event>
<event>
 7    1  0.6485470E-006  0.1382306E+03  0.7818608E-02  0.1231249E+00
          2   -1    0    0  502    0  0.00000000000E+00  0.00000000000E+00  0.17137343157E+04  0.17137343157E+04  0.00000000000E+00 0. -1.
          1   -1    0    0  501    0 -0.00000000000E+00 -0.00000000000E+00 -0.17833286315E+04  0.17833286315E+04  0.00000000000E+00 0. -1.
         25    2    1    2    0    0 -0.56831386070E+02 -0.35603404923E+02  0.12108491574E+03  0.18650233218E+03  0.12499661677E+03 0.  0.
          2    1    1    2  501    0  0.28737297976E+01  0.14004847138E+03 -0.17455953901E+04  0.17512067550E+04  0.00000000000E+00 0. -1.
          1    1    1    2  502    0  0.53957656272E+02 -0.10444506646E+03  0.15549161586E+04  0.15593538600E+04  0.00000000000E+00 0. -1.
         22    1    3    3    0    0  0.12277404223E+02 -0.51052161653E+02  0.99443576478E+02  0.11245480322E+03  0.00000000000E+00 0. -1.
         22    1    3    3    0    0 -0.69108790292E+02  0.15448756730E+02  0.21641339258E+02  0.74047528960E+02  0.00000000000E+00 0. -1.
</event>
<event>
 7    1  0.6485470E-006  0.5355222E+02  0.7818608E-02  0.1487802E+00
          2   -1    0    0  502    0  0.00000000000E+00  0.00000000000E+00  0.18709390582E+04  0.18709390582E+04  0.00000000000E+00 0. -1.
          1   -1    0    0  501    0 -0.00000000000E+00 -0.00000000000E+00 -0.11144163142E+04  0.11144163142E+04  0.00000000000E+00 0. -1.
         25    2    1    2    0    0  0.14882972403E+02  0.83244470874E+02  0.41202858465E+03  0.43879777288E+03  0.12499914448E+03 0.  0.
          2    1    1    2  501    0  0.37875848225E+01 -0.34179584007E+02 -0.11002863616E+04  0.11008236313E+04  0.00000000000E+00 0. -1.
          1    1    1    2  502    0 -0.18670557226E+02 -0.49064886867E+02  0.14447805210E+04  0.14457339682E+04  0.00000000000E+00 0. -1.
         22    1    3    3    0    0  0.41942001818E+02 -0.17364693163E+02  0.15332030203E+03  0.15989927799E+03  0.00000000000E+00 0.  1.
         22    1    3    3    0    0 -0.27059029415E+02  0.10060916404E+03  0.25870828261E+03  0.27889849489E+03  0.00000000000E+00 0.  1.
</event>
<event>
 7    1  0.6485470E-006  0.1085240E+03  0.7818608E-02  0.1353380E+00
          2   -1    0    0  502    0  0.00000000000E+00  0.00000000000E+00  0.47077347085E+03  0.47077347085E+03  0.00000000000E+00 0. -1.
          1   -1    0    0  501    0 -0.00000000000E+00 -0.00000000000E+00 -0.12689904944E+03  0.12689904944E+03  0.00000000000E+00 0. -1.
         25    2    1    2    0    0 -0.11410786155E+03 -0.90835779706E+02  0.93492199870E+02  0.21362909682E+03  0.12499942651E+03 0.  0.
          2    1    1    2  501    0  0.71707612902E+02  0.68799246981E+02 -0.26677469238E+02  0.10289317518E+03  0.00000000000E+00 0. -1.
          1    1    1    2  502    0  0.42400248651E+02  0.22036532725E+02  0.27705969078E+03  0.28115024829E+03  0.00000000000E+00 0. -1.
         22    1    3    3    0    0  0.13752847554E+02  0.10969613697E+02 -0.99441009852E+01  0.20207879278E+02  0.00000000000E+00 0. -1.
         22    1    3    3    0    0 -0.12786070911E+03 -0.10180539340E+03  0.10343630086E+03  0.19342121754E+03  0.00000000000E+00 0. -1.
</event>
<event>
 7    1  0.6485470E-006  0.1596584E+03  0.7818608E-02  0.1262379E+00
          2   -1    0    0  502    0  0.00000000000E+00  0.00000000000E+00  0.13250196709E+03  0.13250196709E+03  0.00000000000E+00 0. -1.
          1   -1    0    0  501    0 -0.00000000000E+00 -0.00000000000E+00 -0.11261704052E+04  0.11261704052E+04  0.00000000000E+00 0. -1.
         25    2    1    2    0    0  0.14008175103E+03  0.39845381146E+01 -0.52429991845E+03  0.55691561820E+03  0.12500331113E+03 0.  0.
          2    1    1    2  501    0  0.74152789922E+01 -0.74084617399E+02 -0.52422190066E+03  0.52948287794E+03  0.00000000000E+00 0. -1.
          1    1    1    2  502    0 -0.14749703003E+03  0.70100079285E+02  0.54853381035E+02  0.17227387612E+03  0.00000000000E+00 0. -1.
         22    1    3    3    0    0  0.16664251577E+02  0.14934426607E+02 -0.29864594309E+03  0.29948311088E+03  0.00000000000E+00 0. -1.
         22    1    3    3    0    0  0.12341749946E+03 -0.10949888492E+02 -0.22565397536E+03  0.25743250732E+03  0.00000000000E+00 0. -1.
</event>
<event>
 7    1  0.6485470E-006  0.6130330E+02  0.7818608E-02  0.1400986E+00
          2   -1    0    0  502    0  0.00000000000E+00  0.00000000000E+00  0.12679664515E+03  0.12679664515E+03  0.00000000000E+00 0. -1.
          1   -1    0    0  501    0 -0.00000000000E+00 -0.00000000000E+00 -0.68929272774E+03  0.68929272774E+03  0.00000000000E+00 0. -1.
         25    2    1    2    0    0  0.31057803429E+02  0.10230810620E+03 -0.32375749628E+03  0.36314632224E+03  0.12499919682E+03 0.  0.
          2    1    1    2  501    0 -0.38506981806E+02 -0.42398160957E+02 -0.33470304932E+03  0.33956814179E+03  0.00000000000E+00 0. -1.
          1    1    1    2  502    0  0.74491783775E+01 -0.59909945244E+02  0.95964463012E+02  0.11337490886E+03  0.00000000000E+00 0. -1.
         22    1    3    3    0    0 -0.18761384533E+01  0.93868715302E+01  0.10761520860E+02  0.14402901924E+02  0.00000000000E+00 0. -1.
         22    1    3    3    0    0  0.32933941882E+02  0.92921234671E+02 -0.33451901714E+03  0.34874342031E+03  0.00000000000E+00 0. -1.
</event>
<event>
 7    1  0.6485470E-006  0.1359320E+03  0.7818608E-02  0.1281673E+00
          2   -1    0    0  502    0  0.00000000000E+00  0.00000000000E+00  0.12598437374E+04  0.12598437374E+04  0.00000000000E+00 0. -1.
          1   -1    0    0  501    0 -0.00000000000E+00 -0.00000000000E+00 -0.81801674038E+02  0.81801674038E+02  0.00000000000E+00 0. -1.
         25    2    1    2    0    0  0.12190474873E+02 -0.10699791187E+03  0.69664543226E+02  0.17909426274E+03  0.12499778214E+03 0.  0.
          2    1    1    2  501    0  0.72511422310E+02 -0.37834307520E+01  0.35817849610E+02  0.80963813302E+02  0.00000000000E+00 0. -1.
          1    1    1    2  502    0 -0.84701897183E+02  0.11078134262E+03  0.10725596705E+04  0.10815873354E+04  0.00000000000E+00 0. -1.
         22    1    3    3    0    0  0.44424603914E+01 -0.37584346030E+02 -0.36130504385E+02  0.52323339610E+02  0.00000000000E+00 0. -1.
         22    1    3    3    0    0  0.77480144815E+01 -0.69413565840E+02  0.10579504761E+03  0.12677092313E+03  0.00000000000E+00 0. -1.
</event>
<event>
 7    1  0.6485470E-006  0.1320615E+03  0.7818608E-02  0.1243424E+00
          2   -1    0    0  502    0  0.00000000000E+00  0.00000000000E+00  0.91831543164E+03  0.91831543164E+03  0.00000000000E+00 0. -1.
          1   -1    0    0  501    0 -0.00000000000E+00 -0.00000000000E+00 -0.22105552274E+03  0.22105552274E+03  0.00000000000E+00 0. -1.
         25    2    1    2    0    0  0.61398189252E+01  0.20970569767E+03  0.19850885694E+03  0.31471522820E+03  0.12500292622E+03 0.  0.
          2    1    1    2  501    0  0.49104310198E+02 -0.11611302861E+03 -0.13321582988E+03  0.18341190262E+03  0.00000000000E+00 0. -1.
          1    1    1    2  502    0 -0.55244129123E+02 -0.93592669069E+02  0.63196688184E+03  0.64124382356E+03  0.00000000000E+00 0. -1.
         22    1    3    3    0    0  0.16199632471E+02  0.79584944082E+02  0.15869174830E+03  0.17826739017E+03  0.00000000000E+00 0. -1.
         22    1    3    3    0    0 -0.10059813545E+02  0.13012075359E+03  0.39817108634E+02  0.13644783803E+03  0.00000000000E+00 0. -1.
</event>
<event>
 7    1  0.6485470E-006  0.3838860E+02  0.7818608E-02  0.1521046E+00
          2   -1    0    0  502    0  0.00000000000E+00  0.00000000000E+00  0.15162553328E+03  0.15162553328E+03  0.00000000000E+00 0. -1.
          1   -1    0    0  501    0 -0.00000000000E+00 -0.00000000000E+00 -0.36618338686E+03  0.36618338686E+03  0.00000000000E+00 0. -1.
         25    2    1    2    0    0 -0.18778346995E+02  0.31072594656E+00 -0.67225344692E+02  0.14316899513E+03  0.12500156532E+03 0.  0.
          2    1    1    2  501    0  0.74568648142E+01  0.37492980187E+02 -0.25609871936E+03  0.25893605862E+03  0.00000000000E+00 0. -1.
          1    1    1    2  502    0  0.11321482181E+02 -0.37803706133E+02  0.10876621047E+03  0.11570386638E+03  0.00000000000E+00 0. -1.
         22    1    3    3    0    0 -0.70982854841E+02 -0.10579685492E+01 -0.54284156866E+02  0.89366966299E+02  0.00000000000E+00 0.  1.
         22    1    3    3    0    0  0.52204507846E+02  0.13686944958E+01 -0.12941187827E+02  0.53802028832E+02  0.00000000000E+00 0.  1.
</event>
<event>
 7    1  0.6485470E-006  0.2002154E+03  0.7818608E-02  0.1212512E+00
          2   -1    0    0  502    0  0.00000000000E+00  0.00000000000E+00  0.67254994484E+03  0.67254994484E+03  0.00000000000E+00 0. -1.
          1   -1    0    0  501    0 -0.00000000000E+00 -0.00000000000E+00 -0.20820287062E+03  0.20820287062E+03  0.00000000000E+00 0. -1.
         25    2    1    2    0    0  0.15170440826E+03 -0.23091093661E+03  0.33212721990E+03  0.44974160606E+03  0.12499973556E+03 0.  0.
          2    1    1    2  501    0 -0.13240931950E+03  0.13406681612E+03 -0.73942834072E+02  0.20241956868E+03  0.00000000000E+00 0. -1.
          1    1    1    2  502    0 -0.19295088758E+02  0.96844120490E+02  0.20616268839E+03  0.22859164072E+03  0.00000000000E+00 0. -1.
         22    1    3    3    0    0  0.69126172327E+01 -0.11308862822E+03  0.15829666185E+03  0.19466549582E+03  0.00000000000E+00 0. -1.
         22    1    3    3    0    0  0.14479179102E+03 -0.11782230838E+03  0.17383055805E+03  0.25507611024E+03  0.00000000000E+00 0. -1.
</event>
<event>
 7    1  0.6485470E-006  0.1143081E+03  0.7818608E-02  0.1274808E+00
          2   -1    0    0  502    0  0.00000000000E+00  0.00000000000E+00  0.24256465071E+04  0.24256465071E+04  0.00000000000E+00 0. -1.
          1   -1    0    0  501    0 -0.00000000000E+00 -0.00000000000E+00 -0.12995490404E+03  0.12995490404E+03  0.00000000000E+00 0. -1.
         25    2    1    2    0    0  0.98228526647E+02  0.67761113765E+02  0.42778817510E+03  0.46137776278E+03  0.12500522090E+03 0.  0.
          2    1    1    2  501    0 -0.78793346270E+02  0.47862756183E+02 -0.92336264004E+02  0.13048072845E+03  0.00000000000E+00 0. -1.
          1    1    1    2  502    0 -0.19435180377E+02 -0.11562386995E+03  0.19602396919E+04  0.19637429199E+04  0.00000000000E+00 0. -1.
         22    1    3    3    0    0  0.77002991939E+01 -0.23007574778E+02  0.18720606836E+03  0.18877170109E+03  0.00000000000E+00 0.  1.
         22    1    3    3    0    0  0.90528227453E+02  0.90768688542E+02  0.24058210674E+03  0.27260606169E+03  0.00000000000E+00 0.  1.
</event>
<event>
 7    1  0.6485470E-006  0.9362198E+02  0.7818608E-02  0.1406175E+00
          2   -1    0    0  502    0  0.00000000000E+00  0.00000000000E+00  0.67033266067E+03  0.67033266067E+03  0.00000000000E+00 0. -1.
          1   -1    0    0  501    0 -0.00000000000E+00 -0.00000000000E+00 -0.81051840938E+02  0.81051840938E+02  0.00000000000E+00 0. -1.
         25    2    1    2    0    0  0.95246240866E+02  0.53541762893E+02  0.44803552537E+02  0.17196474829E+03  0.12500379819E+03 0.  0.
          2    1    1    2  501    0 -0.77723445446E+02 -0.22092548974E+02  0.80535415166E+02  0.11408316172E+03  0.00000000000E+00 0. -1.
          1    1    1    2  502    0 -0.17522795420E+02 -0.31449213919E+02  0.46394185203E+03  0.46533659160E+03  0.00000000000E+00 0. -1.
         22    1    3    3    0    0  0.64290169669E+02  0.16432736281E+02 -0.37722977851E+02  0.76330097574E+02  0.00000000000E+00 0. -1.
         22    1    3    3    0    0  0.30956071197E+02  0.37109026612E+02  0.82526530388E+02  0.95634650718E+02  0.00000000000E+00 0. -1.
</event>
<event>
 7    1  0.6485470E-006  0.4614119E+02  0.7818608E-02  0.1525438E+00
          2   -1    0    0  502    0  0.00000000000E+00  0.00000000000E+00  0.75695755282E+03  0.75695755282E+03  0.00000000000E+00 0. -1.
          1   -1    0    0  501    0 -0.00000000000E+00 -0.00000000000E+00 -0.53673793850E+03  0.53673793850E+03  0.00000000000E+00 0. -1.
         25    2    1    2    0    0  0.31697603834E+02  0.12812891207E+02  0.30386768111E+03  0.33034785014E+03  0.12500090479E+03 0.  0.
          2    1    1    2  501    0 -0.20287416927E+02 -0.41516038986E+02 -0.52193360577E+03  0.52397504674E+03  0.00000000000E+00 0. -1.
          1    1    1    2  502    0 -0.11410186907E+02  0.28703147779E+02  0.43828553899E+03  0.43937259444E+03  0.00000000000E+00 0. -1.
         22    1    3    3    0    0  0.30133343484E+02 -0.28273147306E+02  0.24640337533E+02  0.48109619431E+02  0.00000000000E+00 0. -1.
         22    1    3    3    0    0  0.15642603502E+01  0.41086038513E+02  0.27922734358E+03  0.28223823071E+03  0.00000000000E+00 0. -1.
</event>
<event>
 7    1  0.6485470E-006  0.8976242E+02  0.7818608E-02  0.1430563E+00
          2   -1    0    0  502    0  0.00000000000E+00  0.00000000000E+00  0.13038509434E+03  0.13038509434E+03  0.00000000000E+00 0. -1.
          1   -1    0    0  501    0 -0.00000000000E+00 -0.00000000000E+00 -0.12741174646E+04  0.12741174646E+04  0.00000000000E+00 0. -1.
         25    2    1    2    0    0 -0.23035331903E+02 -0.10797288635E+03 -0.10574707972E+03  0.19747398273E+03  0.12499903313E+03 0.  0.
          2    1    1    2  501    0  0.37866444280E+02  0.80621586831E+02 -0.11178107191E+04  0.11213538744E+04  0.00000000000E+00 0. -1.
          1    1    1    2  502    0 -0.14831112377E+02  0.27351299519E+02  0.79825428584E+02  0.85674701799E+02  0.00000000000E+00 0. -1.
         22    1    3    3    0    0 -0.72521415446E+02 -0.67288604707E+02 -0.43233731045E+02  0.10796419555E+03  0.00000000000E+00 0.  1.
         22    1    3    3    0    0  0.49486083544E+02 -0.40684281643E+02 -0.62513348672E+02  0.89509787171E+02  0.00000000000E+00 0.  1.
</event>
<event>
 7    1  0.6485470E-006  0.4601918E+02  0.7818608E-02  0.1550866E+00
          2   -1    0    0  502    0  0.00000000000E+00  0.00000000000E+00  0.18264954118E+03  0.18264954118E+03  0.00000000000E+00 0. -1.
          1   -1    0    0  501    0 -0.00000000000E+00 -0.00000000000E+00 -0.73044791005E+03  0.73044791005E+03  0.00000000000E+00 0. -1.
         25    2    1    2    0    0 -0.29915625358E+02  0.20064300099E+01 -0.27871861512E+03  0.30693347644E+03  0.12500048857E+03 0.  0.
          2    1    1    2  501    0  0.43172413041E+02  0.20632395065E+02 -0.43528192631E+03  0.43790399444E+03  0.00000000000E+00 0. -1.
          1    1    1    2  502    0 -0.13256787683E+02 -0.22638825075E+02  0.16620217256E+03  0.16825998035E+03  0.00000000000E+00 0. -1.
         22    1    3    3    0    0 -0.40545696048E+02  0.56052015717E+02 -0.11507410670E+03  0.13426776220E+03  0.00000000000E+00 0. -1.
         22    1    3    3    0    0  0.10630070690E+02 -0.54045585707E+02 -0.16364450842E+03  0.17266571424E+03  0.00000000000E+00 0. -1.
</event>
<event>
 7    1  0.6485470E-006  0.4323844E+02  0.7818608E-02  0.1521351E+00
          2   -1    0    0  502    0  0.00000000000E+00  0.00000000000E+00  0.13831049773E+04  0.13831049773E+04  0.00000000000E+00 0. -1.
          1   -1    0    0  501    0 -0.00000000000E+00 -0.00000000000E+00 -0.13502336839E+02  0.13502336839E+02  0.00000000000E+00 0. -1.
         25    2    1    2    0    0 -0.29034784153E+02 -0.30299911536E+02  0.80663988086E+03  0.81734577431E+03  0.12500045621E+03 0.  0.
          2    1    1    2  501    0 -0.16409114148E+02  0.29630274118E+02  0.32783327943E+02  0.47137657584E+02  0.00000000000E+00 0. -1.
          1    1    1    2  502    0  0.45443898300E+02  0.66963741736E+00  0.53017943165E+03  0.53212388224E+03  0.00000000000E+00 0. -1.
         22    1    3    3    0    0  0.17913168458E+02 -0.12454216298E+02  0.69008730475E+03  0.69043209463E+03  0.00000000000E+00 0. -1.
         22    1    3    3    0    0 -0.46947952610E+02 -0.17845695238E+02  0.11655257611E+03  0.12691367968E+03  0.00000000000E+00 0. -1.
</event>
<event>
 7    1  0.6485470E-006  0.6700268E+02  0.7818608E-02  0.1378263E+00
          2   -1    0    0  502    0  0.00000000000E+00  0.00000000000E+00  0.61840899545E+03  0.61840899545E+03  0.00000000000E+00 0. -1.
          1   -1    0    0  501    0 -0.00000000000E+00 -0.00000000000E+00 -0.22676829199E+03  0.22676829199E+03  0.00000000000E+00 0. -1.
         25    2    1    2    0    0 -0.33256876062E+02 -0.92549606190E+02 -0.93963929678E+02  0.18473183542E+03  0.12500072609E+03 0.  0.
          2    1    1    2  501    0 -0.20353921111E+02  0.59638285116E+02 -0.74068610451E+02  0.97247962499E+02  0.00000000000E+00 0. -1.
          1    1    1    2  502    0  0.53610797172E+02  0.32911321074E+02  0.55967324359E+03  0.56319748953E+03  0.00000000000E+00 0. -1.
         22    1    3    3    0    0 -0.33299652234E+02 -0.21971086143E+02 -0.10588705450E+03  0.11315327559E+03  0.00000000000E+00 0.  1.
         22    1    3    3    0    0  0.42776171697E-01 -0.70578520046E+02  0.11923124822E+02  0.71578559830E+02  0.00000000000E+00 0.  1.
</event>
<event>
 7    1  0.6485470E-006  0.5333166E+02  0.7818608E-02  0.1479440E+00
          2   -1    0    0  502    0  0.00000000000E+00  0.00000000000E+00  0.12198386453E+03  0.12198386453E+03  0.00000000000E+00 0. -1.
          1   -1    0    0  501    0 -0.00000000000E+00 -0.00000000000E+00 -0.26485384444E+03  0.26485384444E+03  0.00000000000E+00 0. -1.
         25    2    1    2    0    0 -0.98289115754E+01 -0.30911869339E+02  0.30968179755E+02  0.13280538710E+03  0.12500436599E+03 0.  0.
          2    1    1    2  501    0 -0.21240576070E+02  0.50297557236E+02 -0.20109867051E+03  0.20837869761E+03  0.00000000000E+00 0. -1.
          1    1    1    2  502    0  0.31069487645E+02 -0.19385687897E+02  0.27260510837E+02  0.45653624269E+02  0.00000000000E+00 0. -1.
         22    1    3    3    0    0  0.16072719658E+02 -0.19050738761E+02  0.75741448661E+02  0.79737256097E+02  0.00000000000E+00 0. -1.
         22    1    3    3    0    0 -0.25901631233E+02 -0.11861130578E+02 -0.44773268907E+02  0.53068130999E+02  0.00000000000E+00 0. -1.
</event>
<event>
 7    1  0.6485470E-006  0.1159522E+03  0.7818608E-02  0.1368997E+00
          2   -1    0    0  502    0  0.00000000000E+00  0.00000000000E+00  0.17012115919E+04  0.17012115919E+04  0.00000000000E+00 0. -1.
          1   -1    0    0  501    0 -0.00000000000E+00 -0.00000000000E+00 -0.98673003357E+03  0.98673003357E+03  0.00000000000E+00 0. -1.
         25    2    1    2    0    0  0.17092835291E+02 -0.91162927376E+02  0.35219022120E+03  0.38505259141E+03  0.12499880757E+03 0.  0.
          2    1    1    2  501    0  0.13762635032E+02  0.11539332446E+03 -0.96652869236E+03  0.97348998075E+03  0.00000000000E+00 0. -1.
          1    1    1    2  502    0 -0.30855470323E+02 -0.24230397081E+02  0.13288200295E+04  0.13293990533E+04  0.00000000000E+00 0. -1.
         22    1    3    3    0    0  0.28271356901E+01  0.24567501372E+02  0.14681446634E+03  0.14888264622E+03  0.00000000000E+00 0. -1.
         22    1    3    3    0    0  0.14265699601E+02 -0.11573042875E+03  0.20537575487E+03  0.23616994519E+03  0.00000000000E+00 0. -1.
</event>
<event>
 7    1  0.6485470E-006  0.1336601E+03  0.7818608E-02  0.1283338E+00
          2   -1    0    0  502    0  0.00000000000E+00  0.00000000000E+00  0.16622224740E+04  0.16622224740E+04  0.00000000000E+00 0. -1.
          1   -1    0    0  501    0 -0.00000000000E+00 -0.00000000000E+00 -0.15222916076E+03  0.15222916076E+03  0.00000000000E+00 0. -1.
         25    2    1    2    0    0 -0.19040949576E+03 -0.26148888026E+02  0.22703537948E+03  0.32265983900E+03  0.12499907099E+03 0.  0.
          2    1    1    2  501    0  0.11917550390E+03  0.40615776814E+02 -0.65123866241E+02  0.14175175487E+03  0.00000000000E+00 0. -1.
          1    1    1    2  502    0  0.71233991868E+02 -0.14466888789E+02  0.13480818000E+04  0.13500400409E+04  0.00000000000E+00 0. -1.
         22    1    3    3    0    0 -0.46796720244E+02  0.36473247440E+02  0.11707461909E+03  0.13125051329E+03  0.00000000000E+00 0.  1.
         22    1    3    3    0    0 -0.14361277552E+03 -0.62622135466E+02  0.10996076038E+03  0.19140932570E+03  0.00000000000E+00 0.  1.
</event>
<event>
 7    1  0.6485470E-006  0.4671805E+02  0.7818608E-02  0.1502704E+00
          2   -1    0    0  502    0  0.00000000000E+00  0.00000000000E+00  0.25400722648E+04  0.25400722648E+04  0.00000000000E+00 0. -1.
          1   -1    0    0  501    0 -0.00000000000E+00 -0.00000000000E+00 -0.25550192835E+03  0.25550192835E+03  0.00000000000E+00 0. -1.
         25    2    1    2    0    0  0.74625354414E+02 -0.25986449860E+02  0.27697459906E+03  0.31398048910E+03  0.12499831965E+03 0.  0.
          2    1    1    2  501    0 -0.46263587064E+02  0.45376517201E+01 -0.23457720116E+03  0.23913881550E+03  0.00000000000E+00 0. -1.
          1    1    1    2  502    0 -0.28361767350E+02  0.21448798140E+02  0.22421729386E+04  0.22424548886E+04  0.00000000000E+00 0. -1.
         22    1    3    3    0    0  0.10865367125E+03 -0.21697883250E+02  0.23472963622E+03  0.25956583083E+03  0.00000000000E+00 0.  1.
         22    1    3    3    0    0 -0.34028316831E+02 -0.42885666099E+01  0.42244962843E+02  0.54414658278E+02  0.00000000000E+00 0.  1.
</event>
<event>
 7    1  0.6485470E-006  0.1140300E+03  0.7818608E-02  0.1271176E+00
          2   -1    0    0  502    0  0.00000000000E+00  0.00000000000E+00  0.18975774215E+03  0.18975774215E+03  0.00000000000E+00 0. -1.
          1   -1    0    0  501    0 -0.00000000000E+00 -0.00000000000E+00 -0.24838522305E+03  0.24838522305E+03  0.00000000000E+00 0. -1.
         25    2    1    2    0    0  0.48203565895E+02  0.61458131039E+02  0.27338461015E+02  0.14991129940E+03  0.12500128240E+03 0.  0.
          2    1    1    2  501    0  0.71715194167E+02  0.63371978607E+02 -0.60622069331E+02  0.11328774001E+03  0.00000000000E+00 0. -1.
          1    1    1    2  502    0 -0.11991876006E+03 -0.12483010965E+03 -0.25343872582E+02  0.17494392578E+03  0.00000000000E+00 0. -1.
         22    1    3    3    0    0 -0.81132649103E+01 -0.34262055487E+02  0.14630725965E+02  0.38128357635E+02  0.00000000000E+00 0. -1.
         22    1    3    3    0    0  0.56316830805E+02  0.95720186526E+02  0.12707735050E+02  0.11178294177E+03  0.00000000000E+00 0. -1.
</event>
<event>
 7    1  0.6485470E-006  0.7471203E+02  0.7818608E-02  0.1472352E+00
          2   -1    0    0  502    0  0.00000000000E+00  0.00000000000E+00  0.41626468252E+03  0.41626468252E+03  0.00000000000E+00 0. -1.
          1   -1    0    0  501    0 -0.00000000000E+00 -0.00000000000E+00 -0.26639537259E+03  0.26639537259E+03  0.00000000000E+00 0. -1.
         25    2    1    2    0    0 -0.10077091309E+03 -0.26508603646E+01  0.10706271398E+03  0.19300375317E+03  0.12500488001E+03 0.  0.
          2    1    1    2  501    0  0.73636516118E+02 -0.17646709547E+01 -0.21660796517E+03  0.22878911937E+03  0.00000000000E+00 0. -1.
          1    1    1    2  502    0  0.27134396970E+02  0.44155313193E+01  0.25941456113E+03  0.26086718257E+03  0.00000000000E+00 0. -1.
         22    1    3    3    0    0 -0.96026542235E+02 -0.27969044091E+02  0.19720644994E+02  0.10194247437E+03  0.00000000000E+00 0.  1.
         22    1    3    3    0    0 -0.47443708528E+01  0.25318183726E+02  0.87342068984E+02  0.91061278799E+02  0.00000000000E+00 0.  1.
</event>
<event>
 7    1  0.6485470E-006  0.5483678E+02  0.7818608E-02  0.1485454E+00
          2   -1    0    0  502    0  0.00000000000E+00  0.00000000000E+00  0.81224657122E+03  0.81224657122E+03  0.00000000000E+00 0. -1.
          1   -1    0    0  501    0 -0.00000000000E+00 -0.00000000000E+00 -0.11238607486E+03  0.11238607486E+03  0.00000000000E+00 0. -1.
         25    2    1    2    0    0 -0.39573425902E+02 -0.74156094871E+02  0.35779623785E+03  0.38821184051E+03  0.12500041142E+03 0.  0.
          2    1    1    2  501    0  0.13012980636E+02  0.52707159915E+02 -0.88867717562E+02  0.10413862682E+03  0.00000000000E+00 0. -1.
          1    1    1    2  502    0  0.26560445266E+02  0.21448934956E+02  0.43093197607E+03  0.43228217875E+03  0.00000000000E+00 0. -1.
         22    1    3    3    0    0  0.35931999361E+02  0.96987087108E+01  0.74766452827E+02  0.83517638838E+02  0.00000000000E+00 0.  1.
         22    1    3    3    0    0 -0.75505425263E+02 -0.83854803582E+02  0.28302978502E+03  0.30469420168E+03  0.00000000000E+00 0.  1.
</event>
<event>
 7    1  0.6485470E-006  0.9684396E+02  0.7818608E-02  0.1301680E+00
          2   -1    0    0  502    0  0.00000000000E+00  0.00000000000E+00  0.10164096825E+04  0.10164096825E+04  0.00000000000E+00 0. -1.
          1   -1    0    0  501    0 -0.00000000000E+00 -0.00000000000E+00 -0.83413097447E+02  0.83413097447E+02  0.00000000000E+00 0. -1.
         25    2    1    2    0    0  0.83588594942E+02  0.33025520711E+02  0.51684010800E+03  0.53928321327E+03  0.12499979464E+03 0.  0.
          2    1    1    2  501    0 -0.85302873877E+02  0.51501991251E+02 -0.31861272392E+02  0.10461441618E+03  0.00000000000E+00 0. -1.
          1    1    1    2  502    0  0.17142789355E+01 -0.84527511962E+02  0.44801774940E+03  0.45592515045E+03  0.00000000000E+00 0. -1.
         22    1    3    3    0    0  0.77085184784E+02  0.20298200723E+02  0.13216655076E+03  0.15434422505E+03  0.00000000000E+00 0. -1.
         22    1    3    3    0    0  0.65034101580E+01  0.12727319988E+02  0.38467355724E+03  0.38493898822E+03  0.00000000000E+00 0. -1.
</event>
<event>
 7    1  0.6485470E-006  0.1071181E+03  0.7818608E-02  0.1325691E+00
          2   -1    0    0  502    0  0.00000000000E+00  0.00000000000E+00  0.26354630259E+03  0.26354630259E+03  0.00000000000E+00 0. -1.
          1   -1    0    0  501    0 -0.00000000000E+00 -0.00000000000E+00 -0.10269543300E+04  0.10269543300E+04  0.00000000000E+00 0. -1.
         25    2    1    2    0    0  0.11795399985E+03 -0.65025679271E+02 -0.35401579294E+03  0.39886627635E+03  0.12500255880E+03 0.  0.
          2    1    1    2  501    0 -0.10392106562E+03  0.50995784829E+01 -0.64233022819E+03  0.65070247858E+03  0.00000000000E+00 0. -1.
          1    1    1    2  502    0 -0.14032934227E+02  0.59926100788E+02  0.23293799367E+03  0.24093187771E+03  0.00000000000E+00 0. -1.
         22    1    3    3    0    0  0.58609491950E+02 -0.23336980842E+02 -0.30470380302E+03  0.31116570312E+03  0.00000000000E+00 0.  1.
         22    1    3    3    0    0  0.59344507898E+02 -0.41688698429E+02 -0.49311989923E+02  0.87700573228E+02  0.00000000000E+00 0.  1.
</event>
<event>
 7    1  0.6485470E-006  0.9849357E+02  0.7818608E-02  0.1328262E+00
          2   -1    0    0  502    0  0.00000000000E+00  0.00000000000E+00  0.98092352839E+03  0.98092352839E+03  0.00000000000E+00 0. -1.
          1   -1    0    0  501    0 -0.00000000000E+00 -0.00000000000E+00 -0.25841756275E+03  0.25841756275E+03  0.00000000000E+00 0. -1.
         25    2    1    2    0    0  0.13040456774E+03  0.67407963383E+02  0.47137992622E+03  0.50928721537E+03  0.12500099235E+03 0.  0.
          2    1    1    2  501    0 -0.65051224962E+02 -0.70557134854E+01 -0.23084645716E+03  0.23994068380E+03  0.00000000000E+00 0. -1.
          1    1    1    2  502    0 -0.65353342773E+02 -0.60352249898E+02  0.48197249658E+03  0.49011319196E+03  0.00000000000E+00 0. -1.
         22    1    3    3    0    0  0.44535745773E+02 -0.33818328769E+02  0.19197064838E+03  0.19994959828E+03  0.00000000000E+00 0.  1.
         22    1    3    3    0    0  0.85868821962E+02  0.10122629215E+03  0.27940927784E+03  0.30933761710E+03  0.00000000000E+00 0.  1.
</event>
<event>
 7    1  0.6485470E-006  0.7801668E+02  0.7818608E-02  0.1360356E+00
          2   -1    0    0  502    0  0.00000000000E+00  0.00000000000E+00  0.76733436928E+03  0.76733436928E+03  0.00000000000E+00 0. -1.
          1   -1    0    0  501    0 -0.00000000000E+00 -0.00000000000E+00 -0.60110687186E+02  0.60110687186E+02  0.00000000000E+00 0. -1.
         25    2    1    2    0    0 -0.11526299983E+03  0.63110590404E+01  0.29049214961E+03  0.33665441202E+03  0.12500046219E+03 0.  0.
          2    1    1    2  501    0  0.62842909256E+02 -0.40654645286E+02  0.57595457315E+01  0.75067994473E+02  0.00000000000E+00 0. -1.
          1    1    1    2  502    0  0.52420090572E+02  0.34343586246E+02  0.41097198675E+03  0.41572264998E+03  0.00000000000E+00 0. -1.
         22    1    3    3    0    0 -0.95994048348E+02  0.23662546327E+02  0.87541861624E+02  0.13205434848E+03  0.00000000000E+00 0.  1.
         22    1    3    3    0    0 -0.19268951480E+02 -0.17351487286E+02  0.20295028799E+03  0.20460006353E+03  0.00000000000E+00 0.  1.
</event>
<event>
 7    1  0.6485470E-006  0.1237264E+03  0.7818608E-02  0.1334695E+00
          2   -1    0    0  502    0  0.00000000000E+00  0.00000000000E+00  0.31786062248E+04  0.31786062248E+04  0.00000000000E+00 0. -1.
          1   -1    0    0  501    0 -0.00000000000E+00 -0.00000000000E+00 -0.19999638525E+04  0.19999638525E+04  0.00000000000E+00 0. -1.
         25    2    1    2    0    0  0.38356712623E+02 -0.81925822455E+02 -0.12045799915E+02  0.15476750394E+03  0.12499920477E+03 0.  0.
          2    1    1    2  501    0 -0.87000217304E+02  0.89494144525E+02 -0.19143298203E+04  0.19183943548E+04  0.00000000000E+00 0. -1.
          1    1    1    2  502    0  0.48643504681E+02 -0.75683220704E+01  0.31050179925E+04  0.31054082185E+04  0.00000000000E+00 0. -1.
         22    1    3    3    0    0  0.23220784754E+02 -0.10107282986E+03  0.28403310675E+02  0.10752520560E+03  0.00000000000E+00 0. -1.
         22    1    3    3    0    0  0.15135927869E+02  0.19147007409E+02 -0.40449110590E+02  0.47242298343E+02  0.00000000000E+00 0. -1.
</event>
<event>
 7    1  0.6485470E-006  0.4786623E+02  0.7818608E-02  0.1496308E+00
          2   -1    0    0  502    0  0.00000000000E+00  0.00000000000E+00  0.30233356740E+02  0.30233356740E+02  0.00000000000E+00 0. -1.
          1   -1    0    0  501    0 -0.00000000000E+00 -0.00000000000E+00 -0.10561268466E+04  0.10561268466E+04  0.00000000000E+00 0. -1.
         25    2    1    2    0    0  0.22430413791E+02  0.88414348592E+01 -0.14740677796E+03  0.19476960388E+03  0.12500058390E+03 0.  0.
          2    1    1    2  501    0 -0.19015590876E+02 -0.44946619387E+02 -0.82795295525E+03  0.82939006951E+03  0.00000000000E+00 0. -1.
          1    1    1    2  502    0 -0.34148229155E+01  0.36105184528E+02 -0.50533756657E+02  0.62200529959E+02  0.00000000000E+00 0. -1.
         22    1    3    3    0    0  0.18051523767E+02  0.20691947865E+02 -0.16820680959E+03  0.17043340344E+03  0.00000000000E+00 0. -1.
         22    1    3    3    0    0  0.43788900238E+01 -0.11850513006E+02  0.20800031626E+02  0.24336200442E+02  0.00000000000E+00 0. -1.
</event>
<event>
 7    1  0.6485470E-006  0.1320659E+03  0.7818608E-02  0.1257439E+00
          2   -1    0    0  502    0  0.00000000000E+00  0.00000000000E+00  0.14251548596E+03  0.14251548596E+03  0.00000000000E+00 0. -1.
          1   -1    0    0  501    0 -0.00000000000E+00 -0.00000000000E+00 -0.24206824014E+04  0.24206824014E+04  0.00000000000E+00 0. -1.
         25    2    1    2    0    0 -0.22402329157E+02 -0.57055579175E+02 -0.14385699459E+03  0.20019359631E+03  0.12500175056E+03 0.  0.
          2    1    1    2  501    0 -0.60562118278E+02 -0.72528195687E+02 -0.21954154305E+04  0.21974478428E+04  0.00000000000E+00 0. -1.
          1    1    1    2  502    0  0.82964447435E+02  0.12958377486E+03  0.61105509658E+02  0.16555644825E+03  0.00000000000E+00 0. -1.
         22    1    3    3    0    0 -0.28247993588E+02 -0.54385407062E+02 -0.16609777822E+03  0.17704291449E+03  0.00000000000E+00 0.  1.
         22    1    3    3    0    0  0.58456644313E+01 -0.26701721130E+01  0.22240783631E+02  0.23150681810E+02  0.00000000000E+00 0.  1.
</event>
<event>
 7    1  0.6485470E-006  0.4626066E+02  0.7818608E-02  0.1545542E+00
          2   -1    0    0  502    0  0.00000000000E+00  0.00000000000E+00  0.74103321201E+03  0.74103321201E+03  0.00000000000E+00 0. -1.
          1   -1    0    0  501    0 -0.00000000000E+00 -0.00000000000E+00 -0.56570396424E+02  0.56570396424E+02  0.00000000000E+00 0. -1.
         25    2    1    2    0    0 -0.49210442737E+02 -0.38863936658E+02  0.96749723495E+02  0.17004428764E+03  0.12498990966E+03 0.  0.
          2    1    1    2  501    0  0.41935936657E+02  0.12854253375E+02  0.49155812378E+01  0.44136351821E+02  0.00000000000E+00 0. -1.
          1    1    1    2  502    0  0.72745060798E+01  0.26009683283E+02  0.58279751085E+03  0.58342296897E+03  0.00000000000E+00 0. -1.
         22    1    3    3    0    0 -0.54183729589E+02 -0.66690807209E+02  0.10936975651E+03  0.13908732494E+03  0.00000000000E+00 0.  1.
         22    1    3    3    0    0  0.49732868518E+01  0.27826870551E+02 -0.12620033017E+02  0.30956962708E+02  0.00000000000E+00 0.  1.
</event>
<event>
 7    1  0.6485470E-006  0.6706487E+02  0.7818608E-02  0.1384063E+00
          2   -1    0    0  502    0  0.00000000000E+00  0.00000000000E+00  0.24276885657E+04  0.24276885657E+04  0.00000000000E+00 0. -1.
          1   -1    0    0  501    0 -0.00000000000E+00 -0.00000000000E+00 -0.17942006000E+04  0.17942006000E+04  0.00000000000E+00 0. -1.
         25    2    1    2    0    0 -0.11888676219E+02 -0.72996310519E+02  0.14471336629E+03  0.20501936935E+03  0.12498472488E+03 0.  0.
          2    1    1    2  501    0  0.57697893387E+02  0.34324642565E+02 -0.17630097475E+04  0.17642875610E+04  0.00000000000E+00 0. -1.
          1    1    1    2  502    0 -0.45809217169E+02  0.38671667953E+02  0.22517843469E+04  0.22525822354E+04  0.00000000000E+00 0. -1.
         22    1    3    3    0    0  0.70560775502E+01 -0.10001425883E+03  0.66995236987E+02  0.12058607705E+03  0.00000000000E+00 0. -1.
         22    1    3    3    0    0 -0.18944753769E+02  0.27017948311E+02  0.77718129302E+02  0.84433292299E+02  0.00000000000E+00 0. -1.
</event>
<event>
 7    1  0.6485470E-006  0.2195921E+03  0.7818608E-02  0.1233066E+00
          2   -1    0    0  502    0  0.00000000000E+00  0.00000000000E+00  0.46536445184E+03  0.46536445184E+03  0.00000000000E+00 0. -1.
          1   -1    0    0  501    0 -0.00000000000E+00 -0.00000000000E+00 -0.12613094356E+04  0.12613094356E+04  0.00000000000E+00 0. -1.
         25    2    1    2    0    0 -0.22487470237E+03  0.13138364620E+02 -0.28784716460E+03  0.38629135402E+03  0.12499508644E+03 0.  0.
          2    1    1    2  501    0  0.20947584764E+02  0.69545343694E+02 -0.89357299538E+03  0.89651996866E+03  0.00000000000E+00 0. -1.
          1    1    1    2  502    0  0.20392711761E+03 -0.82683708314E+02  0.38547517621E+03  0.44386256476E+03  0.00000000000E+00 0. -1.
         22    1    3    3    0    0 -0.96016390667E+02  0.66913864267E+02 -0.11481601694E+03  0.16394916972E+03  0.00000000000E+00 0.  1.
         22    1    3    3    0    0 -0.12885831171E+03 -0.53775499647E+02 -0.17303114766E+03  0.22234218430E+03  0.00000000000E+00 0.  1.
</event>
<event>
 7    1  0.6485470E-006  0.9864993E+02  0.7818608E-02  0.1433242E+00
          2   -1    0    0  502    0  0.00000000000E+00  0.00000000000E+00  0.80616029434E+03  0.80616029434E+03  0.00000000000E+00 0. -1.
          1   -1    0    0  501    0 -0.00000000000E+00 -0.00000000000E+00 -0.15574655065E+04  0.15574655065E+04  0.00000000000E+00 0. -1.
         25    2    1    2    0    0  0.71781458011E+02 -0.72941411685E+02 -0.45469103712E+03  0.48253699925E+03  0.12499995663E+03 0.  0.
          2    1    1    2  501    0 -0.85609766600E+02  0.48890583595E+02 -0.10863758725E+04  0.10908399780E+04  0.00000000000E+00 0. -1.
          1    1    1    2  502    0  0.13828308589E+02  0.24050828090E+02  0.78976169744E+03  0.79024882360E+03  0.00000000000E+00 0. -1.
         22    1    3    3    0    0 -0.13328945338E+02  0.22709391053E+02 -0.35311335384E+02  0.44048469127E+02  0.00000000000E+00 0.  1.
         22    1    3    3    0    0  0.85110403349E+02 -0.95650802738E+02 -0.41937970173E+03  0.43848853012E+03  0.00000000000E+00 0.  1.
</event>
<event>
 7    1  0.6485470E-006  0.5284196E+02  0.7818608E-02  0.1455165E+00
          2   -1    0    0  502    0  0.00000000000E+00  0.00000000000E+00  0.14714130499E+03  0.14714130499E+03  0.00000000000E+00 0. -1.
          1   -1    0    0  501    0 -0.00000000000E+00 -0.00000000000E+00 -0.12669307847E+04  0.12669307847E+04  0.00000000000E+00 0. -1.
         25    2    1    2    0    0  0.10524329540E+02  0.35279090480E+02 -0.43401477876E+03  0.45315427354E+03  0.12499836682E+03 0.  0.
          2    1    1    2  501    0  0.39954614684E+02 -0.18450830008E+02 -0.81758705981E+03  0.81877066675E+03  0.00000000000E+00 0. -1.
          1    1    1    2  502    0 -0.50478944224E+02 -0.16828260472E+02  0.13181235881E+03  0.14214714945E+03  0.00000000000E+00 0. -1.
         22    1    3    3    0    0  0.46565903690E+02 -0.29967695970E+02 -0.20256353355E+03  0.20999626500E+03  0.00000000000E+00 0.  1.
         22    1    3    3    0    0 -0.36041574150E+02  0.65246786449E+02 -0.23145124521E+03  0.24315800854E+03  0.00000000000E+00 0.  1.
</event>
<event>
 7    1  0.6485470E-006  0.1435277E+03  0.7818608E-02  0.1274741E+00
          2   -1    0    0  502    0  0.00000000000E+00  0.00000000000E+00  0.50483265666E+03  0.50483265666E+03  0.00000000000E+00 0. -1.
          1   -1    0    0  501    0 -0.00000000000E+00 -0.00000000000E+00 -0.38078290555E+03  0.38078290555E+03  0.00000000000E+00 0. -1.
         25    2    1    2    0    0  0.81032215957E+02  0.11238323042E+02  0.66378531511E+02  0.16347206936E+03  0.12499795233E+03 0.  0.
          2    1    1    2  501    0 -0.14683497009E+03 -0.43916169171E+02 -0.31073878456E+03  0.34647904784E+03  0.00000000000E+00 0. -1.
          1    1    1    2  502    0  0.65802754137E+02  0.32677846129E+02  0.36841000416E+03  0.37566444501E+03  0.00000000000E+00 0. -1.
         22    1    3    3    0    0  0.43276399307E+02  0.16764331133E+02  0.10150256091E+03  0.11160940555E+03  0.00000000000E+00 0.  1.
         22    1    3    3    0    0  0.37755816650E+02 -0.55260080914E+01 -0.35124029398E+02  0.51862663810E+02  0.00000000000E+00 0.  1.
</event>
<event>
 7    1  0.6485470E-006  0.8693274E+02  0.7818608E-02  0.1358797E+00
          2   -1    0    0  502    0  0.00000000000E+00  0.00000000000E+00  0.16260028337E+03  0.16260028337E+03  0.00000000000E+00 0. -1.
          1   -1    0    0  501    0 -0.00000000000E+00 -0.00000000000E+00 -0.14093773570E+04  0.14093773570E+04  0.00000000000E+00 0. -1.
         25    2    1    2    0    0 -0.88753680106E+02  0.56289950989E+02 -0.78974338979E+03  0.80645289228E+03  0.12500348566E+03 0.  0.
          2    1    1    2  501    0  0.84680424089E+02  0.54737586225E+00 -0.60295467013E+03  0.60887224282E+03  0.00000000000E+00 0. -1.
          1    1    1    2  502    0  0.40732560169E+01 -0.56837326852E+02  0.14592098634E+03  0.15665250522E+03  0.00000000000E+00 0. -1.
         22    1    3    3    0    0 -0.63341933723E+02 -0.32283060385E+02 -0.33195719959E+03  0.33948487288E+03  0.00000000000E+00 0. -1.
         22    1    3    3    0    0 -0.25411746383E+02  0.88573011374E+02 -0.45778619020E+03  0.46696801939E+03  0.00000000000E+00 0. -1.
</event>
<event>
 7    1  0.6485470E-006  0.9769632E+02  0.7818608E-02  0.1368850E+00
          2   -1    0    0  502    0  0.00000000000E+00  0.00000000000E+00  0.31724683967E+04  0.31724683967E+04  0.00000000000E+00 0. -1.
          1   -1    0    0  501    0 -0.00000000000E+00 -0.00000000000E+00 -0.30877514328E+03  0.30877514328E+03  0.00000000000E+00 0. -1.
         25    2    1    2    0    0  0.11622464092E+03  0.73952850468E+02  0.29407418527E+03  0.34796812386E+03  0.12499999012E+03 0.  0.
          2    1    1    2  501    0 -0.45977443179E+02 -0.77136633490E+01 -0.27907670679E+03  0.28294387103E+03  0.00000000000E+00 0. -1.
          1    1    1    2  502    0 -0.70247197742E+02 -0.66239187119E+02  0.28486957750E+04  0.28503315451E+04  0.00000000000E+00 0. -1.
         22    1    3    3    0    0 -0.21468001631E+02  0.17602870945E+01  0.83412187290E+02  0.86148515328E+02  0.00000000000E+00 0. -1.
         22    1    3    3    0    0  0.13769264255E+03  0.72192563374E+02  0.21066199798E+03  0.26181960853E+03  0.00000000000E+00 0. -1.
</event>
<event>
 7    1  0.6485470E-006  0.8149037E+02  0.7818608E-02  0.1468362E+00
          2   -1    0    0  502    0  0.00000000000E+00  0.00000000000E+00  0.15637389413E+04  0.15637389413E+04  0.00000000000E+00 0. -1.
          1   -1    0    0  501    0 -0.00000000000E+00 -0.00000000000E+00 -0.58939172255E+02  0.58939172255E+02  0.00000000000E+00 0. -1.
         25    2    1    2    0    0  0.31711168157E+02  0.97722956700E+02  0.21329213338E+03  0.26771921867E+03  0.12499868571E+03 0.  0.
          2    1    1    2  501    0 -0.28140690079E+02 -0.72035009117E+02  0.15732963641E+02  0.78920638122E+02  0.00000000000E+00 0. -1.
          1    1    1    2  502    0 -0.35704780780E+01 -0.25687947583E+02  0.12757746720E+04  0.12760382567E+04  0.00000000000E+00 0. -1.
         22    1    3    3    0    0  0.34312456456E+02  0.60553833687E+02  0.21920853982E+03  0.22999238112E+03  0.00000000000E+00 0. -1.
         22    1    3    3    0    0 -0.26012882987E+01  0.37169123012E+02 -0.59164064364E+01  0.37726837549E+02  0.00000000000E+00 0. -1.
</event>
<event>
 7    1  0.6485470E-006  0.1033073E+03  0.7818608E-02  0.1375448E+00
          2   -1    0    0  502    0  0.00000000000E+00  0.00000000000E+00  0.80996661633E+03  0.80996661633E+03  0.00000000000E+00 0. -1.
          1   -1    0    0  501    0 -0.00000000000E+00 -0.00000000000E+00 -0.95799614686E+02  0.95799614686E+02  0.00000000000E+00 0. -1.
         25    2    1    2    0    0 -0.77345201801E+02 -0.85278949596E+02  0.26959007645E+03  0.31868223934E+03  0.12499912344E+03 0.  0.
          2    1    1    2  501    0  0.91740993313E+02  0.46087230905E+02 -0.32881363226E+02  0.10780364908E+03  0.00000000000E+00 0. -1.
          1    1    1    2  502    0 -0.14395791512E+02  0.39191718691E+02  0.47745828841E+03  0.47928034260E+03  0.00000000000E+00 0. -1.
         22    1    3    3    0    0 -0.71324492813E+01  0.88024366462E+01  0.15235286097E+03  0.15277352182E+03  0.00000000000E+00 0. -1.
         22    1    3    3    0    0 -0.70212752519E+02 -0.94081386242E+02  0.11723721548E+03  0.16590871751E+03  0.00000000000E+00 0. -1.
</event>
<event>
 7    1  0.6485470E-006  0.1076436E+03  0.7818608E-02  0.1288046E+00
          2   -1    0    0  502    0  0.00000000000E+00  0.00000000000E+00  0.51032832744E+03  0.51032832744E+03  0.00000000000E+00 0. -1.
          1   -1    0    0  501    0 -0.00000000000E+00 -0.00000000000E+00 -0.17509284149E+03  0.17509284149E+03  0.00000000000E+00 0. -1.
         25    2    1    2    0    0  0.12045603211E+03 -0.13667203973E+03  0.15630727305E+03  0.27064031882E+03  0.12500126577E+03 0.  0.
          2    1    1    2  501    0 -0.49644400985E+02  0.70637042842E+02 -0.92540521338E+02  0.12656186811E+03  0.00000000000E+00 0. -1.
          1    1    1    2  502    0 -0.70811631128E+02  0.66034996892E+02  0.27146873424E+03  0.28821898200E+03  0.00000000000E+00 0. -1.
         22    1    3    3    0    0  0.39861037396E+02 -0.16415822277E+02  0.11079945042E+03  0.11889028445E+03  0.00000000000E+00 0. -1.
         22    1    3    3    0    0  0.80594994718E+02 -0.12025621746E+03  0.45507822631E+02  0.15175003437E+03  0.00000000000E+00 0. -1.
</event>
<event>
 7    1  0.6485470E-006  0.6264951E+03  0.7818608E-02  0.1175694E+00
          2   -1    0    0  502    0  0.00000000000E+00  0.00000000000E+00  0.11011016197E+04  0.11011016197E+04  0.00000000000E+00 0. -1.
          1   -1    0    0  501    0 -0.00000000000E+00 -0.00000000000E+00 -0.13628967947E+04  0.13628967947E+04  0.00000000000E+00 0. -1.
         25    2    1    2    0    0  0.42392298724E+03  0.50407341764E+03  0.85398812620E+02  0.67580942374E+03  0.12499884213E+03 0.  0.
          2    1    1    2  501    0 -0.41721406470E+03 -0.45728547463E+03 -0.97701039705E+03  0.11566014426E+04  0.00000000000E+00 0. -1.
          1    1    1    2  502    0 -0.67089225455E+01 -0.46787943010E+02  0.62981640948E+03  0.63158754809E+03  0.00000000000E+00 0. -1.
         22    1    3    3    0    0  0.10942060211E+03  0.10432471930E+03  0.70858637786E+02  0.16696545083E+03  0.00000000000E+00 0. -1.
         22    1    3    3    0    0  0.31450238513E+03  0.39974869834E+03  0.14540174834E+02  0.50884397290E+03  0.00000000000E+00 0. -1.
</event>
<event>
 7    1  0.6485470E-006  0.2985660E+02  0.7818608E-02  0.1622415E+00
          2   -1    0    0  502    0  0.00000000000E+00  0.00000000000E+00  0.96588631282E+03  0.96588631282E+03  0.00000000000E+00 0. -1.
          1   -1    0    0  501    0 -0.00000000000E+00 -0.00000000000E+00 -0.22840812517E+02  0.22840812517E+02  0.00000000000E+00 0. -1.
         25    2    1    2    0    0  0.40127738055E+02  0.31313027660E+02  0.42386549782E+03  0.44483416785E+03  0.12499894233E+03 0.  0.
          2    1    1    2  501    0 -0.25349009464E+02 -0.61721460302E+01  0.22998739822E+01  0.26190782496E+02  0.00000000000E+00 0. -1.
          1    1    1    2  502    0 -0.14778728591E+02 -0.25140881630E+02  0.51688012850E+03  0.51770217499E+03  0.00000000000E+00 0. -1.
         22    1    3    3    0    0  0.53229207070E+02  0.18231685576E+02  0.42254337454E+03  0.42627297147E+03  0.00000000000E+00 0.  1.
         22    1    3    3    0    0 -0.13101469015E+02  0.13081342085E+02  0.13221232849E+01  0.18561196381E+02  0.00000000000E+00 0.  1.
</event>
<event>
 7    1  0.6485470E-006  0.1639460E+03  0.7818608E-02  0.1319980E+00
          2   -1    0    0  502    0  0.00000000000E+00  0.00000000000E+00  0.47865187983E+03  0.47865187983E+03  0.00000000000E+00 0. -1.
          1   -1    0    0  501    0 -0.00000000000E+00 -0.00000000000E+00 -0.41604004110E+03  0.41604004110E+03  0.00000000000E+00 0. -1.
         25    2    1    2    0    0 -0.12443771227E+03  0.19457794425E+02  0.15809403249E+03  0.23766027196E+03  0.12500132703E+03 0.  0.
          2    1    1    2  501    0  0.16668222433E+03 -0.17128341819E+02 -0.35580901249E+03  0.39328920322E+03  0.00000000000E+00 0. -1.
          1    1    1    2  502    0 -0.42244512053E+02 -0.23294526064E+01  0.26032681872E+03  0.26374244576E+03  0.00000000000E+00 0. -1.
         22    1    3    3    0    0 -0.10792515676E+03 -0.40175673663E+02  0.95001729202E+02  0.14928915824E+03  0.00000000000E+00 0. -1.
         22    1    3    3    0    0 -0.16512555514E+02  0.59633468088E+02  0.63092303291E+02  0.88371113722E+02  0.00000000000E+00 0. -1.
</event>
<event>
 7    1  0.6485470E-006  0.2821044E+03  0.7818608E-02  0.1142386E+00
          2   -1    0    0  502    0  0.00000000000E+00  0.00000000000E+00  0.72031090697E+03  0.72031090697E+03  0.00000000000E+00 0. -1.
          1   -1    0    0  501    0 -0.00000000000E+00 -0.00000000000E+00 -0.15993687781E+04  0.15993687781E+04  0.00000000000E+00 0. -1.
         25    2    1    2    0    0 -0.34493311810E+03 -0.99144130458E+02 -0.11417713793E+04  0.12033598596E+04  0.12499861796E+03 0.  0.
          2    1    1    2  501    0  0.19015977609E+03  0.10161138400E+03 -0.38993134029E+03  0.44556937052E+03  0.00000000000E+00 0. -1.
          1    1    1    2  502    0  0.15477334201E+03 -0.24672535388E+01  0.65264484842E+03  0.67075045502E+03  0.00000000000E+00 0. -1.
         22    1    3    3    0    0 -0.86672560385E+02 -0.59813960855E+02 -0.48990505946E+03  0.50109560956E+03  0.00000000000E+00 0.  1.
         22    1    3    3    0    0 -0.25826055771E+03 -0.39330169603E+02 -0.65186631982E+03  0.70226424999E+03  0.00000000000E+00 0.  1.
</event>
<event>
 7    1  0.6485470E-006  0.5739707E+02  0.7818608E-02  0.1434415E+00
          2   -1    0    0  502    0  0.00000000000E+00  0.00000000000E+00  0.44221287635E+03  0.44221287635E+03  0.00000000000E+00 0. -1.
          1   -1    0    0  501    0 -0.00000000000E+00 -0.00000000000E+00 -0.82007699928E+02  0.82007699928E+02  0.00000000000E+00 0. -1.
         25    2    1    2    0    0  0.17126531490E+02  0.13375820233E+02  0.58140357488E+02  0.13956414285E+03  0.12500247258E+03 0.  0.
          2    1    1    2  501    0 -0.42706211127E+02 -0.53117984396E+02 -0.10129072183E+02  0.68905288900E+02  0.00000000000E+00 0. -1.
          1    1    1    2  502    0  0.25579679637E+02  0.39742164163E+02  0.31219389112E+03  0.31575114454E+03  0.00000000000E+00 0. -1.
         22    1    3    3    0    0  0.27205672696E+02  0.48946587592E+02  0.79213646840E+02  0.97008859953E+02  0.00000000000E+00 0. -1.
         22    1    3    3    0    0 -0.10079141205E+02 -0.35570767359E+02 -0.21073289352E+02  0.42555282893E+02  0.00000000000E+00 0. -1.
</event>
<event>
 7    1  0.6485470E-006  0.1054983E+03  0.7818608E-02  0.1392702E+00
          2   -1    0    0  502    0  0.00000000000E+00  0.00000000000E+00  0.13161775314E+04  0.13161775314E+04  0.00000000000E+00 0. -1.
          1   -1    0    0  501    0 -0.00000000000E+00 -0.00000000000E+00 -0.31267855837E+03  0.31267855837E+03  0.00000000000E+00 0. -1.
         25    2    1    2    0    0 -0.37890279407E+02  0.71308682870E+02 -0.23857425728E+02  0.15071299732E+03  0.12499851708E+03 0.  0.
          2    1    1    2  501    0  0.32136409681E+02 -0.10638834538E+03 -0.21142321920E+03  0.23885352515E+03  0.00000000000E+00 0. -1.
          1    1    1    2  502    0  0.57538697262E+01  0.35079662507E+02  0.12387796180E+04  0.12392895673E+04  0.00000000000E+00 0. -1.
         22    1    3    3    0    0 -0.20940791102E+01  0.44445790299E+02  0.48383245100E+02  0.65732426161E+02  0.00000000000E+00 0.  1.
         22    1    3    3    0    0 -0.35796200297E+02  0.26862892571E+02 -0.72240670828E+02  0.84980571160E+02  0.00000000000E+00 0.  1.
</event>
<event>
 7    1  0.6485470E-006  0.5198253E+02  0.7818608E-02  0.1443428E+00
          2   -1    0    0  502    0  0.00000000000E+00  0.00000000000E+00  0.44538885173E+03  0.44538885173E+03  0.00000000000E+00 0. -1.
          1   -1    0    0  501    0 -0.00000000000E+00 -0.00000000000E+00 -0.50347548816E+03  0.50347548816E+03  0.00000000000E+00 0. -1.
         25    2    1    2    0    0 -0.53944962291E+02  0.37278220243E+02 -0.26833072408E+03  0.30319313953E+03  0.12499991085E+03 0.  0.
          2    1    1    2  501    0  0.51450963568E+02  0.11439450212E+02 -0.21310224051E+03  0.21952363787E+03  0.00000000000E+00 0. -1.
          1    1    1    2  502    0  0.24939987237E+01 -0.48717670456E+02  0.42334632816E+03  0.42614756248E+03  0.00000000000E+00 0. -1.
         22    1    3    3    0    0 -0.37474920870E+02  0.12081177626E+02 -0.68259084922E+01  0.39961451097E+02  0.00000000000E+00 0.  1.
         22    1    3    3    0    0 -0.16470041422E+02  0.25197042617E+02 -0.26150481559E+03  0.26323168844E+03  0.00000000000E+00 0.  1.
</event>
<event>
 7    1  0.6485470E-006  0.9242567E+02  0.7818608E-02  0.1469725E+00
          2   -1    0    0  502    0  0.00000000000E+00  0.00000000000E+00  0.33611022213E+02  0.33611022213E+02  0.00000000000E+00 0. -1.
          1   -1    0    0  501    0 -0.00000000000E+00 -0.00000000000E+00 -0.71106978193E+03  0.71106978193E+03  0.00000000000E+00 0. -1.
         25    2    1    2    0    0 -0.35785159407E+02  0.91797114199E+02 -0.40899419010E+03  0.43888128773E+03  0.12503299314E+03 0.  0.
          2    1    1    2  501    0  0.50603183821E+02 -0.74674771943E+02 -0.26840272621E+03  0.28315548240E+03  0.00000000000E+00 0. -1.
          1    1    1    2  502    0 -0.14818024414E+02 -0.17122342256E+02 -0.61843409497E-01  0.22644034015E+02  0.00000000000E+00 0. -1.
         22    1    3    3    0    0 -0.67091462476E+01  0.10162347116E+03 -0.38933058394E+03  0.40243092093E+03  0.00000000000E+00 0.  1.
         22    1    3    3    0    0 -0.29076013160E+02 -0.98263569574E+01 -0.19663606166E+02  0.36450366799E+02  0.00000000000E+00 0.  1.
</event>
<event>
 7    1  0.6485470E-006  0.2953698E+02  0.7818608E-02  0.1609640E+00
          2   -1    0    0  502    0  0.00000000000E+00  0.00000000000E+00  0.17353836662E+03  0.17353836662E+03  0.00000000000E+00 0. -1.
          1   -1    0    0  501    0 -0.00000000000E+00 -0.00000000000E+00 -0.10503506934E+03  0.10503506934E+03  0.00000000000E+00 0. -1.
         25    2    1    2    0    0 -0.19264560417E+02  0.41267254398E+01 -0.31597297207E+02  0.13043074439E+03  0.12500254693E+03 0.  0.
          2    1    1    2  501    0  0.12704653116E+02 -0.31794097451E+02 -0.89967317198E+01  0.35400763060E+02  0.00000000000E+00 0. -1.
          1    1    1    2  502    0  0.65599073004E+01  0.27667372012E+02  0.10909732621E+03  0.11274192851E+03  0.00000000000E+00 0. -1.
         22    1    3    3    0    0 -0.35093510367E+02  0.16502390123E+02 -0.73979183226E+02  0.83527258427E+02  0.00000000000E+00 0.  1.
         22    1    3    3    0    0  0.15828949951E+02 -0.12375664683E+02  0.42381886018E+02  0.46903485962E+02  0.00000000000E+00 0.  1.
</event>
<event>
 7    1  0.6485470E-006  0.1018655E+03  0.7818608E-02  0.1332054E+00
          2   -1    0    0  502    0  0.00000000000E+00  0.00000000000E+00  0.45749575144E+03  0.45749575144E+03  0.00000000000E+00 0. -1.
          1   -1    0    0  501    0 -0.00000000000E+00 -0.00000000000E+00 -0.89754027514E+02  0.89754027514E+02  0.00000000000E+00 0. -1.
         25    2    1    2    0    0  0.47871166045E+02  0.16313196376E+02  0.30474923120E+03  0.33324854042E+03  0.12499890745E+03 0.  0.
          2    1    1    2  501    0 -0.92932718349E+02 -0.57711915505E+02 -0.19675606800E+02  0.11114983056E+03  0.00000000000E+00 0. -1.
          1    1    1    2  502    0  0.45061552304E+02  0.41398719129E+02  0.82668099532E+02  0.10285140797E+03  0.00000000000E+00 0. -1.
         22    1    3    3    0    0  0.53447094853E+02  0.34295834946E+02  0.58694334837E+02  0.86474396123E+02  0.00000000000E+00 0.  1.
         22    1    3    3    0    0 -0.55759288088E+01 -0.17982638570E+02  0.24605489636E+03  0.24677414430E+03  0.00000000000E+00 0.  1.
</event>
<event>
 7    1  0.6485470E-006  0.6119837E+02  0.7818608E-02  0.1535134E+00
          2   -1    0    0  502    0  0.00000000000E+00  0.00000000000E+00  0.15877350199E+03  0.15877350199E+03  0.00000000000E+00 0. -1.
          1   -1    0    0  501    0 -0.00000000000E+00 -0.00000000000E+00 -0.40242257137E+03  0.40242257137E+03  0.00000000000E+00 0. -1.
         25    2    1    2    0    0 -0.43686672309E+02  0.11065599289E+02 -0.41356800833E+02  0.13915798367E+03  0.12499434635E+03 0.  0.
          2    1    1    2  501    0 -0.19241520847E+02 -0.10344435093E+02 -0.30272767577E+03  0.30351489113E+03  0.00000000000E+00 0. -1.
          1    1    1    2  502    0  0.62928193156E+02 -0.72116419595E+00  0.10043540722E+03  0.11852319855E+03  0.00000000000E+00 0. -1.
         22    1    3    3    0    0  0.41356288177E+02  0.19300288556E+02 -0.25432037542E+02  0.52245882553E+02  0.00000000000E+00 0.  1.
         22    1    3    3    0    0 -0.85042960486E+02 -0.82346892675E+01 -0.15924763291E+02  0.86912101122E+02  0.00000000000E+00 0.  1.
</event>
<event>
 7    1  0.6485470E-006  0.1231097E+03  0.7818608E-02  0.1319655E+00
          2   -1    0    0  502    0  0.00000000000E+00  0.00000000000E+00  0.63913530067E+03  0.63913530067E+03  0.00000000000E+00 0. -1.
          1   -1    0    0  501    0 -0.00000000000E+00 -0.00000000000E+00 -0.40916328160E+03  0.40916328160E+03  0.00000000000E+00 0. -1.
         25    2    1    2    0    0  0.47432310001E+02 -0.67819700960E+02 -0.12698463300E+03  0.19646714728E+03  0.12499962829E+03 0.  0.
          2    1    1    2  501    0  0.56485257513E+02 -0.15628085521E+01 -0.23763071876E+03  0.24425680171E+03  0.00000000000E+00 0. -1.
          1    1    1    2  502    0 -0.10391756751E+03  0.69382509512E+02  0.59458737083E+03  0.60757463328E+03  0.00000000000E+00 0. -1.
         22    1    3    3    0    0  0.71328901098E+02 -0.90943426419E+02 -0.88261331994E+02  0.14542551931E+03  0.00000000000E+00 0. -1.
         22    1    3    3    0    0 -0.23896591098E+02  0.23123725459E+02 -0.38723301006E+02  0.51041627972E+02  0.00000000000E+00 0. -1.
</event>
<event>
 7    1  0.6485470E-006  0.7698278E+02  0.7818608E-02  0.1367977E+00
          2   -1    0    0  502    0  0.00000000000E+00  0.00000000000E+00  0.63567703755E+03  0.63567703755E+03  0.00000000000E+00 0. -1.
          1   -1    0    0  501    0 -0.00000000000E+00 -0.00000000000E+00 -0.15643044883E+03  0.15643044883E+03  0.00000000000E+00 0. -1.
         25    2    1    2    0    0 -0.46037314167E+02  0.11654512733E+01  0.45164847109E+02  0.14066055543E+03  0.12499894347E+03 0.  0.
          2    1    1    2  501    0  0.60648032200E+02 -0.58941099884E+02 -0.90283140965E+02  0.12370643721E+03  0.00000000000E+00 0. -1.
          1    1    1    2  502    0 -0.14610718033E+02  0.57775648611E+02  0.52436488258E+03  0.52774049374E+03  0.00000000000E+00 0. -1.
         22    1    3    3    0    0 -0.17635760779E+02  0.61551674303E+02  0.35562008615E+02  0.73241280194E+02  0.00000000000E+00 0.  1.
         22    1    3    3    0    0 -0.28401553388E+02 -0.60386223029E+02  0.96028384937E+01  0.67419275239E+02  0.00000000000E+00 0.  1.
</event>
<event>
 7    1  0.6485470E-006  0.4497063E+02  0.7818608E-02  0.1491827E+00
          2   -1    0    0  502    0  0.00000000000E+00  0.00000000000E+00  0.10296777355E+04  0.10296777355E+04  0.00000000000E+00 0. -1.
          1   -1    0    0  501    0 -0.00000000000E+00 -0.00000000000E+00 -0.47002589075E+02  0.47002589075E+02  0.00000000000E+00 0. -1.
         25    2    1    2    0    0  0.74704922319E+01  0.41467270148E+01  0.48661695914E+03  0.50248732659E+03  0.12499777943E+03 0.  0.
          2    1    1    2  501    0 -0.45284746535E+02  0.83268077969E+01 -0.24471160028E+02  0.52142896640E+02  0.00000000000E+00 0. -1.
          1    1    1    2  502    0  0.37814254304E+02 -0.12473534812E+02  0.52052934735E+03  0.52205010138E+03  0.00000000000E+00 0. -1.
         22    1    3    3    0    0  0.33210859984E+02  0.22588682316E+02  0.47392494694E+02  0.62122929285E+02  0.00000000000E+00 0. -1.
         22    1    3    3    0    0 -0.25740367752E+02 -0.18441955302E+02  0.43922446444E+03  0.44036439730E+03  0.00000000000E+00 0. -1.
</event>
<event>
 7    1  0.6485470E-006  0.1495683E+03  0.7818608E-02  0.1293774E+00
          2   -1    0    0  502    0  0.00000000000E+00  0.00000000000E+00  0.43354422738E+03  0.43354422738E+03  0.00000000000E+00 0. -1.
          1   -1    0    0  501    0 -0.00000000000E+00 -0.00000000000E+00 -0.22057796353E+04  0.22057796353E+04  0.00000000000E+00 0. -1.
         25    2    1    2    0    0  0.13846060431E+03  0.13882075207E+02 -0.78365654831E+03  0.80567156230E+03  0.12500011854E+03 0.  0.
          2    1    1    2  501    0  0.46065857478E+01 -0.58715294313E+02 -0.13971760590E+04  0.13984168356E+04  0.00000000000E+00 0. -1.
          1    1    1    2  502    0 -0.14306719006E+03  0.44833219106E+02  0.40859719939E+03  0.43523546473E+03  0.00000000000E+00 0. -1.
         22    1    3    3    0    0  0.88234329014E+02  0.45018414019E+01 -0.71312830643E+03  0.71858022852E+03  0.00000000000E+00 0. -1.
         22    1    3    3    0    0  0.50226275301E+02  0.93802338050E+01 -0.70528241883E+02  0.87091333782E+02  0.00000000000E+00 0. -1.
</event>
<event>
 7    1  0.6485470E-006  0.4318782E+02  0.7818608E-02  0.1558884E+00
          2   -1    0    0  502    0  0.00000000000E+00  0.00000000000E+00  0.10961728623E+04  0.10961728623E+04  0.00000000000E+00 0. -1.
          1   -1    0    0  501    0 -0.00000000000E+00 -0.00000000000E+00 -0.25847153089E+03  0.25847153089E+03  0.00000000000E+00 0. -1.
         25    2    1    2    0    0  0.13823708393E+02 -0.39183791947E+02 -0.21165764585E+01  0.13172559028E+03  0.12498274591E+03 0.  0.
          2    1    1    2  501    0 -0.35979040762E+02  0.24535173110E+02 -0.18890167034E+03  0.19385640859E+03  0.00000000000E+00 0. -1.
          1    1    1    2  502    0  0.22155332370E+02  0.14648618836E+02  0.10287195782E+04  0.10290623943E+04  0.00000000000E+00 0. -1.
         22    1    3    3    0    0 -0.18394870536E+02 -0.52142855283E+02  0.46317194966E+02  0.72128573871E+02  0.00000000000E+00 0. -1.
         22    1    3    3    0    0  0.32218578928E+02  0.12959063337E+02 -0.48433771424E+02  0.59597016411E+02  0.00000000000E+00 0. -1.
</event>
<event>
 7    1  0.6485470E-006  0.1754286E+03  0.7818608E-02  0.1319115E+00
          2   -1    0    0  502    0  0.00000000000E+00  0.00000000000E+00  0.14184202264E+04  0.14184202264E+04  0.00000000000E+00 0. -1.
          1   -1    0    0  501    0 -0.00000000000E+00 -0.00000000000E+00 -0.12915466000E+04  0.12915466000E+04  0.00000000000E+00 0. -1.
         25    2    1    2    0    0 -0.10039517400E+03  0.17541987601E+03 -0.64230091202E+03  0.68485536224E+03  0.12500032699E+03 0.  0.
          2    1    1    2  501    0  0.80246697266E+02 -0.14104301342E+03 -0.61719415535E+03  0.63817026682E+03  0.00000000000E+00 0. -1.
          1    1    1    2  502    0  0.20148476730E+02 -0.34376862586E+02  0.13863686938E+04  0.13869411974E+04  0.00000000000E+00 0. -1.
         22    1    3    3    0    0  0.17754961322E+02  0.35238538251E+01 -0.13707634595E+03  0.13826634015E+03  0.00000000000E+00 0.  1.
         22    1    3    3    0    0 -0.11815013532E+03  0.17189602218E+03 -0.50522456606E+03  0.54658902209E+03  0.00000000000E+00 0.  1.
</event>
<event>
 7    1  0.6485470E-006  0.1832534E+03  0.7818608E-02  0.1333406E+00
          2   -1    0    0  502    0  0.00000000000E+00  0.00000000000E+00  0.76973786736E+03  0.76973786736E+03  0.00000000000E+00 0. -1.
          1   -1    0    0  501    0 -0.00000000000E+00 -0.00000000000E+00 -0.56263493815E+03  0.56263493815E+03  0.00000000000E+00 0. -1.
         25    2    1    2    0    0  0.63721627809E+02  0.13747784080E+03 -0.17710934839E+03  0.26448566421E+03  0.12499737085E+03 0.  0.
          2    1    1    2  501    0  0.17636150732E+02  0.28616282750E+02 -0.32918940599E+03  0.33090117931E+03  0.00000000000E+00 0. -1.
          1    1    1    2  502    0 -0.81357778541E+02 -0.16609412355E+03  0.71340168360E+03  0.73698596199E+03  0.00000000000E+00 0. -1.
         22    1    3    3    0    0 -0.22611437795E+02  0.89135472211E+01 -0.75374615716E+02  0.79196345481E+02  0.00000000000E+00 0. -1.
         22    1    3    3    0    0  0.86333065604E+02  0.12856429358E+03 -0.10173473268E+03  0.18528931872E+03  0.00000000000E+00 0. -1.
</event>
<event>
 7    1  0.6485470E-006  0.1027725E+03  0.7818608E-02  0.1427259E+00
          2   -1    0    0  502    0  0.00000000000E+00  0.00000000000E+00  0.67125546104E+03  0.67125546104E+03  0.00000000000E+00 0. -1.
          1   -1    0    0  501    0 -0.00000000000E+00 -0.00000000000E+00 -0.81701959326E+03  0.81701959326E+03  0.00000000000E+00 0. -1.
         25    2    1    2    0    0  0.61701103492E+02  0.53839602062E+02  0.38919699866E+03  0.41689891258E+03  0.12499868248E+03 0.  0.
          2    1    1    2  501    0 -0.89423579582E+02 -0.51024726676E+02 -0.79913338945E+03  0.80573834056E+03  0.00000000000E+00 0. -1.
          1    1    1    2  502    0  0.27722476090E+02 -0.28148753859E+01  0.26417225857E+03  0.26563780115E+03  0.00000000000E+00 0. -1.
         22    1    3    3    0    0 -0.12474589982E+02  0.62532170603E+02  0.25966245286E+03  0.26737703189E+03  0.00000000000E+00 0.  1.
         22    1    3    3    0    0  0.74175693473E+02 -0.86925685404E+01  0.12953454580E+03  0.14952188069E+03  0.00000000000E+00 0.  1.
</event>
<event>
 7    1  0.6485470E-006  0.7055564E+02  0.7818608E-02  0.1391546E+00
          2   -1    0    0  502    0  0.00000000000E+00  0.00000000000E+00  0.15873834591E+04  0.15873834591E+04  0.00000000000E+00 0. -1.
          1   -1    0    0  501    0 -0.00000000000E+00 -0.00000000000E+00 -0.32109037697E+03  0.32109037697E+03  0.00000000000E+00 0. -1.
         25    2    1    2    0    0 -0.62622534683E+02  0.28787908691E+02 -0.37715930962E+02  0.14764208818E+03  0.12500147686E+03 0.  0.
          2    1    1    2  501    0  0.25874146338E+02 -0.67873174652E+02 -0.22215318061E+03  0.23372692387E+03  0.00000000000E+00 0. -1.
          1    1    1    2  502    0  0.36748388345E+02  0.39085265961E+02  0.15261621937E+04  0.15271048240E+04  0.00000000000E+00 0. -1.
         22    1    3    3    0    0 -0.34605978569E+02 -0.23714263072E+02  0.34322145586E+02  0.54202856967E+02  0.00000000000E+00 0. -1.
         22    1    3    3    0    0 -0.28016556114E+02  0.52502171763E+02 -0.72038076548E+02  0.93439231210E+02  0.00000000000E+00 0. -1.
</event>
<event>
 7    1  0.6485470E-006  0.4602698E+02  0.7818608E-02  0.1480917E+00
          2   -1    0    0  502    0  0.00000000000E+00  0.00000000000E+00  0.40633816123E+03  0.40633816123E+03  0.00000000000E+00 0. -1.
          1   -1    0    0  501    0 -0.00000000000E+00 -0.00000000000E+00 -0.29687586725E+03  0.29687586725E+03  0.00000000000E+00 0. -1.
         25    2    1    2    0    0 -0.24765898792E+02  0.77311376422E+02  0.27368154134E+03  0.31162959605E+03  0.12498408057E+03 0.  0.
          2    1    1    2  501    0  0.28955506347E+02 -0.35528085800E+02 -0.27204046955E+03  0.27587439769E+03  0.00000000000E+00 0. -1.
          1    1    1    2  502    0 -0.41896075546E+01 -0.41783290622E+02  0.10782122219E+03  0.11571003475E+03  0.00000000000E+00 0. -1.
         22    1    3    3    0    0  0.39453955405E+01  0.35529879900E+01 -0.13095297047E+02  0.14130699713E+02  0.00000000000E+00 0.  1.
         22    1    3    3    0    0 -0.28711294333E+02  0.73758388432E+02  0.28677683838E+03  0.29749889633E+03  0.00000000000E+00 0.  1.
</event>
<event>
 7    1  0.6485470E-006  0.1077382E+03  0.7818608E-02  0.1444949E+00
          2   -1    0    0  502    0  0.00000000000E+00  0.00000000000E+00  0.85305357354E+02  0.85305357354E+02  0.00000000000E+00 0. -1.
          1   -1    0    0  501    0 -0.00000000000E+00 -0.00000000000E+00 -0.16830779135E+04  0.16830779135E+04  0.00000000000E+00 0. -1.
         25    2    1    2    0    0  0.70999117499E+02  0.50935559286E+02 -0.12927631952E+03  0.19993203570E+03  0.12500058490E+03 0.  0.
          2    1    1    2  501    0 -0.93887221054E+02 -0.55145215093E+02 -0.15136987027E+04  0.15176098206E+04  0.00000000000E+00 0. -1.
          1    1    1    2  502    0  0.22888103555E+02  0.42096558066E+01  0.45202466118E+02  0.50841414511E+02  0.00000000000E+00 0. -1.
         22    1    3    3    0    0  0.47190896987E+01  0.22971416762E+02  0.22168039059E+02  0.32270385052E+02  0.00000000000E+00 0. -1.
         22    1    3    3    0    0  0.66280027800E+02  0.27964142524E+02 -0.15144435858E+03  0.16766165065E+03  0.00000000000E+00 0. -1.
</event>
<event>
 7    1  0.6485470E-006  0.3512726E+02  0.7818608E-02  0.1581324E+00
          2   -1    0    0  502    0  0.00000000000E+00  0.00000000000E+00  0.45805847274E+03  0.45805847274E+03  0.00000000000E+00 0. -1.
          1   -1    0    0  501    0 -0.00000000000E+00 -0.00000000000E+00 -0.31110226568E+02  0.31110226568E+02  0.00000000000E+00 0. -1.
         25    2    1    2    0    0  0.87107832283E-01 -0.42836497517E+02  0.34484291625E+03  0.36929192717E+03  0.12499966992E+03 0.  0.
          2    1    1    2  501    0 -0.23238649338E+02  0.16288107936E+02 -0.22446408799E+01  0.28467098480E+02  0.00000000000E+00 0. -1.
          1    1    1    2  502    0  0.23151541506E+02  0.26548389580E+02  0.84349970796E+02  0.91409673649E+02  0.00000000000E+00 0. -1.
         22    1    3    3    0    0  0.12159547370E+02  0.23422612713E+02  0.10780170979E+02  0.28507638711E+02  0.00000000000E+00 0.  1.
         22    1    3    3    0    0 -0.12072439538E+02 -0.66259110229E+02  0.33406274527E+03  0.34078428846E+03  0.00000000000E+00 0.  1.
</event>
<event>
 7    1  0.6485470E-006  0.1015784E+03  0.7818608E-02  0.1314714E+00
          2   -1    0    0  502    0  0.00000000000E+00  0.00000000000E+00  0.25461812188E+04  0.25461812188E+04  0.00000000000E+00 0. -1.
          1   -1    0    0  501    0 -0.00000000000E+00 -0.00000000000E+00 -0.11847927537E+03  0.11847927537E+03  0.00000000000E+00 0. -1.
         25    2    1    2    0    0 -0.42412798144E+02  0.47221050075E+02  0.92621807525E+02  0.16802173302E+03  0.12499532200E+03 0.  0.
          2    1    1    2  501    0  0.11231939237E+03 -0.31793347319E+02 -0.37783877289E+02  0.12269508637E+03  0.00000000000E+00 0. -1.
          1    1    1    2  502    0 -0.69906594231E+02 -0.15427702756E+02  0.23728640132E+04  0.23739436748E+04  0.00000000000E+00 0. -1.
         22    1    3    3    0    0 -0.40278631341E+02 -0.15268312621E+02  0.96189672622E+02  0.10539422485E+03  0.00000000000E+00 0.  1.
         22    1    3    3    0    0 -0.21341668028E+01  0.62489362697E+02 -0.35678650969E+01  0.62627508169E+02  0.00000000000E+00 0.  1.
</event>
<event>
 7    1  0.6485470E-006  0.1409889E+03  0.7818608E-02  0.1305032E+00
          2   -1    0    0  502    0  0.00000000000E+00  0.00000000000E+00  0.65135286312E+02  0.65135286312E+02  0.00000000000E+00 0. -1.
          1   -1    0    0  501    0 -0.00000000000E+00 -0.00000000000E+00 -0.20401985300E+04  0.20401985300E+04  0.00000000000E+00 0. -1.
         25    2    1    2    0    0  0.13834272529E+03  0.91929873139E+02 -0.24956888867E+03  0.32480520300E+03  0.12499591388E+03 0.  0.
          2    1    1    2  501    0 -0.13506913854E+03 -0.35709752812E+02 -0.17180525342E+04  0.17237236928E+04  0.00000000000E+00 0. -1.
          1    1    1    2  502    0 -0.32735867435E+01 -0.56220120327E+02 -0.74418207676E+01  0.56804920527E+02  0.00000000000E+00 0. -1.
         22    1    3    3    0    0  0.13749674944E+03  0.11774053019E+03 -0.22824832856E+03  0.29131681731E+03  0.00000000000E+00 0.  1.
         22    1    3    3    0    0  0.84597584879E+00 -0.25810657054E+02 -0.21320560111E+02  0.33488385691E+02  0.00000000000E+00 0.  1.
</event>
<event>
 7    1  0.6485470E-006  0.1376961E+03  0.7818608E-02  0.1385440E+00
          2   -1    0    0  502    0  0.00000000000E+00  0.00000000000E+00  0.39924982891E+03  0.39924982891E+03  0.00000000000E+00 0. -1.
          1   -1    0    0  501    0 -0.00000000000E+00 -0.00000000000E+00 -0.29521394600E+03  0.29521394600E+03  0.00000000000E+00 0. -1.
         25    2    1    2    0    0  0.44949152752E+02  0.15714478782E+03  0.14379414671E+03  0.25103048061E+03  0.12499853959E+03 0.  0.
          2    1    1    2  501    0 -0.42507601170E+02 -0.12837336765E+03 -0.22144321660E+03  0.25946814035E+03  0.00000000000E+00 0. -1.
          1    1    1    2  502    0 -0.24415515824E+01 -0.28771420164E+02  0.18168495280E+03  0.18396515394E+03  0.00000000000E+00 0. -1.
         22    1    3    3    0    0 -0.35787396819E+02  0.10163359762E+03  0.77671029157E+02  0.13282663403E+03  0.00000000000E+00 0. -1.
         22    1    3    3    0    0  0.80736549571E+02  0.55511190195E+02  0.66123117550E+02  0.11820384659E+03  0.00000000000E+00 0. -1.
</event>
<event>
 7    1  0.6485470E-006  0.6608804E+02  0.7818608E-02  0.1494292E+00
          2   -1    0    0  502    0  0.00000000000E+00  0.00000000000E+00  0.11773779327E+03  0.11773779327E+03  0.00000000000E+00 0. -1.
          1   -1    0    0  501    0 -0.00000000000E+00 -0.00000000000E+00 -0.35725447527E+04  0.35725447527E+04  0.00000000000E+00 0. -1.
         25    2    1    2    0    0  0.55425223751E+02  0.71361239825E+01 -0.19788651332E+04  0.19835968047E+04  0.12500475396E+03 0.  0.
          2    1    1    2  501    0 -0.68522554366E+02  0.16057035135E+02 -0.15889870816E+04  0.15905449111E+04  0.00000000000E+00 0. -1.
          1    1    1    2  502    0  0.13097330616E+02 -0.23193159117E+02  0.11304525529E+03  0.11614083021E+03  0.00000000000E+00 0. -1.
         22    1    3    3    0    0  0.83799581294E+02  0.34298465612E+02 -0.10483722761E+04  0.10522752415E+04  0.00000000000E+00 0.  1.
         22    1    3    3    0    0 -0.28374357543E+02 -0.27162341630E+02 -0.93049285712E+03  0.93132156322E+03  0.00000000000E+00 0.  1.
</event>
<event>
 7    1  0.6485470E-006  0.6538671E+02  0.7818608E-02  0.1385291E+00
          2   -1    0    0  502    0  0.00000000000E+00  0.00000000000E+00  0.20838649545E+02  0.20838649545E+02  0.00000000000E+00 0. -1.
          1   -1    0    0  501    0 -0.00000000000E+00 -0.00000000000E+00 -0.21508496001E+04  0.21508496001E+04  0.00000000000E+00 0. -1.
         25    2    1    2    0    0 -0.27865578225E+02  0.87912057125E+02 -0.48737475757E+03  0.51153168910E+03  0.12500197761E+03 0.  0.
          2    1    1    2  501    0  0.55641401410E+02 -0.33737359772E+02 -0.15359057589E+04  0.15372835377E+04  0.00000000000E+00 0. -1.
          1    1    1    2  502    0 -0.27775823185E+02 -0.54174697353E+02 -0.10673043410E+03  0.12287302287E+03  0.00000000000E+00 0. -1.
         22    1    3    3    0    0  0.48881050486E+02  0.48995723692E+02 -0.20907034652E+03  0.22022794516E+03  0.00000000000E+00 0.  1.
         22    1    3    3    0    0 -0.76746628711E+02  0.38916333432E+02 -0.27830441105E+03  0.29130374394E+03  0.00000000000E+00 0.  1.
</event>
<event>
 7    1  0.6485470E-006  0.6059584E+02  0.7818608E-02  0.1400200E+00
          2   -1    0    0  502    0  0.00000000000E+00  0.00000000000E+00  0.19348257793E+04  0.19348257793E+04  0.00000000000E+00 0. -1.
          1   -1    0    0  501    0 -0.00000000000E+00 -0.00000000000E+00 -0.77219526760E+02  0.77219526760E+02  0.00000000000E+00 0. -1.
         25    2    1    2    0    0  0.20941967589E+02  0.35846506511E+01  0.15623439570E+03  0.20120397101E+03  0.12498974288E+03 0.  0.
          2    1    1    2  501    0 -0.42841537899E+02  0.50451049483E+02 -0.34055779964E+02  0.74434547843E+02  0.00000000000E+00 0. -1.
          1    1    1    2  502    0  0.21899570311E+02 -0.54035700135E+02  0.17354276368E+04  0.17364067872E+04  0.00000000000E+00 0. -1.
         22    1    3    3    0    0  0.56328293177E+02 -0.25791426050E+02  0.13883788589E+03  0.15203299915E+03  0.00000000000E+00 0.  1.
         22    1    3    3    0    0 -0.35386325588E+02  0.29376076701E+02  0.17396509810E+02  0.49170971869E+02  0.00000000000E+00 0.  1.
</event>
<event>
 7    1  0.6485470E-006  0.1030409E+03  0.7818608E-02  0.1379136E+00
          2   -1    0    0  502    0  0.00000000000E+00  0.00000000000E+00  0.15555598932E+04  0.15555598932E+04  0.00000000000E+00 0. -1.
          1   -1    0    0  501    0 -0.00000000000E+00 -0.00000000000E+00 -0.12788720040E+03  0.12788720040E+03  0.00000000000E+00 0. -1.
         25    2    1    2    0    0  0.21755941965E+02  0.13408976135E+03  0.28047190593E+03  0.33577150406E+03  0.12499851124E+03 0.  0.
          2    1    1    2  501    0 -0.23192617691E+02 -0.33341421594E+02 -0.93996264745E+02  0.10239553552E+03  0.00000000000E+00 0. -1.
          1    1    1    2  502    0  0.14366757265E+01 -0.10074833976E+03  0.12411970516E+04  0.12452800540E+04  0.00000000000E+00 0. -1.
         22    1    3    3    0    0  0.41887805362E+02  0.24998865198E+02  0.17866103456E+03  0.18520069322E+03  0.00000000000E+00 0. -1.
         22    1    3    3    0    0 -0.20131863398E+02  0.10909089615E+03  0.10181087137E+03  0.15057081084E+03  0.00000000000E+00 0. -1.
</event>
<event>
 7    1  0.6485470E-006  0.1246956E+03  0.7818608E-02  0.1356901E+00
          2   -1    0    0  502    0  0.00000000000E+00  0.00000000000E+00  0.93654450940E+03  0.93654450940E+03  0.00000000000E+00 0. -1.
          1   -1    0    0  501    0 -0.00000000000E+00 -0.00000000000E+00 -0.12196883344E+03  0.12196883344E+03  0.00000000000E+00 0. -1.
         25    2    1    2    0    0 -0.24598210122E+02 -0.16037657219E+03  0.51708983269E+03  0.55617573148E+03  0.12499532936E+03 0.  0.
          2    1    1    2  501    0  0.14744731407E+02  0.12123126719E+03 -0.64497887041E+02  0.13811011796E+03  0.00000000000E+00 0. -1.
          1    1    1    2  502    0  0.98534787151E+01  0.39145305002E+02  0.36198373031E+03  0.36422749341E+03  0.00000000000E+00 0. -1.
         22    1    3    3    0    0 -0.44776159449E+02 -0.16883955963E+03  0.49570290204E+03  0.52557879376E+03  0.00000000000E+00 0.  1.
         22    1    3    3    0    0  0.20177949327E+02  0.84629874371E+01  0.21386930646E+02  0.30596937720E+02  0.00000000000E+00 0.  1.
</event>
<event>
 7    1  0.6485470E-006  0.1193385E+03  0.7818608E-02  0.1391655E+00
          2   -1    0    0  502    0  0.00000000000E+00  0.00000000000E+00  0.26826758159E+04  0.26826758159E+04  0.00000000000E+00 0. -1.
          1   -1    0    0  501    0 -0.00000000000E+00 -0.00000000000E+00 -0.50060087048E+02  0.50060087048E+02  0.00000000000E+00 0. -1.
         25    2    1    2    0    0 -0.67508061706E+02 -0.12107933699E+03  0.87350201317E+03  0.89322348276E+03  0.12499951557E+03 0.  0.
          2    1    1    2  501    0  0.75346131334E+02  0.90373500458E+02  0.46360767782E+02  0.12646631916E+03  0.00000000000E+00 0. -1.
          1    1    1    2  502    0 -0.78380696279E+01  0.30705836530E+02  0.17127529479E+04  0.17130461010E+04  0.00000000000E+00 0. -1.
         22    1    3    3    0    0 -0.45557727140E+01 -0.78406555977E+02  0.69184897463E+03  0.69629257269E+03  0.00000000000E+00 0. -1.
         22    1    3    3    0    0 -0.62952288992E+02 -0.42672781012E+02  0.18165303854E+03  0.19693091006E+03  0.00000000000E+00 0. -1.
</event>
<event>
 7    1  0.6485470E-006  0.9140651E+02  0.7818608E-02  0.1425334E+00
          2   -1    0    0  502    0  0.00000000000E+00  0.00000000000E+00  0.16892571786E+04  0.16892571786E+04  0.00000000000E+00 0. -1.
          1   -1    0    0  501    0 -0.00000000000E+00 -0.00000000000E+00 -0.96978886707E+03  0.96978886707E+03  0.00000000000E+00 0. -1.
         25    2    1    2    0    0  0.29929904226E+02  0.10442195054E+03  0.19874977418E+03  0.25870126591E+03  0.12500051731E+03 0.  0.
          2    1    1    2  501    0  0.17109958299E+02 -0.26796270572E+02 -0.93813338857E+03  0.93867195842E+03  0.00000000000E+00 0. -1.
          1    1    1    2  502    0 -0.47039862525E+02 -0.77625679971E+02  0.14588519259E+04  0.14616728213E+04  0.00000000000E+00 0. -1.
         22    1    3    3    0    0 -0.33844899098E+02  0.61480040540E+01  0.99096140166E+02  0.10489671179E+03  0.00000000000E+00 0. -1.
         22    1    3    3    0    0  0.63774803324E+02  0.98273946489E+02  0.99653634011E+02  0.15380455412E+03  0.00000000000E+00 0. -1.
</event>
<event>
 7    1  0.6485470E-006  0.3557235E+02  0.7818608E-02  0.1544575E+00
          2   -1    0    0  502    0  0.00000000000E+00  0.00000000000E+00  0.11297654668E+04  0.11297654668E+04  0.00000000000E+00 0. -1.
          1   -1    0    0  501    0 -0.00000000000E+00 -0.00000000000E+00 -0.47748098889E+02  0.47748098889E+02  0.00000000000E+00 0. -1.
         25    2    1    2    0    0 -0.13133384349E-01  0.13488484314E+02  0.36256265500E+03  0.38374273891E+03  0.12499948592E+03 0.  0.
          2    1    1    2  501    0 -0.35251820200E+02 -0.25375315441E+01 -0.28193887013E+02  0.45210896459E+02  0.00000000000E+00 0. -1.
          1    1    1    2  502    0  0.35264953584E+02 -0.10950952770E+02  0.74764859995E+03  0.74855993035E+03  0.00000000000E+00 0. -1.
         22    1    3    3    0    0 -0.57062897408E+02  0.29545811647E+02  0.15264122871E+03  0.16561543995E+03  0.00000000000E+00 0. -1.
         22    1    3    3    0    0  0.57049764023E+02 -0.16057327333E+02  0.20992142629E+03  0.21812729896E+03  0.00000000000E+00 0. -1.
</event>
<event>
 7    1  0.6485470E-006  0.1339433E+03  0.7818608E-02  0.1275461E+00
          2   -1    0    0  502    0  0.00000000000E+00  0.00000000000E+00  0.14736051676E+03  0.14736051676E+03  0.00000000000E+00 0. -1.
          1   -1    0    0  501    0 -0.00000000000E+00 -0.00000000000E+00 -0.12315883839E+04  0.12315883839E+04  0.00000000000E+00 0. -1.
         25    2    1    2    0    0 -0.15847940843E+03 -0.66214557500E+02 -0.51006257848E+03  0.55252968231E+03  0.12500050136E+03 0.  0.
          2    1    1    2  501    0  0.26204813322E+02  0.73663380438E+02 -0.66255738330E+03  0.66715460878E+03  0.00000000000E+00 0. -1.
          1    1    1    2  502    0  0.13227459511E+03 -0.74488229381E+01  0.88392094617E+02  0.15926460958E+03  0.00000000000E+00 0. -1.
         22    1    3    3    0    0 -0.16770480622E+03 -0.80200142145E+02 -0.49887258608E+03  0.53238221418E+03  0.00000000000E+00 0.  1.
         22    1    3    3    0    0  0.92253977834E+01  0.13985584645E+02 -0.11189992401E+02  0.20147468130E+02  0.00000000000E+00 0.  1.
</event>
<event>
 7    1  0.6485470E-006  0.1126908E+03  0.7818608E-02  0.1391425E+00
          2   -1    0    0  502    0  0.00000000000E+00  0.00000000000E+00  0.17695088306E+04  0.17695088306E+04  0.00000000000E+00 0. -1.
          1   -1    0    0  501    0 -0.00000000000E+00 -0.00000000000E+00 -0.29245289348E+03  0.29245289348E+03  0.00000000000E+00 0. -1.
         25    2    1    2    0    0 -0.10572264698E+03 -0.81935169509E+02  0.12242605409E+03  0.22023729193E+03  0.12500270376E+03 0.  0.
          2    1    1    2  501    0  0.48983094087E+01  0.33262996422E+02 -0.24041528929E+03  0.24275487985E+03  0.00000000000E+00 0. -1.
          1    1    1    2  502    0  0.10082433757E+03  0.48672173087E+02  0.15950451723E+04  0.15989695523E+04  0.00000000000E+00 0. -1.
         22    1    3    3    0    0 -0.53729501646E+02 -0.11105278572E+03  0.86192792695E+02  0.15049510980E+03  0.00000000000E+00 0.  1.
         22    1    3    3    0    0 -0.51993145335E+02  0.29117616208E+02  0.36233261399E+02  0.69742182121E+02  0.00000000000E+00 0.  1.
</event>
<event>
 7    1  0.6485470E-006  0.5770990E+02  0.7818608E-02  0.1465791E+00
          2   -1    0    0  502    0  0.00000000000E+00  0.00000000000E+00  0.10034344307E+04  0.10034344307E+04  0.00000000000E+00 0. -1.
          1   -1    0    0  501    0 -0.00000000000E+00 -0.00000000000E+00 -0.52615071386E+03  0.52615071386E+03  0.00000000000E+00 0. -1.
         25    2    1    2    0    0 -0.62034396972E+02  0.66734482692E+02  0.34057653239E+03  0.37405696995E+03  0.12499793903E+03 0.  0.
          2    1    1    2  501    0  0.18601119291E+02 -0.32337055472E+02 -0.50753692663E+03  0.50890610007E+03  0.00000000000E+00 0. -1.
          1    1    1    2  502    0  0.43433277682E+02 -0.34397427219E+02  0.64424411105E+03  0.64662207451E+03  0.00000000000E+00 0. -1.
         22    1    3    3    0    0 -0.94233058758E+02  0.60983676144E+02  0.19635395910E+03  0.22617195974E+03  0.00000000000E+00 0.  1.
         22    1    3    3    0    0  0.32198661786E+02  0.57508065478E+01  0.14422257329E+03  0.14788501021E+03  0.00000000000E+00 0.  1.
</event>
<event>
 7    1  0.6485470E-006  0.1370612E+03  0.7818608E-02  0.1315259E+00
          2   -1    0    0  502    0  0.00000000000E+00  0.00000000000E+00  0.16590756697E+03  0.16590756697E+03  0.00000000000E+00 0. -1.
          1   -1    0    0  501    0 -0.00000000000E+00 -0.00000000000E+00 -0.72497482327E+03  0.72497482327E+03  0.00000000000E+00 0. -1.
         25    2    1    2    0    0 -0.12989726585E+03 -0.10045354262E+03 -0.13384496149E+03  0.24597683324E+03  0.12500365943E+03 0.  0.
          2    1    1    2  501    0  0.52346291267E+02 -0.68772053048E+01 -0.49322904594E+03  0.49604669329E+03  0.00000000000E+00 0. -1.
          1    1    1    2  502    0  0.77550974587E+02  0.10733074792E+03  0.68006751128E+02  0.14885886372E+03  0.00000000000E+00 0. -1.
         22    1    3    3    0    0 -0.91981827254E+02 -0.23518067364E+01 -0.26629227697E+02  0.95787803543E+02  0.00000000000E+00 0. -1.
         22    1    3    3    0    0 -0.37915438600E+02 -0.98101735882E+02 -0.10721573379E+03  0.15018902969E+03  0.00000000000E+00 0. -1.
</event>
<event>
 7    1  0.6485470E-006  0.8064027E+02  0.7818608E-02  0.1327864E+00
          2   -1    0    0  502    0  0.00000000000E+00  0.00000000000E+00  0.37077622664E+04  0.37077622664E+04  0.00000000000E+00 0. -1.
          1   -1    0    0  501    0 -0.00000000000E+00 -0.00000000000E+00 -0.14793714570E+04  0.14793714570E+04  0.00000000000E+00 0. -1.
         25    2    1    2    0    0  0.76509225224E+01  0.62094302304E+01  0.75970495121E+02  0.14660560509E+03  0.12499837469E+03 0.  0.
          2    1    1    2  501    0 -0.56976128536E+02  0.57586160287E+02 -0.14424652585E+04  0.14447382002E+04  0.00000000000E+00 0. -1.
          1    1    1    2  502    0  0.49325206014E+02 -0.63795590517E+02  0.35948855728E+04  0.35957899181E+04  0.00000000000E+00 0. -1.
         22    1    3    3    0    0 -0.53625609390E+02  0.20418045391E+02  0.57059439747E+02  0.80922075012E+02  0.00000000000E+00 0.  1.
         22    1    3    3    0    0  0.61276531912E+02 -0.14208615160E+02  0.18911055374E+02  0.65683530077E+02  0.00000000000E+00 0.  1.
</event>
<event>
 7    1  0.6485470E-006  0.1259612E+03  0.7818608E-02  0.1310857E+00
          2   -1    0    0  502    0  0.00000000000E+00  0.00000000000E+00  0.96694155995E+03  0.96694155995E+03  0.00000000000E+00 0. -1.
          1   -1    0    0  501    0 -0.00000000000E+00 -0.00000000000E+00 -0.70449416677E+03  0.70449416677E+03  0.00000000000E+00 0. -1.
         25    2    1    2    0    0 -0.51776953701E+02 -0.61568035002E+02  0.75883792591E+02  0.16689082142E+03  0.12499088138E+03 0.  0.
          2    1    1    2  501    0  0.43917925438E+02  0.12082756336E+03 -0.65164583201E+03  0.66420657526E+03  0.00000000000E+00 0. -1.
          1    1    1    2  502    0  0.78590282627E+01 -0.59259528357E+02  0.83820943260E+03  0.84033833004E+03  0.00000000000E+00 0. -1.
         22    1    3    3    0    0 -0.27203034725E+02 -0.42253594412E+02 -0.28607316707E+02  0.57825166737E+02  0.00000000000E+00 0. -1.
         22    1    3    3    0    0 -0.24573918976E+02 -0.19314440590E+02  0.10449110930E+03  0.10906565468E+03  0.00000000000E+00 0. -1.
</event>
<event>
 7    1  0.6485470E-006  0.9080945E+02  0.7818608E-02  0.1390843E+00
          2   -1    0    0  502    0  0.00000000000E+00  0.00000000000E+00  0.25091048747E+04  0.25091048747E+04  0.00000000000E+00 0. -1.
          1   -1    0    0  501    0 -0.00000000000E+00 -0.00000000000E+00 -0.55535318719E+02  0.55535318719E+02  0.00000000000E+00 0. -1.
         25    2    1    2    0    0 -0.49415866219E+02  0.10559563558E+03  0.32602507559E+03  0.36811686152E+03  0.12500123092E+03 0.  0.
          2    1    1    2  501    0 -0.12181202911E+02 -0.40109350867E+02 -0.20455319511E+02  0.46642918301E+02  0.00000000000E+00 0. -1.
          1    1    1    2  502    0  0.61597069130E+02 -0.65486284711E+02  0.21479997999E+04  0.21498804136E+04  0.00000000000E+00 0. -1.
         22    1    3    3    0    0 -0.55272367124E+02  0.10140422671E+03  0.13798136521E+03  0.17993529089E+03  0.00000000000E+00 0. -1.
         22    1    3    3    0    0  0.58565009043E+01  0.41914088691E+01  0.18804371038E+03  0.18818157063E+03  0.00000000000E+00 0. -1.
</event>
<event>
 7    1  0.6485470E-006  0.8840683E+02  0.7818608E-02  0.1348498E+00
          2   -1    0    0  502    0  0.00000000000E+00  0.00000000000E+00  0.12588020547E+04  0.12588020547E+04  0.00000000000E+00 0. -1.
          1   -1    0    0  501    0 -0.00000000000E+00 -0.00000000000E+00 -0.45946183152E+03  0.45946183152E+03  0.00000000000E+00 0. -1.
         25    2    1    2    0    0  0.50399615920E+02 -0.13854047435E+03  0.25187002565E+03  0.31748612323E+03  0.12500137722E+03 0.  0.
          2    1    1    2  501    0 -0.38505593632E+02  0.78558564450E+02 -0.42119454329E+03  0.43018481155E+03  0.00000000000E+00 0. -1.
          1    1    1    2  502    0 -0.11894022288E+02  0.59981909898E+02  0.96866474081E+03  0.97059295143E+03  0.00000000000E+00 0. -1.
         22    1    3    3    0    0 -0.33963058391E+02 -0.10932467457E+02  0.23886823013E+02  0.42937029399E+02  0.00000000000E+00 0. -1.
         22    1    3    3    0    0  0.84362674311E+02 -0.12760800689E+03  0.22798320264E+03  0.27454909383E+03  0.00000000000E+00 0. -1.
</event>
<event>
 7    1  0.6485470E-006  0.6424393E+02  0.7818608E-02  0.1398455E+00
          2   -1    0    0  502    0  0.00000000000E+00  0.00000000000E+00  0.28118897744E+03  0.28118897744E+03  0.00000000000E+00 0. -1.
          1   -1    0    0  501    0 -0.00000000000E+00 -0.00000000000E+00 -0.15343122149E+04  0.15343122149E+04  0.00000000000E+00 0. -1.
         25    2    1    2    0    0  0.43346279391E+02 -0.10307844636E+02 -0.64443953612E+01  0.13286110743E+03  0.12500156814E+03 0.  0.
          2    1    1    2  501    0  0.63358159843E+01  0.55398598302E+02 -0.14589515283E+04  0.14600166811E+04  0.00000000000E+00 0. -1.
          1    1    1    2  502    0 -0.49682095375E+02 -0.45090753665E+02  0.21227268613E+03  0.22262340386E+03  0.00000000000E+00 0. -1.
         22    1    3    3    0    0 -0.39797827001E+02 -0.15117721606E+02  0.17765475578E+02  0.46130517698E+02  0.00000000000E+00 0.  1.
         22    1    3    3    0    0  0.83144106392E+02  0.48098769699E+01 -0.24209870939E+02  0.86730589731E+02  0.00000000000E+00 0.  1.
</event>
<event>
 7    1  0.6485470E-006  0.1462631E+03  0.7818608E-02  0.1357631E+00
          2   -1    0    0  502    0  0.00000000000E+00  0.00000000000E+00  0.37042631669E+03  0.37042631669E+03  0.00000000000E+00 0. -1.
          1   -1    0    0  501    0 -0.00000000000E+00 -0.00000000000E+00 -0.48027128471E+03  0.48027128471E+03  0.00000000000E+00 0. -1.
         25    2    1    2    0    0 -0.10274183893E+03  0.66981048410E+02  0.73605732127E+02  0.18995580731E+03  0.12499223423E+03 0.  0.
          2    1    1    2  501    0 -0.30147702128E+02  0.16153967681E+02 -0.39553826017E+03  0.39701429430E+03  0.00000000000E+00 0. -1.
          1    1    1    2  502    0  0.13288954106E+03 -0.83135016091E+02  0.21208756003E+03  0.26372749978E+03  0.00000000000E+00 0. -1.
         22    1    3    3    0    0 -0.57347724993E+02  0.12694727689E+00  0.90746853138E+02  0.10734881942E+03  0.00000000000E+00 0.  1.
         22    1    3    3    0    0 -0.45394113938E+02  0.66854101133E+02 -0.17141121011E+02  0.82606987889E+02  0.00000000000E+00 0.  1.
</event>
<event>
 7    1  0.6485470E-006  0.3806642E+03  0.7818608E-02  0.1116220E+00
          2   -1    0    0  502    0  0.00000000000E+00  0.00000000000E+00  0.21298039731E+04  0.21298039731E+04  0.00000000000E+00 0. -1.
          1   -1    0    0  501    0 -0.00000000000E+00 -0.00000000000E+00 -0.15419484412E+04  0.15419484412E+04  0.00000000000E+00 0. -1.
         25    2    1    2    0    0  0.38384306352E+03  0.14442559555E+03  0.25926763005E+03  0.50103761855E+03  0.12499896458E+03 0.  0.
          2    1    1    2  501    0 -0.27698030541E+03 -0.26114945615E+03 -0.13918721502E+04  0.14429917569E+04  0.00000000000E+00 0. -1.
          1    1    1    2  502    0 -0.10686275811E+03  0.11672386060E+03  0.17204600520E+04  0.17277230389E+04  0.00000000000E+00 0. -1.
         22    1    3    3    0    0 -0.75374089283E+01  0.99362597768E+01 -0.39476049978E+00  0.12477885540E+02  0.00000000000E+00 0.  1.
         22    1    3    3    0    0  0.39138047245E+03  0.13448933577E+03  0.25966239055E+03  0.48855973301E+03  0.00000000000E+00 0.  1.
</event>
<event>
 7    1  0.6485470E-006  0.1212038E+03  0.7818608E-02  0.1404110E+00
          2   -1    0    0  502    0  0.00000000000E+00  0.00000000000E+00  0.10252376460E+04  0.10252376460E+04  0.00000000000E+00 0. -1.
          1   -1    0    0  501    0 -0.00000000000E+00 -0.00000000000E+00 -0.81509445431E+03  0.81509445431E+03  0.00000000000E+00 0. -1.
         25    2    1    2    0    0  0.37702361307E+02 -0.14102461005E+03 -0.26124998596E+02  0.19395181113E+03  0.12500152321E+03 0.  0.
          2    1    1    2  501    0 -0.21664035189E+02  0.11775226863E+03 -0.69975829978E+03  0.70992718309E+03  0.00000000000E+00 0. -1.
          1    1    1    2  502    0 -0.16038326118E+02  0.23272341422E+02  0.93602649003E+03  0.93645310604E+03  0.00000000000E+00 0. -1.
         22    1    3    3    0    0 -0.29876095817E+02 -0.11434546503E+03 -0.50040083764E+01  0.11828992592E+03  0.00000000000E+00 0. -1.
         22    1    3    3    0    0  0.67578457124E+02 -0.26679145014E+02 -0.21120990219E+02  0.75661885211E+02  0.00000000000E+00 0. -1.
</event>
<event>
 7    1  0.6485470E-006  0.2599585E+02  0.7818608E-02  0.1656897E+00
          2   -1    0    0  502    0  0.00000000000E+00  0.00000000000E+00  0.46430760420E+03  0.46430760420E+03  0.00000000000E+00 0. -1.
          1   -1    0    0  501    0 -0.00000000000E+00 -0.00000000000E+00 -0.42946145730E+03  0.42946145730E+03  0.00000000000E+00 0. -1.
         25    2    1    2    0    0  0.26388596948E+02  0.84189813076E+00 -0.65628179395E+02  0.14362764022E+03  0.12499909705E+03 0.  0.
          2    1    1    2  501    0 -0.15368192149E+02  0.21151326143E+02 -0.32395073062E+03  0.32500405504E+03  0.00000000000E+00 0. -1.
          1    1    1    2  502    0 -0.11020404798E+02 -0.21993224273E+02  0.42442505691E+03  0.42513736623E+03  0.00000000000E+00 0. -1.
         22    1    3    3    0    0 -0.37158922984E+02 -0.30666411160E+01  0.15603363400E+02  0.40418495697E+02  0.00000000000E+00 0.  1.
         22    1    3    3    0    0  0.63547519931E+02  0.39085392468E+01 -0.81231542795E+02  0.10320914452E+03  0.00000000000E+00 0.  1.
</event>
<event>
 7    1  0.6485470E-006  0.9940545E+02  0.7818608E-02  0.1286611E+00
          2   -1    0    0  502    0  0.00000000000E+00  0.00000000000E+00  0.41994419161E+03  0.41994419161E+03  0.00000000000E+00 0. -1.
          1   -1    0    0  501    0 -0.00000000000E+00 -0.00000000000E+00 -0.16876754702E+03  0.16876754702E+03  0.00000000000E+00 0. -1.
         25    2    1    2    0    0 -0.97958144279E+01  0.48708279448E+02  0.10139815568E+03  0.16844992230E+03  0.12500134351E+03 0.  0.
          2    1    1    2  501    0 -0.99381779978E+02  0.21692076180E+01 -0.10121312711E+03  0.14186451548E+03  0.00000000000E+00 0. -1.
          1    1    1    2  502    0  0.10917759441E+03 -0.50877487066E+02  0.25099161602E+03  0.27839730086E+03  0.00000000000E+00 0. -1.
         22    1    3    3    0    0  0.46004577777E+02  0.49726609700E+02  0.21661334032E+02  0.71122220725E+02  0.00000000000E+00 0.  1.
         22    1    3    3    0    0 -0.55800392205E+02 -0.10183302525E+01  0.79736821646E+02  0.97327701571E+02  0.00000000000E+00 0.  1.
</event>
<event>
 7    1  0.6485470E-006  0.5505707E+02  0.7818608E-02  0.1507365E+00
          2   -1    0    0  502    0  0.00000000000E+00  0.00000000000E+00  0.50211639263E+02  0.50211639263E+02  0.00000000000E+00 0. -1.
          1   -1    0    0  501    0 -0.00000000000E+00 -0.00000000000E+00 -0.98684781526E+03  0.98684781526E+03  0.00000000000E+00 0. -1.
         25    2    1    2    0    0 -0.78534916488E+02 -0.64122325654E+01 -0.17752858776E+03  0.23097645342E+03  0.12499949091E+03 0.  0.
          2    1    1    2  501    0  0.51437008804E+02  0.17366905195E+02 -0.77216456038E+03  0.77407072260E+03  0.00000000000E+00 0. -1.
          1    1    1    2  502    0  0.27097907684E+02 -0.10954672630E+02  0.13056972149E+02  0.32012278503E+02  0.00000000000E+00 0. -1.
         22    1    3    3    0    0 -0.98312671446E+02  0.25604305052E+02 -0.15984177677E+03  0.18939470797E+03  0.00000000000E+00 0.  1.
         22    1    3    3    0    0  0.19777754958E+02 -0.32016537617E+02 -0.17686810992E+02  0.41581745457E+02  0.00000000000E+00 0.  1.
</event>
<event>
 7    1  0.6485470E-006  0.1335033E+03  0.7818608E-02  0.1253832E+00
          2   -1    0    0  502    0  0.00000000000E+00  0.00000000000E+00  0.83589535704E+02  0.83589535704E+02  0.00000000000E+00 0. -1.
          1   -1    0    0  501    0 -0.00000000000E+00 -0.00000000000E+00 -0.20898136234E+04  0.20898136234E+04  0.00000000000E+00 0. -1.
         25    2    1    2    0    0  0.26646789957E+02  0.11162959775E+03 -0.41006403546E+03  0.44379729369E+03  0.12502922136E+03 0.  0.
          2    1    1    2  501    0  0.69464584683E+02 -0.12371950733E+03 -0.16229186292E+04  0.16291091805E+04  0.00000000000E+00 0. -1.
          1    1    1    2  502    0 -0.96111374640E+02  0.12089909585E+02  0.26758576917E+02  0.10049668496E+03  0.00000000000E+00 0. -1.
         22    1    3    3    0    0 -0.29108091264E+01 -0.27182437759E+02 -0.78938639489E+02  0.83538413539E+02  0.00000000000E+00 0. -1.
         22    1    3    3    0    0  0.29557599083E+02  0.13881203551E+03 -0.33112539597E+03  0.36025888015E+03  0.00000000000E+00 0. -1.
</event>
<event>
 7    1  0.6485470E-006  0.6003231E+02  0.7818608E-02  0.1455074E+00
          2   -1    0    0  502    0  0.00000000000E+00  0.00000000000E+00  0.51698942440E+03  0.51698942440E+03  0.00000000000E+00 0. -1.
          1   -1    0    0  501    0 -0.00000000000E+00 -0.00000000000E+00 -0.18530226188E+03  0.18530226188E+03  0.00000000000E+00 0. -1.
         25    2    1    2    0    0 -0.78541130935E+02  0.44517925259E+02  0.25689563741E+02  0.15631849984E+03  0.12499985916E+03 0.  0.
          2    1    1    2  501    0  0.38758016346E+02 -0.66473555486E+00 -0.11472899807E+03  0.12110065525E+03  0.00000000000E+00 0. -1.
          1    1    1    2  502    0  0.39783114589E+02 -0.43853189704E+02  0.42072659685E+03  0.42487253118E+03  0.00000000000E+00 0. -1.
         22    1    3    3    0    0 -0.80241571594E+02 -0.60875779441E+01  0.55319142983E+02  0.97652322028E+02  0.00000000000E+00 0. -1.
         22    1    3    3    0    0  0.17004406594E+01  0.50605503203E+02 -0.29629579242E+02  0.58666177811E+02  0.00000000000E+00 0. -1.
</event>
<event>
 7    1  0.6485470E-006  0.6140413E+02  0.7818608E-02  0.1474391E+00
          2   -1    0    0  502    0  0.00000000000E+00  0.00000000000E+00  0.15832377786E+03  0.15832377786E+03  0.00000000000E+00 0. -1.
          1   -1    0    0  501    0 -0.00000000000E+00 -0.00000000000E+00 -0.59471589063E+03  0.59471589063E+03  0.00000000000E+00 0. -1.
         25    2    1    2    0    0 -0.61513386348E+02  0.66240529334E+02 -0.26174038288E+03  0.30381424876E+03  0.12499346100E+03 0.  0.
          2    1    1    2  501    0  0.36664447712E+02 -0.44576581504E+02 -0.30723273287E+03  0.31260727037E+03  0.00000000000E+00 0. -1.
          1    1    1    2  502    0  0.24848938636E+02 -0.21663947831E+02  0.13258100297E+03  0.13661814936E+03  0.00000000000E+00 0. -1.
         22    1    3    3    0    0 -0.99641831613E+02  0.55532542138E+02 -0.20534840064E+03  0.23490492436E+03  0.00000000000E+00 0. -1.
         22    1    3    3    0    0  0.38128445265E+02  0.10707987196E+02 -0.56391982240E+02  0.68909324398E+02  0.00000000000E+00 0. -1.
</event>
<event>
 7    1  0.6485470E-006  0.8148082E+02  0.7818608E-02  0.1334928E+00
          2   -1    0    0  502    0  0.00000000000E+00  0.00000000000E+00  0.27319580011E+04  0.27319580011E+04  0.00000000000E+00 0. -1.
          1   -1    0    0  501    0 -0.00000000000E+00 -0.00000000000E+00 -0.21285072692E+03  0.21285072692E+03  0.00000000000E+00 0. -1.
         25    2    1    2    0    0 -0.95638875417E+02  0.29557305684E+01  0.13787665516E+04  0.13877239298E+04  0.12499988278E+03 0.  0.
          2    1    1    2  501    0  0.51618114770E+02 -0.63183858388E+02 -0.19930782921E+03  0.21536072186E+03  0.00000000000E+00 0. -1.
          1    1    1    2  502    0  0.44020760648E+02  0.60228127819E+02  0.13396485518E+04  0.13417240763E+04  0.00000000000E+00 0. -1.
         22    1    3    3    0    0 -0.10185873976E+03 -0.24924996693E+02  0.12946343601E+04  0.12988743529E+04  0.00000000000E+00 0.  1.
         22    1    3    3    0    0  0.62198643427E+01  0.27880727261E+02  0.84132191515E+02  0.88849576893E+02  0.00000000000E+00 0.  1.
</event>
<event>
 7    1  0.6485470E-006  0.1203232E+03  0.7818608E-02  0.1354910E+00
          2   -1    0    0  502    0  0.00000000000E+00  0.00000000000E+00  0.19975971157E+04  0.19975971157E+04  0.00000000000E+00 0. -1.
          1   -1    0    0  501    0 -0.00000000000E+00 -0.00000000000E+00 -0.10544831844E+03  0.10544831844E+03  0.00000000000E+00 0. -1.
         25    2    1    2    0    0  0.90130107815E+01 -0.12843556630E+03  0.15707514840E+04  0.15809716081E+04  0.12503628344E+03 0.  0.
          2    1    1    2  501    0 -0.47582221847E+02  0.11048055030E+03 -0.62683611752E+02  0.13564385357E+03  0.00000000000E+00 0. -1.
          1    1    1    2  502    0  0.38569211065E+02  0.17955016004E+02  0.38408092506E+03  0.38642997249E+03  0.00000000000E+00 0. -1.
         22    1    3    3    0    0  0.67316760302E+00 -0.48283225529E+02  0.14270820611E+03  0.15065641411E+03  0.00000000000E+00 0.  1.
         22    1    3    3    0    0  0.83398431785E+01 -0.80152340773E+02  0.14280432779E+04  0.14303151940E+04  0.00000000000E+00 0.  1.
</event>
<event>
 7    1  0.6485470E-006  0.1502230E+03  0.7818608E-02  0.1242535E+00
          2   -1    0    0  502    0  0.00000000000E+00  0.00000000000E+00  0.99661586806E+03  0.99661586806E+03  0.00000000000E+00 0. -1.
          1   -1    0    0  501    0 -0.00000000000E+00 -0.00000000000E+00 -0.40225946061E+03  0.40225946061E+03  0.00000000000E+00 0. -1.
         25    2    1    2    0    0  0.14987120557E+03  0.18731040830E+03  0.84855961985E+02  0.28349464419E+03  0.12498844621E+03 0.  0.
          2    1    1    2  501    0 -0.67945394644E+02 -0.68389312617E+02 -0.28862331456E+03  0.30429770364E+03  0.00000000000E+00 0. -1.
          1    1    1    2  502    0 -0.81925810921E+02 -0.11892109568E+03  0.79812376003E+03  0.81108298084E+03  0.00000000000E+00 0. -1.
         22    1    3    3    0    0  0.15420868130E+03  0.12967390893E+03  0.98251981064E+02  0.22416309203E+03  0.00000000000E+00 0.  1.
         22    1    3    3    0    0 -0.43374757310E+01  0.57636499368E+02 -0.13396019079E+02  0.59331552164E+02  0.00000000000E+00 0.  1.
</event>
<event>
 7    1  0.6485470E-006  0.1769460E+03  0.7818608E-02  0.1264559E+00
          2   -1    0    0  502    0  0.00000000000E+00  0.00000000000E+00  0.55362531574E+03  0.55362531574E+03  0.00000000000E+00 0. -1.
          1   -1    0    0  501    0 -0.00000000000E+00 -0.00000000000E+00 -0.29401389404E+03  0.29401389404E+03  0.00000000000E+00 0. -1.
         25    2    1    2    0    0  0.67676246355E+02 -0.10831692596E+03  0.65701613973E+02  0.19040870085E+03  0.12500456196E+03 0.  0.
          2    1    1    2  501    0 -0.11299734201E+03  0.15597120452E+03 -0.18832897832E+03  0.26937561140E+03  0.00000000000E+00 0. -1.
          1    1    1    2  502    0  0.45321095658E+02 -0.47654278567E+02  0.38223878605E+03  0.38785489753E+03  0.00000000000E+00 0. -1.
         22    1    3    3    0    0  0.72284094140E+02 -0.13417489378E+03  0.57492827704E+02  0.16289050808E+03  0.00000000000E+00 0.  1.
         22    1    3    3    0    0 -0.46078477849E+01  0.25857967822E+02  0.82087862698E+01  0.27518192766E+02  0.00000000000E+00 0.  1.
</event>
<event>
 7    1  0.6485470E-006  0.7921514E+02  0.7818608E-02  0.1400419E+00
          2   -1    0    0  502    0  0.00000000000E+00  0.00000000000E+00  0.43493348262E+03  0.43493348262E+03  0.00000000000E+00 0. -1.
          1   -1    0    0  501    0 -0.00000000000E+00 -0.00000000000E+00 -0.73270278379E+03  0.73270278379E+03  0.00000000000E+00 0. -1.
         25    2    1    2    0    0  0.36190257645E+02 -0.14048431126E+02 -0.23220443036E+03  0.26654914961E+03  0.12498983363E+03 0.  0.
          2    1    1    2  501    0  0.43533758886E+02  0.93332801070E+01 -0.47846613815E+03  0.48053318682E+03  0.00000000000E+00 0. -1.
          1    1    1    2  502    0 -0.79724016531E+02  0.47151510186E+01  0.41290126733E+03  0.42055392999E+03  0.00000000000E+00 0. -1.
         22    1    3    3    0    0  0.39725260973E+02 -0.65559907379E+02 -0.16376144851E+03  0.18081484959E+03  0.00000000000E+00 0. -1.
         22    1    3    3    0    0 -0.35350033275E+01  0.51511476253E+02 -0.68442981851E+02  0.85734300014E+02  0.00000000000E+00 0. -1.
</event>
<event>
 7    1  0.6485470E-006  0.6751379E+02  0.7818608E-02  0.1465017E+00
          2   -1    0    0  502    0  0.00000000000E+00  0.00000000000E+00  0.20916305250E+04  0.20916305250E+04  0.00000000000E+00 0. -1.
          1   -1    0    0  501    0 -0.00000000000E+00 -0.00000000000E+00 -0.40674255116E+03  0.40674255116E+03  0.00000000000E+00 0. -1.
         25    2    1    2    0    0  0.54445002787E+02  0.48775075321E+01  0.10009054682E+04  0.10101619896E+04  0.12500976167E+03 0.  0.
          2    1    1    2  501    0  0.13236992682E+02 -0.29206931173E+02 -0.40028172263E+03  0.40156409236E+03  0.00000000000E+00 0. -1.
          1    1    1    2  502    0 -0.67681995470E+02  0.24329423641E+02  0.10842642282E+04  0.10866469942E+04  0.00000000000E+00 0. -1.
         22    1    3    3    0    0  0.54586863454E+02 -0.53057047734E+02  0.65910212046E+03  0.66348351989E+03  0.00000000000E+00 0.  1.
         22    1    3    3    0    0 -0.14186066698E+00  0.57934555266E+02  0.34180334776E+03  0.34667846971E+03  0.00000000000E+00 0.  1.
</event>
<event>
 7    1  0.6485470E-006  0.7952695E+02  0.7818608E-02  0.1486583E+00
          2   -1    0    0  502    0  0.00000000000E+00  0.00000000000E+00  0.13314759937E+04  0.13314759937E+04  0.00000000000E+00 0. -1.
          1   -1    0    0  501    0 -0.00000000000E+00 -0.00000000000E+00 -0.13757676789E+03  0.13757676789E+03  0.00000000000E+00 0. -1.
         25    2    1    2    0    0  0.29685813666E+02 -0.96970194482E+02  0.66505467634E+03  0.68425677564E+03  0.12500058537E+03 0.  0.
          2    1    1    2  501    0 -0.17174887431E+02  0.77248724641E+02 -0.11551044276E+03  0.14001787244E+03  0.00000000000E+00 0. -1.
          1    1    1    2  502    0 -0.12510926235E+02  0.19721469841E+02  0.64435499223E+03  0.64477811351E+03  0.00000000000E+00 0. -1.
         22    1    3    3    0    0  0.34725708836E+02 -0.32972045862E+01  0.42644389127E+03  0.42786813251E+03  0.00000000000E+00 0.  1.
         22    1    3    3    0    0 -0.50398951695E+01 -0.93672989896E+02  0.23861078507E+03  0.25638864314E+03  0.00000000000E+00 0.  1.
</event>
<event>
 7    1  0.6485470E-006  0.1094407E+03  0.7818608E-02  0.1455539E+00
          2   -1    0    0  502    0  0.00000000000E+00  0.00000000000E+00  0.11608159994E+03  0.11608159994E+03  0.00000000000E+00 0. -1.
          1   -1    0    0  501    0 -0.00000000000E+00 -0.00000000000E+00 -0.78214576826E+03  0.78214576826E+03  0.00000000000E+00 0. -1.
         25    2    1    2    0    0  0.60939938913E+02  0.74086911206E+02 -0.74163751107E+02  0.17414982362E+03  0.12500141007E+03 0.  0.
          2    1    1    2  501    0  0.40570990357E+01  0.20799050826E+02 -0.60762527010E+03  0.60799467879E+03  0.00000000000E+00 0. -1.
          1    1    1    2  502    0 -0.64997037948E+02 -0.94885962032E+02  0.15724852887E+02  0.11608286579E+03  0.00000000000E+00 0. -1.
         22    1    3    3    0    0  0.84960947896E+02  0.68215818782E+02 -0.92851631280E+02  0.14315441324E+03  0.00000000000E+00 0.  1.
         22    1    3    3    0    0 -0.24021008983E+02  0.58710924239E+01  0.18687880173E+02  0.30995410373E+02  0.00000000000E+00 0.  1.
</event>
<event>
 7    1  0.6485470E-006  0.3270210E+02  0.7818608E-02  0.1626833E+00
          2   -1    0    0  502    0  0.00000000000E+00  0.00000000000E+00  0.17134367266E+03  0.17134367266E+03  0.00000000000E+00 0. -1.
          1   -1    0    0  501    0 -0.00000000000E+00 -0.00000000000E+00 -0.51495511611E+02  0.51495511611E+02  0.00000000000E+00 0. -1.
         25    2    1    2    0    0 -0.23538973012E+02  0.36285211111E+01  0.74348741772E+02  0.14738352991E+03  0.12500768004E+03 0.  0.
          2    1    1    2  501    0  0.32308031728E+02  0.17865302802E+02  0.26256926312E+02  0.45303467171E+02  0.00000000000E+00 0. -1.
          1    1    1    2  502    0 -0.87690587161E+01 -0.21493823913E+02  0.19242492968E+02  0.30152187197E+02  0.00000000000E+00 0. -1.
         22    1    3    3    0    0 -0.35290188198E+02  0.18663560056E+01 -0.27540604511E+02  0.44803633386E+02  0.00000000000E+00 0.  1.
         22    1    3    3    0    0  0.11751215186E+02  0.17621651055E+01  0.10188934628E+03  0.10257989652E+03  0.00000000000E+00 0.  1.
</event>
<event>
 7    1  0.6485470E-006  0.6139003E+02  0.7818608E-02  0.1457978E+00
          2   -1    0    0  502    0  0.00000000000E+00  0.00000000000E+00  0.53730291055E+03  0.53730291055E+03  0.00000000000E+00 0. -1.
          1   -1    0    0  501    0 -0.00000000000E+00 -0.00000000000E+00 -0.18245287700E+03  0.18245287700E+03  0.00000000000E+00 0. -1.
         25    2    1    2    0    0  0.27124723955E+02  0.84429866740E+02  0.18792148701E+03  0.24249259908E+03  0.12499608907E+03 0.  0.
          2    1    1    2  501    0  0.14455195500E+01 -0.60744913529E+02 -0.14808757501E+03  0.16006862253E+03  0.00000000000E+00 0. -1.
          1    1    1    2  502    0 -0.28570243505E+02 -0.23684953210E+02  0.31501612156E+03  0.31719456594E+03  0.00000000000E+00 0. -1.
         22    1    3    3    0    0  0.24753199006E+02  0.36388325116E+02 -0.44173190190E+01  0.44230575093E+02  0.00000000000E+00 0. -1.
         22    1    3    3    0    0  0.23715249489E+01  0.48041541624E+02  0.19233880603E+03  0.19826202399E+03  0.00000000000E+00 0. -1.
</event>
<event>
 7    1  0.6485470E-006  0.4838672E+02  0.7818608E-02  0.1552983E+00
          2   -1    0    0  502    0  0.00000000000E+00  0.00000000000E+00  0.15544304474E+04  0.15544304474E+04  0.00000000000E+00 0. -1.
          1   -1    0    0  501    0 -0.00000000000E+00 -0.00000000000E+00 -0.76655932267E+01  0.76655932267E+01  0.00000000000E+00 0. -1.
         25    2    1    2    0    0  0.28239013363E+02 -0.41706064209E+02  0.10875937633E+04  0.10959108954E+04  0.12499463556E+03 0.  0.
          2    1    1    2  501    0 -0.43555428977E+02  0.22436800084E+02  0.20277198408E+03  0.20860719766E+03  0.00000000000E+00 0. -1.
          1    1    1    2  502    0  0.15316415614E+02  0.19269264125E+02  0.25639910675E+03  0.25757794756E+03  0.00000000000E+00 0. -1.
         22    1    3    3    0    0  0.26247499588E+02 -0.10840905335E+01  0.42082671322E+02  0.49609048696E+02  0.00000000000E+00 0.  1.
         22    1    3    3    0    0  0.19915137753E+01 -0.40621973676E+02  0.10455110920E+04  0.10463018467E+04  0.00000000000E+00 0.  1.
</event>
<event>
 7    1  0.6485470E-006  0.3625198E+02  0.7818608E-02  0.1601196E+00
          2   -1    0    0  502    0  0.00000000000E+00  0.00000000000E+00  0.10798282479E+04  0.10798282479E+04  0.00000000000E+00 0. -1.
          1   -1    0    0  501    0 -0.00000000000E+00 -0.00000000000E+00 -0.10659714169E+02  0.10659714169E+02  0.00000000000E+00 0. -1.
         25    2    1    2    0    0  0.21504453351E+02 -0.25323412937E+02  0.61918811211E+03  0.63255243729E+03  0.12499980398E+03 0.  0.
          2    1    1    2  501    0 -0.39931725612E+02  0.93814857462E+01  0.40233978092E+03  0.40442533835E+03  0.00000000000E+00 0. -1.
          1    1    1    2  502    0  0.18427272261E+02  0.15941927191E+02  0.47640640743E+02  0.53510186469E+02  0.00000000000E+00 0. -1.
         22    1    3    3    0    0  0.36137191833E+02  0.36750536542E+02  0.14089795984E+03  0.15002910936E+03  0.00000000000E+00 0.  1.
         22    1    3    3    0    0 -0.14632738482E+02 -0.62073949479E+02  0.47829015227E+03  0.48252332793E+03  0.00000000000E+00 0.  1.
</event>
<event>
 7    1  0.6485470E-006  0.4157471E+02  0.7818608E-02  0.1509239E+00
          2   -1    0    0  502    0  0.00000000000E+00  0.00000000000E+00  0.35199771040E+03  0.35199771040E+03  0.00000000000E+00 0. -1.
          1   -1    0    0  501    0 -0.00000000000E+00 -0.00000000000E+00 -0.86580746294E+02  0.86580746294E+02  0.00000000000E+00 0. -1.
         25    2    1    2    0    0 -0.59957143296E+01  0.49064920098E+02  0.50629903507E+02  0.14363633759E+03  0.12499878149E+03 0.  0.
          2    1    1    2  501    0 -0.28090511946E+02 -0.31782130297E+02 -0.26916226556E+02  0.50236081850E+02  0.00000000000E+00 0. -1.
          1    1    1    2  502    0  0.34086226276E+02 -0.17282789801E+02  0.24170328716E+03  0.24470603725E+03  0.00000000000E+00 0. -1.
         22    1    3    3    0    0  0.37507916684E+02  0.95459717491E+01 -0.26322660914E+02  0.46806536597E+02  0.00000000000E+00 0. -1.
         22    1    3    3    0    0 -0.43503631014E+02  0.39518948349E+02  0.76952564421E+02  0.96829800996E+02  0.00000000000E+00 0. -1.
</event>
<event>
 7    1  0.6485470E-006  0.8794861E+02  0.7818608E-02  0.1330826E+00
          2   -1    0    0  502    0  0.00000000000E+00  0.00000000000E+00  0.12493691920E+03  0.12493691920E+03  0.00000000000E+00 0. -1.
          1   -1    0    0  501    0 -0.00000000000E+00 -0.00000000000E+00 -0.61940591695E+03  0.61940591695E+03  0.00000000000E+00 0. -1.
         25    2    1    2    0    0 -0.14049323204E+03  0.53145956201E+01 -0.18508007599E+03  0.26390629780E+03  0.12500122525E+03 0.  0.
          2    1    1    2  501    0  0.77666114130E+02  0.29115620958E+02 -0.37453120114E+03  0.38360574200E+03  0.00000000000E+00 0. -1.
          1    1    1    2  502    0  0.62827117910E+02 -0.34430216579E+02  0.65142279380E+02  0.96830796348E+02  0.00000000000E+00 0. -1.
         22    1    3    3    0    0 -0.72741834338E+02  0.33752770714E+01 -0.18203366655E+03  0.19605872262E+03  0.00000000000E+00 0.  1.
         22    1    3    3    0    0 -0.67751397702E+02  0.19393185487E+01 -0.30464094424E+01  0.67847575178E+02  0.00000000000E+00 0.  1.
</event>
<event>
 7    1  0.6485470E-006  0.7274432E+02  0.7818608E-02  0.1399913E+00
          2   -1    0    0  502    0  0.00000000000E+00  0.00000000000E+00  0.50763166017E+02  0.50763166017E+02  0.00000000000E+00 0. -1.
          1   -1    0    0  501    0 -0.00000000000E+00 -0.00000000000E+00 -0.55948110461E+03  0.55948110461E+03  0.00000000000E+00 0. -1.
         25    2    1    2    0    0  0.37278631837E+02  0.78876240133E+02 -0.35414836701E+03  0.38556780013E+03  0.12502121818E+03 0.  0.
          2    1    1    2  501    0  0.25081890837E+02 -0.41719140897E+02 -0.14314024873E+03  0.15119100096E+03  0.00000000000E+00 0. -1.
          1    1    1    2  502    0 -0.62360522674E+02 -0.37157099237E+02 -0.11429322858E+02  0.73485469535E+02  0.00000000000E+00 0. -1.
         22    1    3    3    0    0 -0.25828112375E+02  0.16071711816E+02 -0.13154918166E+02  0.33142769671E+02  0.00000000000E+00 0.  1.
         22    1    3    3    0    0  0.63106744212E+02  0.62804528318E+02 -0.34099344884E+03  0.35242503046E+03  0.00000000000E+00 0.  1.
</event>
<event>
 7    1  0.6485470E-006  0.7072248E+02  0.7818608E-02  0.1504694E+00
          2   -1    0    0  502    0  0.00000000000E+00  0.00000000000E+00  0.11330751294E+04  0.11330751294E+04  0.00000000000E+00 0. -1.
          1   -1    0    0  501    0 -0.00000000000E+00 -0.00000000000E+00 -0.17934277416E+03  0.17934277416E+03  0.00000000000E+00 0. -1.
         25    2    1    2    0    0  0.62587582940E+01 -0.89352509259E+02 -0.61590553677E+01  0.15390470657E+03  0.12500272707E+03 0.  0.
          2    1    1    2  501    0  0.10156865402E+02  0.20827653419E+02 -0.96769615658E+02  0.99505334412E+02  0.00000000000E+00 0. -1.
          1    1    1    2  502    0 -0.16415623696E+02  0.68524855840E+02  0.10566610262E+04  0.10590078625E+04  0.00000000000E+00 0. -1.
         22    1    3    3    0    0 -0.42926758836E+02 -0.73341724805E+01  0.28653432026E+02  0.52129798359E+02  0.00000000000E+00 0.  1.
         22    1    3    3    0    0  0.49185517130E+02 -0.82018336778E+02 -0.34812487393E+02  0.10177490821E+03  0.00000000000E+00 0.  1.
</event>
<event>
 7    1  0.6485470E-006  0.8205291E+03  0.7818608E-02  0.1207894E+00
          2   -1    0    0  502    0  0.00000000000E+00  0.00000000000E+00  0.24884630626E+04  0.24884630626E+04  0.00000000000E+00 0. -1.
          1   -1    0    0  501    0 -0.00000000000E+00 -0.00000000000E+00 -0.14350911648E+04  0.14350911648E+04  0.00000000000E+00 0. -1.
         25    2    1    2    0    0 -0.42397569417E+03 -0.72318764183E+03  0.71958057013E+02  0.85062240332E+03  0.12499902607E+03 0.  0.
          2    1    1    2  501    0  0.41902646050E+03  0.69836353463E+03 -0.88709247079E+03  0.12042540649E+04  0.00000000000E+00 0. -1.
          1    1    1    2  502    0  0.49492336737E+01  0.24824107207E+02  0.18685063116E+04  0.18686777592E+04  0.00000000000E+00 0. -1.
         22    1    3    3    0    0 -0.44075480340E+02 -0.17463644901E+03  0.22926222439E+02  0.18156582543E+03  0.00000000000E+00 0. -1.
         22    1    3    3    0    0 -0.37990021383E+03 -0.54855119282E+03  0.49031834574E+02  0.66905657789E+03  0.00000000000E+00 0. -1.
</event>
<event>
 7    1  0.6485470E-006  0.1417108E+03  0.7818608E-02  0.1381659E+00
          2   -1    0    0  502    0  0.00000000000E+00  0.00000000000E+00  0.11985746358E+03  0.11985746358E+03  0.00000000000E+00 0. -1.
          1   -1    0    0  501    0 -0.00000000000E+00 -0.00000000000E+00 -0.43517696813E+03  0.43517696813E+03  0.00000000000E+00 0. -1.
         25    2    1    2    0    0  0.15312157918E+03  0.61979778848E+02 -0.22793312177E+03  0.30800553420E+03  0.12500476031E+03 0.  0.
          2    1    1    2  501    0 -0.25432762945E+02 -0.13790223378E+02 -0.10546136792E+03  0.10935765092E+03  0.00000000000E+00 0. -1.
          1    1    1    2  502    0 -0.12768881624E+03 -0.48189555470E+02  0.18074985135E+02  0.13767124659E+03  0.00000000000E+00 0. -1.
         22    1    3    3    0    0  0.12091945331E+02  0.32138653004E+02  0.43657635068E+01  0.34614564129E+02  0.00000000000E+00 0. -1.
         22    1    3    3    0    0  0.14102963385E+03  0.29841125844E+02 -0.23229888528E+03  0.27339097007E+03  0.00000000000E+00 0. -1.
</event>
<event>
 7    1  0.6485470E-006  0.2404049E+03  0.7818608E-02  0.1140035E+00
          2   -1    0    0  502    0  0.00000000000E+00  0.00000000000E+00  0.14302079002E+04  0.14302079002E+04  0.00000000000E+00 0. -1.
          1   -1    0    0  501    0 -0.00000000000E+00 -0.00000000000E+00 -0.11914531144E+04  0.11914531144E+04  0.00000000000E+00 0. -1.
         25    2    1    2    0    0  0.22262471986E+02  0.80513010467E+02  0.29742061830E+03  0.33326022895E+03  0.12500157397E+03 0.  0.
          2    1    1    2  501    0  0.87768369048E+02 -0.23153397256E+03 -0.11524606208E+04  0.11787606837E+04  0.00000000000E+00 0. -1.
          1    1    1    2  502    0 -0.11003084103E+03  0.15102096209E+03  0.10937947883E+04  0.11096401020E+04  0.00000000000E+00 0. -1.
         22    1    3    3    0    0 -0.22880270434E+02  0.96152333354E+02  0.16326082549E+03  0.19084777998E+03  0.00000000000E+00 0.  1.
         22    1    3    3    0    0  0.45142742420E+02 -0.15639322887E+02  0.13415979281E+03  0.14241244897E+03  0.00000000000E+00 0.  1.
</event>
<event>
 7    1  0.6485470E-006  0.1488485E+03  0.7818608E-02  0.1315810E+00
          2   -1    0    0  502    0  0.00000000000E+00  0.00000000000E+00  0.25602105143E+04  0.25602105143E+04  0.00000000000E+00 0. -1.
          1   -1    0    0  501    0 -0.00000000000E+00 -0.00000000000E+00 -0.10512030406E+04  0.10512030406E+04  0.00000000000E+00 0. -1.
         25    2    1    2    0    0  0.10986590962E+03 -0.41049640722E+02  0.42888384488E+03  0.46186896360E+03  0.12500398407E+03 0.  0.
          2    1    1    2  501    0 -0.12039422221E+03  0.88264662536E+02 -0.10290472439E+04  0.10398190466E+04  0.00000000000E+00 0. -1.
          1    1    1    2  502    0  0.10528312597E+02 -0.47215021815E+02  0.21091708727E+04  0.21097255447E+04  0.00000000000E+00 0. -1.
         22    1    3    3    0    0  0.89781562863E+02 -0.79868771626E+02  0.36650764211E+03  0.38570403347E+03  0.00000000000E+00 0.  1.
         22    1    3    3    0    0  0.20084346755E+02  0.38819130904E+02  0.62376202767E+02  0.76164930122E+02  0.00000000000E+00 0.  1.
</event>
<event>
 7    1  0.6485470E-006  0.3688144E+02  0.7818608E-02  0.1583416E+00
          2   -1    0    0  502    0  0.00000000000E+00  0.00000000000E+00  0.25724970695E+02  0.25724970695E+02  0.00000000000E+00 0. -1.
          1   -1    0    0  501    0 -0.00000000000E+00 -0.00000000000E+00 -0.12788187125E+04  0.12788187125E+04  0.00000000000E+00 0. -1.
         25    2    1    2    0    0  0.11211274698E+02 -0.33735326891E+01 -0.55325788626E+03  0.56732391032E+03  0.12500022846E+03 0.  0.
          2    1    1    2  501    0  0.26547661295E+02  0.26837874231E+01 -0.69893463837E+03  0.69944378598E+03  0.00000000000E+00 0. -1.
          1    1    1    2  502    0 -0.37758935993E+02  0.68974526607E+00 -0.90121721592E+00  0.37775986927E+02  0.00000000000E+00 0. -1.
         22    1    3    3    0    0  0.46225683268E+02  0.45124574246E+01 -0.50526220473E+03  0.50739242367E+03  0.00000000000E+00 0.  1.
         22    1    3    3    0    0 -0.35014408570E+02 -0.78859901138E+01 -0.47995681525E+02  0.59931486655E+02  0.00000000000E+00 0.  1.
</event>
<event>
 7    1  0.6485470E-006  0.1369224E+03  0.7818608E-02  0.1382475E+00
          2   -1    0    0  502    0  0.00000000000E+00  0.00000000000E+00  0.21981134496E+04  0.21981134496E+04  0.00000000000E+00 0. -1.
          1   -1    0    0  501    0 -0.00000000000E+00 -0.00000000000E+00 -0.69361945711E+02  0.69361945711E+02  0.00000000000E+00 0. -1.
         25    2    1    2    0    0  0.43344268255E+02  0.10580386618E+03  0.40112925507E+03  0.43543116142E+03  0.12498973306E+03 0.  0.
          2    1    1    2  501    0 -0.64375330073E+02 -0.12683797718E+03  0.45041379921E+02  0.14920047413E+03  0.00000000000E+00 0. -1.
          1    1    1    2  502    0  0.21031061818E+02  0.21034110996E+02  0.16825808689E+04  0.16828437597E+04  0.00000000000E+00 0. -1.
         22    1    3    3    0    0  0.51523527455E+02  0.16446901434E+02  0.27720463903E+03  0.28243156047E+03  0.00000000000E+00 0. -1.
         22    1    3    3    0    0 -0.81792592000E+01  0.89356964748E+02  0.12392461604E+03  0.15299960095E+03  0.00000000000E+00 0. -1.
</event>
<event>
 7    1  0.6485470E-006  0.8368353E+02  0.7818608E-02  0.1334904E+00
          2   -1    0    0  502    0  0.00000000000E+00  0.00000000000E+00  0.17434568969E+04  0.17434568969E+04  0.00000000000E+00 0. -1.
          1   -1    0    0  501    0 -0.00000000000E+00 -0.00000000000E+00 -0.18866555229E+03  0.18866555229E+03  0.00000000000E+00 0. -1.
         25    2    1    2    0    0  0.19363746029E+02  0.71703284741E+01 -0.93790286375E+02  0.15763203330E+03  0.12499948733E+03 0.  0.
          2    1    1    2  501    0  0.93920518520E+01  0.72042853751E+02 -0.40587179261E+02  0.83220805901E+02  0.00000000000E+00 0. -1.
          1    1    1    2  502    0 -0.28755797881E+02 -0.79213182225E+02  0.16891688102E+04  0.16912696100E+04  0.00000000000E+00 0. -1.
         22    1    3    3    0    0 -0.41795432857E+02 -0.27166748642E+02 -0.64757614739E+02  0.81721717470E+02  0.00000000000E+00 0. -1.
         22    1    3    3    0    0  0.61159178887E+02  0.34337077116E+02 -0.29032671635E+02  0.75910315829E+02  0.00000000000E+00 0. -1.
</event>
<event>
 7    1  0.6485470E-006  0.1696475E+03  0.7818608E-02  0.1341696E+00
          2   -1    0    0  502    0  0.00000000000E+00  0.00000000000E+00  0.81454783335E+03  0.81454783335E+03  0.00000000000E+00 0. -1.
          1   -1    0    0  501    0 -0.00000000000E+00 -0.00000000000E+00 -0.58509987974E+03  0.58509987974E+03  0.00000000000E+00 0. -1.
         25    2    1    2    0    0 -0.13877171864E+03 -0.93711120110E+01  0.39442394535E+03  0.43651001309E+03  0.12500134090E+03 0.  0.
          2    1    1    2  501    0  0.16878710202E+03  0.24879351343E+02 -0.55039975430E+03  0.57623602583E+03  0.00000000000E+00 0. -1.
          1    1    1    2  502    0 -0.30015383373E+02 -0.15508239332E+02  0.38542376257E+03  0.38690167418E+03  0.00000000000E+00 0. -1.
         22    1    3    3    0    0  0.17467907063E+02 -0.12568123028E+02  0.10901836523E+03  0.11112195756E+03  0.00000000000E+00 0.  1.
         22    1    3    3    0    0 -0.15623962571E+03  0.31970110166E+01  0.28540558012E+03  0.32538805553E+03  0.00000000000E+00 0.  1.
</event>
<event>
 7    1  0.6485470E-006  0.8752601E+02  0.7818608E-02  0.1313783E+00
          2   -1    0    0  502    0  0.00000000000E+00  0.00000000000E+00  0.69708832317E+03  0.69708832317E+03  0.00000000000E+00 0. -1.
          1   -1    0    0  501    0 -0.00000000000E+00 -0.00000000000E+00 -0.22648195414E+04  0.22648195414E+04  0.00000000000E+00 0. -1.
         25    2    1    2    0    0 -0.12804307640E+03 -0.32055572468E+02  0.11000162421E+03  0.21247947052E+03  0.12499831568E+03 0.  0.
          2    1    1    2  501    0  0.53084559962E+02  0.69483263606E+02 -0.22094355190E+04  0.22111651243E+04  0.00000000000E+00 0. -1.
          1    1    1    2  502    0  0.74958516438E+02 -0.37427691138E+02  0.53170267657E+03  0.53826326971E+03  0.00000000000E+00 0. -1.
         22    1    3    3    0    0 -0.89559292827E+02  0.85722739548E+01  0.12549545948E+03  0.15441328040E+03  0.00000000000E+00 0.  1.
         22    1    3    3    0    0 -0.38483783574E+02 -0.40627846423E+02 -0.15493835279E+02  0.58066190117E+02  0.00000000000E+00 0.  1.
</event>
<event>
 7    1  0.6485470E-006  0.5873598E+02  0.7818608E-02  0.1459509E+00
          2   -1    0    0  502    0  0.00000000000E+00  0.00000000000E+00  0.86133863689E+03  0.86133863689E+03  0.00000000000E+00 0. -1.
          1   -1    0    0  501    0 -0.00000000000E+00 -0.00000000000E+00 -0.63250542346E+03  0.63250542346E+03  0.00000000000E+00 0. -1.
         25    2    1    2    0    0 -0.52671717741E+02  0.76048826050E+02  0.15016455328E+03  0.21617312269E+03  0.12499476836E+03 0.  0.
          2    1    1    2  501    0  0.30861666559E+02 -0.22779771622E+02 -0.59766379812E+03  0.59889345968E+03  0.00000000000E+00 0. -1.
          1    1    1    2  502    0  0.21810051182E+02 -0.53269054428E+02  0.67633245828E+03  0.67877747799E+03  0.00000000000E+00 0. -1.
         22    1    3    3    0    0 -0.14627844393E+02 -0.34033212480E+02  0.52039888855E+02  0.63877878920E+02  0.00000000000E+00 0. -1.
         22    1    3    3    0    0 -0.38043873348E+02  0.11008203853E+03  0.98124664422E+02  0.15229524377E+03  0.00000000000E+00 0. -1.
</event>
<event>
 7    1  0.6485470E-006  0.1859432E+03  0.7818608E-02  0.1261731E+00
          2   -1    0    0  502    0  0.00000000000E+00  0.00000000000E+00  0.96662610447E+03  0.96662610447E+03  0.00000000000E+00 0. -1.
          1   -1    0    0  501    0 -0.00000000000E+00 -0.00000000000E+00 -0.17934528228E+03  0.17934528228E+03  0.00000000000E+00 0. -1.
         25    2    1    2    0    0  0.78836943832E+02  0.15425945342E+03  0.21951534380E+03  0.30630435007E+03  0.12499650405E+03 0.  0.
          2    1    1    2  501    0  0.60504050939E+02 -0.21873758393E+02 -0.11423188932E+03  0.13110349356E+03  0.00000000000E+00 0. -1.
          1    1    1    2  502    0 -0.13934099477E+03 -0.13238569503E+03  0.68199736771E+03  0.70856354312E+03  0.00000000000E+00 0. -1.
         22    1    3    3    0    0  0.11002187802E+03  0.10446507469E+03  0.18042537287E+03  0.23573519179E+03  0.00000000000E+00 0. -1.
         22    1    3    3    0    0 -0.31184934184E+02  0.49794378723E+02  0.39089970932E+02  0.70569158278E+02  0.00000000000E+00 0. -1.
</event>
<event>
 7    1  0.6485470E-006  0.6584149E+02  0.7818608E-02  0.1450795E+00
          2   -1    0    0  502    0  0.00000000000E+00  0.00000000000E+00  0.21281549979E+04  0.21281549979E+04  0.00000000000E+00 0. -1.
          1   -1    0    0  501    0 -0.00000000000E+00 -0.00000000000E+00 -0.25255576001E+03  0.25255576001E+03  0.00000000000E+00 0. -1.
         25    2    1    2    0    0  0.31623191846E+02 -0.40986130028E+02  0.58622081266E+02  0.14744995869E+03  0.12500021116E+03 0.  0.
          2    1    1    2  501    0 -0.58002200267E+01  0.66740547124E+02 -0.20258242619E+03  0.21337193486E+03  0.00000000000E+00 0. -1.
          1    1    1    2  502    0 -0.25822971819E+02 -0.25754417096E+02  0.20195595828E+04  0.20198888643E+04  0.00000000000E+00 0. -1.
         22    1    3    3    0    0 -0.48312146390E+02 -0.13052486531E+02  0.15271385053E+02  0.52322519959E+02  0.00000000000E+00 0. -1.
         22    1    3    3    0    0  0.79935338236E+02 -0.27933643498E+02  0.43350696213E+02  0.95127438734E+02  0.00000000000E+00 0. -1.
</event>
<event>
 7    1  0.6485470E-006  0.5251752E+02  0.7818608E-02  0.1440643E+00
          2   -1    0    0  502    0  0.00000000000E+00  0.00000000000E+00  0.39281878149E+03  0.39281878149E+03  0.00000000000E+00 0. -1.
          1   -1    0    0  501    0 -0.00000000000E+00 -0.00000000000E+00 -0.19879406099E+04  0.19879406099E+04  0.00000000000E+00 0. -1.
         25    2    1    2    0    0 -0.87975764985E+02  0.47821334236E+02  0.37134628326E+02  0.16440994656E+03  0.12500013870E+03 0.  0.
          2    1    1    2  501    0  0.42780646604E+02 -0.24495203717E+02 -0.19217701690E+04  0.19224023464E+04  0.00000000000E+00 0. -1.
          1    1    1    2  502    0  0.45195118380E+02 -0.23326130519E+02  0.28951371229E+03  0.29394709847E+03  0.00000000000E+00 0. -1.
         22    1    3    3    0    0 -0.40777906812E+02 -0.29521537746E+02  0.52244180974E+02  0.72552142081E+02  0.00000000000E+00 0. -1.
         22    1    3    3    0    0 -0.47197858173E+02  0.77342871982E+02 -0.15109552649E+02  0.91857804480E+02  0.00000000000E+00 0. -1.
</event>
<event>
 7    1  0.6485470E-006  0.1054510E+03  0.7818608E-02  0.1422326E+00
          2   -1    0    0  502    0  0.00000000000E+00  0.00000000000E+00  0.39935143091E+03  0.39935143091E+03  0.00000000000E+00 0. -1.
          1   -1    0    0  501    0 -0.00000000000E+00 -0.00000000000E+00 -0.53664931437E+03  0.53664931437E+03  0.00000000000E+00 0. -1.
         25    2    1    2    0    0  0.11102063850E+03 -0.22456472338E+01  0.16052122784E+03  0.23177996386E+03  0.12499704779E+03 0.  0.
          2    1    1    2  501    0 -0.10139458528E+03  0.28751956311E+02 -0.49446044421E+03  0.50556766887E+03  0.00000000000E+00 0. -1.
          1    1    1    2  502    0 -0.96260532178E+01 -0.26506309077E+02  0.19664133291E+03  0.19865311256E+03  0.00000000000E+00 0. -1.
         22    1    3    3    0    0  0.75378976315E+02  0.59300973967E+02  0.97253686405E+02  0.13659017206E+03  0.00000000000E+00 0.  1.
         22    1    3    3    0    0  0.35641662182E+02 -0.61546621201E+02  0.63267541433E+02  0.95189791802E+02  0.00000000000E+00 0.  1.
</event>
<event>
 7    1  0.6485470E-006  0.9267199E+02  0.7818608E-02  0.1466026E+00
          2   -1    0    0  502    0  0.00000000000E+00  0.00000000000E+00  0.13616507910E+03  0.13616507910E+03  0.00000000000E+00 0. -1.
          1   -1    0    0  501    0 -0.00000000000E+00 -0.00000000000E+00 -0.12989939817E+04  0.12989939817E+04  0.00000000000E+00 0. -1.
         25    2    1    2    0    0  0.70809306024E+02 -0.37223384676E+02 -0.11166210407E+03  0.18572200318E+03  0.12499879516E+03 0.  0.
          2    1    1    2  501    0  0.23925369270E+01 -0.23068150629E+02 -0.11274752618E+04  0.11277137623E+04  0.00000000000E+00 0. -1.
          1    1    1    2  502    0 -0.73201842951E+02  0.60291535305E+02  0.76308463287E+02  0.12172329526E+03  0.00000000000E+00 0. -1.
         22    1    3    3    0    0  0.67876624323E+01  0.35621304537E+02  0.19899797136E+01  0.36316796630E+02  0.00000000000E+00 0. -1.
         22    1    3    3    0    0  0.64021643592E+02 -0.72844689213E+02 -0.11365208378E+03  0.14940520655E+03  0.00000000000E+00 0. -1.
</event>
<event>
 7    1  0.6485470E-006  0.1536605E+03  0.7818608E-02  0.1199192E+00
          2   -1    0    0  502    0  0.00000000000E+00  0.00000000000E+00  0.48159616462E+03  0.48159616462E+03  0.00000000000E+00 0. -1.
          1   -1    0    0  501    0 -0.00000000000E+00 -0.00000000000E+00 -0.88150807398E+03  0.88150807398E+03  0.00000000000E+00 0. -1.
         25    2    1    2    0    0  0.74068646112E+02  0.39633803766E+02 -0.14599812595E+03  0.20975324713E+03  0.12499587657E+03 0.  0.
          2    1    1    2  501    0 -0.10057198376E+03  0.11617585242E+03 -0.68091555944E+03  0.69803835976E+03  0.00000000000E+00 0. -1.
          1    1    1    2  502    0  0.26503337647E+02 -0.15580965618E+03  0.42700177604E+03  0.45531263172E+03  0.00000000000E+00 0. -1.
         22    1    3    3    0    0 -0.35046079152E+02  0.11986957418E+02 -0.26196241245E+02  0.45366924818E+02  0.00000000000E+00 0. -1.
         22    1    3    3    0    0  0.10911472526E+03  0.27646846348E+02 -0.11980188471E+03  0.16438632231E+03  0.00000000000E+00 0. -1.
</event>
<event>
 7    1  0.6485470E-006  0.1054449E+03  0.7818608E-02  0.1393841E+00
          2   -1    0    0  502    0  0.00000000000E+00  0.00000000000E+00  0.12006643281E+04  0.12006643281E+04  0.00000000000E+00 0. -1.
          1   -1    0    0  501    0 -0.00000000000E+00 -0.00000000000E+00 -0.72716283405E+02  0.72716283405E+02  0.00000000000E+00 0. -1.
         25    2    1    2    0    0  0.36068956782E+02 -0.86348479051E+02  0.70876602473E+02  0.17148204908E+03  0.12500228358E+03 0.  0.
          2    1    1    2  501    0 -0.29185655381E+02 -0.19756681671E+02 -0.40386429583E+01  0.35474492070E+02  0.00000000000E+00 0. -1.
          1    1    1    2  502    0 -0.68833014006E+01  0.10610516072E+03  0.10611100852E+04  0.10664240704E+04  0.00000000000E+00 0. -1.
         22    1    3    3    0    0 -0.29798156819E+02  0.16439510776E+02  0.13943441112E+02  0.36777808722E+02  0.00000000000E+00 0. -1.
         22    1    3    3    0    0  0.65867113601E+02 -0.10278798983E+03  0.56933161361E+02  0.13470424035E+03  0.00000000000E+00 0. -1.
</event>
<event>
 7    1  0.6485470E-006  0.8050148E+02  0.7818608E-02  0.1447886E+00
          2   -1    0    0  502    0  0.00000000000E+00  0.00000000000E+00  0.25252172482E+04  0.25252172482E+04  0.00000000000E+00 0. -1.
          1   -1    0    0  501    0 -0.00000000000E+00 -0.00000000000E+00 -0.10084985047E+03  0.10084985047E+03  0.00000000000E+00 0. -1.
         25    2    1    2    0    0 -0.63492297667E+02  0.36636718304E+02  0.88404725902E+03  0.89584452715E+03  0.12499735857E+03 0.  0.
          2    1    1    2  501    0  0.79988843193E+02 -0.11011721678E+02 -0.77616412805E+02  0.11199902047E+03  0.00000000000E+00 0. -1.
          1    1    1    2  502    0 -0.16496545527E+02 -0.25624996626E+02  0.16179365516E+04  0.16182235511E+04  0.00000000000E+00 0. -1.
         22    1    3    3    0    0  0.17498893990E+02 -0.14416600663E+02  0.48285319115E+03  0.48338520237E+03  0.00000000000E+00 0.  1.
         22    1    3    3    0    0 -0.80991191657E+02  0.51053318967E+02  0.40119406787E+03  0.41245932478E+03  0.00000000000E+00 0.  1.
</event>
<event>
 7    1  0.6485470E-006  0.1205819E+03  0.7818608E-02  0.1306145E+00
          2   -1    0    0  502    0  0.00000000000E+00  0.00000000000E+00  0.29831618879E+04  0.29831618879E+04  0.00000000000E+00 0. -1.
          1   -1    0    0  501    0 -0.00000000000E+00 -0.00000000000E+00 -0.63941672621E+02  0.63941672621E+02  0.00000000000E+00 0. -1.
         25    2    1    2    0    0 -0.45302898582E+02 -0.67280507377E+02  0.10961688675E+04  0.11062504386E+04  0.12499931040E+03 0.  0.
          2    1    1    2  501    0 -0.56329003996E+02 -0.32793779550E+02 -0.37262661637E+02  0.75079255594E+02  0.00000000000E+00 0. -1.
          1    1    1    2  502    0  0.10163190258E+03  0.10007428693E+03  0.18603140094E+04  0.18657738663E+04  0.00000000000E+00 0. -1.
         22    1    3    3    0    0  0.10374560856E+02 -0.66336482148E+02  0.27059420292E+03  0.27879989784E+03  0.00000000000E+00 0.  1.
         22    1    3    3    0    0 -0.55677459438E+02 -0.94402522971E+00  0.82557466459E+03  0.82745054081E+03  0.00000000000E+00 0.  1.
</event>
<event>
 7    1  0.6485470E-006  0.8482515E+02  0.7818608E-02  0.1417192E+00
          2   -1    0    0  502    0  0.00000000000E+00  0.00000000000E+00  0.81224513262E+03  0.81224513262E+03  0.00000000000E+00 0. -1.
          1   -1    0    0  501    0 -0.00000000000E+00 -0.00000000000E+00 -0.71270411741E+03  0.71270411741E+03  0.00000000000E+00 0. -1.
         25    2    1    2    0    0 -0.53004906133E+02 -0.17880510680E+02 -0.21704255425E+02  0.13865671086E+03  0.12500150410E+03 0.  0.
          2    1    1    2  501    0  0.86342026324E+02  0.30938193411E+01 -0.62912842092E+03  0.63503313869E+03  0.00000000000E+00 0. -1.
          1    1    1    2  502    0 -0.33337120191E+02  0.14786691339E+02  0.75037369156E+03  0.75125940048E+03  0.00000000000E+00 0. -1.
         22    1    3    3    0    0 -0.45393475374E+02  0.46530419973E+02  0.11144861934E+02  0.65953434611E+02  0.00000000000E+00 0.  1.
         22    1    3    3    0    0 -0.76114307591E+01 -0.64410930653E+02 -0.32849117359E+02  0.72703276247E+02  0.00000000000E+00 0.  1.
</event>
<event>
 7    1  0.6485470E-006  0.1169687E+03  0.7818608E-02  0.1334283E+00
          2   -1    0    0  502    0  0.00000000000E+00  0.00000000000E+00  0.42580567712E+04  0.42580567712E+04  0.00000000000E+00 0. -1.
          1   -1    0    0  501    0 -0.00000000000E+00 -0.00000000000E+00 -0.11034233624E+04  0.11034233624E+04  0.00000000000E+00 0. -1.
         25    2    1    2    0    0  0.81237959679E+02  0.14532777871E+03 -0.28603215081E+03  0.35377989772E+03  0.12500422142E+03 0.  0.
          2    1    1    2  501    0 -0.36530515703E+02 -0.37372550305E+02 -0.78183678973E+03  0.78358149025E+03  0.00000000000E+00 0. -1.
          1    1    1    2  502    0 -0.44707443976E+02 -0.10795522840E+03  0.42225023493E+04  0.42241187456E+04  0.00000000000E+00 0. -1.
         22    1    3    3    0    0  0.53258110882E+02 -0.66311233974E+01 -0.75536041495E+02  0.92661166283E+02  0.00000000000E+00 0. -1.
         22    1    3    3    0    0  0.27979848797E+02  0.15195890211E+03 -0.21049610932E+03  0.26111873144E+03  0.00000000000E+00 0. -1.
</event>
<event>
 7    1  0.6485470E-006  0.2096322E+03  0.7818608E-02  0.1277616E+00
          2   -1    0    0  502    0  0.00000000000E+00  0.00000000000E+00  0.14143758593E+04  0.14143758593E+04  0.00000000000E+00 0. -1.
          1   -1    0    0  501    0 -0.00000000000E+00 -0.00000000000E+00 -0.12908676023E+04  0.12908676023E+04  0.00000000000E+00 0. -1.
         25    2    1    2    0    0 -0.21954161982E+03 -0.82332861723E+02  0.24698683441E+02  0.26685636927E+03  0.12500029561E+03 0.  0.
          2    1    1    2  501    0  0.20524241742E+03  0.35531680666E+02 -0.11600371815E+04  0.11785895013E+04  0.00000000000E+00 0. -1.
          1    1    1    2  502    0  0.14299202409E+02  0.46801181057E+02  0.12588467550E+04  0.12597975910E+04  0.00000000000E+00 0. -1.
         22    1    3    3    0    0 -0.20980764872E+03 -0.69829168462E+02  0.59182598714E+02  0.22890596807E+03  0.00000000000E+00 0. -1.
         22    1    3    3    0    0 -0.97339711056E+01 -0.12503693261E+02 -0.34483915273E+02  0.37950401199E+02  0.00000000000E+00 0. -1.
</event>
<event>
 7    1  0.6485470E-006  0.4973242E+02  0.7818608E-02  0.1458990E+00
          2   -1    0    0  502    0  0.00000000000E+00  0.00000000000E+00  0.80581458059E+02  0.80581458059E+02  0.00000000000E+00 0. -1.
          1   -1    0    0  501    0 -0.00000000000E+00 -0.00000000000E+00 -0.63384618494E+03  0.63384618494E+03  0.00000000000E+00 0. -1.
         25    2    1    2    0    0 -0.64080305423E+02 -0.38422364110E+02  0.36473053291E+01  0.14567278050E+03  0.12499877013E+03 0.  0.
          2    1    1    2  501    0  0.19187046532E+02  0.45666752900E+02 -0.44800805345E+03  0.45073807364E+03  0.00000000000E+00 0. -1.
          1    1    1    2  502    0  0.44893258891E+02 -0.72443887897E+01 -0.10890397876E+03  0.11801678886E+03  0.00000000000E+00 0. -1.
         22    1    3    3    0    0  0.35985512260E+02 -0.12812728576E+02  0.16452789701E+02  0.41591073503E+02  0.00000000000E+00 0. -1.
         22    1    3    3    0    0 -0.10006581768E+03 -0.25609635535E+02 -0.12805484372E+02  0.10408170699E+03  0.00000000000E+00 0. -1.
</event>
<event>
 7    1  0.6485470E-006  0.5729107E+02  0.7818608E-02  0.1452126E+00
          2   -1    0    0  502    0  0.00000000000E+00  0.00000000000E+00  0.19165583886E+04  0.19165583886E+04  0.00000000000E+00 0. -1.
          1   -1    0    0  501    0 -0.00000000000E+00 -0.00000000000E+00 -0.21816611995E+03  0.21816611995E+03  0.00000000000E+00 0. -1.
         25    2    1    2    0    0 -0.30699175004E+02  0.83107900559E+02 -0.50380907480E+02  0.16128663371E+03  0.12500311953E+03 0.  0.
          2    1    1    2  501    0  0.34377770021E+02 -0.41765492057E+02 -0.10557428884E+03  0.11862595779E+03  0.00000000000E+00 0. -1.
          1    1    1    2  502    0 -0.36785950166E+01 -0.41342408502E+02  0.18543474650E+04  0.18548119171E+04  0.00000000000E+00 0. -1.
         22    1    3    3    0    0  0.92665578029E+01  0.96305359199E+02 -0.65196280642E+02  0.11666681753E+03  0.00000000000E+00 0.  1.
         22    1    3    3    0    0 -0.39965732807E+02 -0.13197458640E+02  0.14815373162E+02  0.44619816173E+02  0.00000000000E+00 0.  1.
</event>
<event>
 7    1  0.6485470E-006  0.1076841E+03  0.7818608E-02  0.1295407E+00
          2   -1    0    0  502    0  0.00000000000E+00  0.00000000000E+00  0.15794268698E+03  0.15794268698E+03  0.00000000000E+00 0. -1.
          1   -1    0    0  501    0 -0.00000000000E+00 -0.00000000000E+00 -0.18702868544E+04  0.18702868544E+04  0.00000000000E+00 0. -1.
         25    2    1    2    0    0  0.22672031776E+02 -0.72040299910E+02 -0.55934634850E+03  0.57809699121E+03  0.12499587124E+03 0.  0.
          2    1    1    2  501    0 -0.77171714956E+02 -0.23155536594E+02 -0.12798768030E+04  0.12824103412E+04  0.00000000000E+00 0. -1.
          1    1    1    2  502    0  0.54499683180E+02  0.95195836504E+02  0.12687898411E+03  0.16772220891E+03  0.00000000000E+00 0. -1.
         22    1    3    3    0    0  0.16188693686E+02  0.16144711079E+02 -0.35125445038E+03  0.35199774774E+03  0.00000000000E+00 0.  1.
         22    1    3    3    0    0  0.64833380899E+01 -0.88185010988E+02 -0.20809189812E+03  0.22609924347E+03  0.00000000000E+00 0.  1.
</event>
<event>
 7    1  0.6485470E-006  0.1984574E+03  0.7818608E-02  0.1225672E+00
          2   -1    0    0  502    0  0.00000000000E+00  0.00000000000E+00  0.18905140575E+04  0.18905140575E+04  0.00000000000E+00 0. -1.
          1   -1    0    0  501    0 -0.00000000000E+00 -0.00000000000E+00 -0.43609606786E+03  0.43609606786E+03  0.00000000000E+00 0. -1.
         25    2    1    2    0    0 -0.27729674147E+03 -0.24505674608E+02  0.56710325966E+03  0.64399138237E+03  0.12499913016E+03 0.  0.
          2    1    1    2  501    0  0.19160579591E+03  0.38012561187E+02 -0.37208017214E+03  0.42023968201E+03  0.00000000000E+00 0. -1.
          1    1    1    2  502    0  0.85690945557E+02 -0.13506886579E+02  0.12593949021E+04  0.12623790610E+04  0.00000000000E+00 0. -1.
         22    1    3    3    0    0 -0.99360134016E+02 -0.16838946219E+02  0.91439586542E+02  0.13607786127E+03  0.00000000000E+00 0.  1.
         22    1    3    3    0    0 -0.17793660745E+03 -0.76667283890E+01  0.47566367312E+03  0.50791352110E+03  0.00000000000E+00 0.  1.
</event>
<event>
 7    1  0.6485470E-006  0.1807309E+03  0.7818608E-02  0.1388046E+00
          2   -1    0    0  502    0  0.00000000000E+00  0.00000000000E+00  0.30918377507E+04  0.30918377507E+04  0.00000000000E+00 0. -1.
          1   -1    0    0  501    0 -0.00000000000E+00 -0.00000000000E+00 -0.61350965072E+03  0.61350965072E+03  0.00000000000E+00 0. -1.
         25    2    1    2    0    0  0.17005011734E+03  0.25862679945E+02  0.12213875361E+04  0.12397581847E+04  0.12500769022E+03 0.  0.
          2    1    1    2  501    0  0.15035669098E+02 -0.15425777564E+02 -0.59951450473E+03  0.59990138134E+03  0.00000000000E+00 0. -1.
          1    1    1    2  502    0 -0.18508578643E+03 -0.10436902381E+02  0.18564550686E+04  0.18656878354E+04  0.00000000000E+00 0. -1.
         22    1    3    3    0    0  0.48759335924E+02 -0.45412361679E+02  0.27417906768E+03  0.28215938153E+03  0.00000000000E+00 0.  1.
         22    1    3    3    0    0  0.12129078141E+03  0.71275041624E+02  0.94720846844E+03  0.95759880320E+03  0.00000000000E+00 0.  1.
</event>
<event>
 7    1  0.6485470E-006  0.7376754E+02  0.7818608E-02  0.1394183E+00
          2   -1    0    0  502    0  0.00000000000E+00  0.00000000000E+00  0.61591440614E+02  0.61591440614E+02  0.00000000000E+00 0. -1.
          1   -1    0    0  501    0 -0.00000000000E+00 -0.00000000000E+00 -0.16042742109E+04  0.16042742109E+04  0.00000000000E+00 0. -1.
         25    2    1    2    0    0 -0.35193724495E+02 -0.67576948513E+02 -0.75017325434E+03  0.76432308557E+03  0.12499850159E+03 0.  0.
          2    1    1    2  501    0 -0.14477891702E+02  0.75120134906E+02 -0.83331426422E+03  0.83681856275E+03  0.00000000000E+00 0. -1.
          1    1    1    2  502    0  0.49671616197E+02 -0.75431863931E+01  0.40804748228E+02  0.64724003233E+02  0.00000000000E+00 0. -1.
         22    1    3    3    0    0  0.31505163054E+02 -0.55533733343E+02 -0.53322626399E+03  0.53703521248E+03  0.00000000000E+00 0. -1.
         22    1    3    3    0    0 -0.66698887549E+02 -0.12043215170E+02 -0.21694699035E+03  0.22728787309E+03  0.00000000000E+00 0. -1.
</event>
<event>
 7    1  0.6485470E-006  0.1259856E+03  0.7818608E-02  0.1348426E+00
          2   -1    0    0  502    0  0.00000000000E+00  0.00000000000E+00  0.34366831079E+03  0.34366831079E+03  0.00000000000E+00 0. -1.
          1   -1    0    0  501    0 -0.00000000000E+00 -0.00000000000E+00 -0.13134693025E+04  0.13134693025E+04  0.00000000000E+00 0. -1.
         25    2    1    2    0    0  0.10885296575E+03  0.52229351907E+02 -0.29737067106E+03  0.34442622428E+03  0.12499293824E+03 0.  0.
          2    1    1    2  501    0  0.16958754147E+02 -0.39445252288E+02 -0.97959394417E+03  0.98053445769E+03  0.00000000000E+00 0. -1.
          1    1    1    2  502    0 -0.12581171989E+03 -0.12784099620E+02  0.30716362353E+03  0.33217693130E+03  0.00000000000E+00 0. -1.
         22    1    3    3    0    0  0.10135089620E+03 -0.36577587670E+01 -0.25333360775E+03  0.27287964412E+03  0.00000000000E+00 0.  1.
         22    1    3    3    0    0  0.75020695479E+01  0.55887110674E+02 -0.44037063306E+02  0.71546580153E+02  0.00000000000E+00 0.  1.
</event>
<event>
 7    1  0.6485470E-006  0.8477603E+02  0.7818608E-02  0.1403336E+00
          2   -1    0    0  502    0  0.00000000000E+00  0.00000000000E+00  0.21450431399E+04  0.21450431399E+04  0.00000000000E+00 0. -1.
          1   -1    0    0  501    0 -0.00000000000E+00 -0.00000000000E+00 -0.70242009592E+02  0.70242009592E+02  0.00000000000E+00 0. -1.
         25    2    1    2    0    0  0.17730631284E+02  0.80619364685E+02  0.10095067838E+04  0.10205599238E+04  0.12499901714E+03 0.  0.
          2    1    1    2  501    0  0.38435965655E+02 -0.13248786047E+02 -0.56444832526E+02  0.69562007637E+02  0.00000000000E+00 0. -1.
          1    1    1    2  502    0 -0.56166596938E+02 -0.67370578638E+02  0.11217391791E+04  0.11251632181E+04  0.00000000000E+00 0. -1.
         22    1    3    3    0    0 -0.48492229122E+02  0.47466349611E+01  0.36331017507E+03  0.36656283245E+03  0.00000000000E+00 0. -1.
         22    1    3    3    0    0  0.66222860405E+02  0.75872729724E+02  0.64619660871E+03  0.65399709133E+03  0.00000000000E+00 0. -1.
</event>
<event>
 7    1  0.6485470E-006  0.3849229E+02  0.7818608E-02  0.1609462E+00
          2   -1    0    0  502    0  0.00000000000E+00  0.00000000000E+00  0.10031928796E+04  0.10031928796E+04  0.00000000000E+00 0. -1.
          1   -1    0    0  501    0 -0.00000000000E+00 -0.00000000000E+00 -0.44158721034E+03  0.44158721034E+03  0.00000000000E+00 0. -1.
         25    2    1    2    0    0  0.14800470644E+02 -0.24206532919E+02  0.37786496454E+03  0.39901431324E+03  0.12500192230E+03 0.  0.
          2    1    1    2  501    0 -0.15746380722E+02 -0.15136983098E+02 -0.43010527911E+03  0.43065952664E+03  0.00000000000E+00 0. -1.
          1    1    1    2  502    0  0.94591007750E+00  0.39343516017E+02  0.61384598388E+03  0.61510625011E+03  0.00000000000E+00 0. -1.
         22    1    3    3    0    0 -0.45432534792E+02 -0.11114915707E+02  0.27612816763E+03  0.28006146027E+03  0.00000000000E+00 0. -1.
         22    1    3    3    0    0  0.60233005436E+02 -0.13091617212E+02  0.10173679691E+03  0.11895285298E+03  0.00000000000E+00 0. -1.
</event>
<event>
 7    1  0.6485470E-006  0.7730980E+02  0.7818608E-02  0.1340689E+00
          2   -1    0    0  502    0  0.00000000000E+00  0.00000000000E+00  0.22186844884E+04  0.22186844884E+04  0.00000000000E+00 0. -1.
          1   -1    0    0  501    0 -0.00000000000E+00 -0.00000000000E+00 -0.11935274472E+03  0.11935274472E+03  0.00000000000E+00 0. -1.
         25    2    1    2    0    0 -0.44423178844E+02 -0.96896833409E+01  0.12236420433E+04  0.12308506299E+04  0.12500445677E+03 0.  0.
          2    1    1    2  501    0 -0.57001658799E+02  0.48411937065E+02 -0.10033639645E+03  0.12514110919E+03  0.00000000000E+00 0. -1.
          1    1    1    2  502    0  0.10142483764E+03 -0.38722253724E+02  0.97602609684E+03  0.98204549402E+03  0.00000000000E+00 0. -1.
         22    1    3    3    0    0 -0.21557015281E+02  0.13862159084E+02  0.45270405735E+02  0.52021860768E+02  0.00000000000E+00 0.  1.
         22    1    3    3    0    0 -0.22866163563E+02 -0.23551842425E+02  0.11783716376E+04  0.11788287691E+04  0.00000000000E+00 0.  1.
</event>
<event>
 7    1  0.6485470E-006  0.1193647E+03  0.7818608E-02  0.1323350E+00
          2   -1    0    0  502    0  0.00000000000E+00  0.00000000000E+00  0.60946777415E+03  0.60946777415E+03  0.00000000000E+00 0. -1.
          1   -1    0    0  501    0 -0.00000000000E+00 -0.00000000000E+00 -0.53062686835E+03  0.53062686835E+03  0.00000000000E+00 0. -1.
         25    2    1    2    0    0  0.35987205300E+02  0.56586754034E+02  0.59119644864E+02  0.15367966850E+03  0.12500067370E+03 0.  0.
          2    1    1    2  501    0 -0.60538003024E+02 -0.10735365245E+03 -0.47385870551E+03  0.48962406936E+03  0.00000000000E+00 0. -1.
          1    1    1    2  502    0  0.24550797723E+02  0.50766898418E+02  0.49357996646E+03  0.49679090464E+03  0.00000000000E+00 0. -1.
         22    1    3    3    0    0  0.69325761054E+00  0.50482676843E+02 -0.29235019836E+02  0.58340960329E+02  0.00000000000E+00 0.  1.
         22    1    3    3    0    0  0.35293947690E+02  0.61040771912E+01  0.88354664700E+02  0.95338708173E+02  0.00000000000E+00 0.  1.
</event>
<event>
 7    1  0.6485470E-006  0.4288261E+03  0.7818608E-02  0.1164444E+00
          2   -1    0    0  502    0  0.00000000000E+00  0.00000000000E+00  0.40746770435E+03  0.40746770435E+03  0.00000000000E+00 0. -1.
          1   -1    0    0  501    0 -0.00000000000E+00 -0.00000000000E+00 -0.17909148886E+04  0.17909148886E+04  0.00000000000E+00 0. -1.
         25    2    1    2    0    0  0.46736060376E+03  0.11820557096E+03 -0.22170158554E+03  0.54513763763E+03  0.12499983992E+03 0.  0.
          2    1    1    2  501    0 -0.78475549468E+02 -0.30410033987E+01 -0.12380601355E+04  0.12405484910E+04  0.00000000000E+00 0. -1.
          1    1    1    2  502    0 -0.38888505429E+03 -0.11516456756E+03  0.76314536791E+02  0.41269646424E+03  0.00000000000E+00 0. -1.
         22    1    3    3    0    0  0.47008422813E+03  0.11588622156E+03 -0.20115590114E+03  0.52428283822E+03  0.00000000000E+00 0.  1.
         22    1    3    3    0    0 -0.27236243698E+01  0.23193494020E+01 -0.20545684397E+02  0.20854799416E+02  0.00000000000E+00 0.  1.
</event>
<event>
 7    1  0.6485470E-006  0.4654119E+02  0.7818608E-02  0.1548171E+00
          2   -1    0    0  502    0  0.00000000000E+00  0.00000000000E+00  0.26793977329E+03  0.26793977329E+03  0.00000000000E+00 0. -1.
          1   -1    0    0  501    0 -0.00000000000E+00 -0.00000000000E+00 -0.20820705037E+04  0.20820705037E+04  0.00000000000E+00 0. -1.
         25    2    1    2    0    0  0.37508421979E+02  0.89298794812E+00  0.16231045419E+03  0.20827004545E+03  0.12499619652E+03 0.  0.
          2    1    1    2  501    0 -0.37731198508E+02 -0.27285660869E+02 -0.20567132973E+04  0.20572403209E+04  0.00000000000E+00 0. -1.
          1    1    1    2  502    0  0.22277652934E+00  0.26392672921E+02  0.80272112719E+02  0.84499910614E+02  0.00000000000E+00 0. -1.
         22    1    3    3    0    0  0.61111663140E+01 -0.42579174849E+02  0.65175586525E+01  0.43506448434E+02  0.00000000000E+00 0. -1.
         22    1    3    3    0    0  0.31397255665E+02  0.43472162797E+02  0.15579289554E+03  0.16476359702E+03  0.00000000000E+00 0. -1.
</event>
<event>
 7    1  0.6485470E-006  0.1424463E+03  0.7818608E-02  0.1299510E+00
          2   -1    0    0  502    0  0.00000000000E+00  0.00000000000E+00  0.36483913908E+03  0.36483913908E+03  0.00000000000E+00 0. -1.
          1   -1    0    0  501    0 -0.00000000000E+00 -0.00000000000E+00 -0.12393014701E+04  0.12393014701E+04  0.00000000000E+00 0. -1.
         25    2    1    2    0    0 -0.14782837771E+03 -0.11546682946E+03 -0.62341081626E+02  0.23387488796E+03  0.12500093919E+03 0.  0.
          2    1    1    2  501    0  0.25263913783E+02  0.52917570132E+02 -0.10733824694E+04  0.10749830046E+04  0.00000000000E+00 0. -1.
          1    1    1    2  502    0  0.12256446393E+03  0.62549259326E+02  0.26126122000E+03  0.29528271662E+03  0.00000000000E+00 0. -1.
         22    1    3    3    0    0 -0.59306291010E+02  0.58297623465E+01  0.19697031529E+02  0.62763009276E+02  0.00000000000E+00 0.  1.
         22    1    3    3    0    0 -0.88522086705E+02 -0.12129659180E+03 -0.82038113155E+02  0.17111187869E+03  0.00000000000E+00 0.  1.
</event>
<event>
 7    1  0.6485470E-006  0.7230813E+02  0.7818608E-02  0.1483340E+00
          2   -1    0    0  502    0  0.00000000000E+00  0.00000000000E+00  0.94160637679E+02  0.94160637679E+02  0.00000000000E+00 0. -1.
          1   -1    0    0  501    0 -0.00000000000E+00 -0.00000000000E+00 -0.87067240281E+03  0.87067240281E+03  0.00000000000E+00 0. -1.
         25    2    1    2    0    0  0.52511607351E+02  0.75624528793E+02 -0.11226156839E+03  0.19158593901E+03  0.12500389604E+03 0.  0.
          2    1    1    2  501    0 -0.23062984359E+02 -0.12594441936E+02 -0.69619680485E+03  0.69669255220E+03  0.00000000000E+00 0. -1.
          1    1    1    2  502    0 -0.29448622992E+02 -0.63030086857E+02  0.31946608109E+02  0.76554549277E+02  0.00000000000E+00 0. -1.
         22    1    3    3    0    0  0.40864726528E+02  0.39346943071E+02  0.15053620896E+02  0.58691731149E+02  0.00000000000E+00 0.  1.
         22    1    3    3    0    0  0.11646880823E+02  0.36277585722E+02 -0.12731518929E+03  0.13289420786E+03  0.00000000000E+00 0.  1.
</event>
<event>
 7    1  0.6485470E-006  0.7022544E+02  0.7818608E-02  0.1505828E+00
          2   -1    0    0  502    0  0.00000000000E+00  0.00000000000E+00  0.98644605590E+03  0.98644605590E+03  0.00000000000E+00 0. -1.
          1   -1    0    0  501    0 -0.00000000000E+00 -0.00000000000E+00 -0.28287871511E+03  0.28287871511E+03  0.00000000000E+00 0. -1.
         25    2    1    2    0    0 -0.32410281786E+02 -0.76888844204E+02  0.40516226425E+03  0.43213953417E+03  0.12500318350E+03 0.  0.
          2    1    1    2  501    0  0.42267098686E+02  0.55935169535E+02 -0.26458657587E+03  0.27371756786E+03  0.00000000000E+00 0. -1.
          1    1    1    2  502    0 -0.98568169002E+01  0.20953674669E+02  0.56299165240E+03  0.56346766899E+03  0.00000000000E+00 0. -1.
         22    1    3    3    0    0  0.10571801394E+02 -0.83025937313E+02  0.13743424244E+03  0.16091376650E+03  0.00000000000E+00 0.  1.
         22    1    3    3    0    0 -0.42982083180E+02  0.61370931091E+01  0.26772802181E+03  0.27122576767E+03  0.00000000000E+00 0.  1.
</event>
<event>
 7    1  0.6485470E-006  0.5234970E+02  0.7818608E-02  0.1454620E+00
          2   -1    0    0  502    0  0.00000000000E+00  0.00000000000E+00  0.12886607098E+04  0.12886607098E+04  0.00000000000E+00 0. -1.
          1   -1    0    0  501    0 -0.00000000000E+00 -0.00000000000E+00 -0.15014732946E+03  0.15014732946E+03  0.00000000000E+00 0. -1.
         25    2    1    2    0    0  0.68953835680E+02  0.34209324743E+02  0.10024028008E+03  0.17775679883E+03  0.12499782569E+03 0.  0.
          2    1    1    2  501    0 -0.43183595452E+02  0.11151479274E+02 -0.10630647590E+03  0.11528332588E+03  0.00000000000E+00 0. -1.
          1    1    1    2  502    0 -0.25770240228E+02 -0.45360804016E+02  0.11445795762E+04  0.11457679145E+04  0.00000000000E+00 0. -1.
         22    1    3    3    0    0  0.21085479435E+02 -0.29168627084E+02 -0.14001264572E+02  0.38619187699E+02  0.00000000000E+00 0.  1.
         22    1    3    3    0    0  0.47868356245E+02  0.63377951826E+02  0.11424154465E+03  0.13913761113E+03  0.00000000000E+00 0.  1.
</event>
<event>
 7    1  0.6485470E-006  0.1553647E+03  0.7818608E-02  0.1239509E+00
          2   -1    0    0  502    0  0.00000000000E+00  0.00000000000E+00  0.36971006612E+03  0.36971006612E+03  0.00000000000E+00 0. -1.
          1   -1    0    0  501    0 -0.00000000000E+00 -0.00000000000E+00 -0.14384711779E+04  0.14384711779E+04  0.00000000000E+00 0. -1.
         25    2    1    2    0    0 -0.96151197725E+02 -0.20736820176E+03 -0.11950636856E+03  0.28662579180E+03  0.12500379383E+03 0.  0.
          2    1    1    2  501    0 -0.31163525322E+01  0.96066248697E+02 -0.12139433993E+04  0.12177425888E+04  0.00000000000E+00 0. -1.
          1    1    1    2  502    0  0.99267550258E+02  0.11130195307E+03  0.26468865613E+03  0.30381286341E+03  0.00000000000E+00 0. -1.
         22    1    3    3    0    0 -0.10846877729E+03 -0.85732134239E+02 -0.62391316511E+02  0.15168437911E+03  0.00000000000E+00 0.  1.
         22    1    3    3    0    0  0.12317579569E+02 -0.12163606753E+03 -0.57115052051E+02  0.13494141270E+03  0.00000000000E+00 0.  1.
</event>
<event>
 7    1  0.8791937E-006  0.6491247E+02  0.7818608E-02  0.1395953E+00
          2   -1    0    0  502    0  0.00000000000E+00  0.00000000000E+00  0.16245896799E+04  0.16245896799E+04  0.00000000000E+00 0. -1.
          1   -1    0    0  501    0 -0.00000000000E+00 -0.00000000000E+00 -0.10905209352E+04  0.10905209352E+04  0.00000000000E+00 0. -1.
         25    2    1    2    0    0  0.38592356927E+02 -0.57953224790E+02 -0.15227888463E+03  0.20895381041E+03  0.12499955963E+03 0.  0.
          2    1    1    2  501    0 -0.65154972617E+02  0.83197922025E+01 -0.90822184844E+03  0.91059393551E+03  0.00000000000E+00 0. -1.
          1    1    1    2  502    0  0.26562615690E+02  0.49633432587E+02  0.15945694777E+04  0.15955628692E+04  0.00000000000E+00 0. -1.
         22    1    3    3    0    0  0.37726292558E+02 -0.95564684604E+02 -0.12818670406E+03  0.16427937543E+03  0.00000000000E+00 0. -1.
         22    1    3    3    0    0  0.86606436927E+00  0.37611459815E+02 -0.24092180570E+02  0.44674434988E+02  0.00000000000E+00 0. -1.
</event>
<event>
 7    1  0.6485470E-006  0.1809778E+03  0.7818608E-02  0.1234838E+00
          2   -1    0    0  502    0  0.00000000000E+00  0.00000000000E+00  0.15254962748E+04  0.15254962748E+04  0.00000000000E+00 0. -1.
          1   -1    0    0  501    0 -0.00000000000E+00 -0.00000000000E+00 -0.83127640655E+03  0.83127640655E+03  0.00000000000E+00 0. -1.
         25    2    1    2    0    0  0.12766366189E+02  0.24362050151E+03  0.10015351104E+03  0.29183801691E+03  0.12499909392E+03 0.  0.
          2    1    1    2  501    0  0.43076165554E+02 -0.75059101072E+02 -0.72692686350E+03  0.73206016800E+03  0.00000000000E+00 0. -1.
          1    1    1    2  502    0 -0.55842531743E+02 -0.16856140044E+03  0.13209932207E+04  0.13328744964E+04  0.00000000000E+00 0. -1.
         22    1    3    3    0    0 -0.48525559404E+01  0.23728243518E+03  0.55958033668E+02  0.24383970734E+03  0.00000000000E+00 0. -1.
         22    1    3    3    0    0  0.17618922129E+02  0.63380663288E+01  0.44195477370E+02  0.47998309572E+02  0.00000000000E+00 0. -1.
</event>
<event>
 7    1  0.6485470E-006  0.4403506E+03  0.7818608E-02  0.1225490E+00
          2   -1    0    0  502    0  0.00000000000E+00  0.00000000000E+00  0.31346669013E+04  0.31346669013E+04  0.00000000000E+00 0. -1.
          1   -1    0    0  501    0 -0.00000000000E+00 -0.00000000000E+00 -0.13652790012E+04  0.13652790012E+04  0.00000000000E+00 0. -1.
         25    2    1    2    0    0  0.30485981336E+03  0.36143941357E+03 -0.71183917137E+02  0.49423711122E+03  0.12500086625E+03 0.  0.
          2    1    1    2  501    0 -0.28020924582E+03 -0.33099848795E+03 -0.10389968430E+04  0.11258737319E+04  0.00000000000E+00 0. -1.
          1    1    1    2  502    0 -0.24650567540E+02 -0.30440925614E+02  0.28795686602E+04  0.28798350594E+04  0.00000000000E+00 0. -1.
         22    1    3    3    0    0  0.11893780803E+03  0.21308882630E+03 -0.78261642039E+02  0.25627706626E+03  0.00000000000E+00 0. -1.
         22    1    3    3    0    0  0.18592200533E+03  0.14835058726E+03  0.70777249015E+01  0.23796004496E+03  0.00000000000E+00 0. -1.
</event>
<event>
 7    1  0.6485470E-006  0.1584414E+03  0.7818608E-02  0.1242089E+00
          2   -1    0    0  502    0  0.00000000000E+00  0.00000000000E+00  0.10891340481E+04  0.10891340481E+04  0.00000000000E+00 0. -1.
          1   -1    0    0  501    0 -0.00000000000E+00 -0.00000000000E+00 -0.35166310141E+03  0.35166310141E+03  0.00000000000E+00 0. -1.
         25    2    1    2    0    0 -0.69303649954E+02 -0.23571837903E+03  0.39055447886E+03  0.47804209370E+03  0.12500116913E+03 0.  0.
          2    1    1    2  501    0  0.51758089391E+02  0.14559399375E+03 -0.28500503592E+03  0.32419805881E+03  0.00000000000E+00 0. -1.
          1    1    1    2  502    0  0.17545560563E+02  0.90124385272E+02  0.63192150380E+03  0.63855699705E+03  0.00000000000E+00 0. -1.
         22    1    3    3    0    0  0.33539231001E+02 -0.98974406485E+02  0.15301759454E+03  0.18529759144E+03  0.00000000000E+00 0. -1.
         22    1    3    3    0    0 -0.10284288095E+03 -0.13674397254E+03  0.23753688432E+03  0.29274450226E+03  0.00000000000E+00 0. -1.
</event>
<event>
 7    1  0.6485470E-006  0.7458413E+02  0.7818608E-02  0.1377659E+00
          2   -1    0    0  502    0  0.00000000000E+00  0.00000000000E+00  0.19448352816E+03  0.19448352816E+03  0.00000000000E+00 0. -1.
          1   -1    0    0  501    0 -0.00000000000E+00 -0.00000000000E+00 -0.16961190068E+03  0.16961190068E+03  0.00000000000E+00 0. -1.
         25    2    1    2    0    0 -0.48391872528E+01 -0.12119620502E+03 -0.22104878690E+02  0.17557337339E+03  0.12500178373E+03 0.  0.
          2    1    1    2  501    0  0.29924940004E+01  0.64433634907E+02 -0.46241817034E+02  0.79365949690E+02  0.00000000000E+00 0. -1.
          1    1    1    2  502    0  0.18466932524E+01  0.56762570117E+02  0.93218323213E+02  0.10915610576E+03  0.00000000000E+00 0. -1.
         22    1    3    3    0    0  0.44245588755E+02 -0.35774502610E+02  0.29785458347E+02  0.64223521316E+02  0.00000000000E+00 0.  1.
         22    1    3    3    0    0 -0.49084776008E+02 -0.85421702414E+02 -0.51890337037E+02  0.11134985207E+03  0.00000000000E+00 0.  1.
</event>
<event>
 7    1  0.6485470E-006  0.1717415E+03  0.7818608E-02  0.1253755E+00
          2   -1    0    0  502    0  0.00000000000E+00  0.00000000000E+00  0.86382653466E+03  0.86382653466E+03  0.00000000000E+00 0. -1.
          1   -1    0    0  501    0 -0.00000000000E+00 -0.00000000000E+00 -0.18598499621E+03  0.18598499621E+03  0.00000000000E+00 0. -1.
         25    2    1    2    0    0 -0.75315897482E+02  0.91547352906E+02  0.13659260688E+02  0.17281474232E+03  0.12499983009E+03 0.  0.
          2    1    1    2  501    0  0.80679807663E+01  0.74925018106E+02 -0.80915850056E+02  0.11057226344E+03  0.00000000000E+00 0. -1.
          1    1    1    2  502    0  0.67247916715E+02 -0.16647237101E+03  0.74509812782E+03  0.76642452511E+03  0.00000000000E+00 0. -1.
         22    1    3    3    0    0  0.33899120589E+02  0.15769613468E+02 -0.77226001283E+01  0.38176820695E+02  0.00000000000E+00 0. -1.
         22    1    3    3    0    0 -0.10921501807E+03  0.75777739439E+02  0.21381860816E+02  0.13463792162E+03  0.00000000000E+00 0. -1.
</event>
<event>
 7    1  0.6485470E-006  0.4453993E+02  0.7818608E-02  0.1483374E+00
          2   -1    0    0  502    0  0.00000000000E+00  0.00000000000E+00  0.40166924025E+03  0.40166924025E+03  0.00000000000E+00 0. -1.
          1   -1    0    0  501    0 -0.00000000000E+00 -0.00000000000E+00 -0.12941288091E+03  0.12941288091E+03  0.00000000000E+00 0. -1.
         25    2    1    2    0    0 -0.16517536359E+02  0.79408925265E+02  0.22666445417E+03  0.27125414307E+03  0.12499371556E+03 0.  0.
          2    1    1    2  501    0 -0.64517338911E+01 -0.43472032347E+02 -0.99405951408E+02  0.10868755974E+03  0.00000000000E+00 0. -1.
          1    1    1    2  502    0  0.22969270250E+02 -0.35936892918E+02  0.14499785658E+03  0.15114041835E+03  0.00000000000E+00 0. -1.
         22    1    3    3    0    0  0.46046790920E+02  0.21804391780E+02  0.14361889280E+03  0.15238807310E+03  0.00000000000E+00 0.  1.
         22    1    3    3    0    0 -0.62564327279E+02  0.57604533485E+02  0.83045561373E+02  0.11886606997E+03  0.00000000000E+00 0.  1.
</event>
<event>
 7    1  0.6485470E-006  0.5046078E+02  0.7818608E-02  0.1475524E+00
          2   -1    0    0  502    0  0.00000000000E+00  0.00000000000E+00  0.27489793198E+03  0.27489793198E+03  0.00000000000E+00 0. -1.
          1   -1    0    0  501    0 -0.00000000000E+00 -0.00000000000E+00 -0.10787760011E+04  0.10787760011E+04  0.00000000000E+00 0. -1.
         25    2    1    2    0    0 -0.55227074575E+02 -0.60455958224E+02 -0.51239425719E+02  0.15797196913E+03  0.12499884652E+03 0.  0.
          2    1    1    2  501    0  0.17822317270E+02  0.46874583890E+02 -0.97173142828E+03  0.97302457847E+03  0.00000000000E+00 0. -1.
          1    1    1    2  502    0  0.37404757305E+02  0.13581374334E+02  0.21909278490E+03  0.22267738546E+03  0.00000000000E+00 0. -1.
         22    1    3    3    0    0 -0.61891069953E+02 -0.43466829276E+02  0.24940986050E+02  0.79636188837E+02  0.00000000000E+00 0. -1.
         22    1    3    3    0    0  0.66639953780E+01 -0.16989128948E+02 -0.76180411769E+02  0.78335780293E+02  0.00000000000E+00 0. -1.
</event>
<event>
 7    1  0.6485470E-006  0.9006275E+02  0.7818608E-02  0.1344243E+00
          2   -1    0    0  502    0  0.00000000000E+00  0.00000000000E+00  0.18413298623E+04  0.18413298623E+04  0.00000000000E+00 0. -1.
          1   -1    0    0  501    0 -0.00000000000E+00 -0.00000000000E+00 -0.41727200573E+03  0.41727200573E+03  0.00000000000E+00 0. -1.
         25    2    1    2    0    0 -0.35881901840E+02  0.13079910288E+03  0.65781526589E+03  0.68318513592E+03  0.12500035883E+03 0.  0.
          2    1    1    2  501    0 -0.12965630454E+02 -0.60891724755E+02 -0.40062666414E+03  0.40543511655E+03  0.00000000000E+00 0. -1.
          1    1    1    2  502    0  0.48847532294E+02 -0.69907378129E+02  0.11668692548E+04  0.11699816156E+04  0.00000000000E+00 0. -1.
         22    1    3    3    0    0 -0.27290425969E+02  0.12861555164E+03  0.66086012839E+03  0.67381216727E+03  0.00000000000E+00 0. -1.
         22    1    3    3    0    0 -0.85914758709E+01  0.21835512450E+01 -0.30448624950E+01  0.93729686489E+01  0.00000000000E+00 0. -1.
</event>
<event>
 7    1  0.6485470E-006  0.7929784E+02  0.7818608E-02  0.1351910E+00
          2   -1    0    0  502    0  0.00000000000E+00  0.00000000000E+00  0.31079176448E+02  0.31079176448E+02  0.00000000000E+00 0. -1.
          1   -1    0    0  501    0 -0.00000000000E+00 -0.00000000000E+00 -0.11973526034E+04  0.11973526034E+04  0.00000000000E+00 0. -1.
         25    2    1    2    0    0 -0.20113413846E+02 -0.16226942644E+02 -0.71036979823E+03  0.72174619511E+03  0.12499782730E+03 0.  0.
          2    1    1    2  501    0 -0.44138944319E+01 -0.66071493443E+02 -0.39715460149E+03  0.40263718432E+03  0.00000000000E+00 0. -1.
          1    1    1    2  502    0  0.24527308277E+02  0.82298436088E+02 -0.58749027273E+02  0.10404840046E+03  0.00000000000E+00 0. -1.
         22    1    3    3    0    0  0.10826854259E+02 -0.56103673764E+02 -0.17701268670E+03  0.18600627472E+03  0.00000000000E+00 0.  1.
         22    1    3    3    0    0 -0.30940268105E+02  0.39876731120E+02 -0.53335711154E+03  0.53573992039E+03  0.00000000000E+00 0.  1.
</event>
<event>
 7    1  0.6485470E-006  0.7038370E+02  0.7818608E-02  0.1375241E+00
          2   -1    0    0  502    0  0.00000000000E+00  0.00000000000E+00  0.92264815081E+03  0.92264815081E+03  0.00000000000E+00 0. -1.
          1   -1    0    0  501    0 -0.00000000000E+00 -0.00000000000E+00 -0.16463247017E+03  0.16463247017E+03  0.00000000000E+00 0. -1.
         25    2    1    2    0    0 -0.42861554572E+02  0.21936762404E+02  0.35175076926E+02  0.13849348799E+03  0.12499930309E+03 0.  0.
          2    1    1    2  501    0  0.68553969196E+02  0.33814743112E+02 -0.98765593769E+02  0.12489085658E+03  0.00000000000E+00 0. -1.
          1    1    1    2  502    0 -0.25692414624E+02 -0.55751505517E+02  0.82160619749E+03  0.82389627641E+03  0.00000000000E+00 0. -1.
         22    1    3    3    0    0 -0.16564958798E+02  0.27535456984E+02  0.80006262980E+02  0.86218335448E+02  0.00000000000E+00 0.  1.
         22    1    3    3    0    0 -0.26296595774E+02 -0.55986945799E+01 -0.44831186054E+02  0.52275152542E+02  0.00000000000E+00 0.  1.
</event>
<event>
 7    1  0.6485470E-006  0.8416464E+02  0.7818608E-02  0.1374740E+00
          2   -1    0    0  502    0  0.00000000000E+00  0.00000000000E+00  0.14836253728E+04  0.14836253728E+04  0.00000000000E+00 0. -1.
          1   -1    0    0  501    0 -0.00000000000E+00 -0.00000000000E+00 -0.27149913234E+02  0.27149913234E+02  0.00000000000E+00 0. -1.
         25    2    1    2    0    0  0.62972826468E+02  0.19457829003E+02  0.65139087705E+03  0.66654298321E+03  0.12500115914E+03 0.  0.
          2    1    1    2  501    0 -0.54334383542E+02 -0.70276149865E+02  0.87128240540E+02  0.12442786173E+03  0.00000000000E+00 0. -1.
          1    1    1    2  502    0 -0.86384429262E+01  0.50818320862E+02  0.71795634198E+03  0.71980444109E+03  0.00000000000E+00 0. -1.
         22    1    3    3    0    0  0.73579390641E+02 -0.69659522196E+01  0.18404524627E+03  0.19833079411E+03  0.00000000000E+00 0.  1.
         22    1    3    3    0    0 -0.10606564172E+02  0.26423781223E+02  0.46734563078E+03  0.46821218911E+03  0.00000000000E+00 0.  1.
</event>
<event>
 7    1  0.6485470E-006  0.1646155E+03  0.7818608E-02  0.1219525E+00
          2   -1    0    0  502    0  0.00000000000E+00  0.00000000000E+00  0.16526112521E+04  0.16526112521E+04  0.00000000000E+00 0. -1.
          1   -1    0    0  501    0 -0.00000000000E+00 -0.00000000000E+00 -0.21540325893E+04  0.21540325893E+04  0.00000000000E+00 0. -1.
         25    2    1    2    0    0 -0.15551078290E+03  0.60272596408E+02 -0.12628353432E+02  0.20880823560E+03  0.12500005786E+03 0.  0.
          2    1    1    2  501    0 -0.23640974526E+01 -0.11149760500E+03 -0.20373545473E+04  0.20404045815E+04  0.00000000000E+00 0. -1.
          1    1    1    2  502    0  0.15787488035E+03  0.51225008594E+02  0.15485615635E+04  0.15574310243E+04  0.00000000000E+00 0. -1.
         22    1    3    3    0    0 -0.80783446154E+01 -0.30763439523E+02  0.11585086668E+02  0.33850599642E+02  0.00000000000E+00 0. -1.
         22    1    3    3    0    0 -0.14743243829E+03  0.91036035931E+02 -0.24213440099E+02  0.17495763595E+03  0.00000000000E+00 0. -1.
</event>
<event>
 7    1  0.6485470E-006  0.4564357E+02  0.7818608E-02  0.1471264E+00
          2   -1    0    0  502    0  0.00000000000E+00  0.00000000000E+00  0.58656448361E+03  0.58656448361E+03  0.00000000000E+00 0. -1.
          1   -1    0    0  501    0 -0.00000000000E+00 -0.00000000000E+00 -0.14532248499E+03  0.14532248499E+03  0.00000000000E+00 0. -1.
         25    2    1    2    0    0 -0.13577433603E+02  0.33089044483E+02 -0.50702782056E+02  0.13955243162E+03  0.12499950998E+03 0.  0.
          2    1    1    2  501    0  0.52488863796E+02 -0.97959950488E+01 -0.34739463000E+02  0.63701433509E+02  0.00000000000E+00 0. -1.
          1    1    1    2  502    0 -0.38911430194E+02 -0.23293049434E+02  0.52668424367E+03  0.52863310347E+03  0.00000000000E+00 0. -1.
         22    1    3    3    0    0  0.34761010536E+02 -0.57427952692E+01  0.23879800966E+02  0.42562335993E+02  0.00000000000E+00 0.  1.
         22    1    3    3    0    0 -0.48338444139E+02  0.38831839752E+02 -0.74582583022E+02  0.96990095631E+02  0.00000000000E+00 0.  1.
</event>
<event>
 7    1  0.6485470E-006  0.1391962E+03  0.7818608E-02  0.1346392E+00
          2   -1    0    0  502    0  0.00000000000E+00  0.00000000000E+00  0.10123193283E+04  0.10123193283E+04  0.00000000000E+00 0. -1.
          1   -1    0    0  501    0 -0.00000000000E+00 -0.00000000000E+00 -0.71854379441E+02  0.71854379441E+02  0.00000000000E+00 0. -1.
         25    2    1    2    0    0  0.13282547969E+02  0.14353727409E+03  0.24667814386E+03  0.31185774397E+03  0.12500308269E+03 0.  0.
          2    1    1    2  501    0 -0.38953697019E+02 -0.68093664468E+01 -0.20545484532E+02  0.44563156503E+02  0.00000000000E+00 0. -1.
          1    1    1    2  502    0  0.25671149050E+02 -0.13672790764E+03  0.71433228951E+03  0.72775280725E+03  0.00000000000E+00 0. -1.
         22    1    3    3    0    0  0.25909392356E+02 -0.14747395866E+02  0.23523279777E+02  0.37975347115E+02  0.00000000000E+00 0. -1.
         22    1    3    3    0    0 -0.12626844386E+02  0.15828466996E+03  0.22315486408E+03  0.27388239685E+03  0.00000000000E+00 0. -1.
</event>
<event>
 7    1  0.6485470E-006  0.1106030E+03  0.7818608E-02  0.1263900E+00
          2   -1    0    0  502    0  0.00000000000E+00  0.00000000000E+00  0.23650213437E+04  0.23650213437E+04  0.00000000000E+00 0. -1.
          1   -1    0    0  501    0 -0.00000000000E+00 -0.00000000000E+00 -0.23390334900E+03  0.23390334900E+03  0.00000000000E+00 0. -1.
         25    2    1    2    0    0  0.12119747745E+02 -0.12063556304E+02  0.34362387507E+03  0.36605333714E+03  0.12500104173E+03 0.  0.
          2    1    1    2  501    0  0.19211294374E+02  0.11321232483E+03 -0.20638643518E+03  0.23618100040E+03  0.00000000000E+00 0. -1.
          1    1    1    2  502    0 -0.31331042119E+02 -0.10114876853E+03  0.19938805548E+04  0.19966903552E+04  0.00000000000E+00 0. -1.
         22    1    3    3    0    0 -0.46313152839E+02  0.11900982717E+02  0.67013981920E+02  0.82325058690E+02  0.00000000000E+00 0.  1.
         22    1    3    3    0    0  0.58432900584E+02 -0.23964539020E+02  0.27660989315E+03  0.28372827845E+03  0.00000000000E+00 0.  1.
</event>
<event>
 7    1  0.6485470E-006  0.8390163E+02  0.7818608E-02  0.1386218E+00
          2   -1    0    0  502    0  0.00000000000E+00  0.00000000000E+00  0.38903203022E+03  0.38903203022E+03  0.00000000000E+00 0. -1.
          1   -1    0    0  501    0 -0.00000000000E+00 -0.00000000000E+00 -0.86569847665E+03  0.86569847665E+03  0.00000000000E+00 0. -1.
         25    2    1    2    0    0  0.10491287655E+03 -0.46221633612E+02 -0.58940058616E+02  0.17956162842E+03  0.12500118724E+03 0.  0.
          2    1    1    2  501    0 -0.59326680798E+02  0.58032055602E+02 -0.74243718372E+03  0.74706113960E+03  0.00000000000E+00 0. -1.
          1    1    1    2  502    0 -0.45586195757E+02 -0.11810421990E+02  0.32471079591E+03  0.32810773884E+03  0.00000000000E+00 0. -1.
         22    1    3    3    0    0  0.11317240972E+03 -0.46441955677E+01 -0.83721439495E+01  0.11357665107E+03  0.00000000000E+00 0. -1.
         22    1    3    3    0    0 -0.82595331651E+01 -0.41577438044E+02 -0.50567914666E+02  0.65984977352E+02  0.00000000000E+00 0. -1.
</event>
<event>
 7    1  0.6485470E-006  0.1081693E+03  0.7818608E-02  0.1409503E+00
          2   -1    0    0  502    0  0.00000000000E+00  0.00000000000E+00  0.66836345934E+03  0.66836345934E+03  0.00000000000E+00 0. -1.
          1   -1    0    0  501    0 -0.00000000000E+00 -0.00000000000E+00 -0.85083314287E+02  0.85083314287E+02  0.00000000000E+00 0. -1.
         25    2    1    2    0    0  0.11114372143E+03 -0.19253858567E+02  0.18041375849E+03  0.24678051917E+03  0.12501144950E+03 0.  0.
          2    1    1    2  501    0 -0.97358401207E+02  0.46301863185E+02  0.52952865554E+01  0.10793776392E+03  0.00000000000E+00 0. -1.
          1    1    1    2  502    0 -0.13785320223E+02 -0.27048004618E+02  0.39757110001E+03  0.39872849054E+03  0.00000000000E+00 0. -1.
         22    1    3    3    0    0  0.71108364969E+01 -0.37856265619E+02  0.11780957532E+03  0.12394658881E+03  0.00000000000E+00 0. -1.
         22    1    3    3    0    0  0.10403288493E+03  0.18602407051E+02  0.62604183174E+02  0.12283393035E+03  0.00000000000E+00 0. -1.
</event>
<event>
 7    1  0.6485470E-006  0.8861171E+02  0.7818608E-02  0.1391418E+00
          2   -1    0    0  502    0  0.00000000000E+00  0.00000000000E+00  0.36197882249E+04  0.36197882249E+04  0.00000000000E+00 0. -1.
          1   -1    0    0  501    0 -0.00000000000E+00 -0.00000000000E+00 -0.55036879366E+02  0.55036879366E+02  0.00000000000E+00 0. -1.
         25    2    1    2    0    0  0.61041868540E+02  0.22032800493E+02  0.71534870394E+03  0.72907972170E+03  0.12498767276E+03 0.  0.
          2    1    1    2  501    0 -0.63056667950E+02 -0.64745472463E+02 -0.54789572751E+01  0.90543572661E+02  0.00000000000E+00 0. -1.
          1    1    1    2  502    0  0.20147994099E+01  0.42712671970E+02  0.28548815988E+04  0.28552018099E+04  0.00000000000E+00 0. -1.
         22    1    3    3    0    0 -0.68297110558E+01 -0.34849003715E+02  0.79203085524E+02  0.86799923788E+02  0.00000000000E+00 0. -1.
         22    1    3    3    0    0  0.67871579595E+02  0.56881804208E+02  0.63614561842E+03  0.64227979791E+03  0.00000000000E+00 0. -1.
</event>
<event>
 7    1  0.6485470E-006  0.6076263E+02  0.7818608E-02  0.1413648E+00
          2   -1    0    0  502    0  0.00000000000E+00  0.00000000000E+00  0.45012717585E+04  0.45012717585E+04  0.00000000000E+00 0. -1.
          1   -1    0    0  501    0 -0.00000000000E+00 -0.00000000000E+00 -0.21014637723E+02  0.21014637723E+02  0.00000000000E+00 0. -1.
         25    2    1    2    0    0 -0.26432317647E+02  0.57250671426E+02  0.95820990830E+03  0.96838450268E+03  0.12500403937E+03 0.  0.
          2    1    1    2  501    0  0.52315140213E+02 -0.11578788743E+01  0.28075142593E+02  0.59383736920E+02  0.00000000000E+00 0. -1.
          1    1    1    2  502    0 -0.25882822566E+02 -0.56092792551E+02  0.34939720699E+04  0.34945181566E+04  0.00000000000E+00 0. -1.
         22    1    3    3    0    0 -0.31299242760E+02  0.63464774835E+02  0.95787392748E+03  0.96048419101E+03  0.00000000000E+00 0. -1.
         22    1    3    3    0    0  0.48669251137E+01 -0.62141034093E+01  0.33598082266E+00  0.79003116620E+01  0.00000000000E+00 0. -1.
</event>
<event>
 7    1  0.6485470E-006  0.6556180E+02  0.7818608E-02  0.1478146E+00
          2   -1    0    0  502    0  0.00000000000E+00  0.00000000000E+00  0.27520153798E+04  0.27520153798E+04  0.00000000000E+00 0. -1.
          1   -1    0    0  501    0 -0.00000000000E+00 -0.00000000000E+00 -0.35158168209E+02  0.35158168209E+02  0.00000000000E+00 0. -1.
         25    2    1    2    0    0  0.45966326964E+01 -0.86115047606E+02  0.20027887173E+04  0.20085363720E+04  0.12497512124E+03 0.  0.
          2    1    1    2  501    0 -0.21864663559E+02  0.61505378113E+02  0.13553201151E+01  0.65290213217E+02  0.00000000000E+00 0. -1.
          1    1    1    2  502    0  0.17268030863E+02  0.24609669493E+02  0.71271317409E+03  0.71334696273E+03  0.00000000000E+00 0. -1.
         22    1    3    3    0    0  0.58805774158E+02 -0.16337991817E+02  0.64740704465E+03  0.65027757959E+03  0.00000000000E+00 0.  1.
         22    1    3    3    0    0 -0.54209141462E+02 -0.69777055789E+02  0.13553816727E+04  0.13582587924E+04  0.00000000000E+00 0.  1.
</event>
<event>
 7    1  0.6485470E-006  0.5134937E+02  0.7818608E-02  0.1564788E+00
          2   -1    0    0  502    0  0.00000000000E+00  0.00000000000E+00  0.12756622652E+03  0.12756622652E+03  0.00000000000E+00 0. -1.
          1   -1    0    0  501    0 -0.00000000000E+00 -0.00000000000E+00 -0.22500249201E+03  0.22500249201E+03  0.00000000000E+00 0. -1.
         25    2    1    2    0    0 -0.21101986279E+02  0.68510089273E+02 -0.11300595806E+03  0.18312368709E+03  0.12500004823E+03 0.  0.
          2    1    1    2  501    0  0.87882443464E+01 -0.19643853820E+02 -0.68294396333E+02  0.71604740081E+02  0.00000000000E+00 0. -1.
          1    1    1    2  502    0  0.12313741932E+02 -0.48866235453E+02  0.83864088898E+02  0.97840291365E+02  0.00000000000E+00 0. -1.
         22    1    3    3    0    0 -0.59308135993E+02  0.55338014396E+02 -0.11715765701E+03  0.14249795587E+03  0.00000000000E+00 0. -1.
         22    1    3    3    0    0  0.38206149715E+02  0.13172074877E+02  0.41516989466E+01  0.40625731215E+02  0.00000000000E+00 0. -1.
</event>
<event>
 7    1  0.6485470E-006  0.1656055E+03  0.7818608E-02  0.1291948E+00
          2   -1    0    0  502    0  0.00000000000E+00  0.00000000000E+00  0.14155287781E+04  0.14155287781E+04  0.00000000000E+00 0. -1.
          1   -1    0    0  501    0 -0.00000000000E+00 -0.00000000000E+00 -0.52760226612E+03  0.52760226612E+03  0.00000000000E+00 0. -1.
         25    2    1    2    0    0  0.92411934184E+02  0.19149452616E+03  0.33184366211E+03  0.41346836237E+03  0.12500300584E+03 0.  0.
          2    1    1    2  501    0 -0.26365881273E+02 -0.47246649036E+02 -0.47922507415E+03  0.48226971420E+03  0.00000000000E+00 0. -1.
          1    1    1    2  502    0 -0.66046052912E+02 -0.14424787712E+03  0.10353079240E+04  0.10473929677E+04  0.00000000000E+00 0. -1.
         22    1    3    3    0    0  0.55032499659E+02  0.11898483069E+03  0.29722039639E+03  0.32484754883E+03  0.00000000000E+00 0.  1.
         22    1    3    3    0    0  0.37379434525E+02  0.72509695471E+02  0.34623265719E+02  0.88620813536E+02  0.00000000000E+00 0.  1.
</event>
<event>
 7    1  0.6485470E-006  0.8115360E+02  0.7818608E-02  0.1471713E+00
          2   -1    0    0  502    0  0.00000000000E+00  0.00000000000E+00  0.45114736286E+02  0.45114736286E+02  0.00000000000E+00 0. -1.
          1   -1    0    0  501    0 -0.00000000000E+00 -0.00000000000E+00 -0.66177932639E+03  0.66177932639E+03  0.00000000000E+00 0. -1.
         25    2    1    2    0    0  0.85821909422E+02 -0.29985883252E+01 -0.33993571689E+03  0.37223051278E+03  0.12499948543E+03 0.  0.
          2    1    1    2  501    0 -0.77333696535E+01  0.24220295922E+02 -0.24722957048E+03  0.24853347514E+03  0.00000000000E+00 0. -1.
          1    1    1    2  502    0 -0.78088539768E+02 -0.21221707597E+02 -0.29499302726E+02  0.86130074758E+02  0.00000000000E+00 0. -1.
         22    1    3    3    0    0  0.54244798718E+01  0.48470512177E+02 -0.17491637267E+03  0.18158896707E+03  0.00000000000E+00 0.  1.
         22    1    3    3    0    0  0.80397429550E+02 -0.51469100502E+02 -0.16501934422E+03  0.19064154571E+03  0.00000000000E+00 0.  1.
</event>
<event>
 7    1  0.6485470E-006  0.5517488E+02  0.7818608E-02  0.1463269E+00
          2   -1    0    0  502    0  0.00000000000E+00  0.00000000000E+00  0.58610946897E+03  0.58610946897E+03  0.00000000000E+00 0. -1.
          1   -1    0    0  501    0 -0.00000000000E+00 -0.00000000000E+00 -0.92392510477E+02  0.92392510477E+02  0.00000000000E+00 0. -1.
         25    2    1    2    0    0  0.40248924542E+02 -0.99997406167E+00  0.29196802658E+03  0.32014402599E+03  0.12500357179E+03 0.  0.
          2    1    1    2  501    0  0.50687622673E+01 -0.39411510693E+02 -0.69683601702E+02  0.80216979949E+02  0.00000000000E+00 0. -1.
          1    1    1    2  502    0 -0.45317686809E+02  0.40411484755E+02  0.27143253361E+03  0.27814097351E+03  0.00000000000E+00 0. -1.
         22    1    3    3    0    0  0.14341976238E+02  0.58370630855E+02  0.91553382870E+02  0.10952097855E+03  0.00000000000E+00 0.  1.
         22    1    3    3    0    0  0.25906948304E+02 -0.59370604916E+02  0.20041464371E+03  0.21062304744E+03  0.00000000000E+00 0.  1.
</event>
<event>
 7    1  0.6485470E-006  0.3554757E+02  0.7818608E-02  0.1613590E+00
          2   -1    0    0  502    0  0.00000000000E+00  0.00000000000E+00  0.15456082033E+04  0.15456082033E+04  0.00000000000E+00 0. -1.
          1   -1    0    0  501    0 -0.00000000000E+00 -0.00000000000E+00 -0.16458310758E+03  0.16458310758E+03  0.00000000000E+00 0. -1.
         25    2    1    2    0    0 -0.17199446992E+02  0.55348390477E+02  0.41990017581E+02  0.14403693261E+03  0.12499684426E+03 0.  0.
          2    1    1    2  501    0  0.11099942230E+02 -0.33089162621E+02 -0.11078399949E+03  0.11615160758E+03  0.00000000000E+00 0. -1.
          1    1    1    2  502    0  0.60995047613E+01 -0.22259227856E+02  0.14498190776E+04  0.14500027707E+04  0.00000000000E+00 0. -1.
         22    1    3    3    0    0  0.33838938583E+02  0.61668810486E+01 -0.28055408075E+02  0.44387048883E+02  0.00000000000E+00 0.  1.
         22    1    3    3    0    0 -0.51038385575E+02  0.49181509428E+02  0.70045425656E+02  0.99649883728E+02  0.00000000000E+00 0.  1.
</event>
<event>
 7    1  0.6485470E-006  0.2181485E+03  0.7818608E-02  0.1178937E+00
          2   -1    0    0  502    0  0.00000000000E+00  0.00000000000E+00  0.30553493215E+04  0.30553493215E+04  0.00000000000E+00 0. -1.
          1   -1    0    0  501    0 -0.00000000000E+00 -0.00000000000E+00 -0.81581872369E+02  0.81581872369E+02  0.00000000000E+00 0. -1.
         25    2    1    2    0    0 -0.16950660130E+03  0.27604816114E+03  0.84751974751E+03  0.91588694993E+03  0.12499642991E+03 0.  0.
          2    1    1    2  501    0  0.10698968775E+03 -0.16108553940E+03  0.16151189705E+03  0.25195522851E+03  0.00000000000E+00 0. -1.
          1    1    1    2  502    0  0.62516913547E+02 -0.11496262174E+03  0.19647358046E+04  0.19690890154E+04  0.00000000000E+00 0. -1.
         22    1    3    3    0    0 -0.24710063473E-01  0.94110427612E+02  0.30308526670E+03  0.31736012996E+03  0.00000000000E+00 0.  1.
         22    1    3    3    0    0 -0.16948189123E+03  0.18193773353E+03  0.54443448081E+03  0.59852681997E+03  0.00000000000E+00 0.  1.
</event>
<event>
 7    1  0.6485470E-006  0.1587125E+03  0.7818608E-02  0.1252489E+00
          2   -1    0    0  502    0  0.00000000000E+00  0.00000000000E+00  0.21305837811E+04  0.21305837811E+04  0.00000000000E+00 0. -1.
          1   -1    0    0  501    0 -0.00000000000E+00 -0.00000000000E+00 -0.21064004201E+04  0.21064004201E+04  0.00000000000E+00 0. -1.
         25    2    1    2    0    0  0.19875987629E+03  0.13491965097E+03  0.28660194635E+03  0.39430279686E+03  0.12500087728E+03 0.  0.
          2    1    1    2  501    0 -0.12722893358E+03 -0.93660706351E+02 -0.20485545959E+04  0.20546375500E+04  0.00000000000E+00 0. -1.
          1    1    1    2  502    0 -0.71530942706E+02 -0.41258944616E+02  0.17861360107E+04  0.17880438543E+04  0.00000000000E+00 0. -1.
         22    1    3    3    0    0  0.41118843644E+01  0.48419302886E+02  0.18757383213E+02  0.52088155179E+02  0.00000000000E+00 0.  1.
         22    1    3    3    0    0  0.19464799192E+03  0.86500348081E+02  0.26784456313E+03  0.34221464168E+03  0.00000000000E+00 0.  1.
</event>
<event>
 7    1  0.6485470E-006  0.2105957E+03  0.7818608E-02  0.1283248E+00
          2   -1    0    0  502    0  0.00000000000E+00  0.00000000000E+00  0.30405377746E+04  0.30405377746E+04  0.00000000000E+00 0. -1.
          1   -1    0    0  501    0 -0.00000000000E+00 -0.00000000000E+00 -0.26057261072E+03  0.26057261072E+03  0.00000000000E+00 0. -1.
         25    2    1    2    0    0 -0.19016068967E+03 -0.24428610823E+02 -0.45834765381E+02  0.23342161933E+03  0.12500792668E+03 0.  0.
          2    1    1    2  501    0  0.23366674768E+03  0.89639448990E+01 -0.75520981684E+01  0.23396054254E+03  0.00000000000E+00 0. -1.
          1    1    1    2  502    0 -0.43506058012E+02  0.15464665924E+02  0.28333520274E+04  0.28337282234E+04  0.00000000000E+00 0. -1.
         22    1    3    3    0    0 -0.72499897714E+02 -0.67647281717E+02 -0.42898275766E+02  0.10804004793E+03  0.00000000000E+00 0. -1.
         22    1    3    3    0    0 -0.11766079195E+03  0.43218670894E+02 -0.29364896153E+01  0.12538157141E+03  0.00000000000E+00 0. -1.
</event>
<event>
 7    1  0.6485470E-006  0.1288939E+03  0.7818608E-02  0.1272301E+00
          2   -1    0    0  502    0  0.00000000000E+00  0.00000000000E+00  0.27356248505E+03  0.27356248505E+03  0.00000000000E+00 0. -1.
          1   -1    0    0  501    0 -0.00000000000E+00 -0.00000000000E+00 -0.98243287594E+03  0.98243287594E+03  0.00000000000E+00 0. -1.
         25    2    1    2    0    0 -0.19938136580E+03 -0.37027781163E+02 -0.16675829506E+03  0.29078800652E+03  0.12500140061E+03 0.  0.
          2    1    1    2  501    0  0.83595600981E+02 -0.51432690448E+01 -0.73312605461E+03  0.73789463318E+03  0.00000000000E+00 0. -1.
          1    1    1    2  502    0  0.11578576482E+03  0.42171050208E+02  0.19101395879E+03  0.22731272130E+03  0.00000000000E+00 0. -1.
         22    1    3    3    0    0  0.17403296472E+02 -0.67164515440E+01 -0.19409722110E+02  0.26920675360E+02  0.00000000000E+00 0. -1.
         22    1    3    3    0    0 -0.21678466227E+03 -0.30311329619E+02 -0.14734857295E+03  0.26386733116E+03  0.00000000000E+00 0. -1.
</event>
<event>
 7    1  0.6485470E-006  0.4991610E+02  0.7818608E-02  0.1468104E+00
          2   -1    0    0  502    0  0.00000000000E+00  0.00000000000E+00  0.11315657059E+04  0.11315657059E+04  0.00000000000E+00 0. -1.
          1   -1    0    0  501    0 -0.00000000000E+00 -0.00000000000E+00 -0.17780395864E+04  0.17780395864E+04  0.00000000000E+00 0. -1.
         25    2    1    2    0    0  0.88931133941E+02 -0.19535863639E+02  0.24050989405E+03  0.28593922291E+03  0.12500333398E+03 0.  0.
          2    1    1    2  501    0 -0.41088089929E+02  0.10540689414E+02 -0.17543860543E+04  0.17548987904E+04  0.00000000000E+00 0. -1.
          1    1    1    2  502    0 -0.47843044012E+02  0.89951742250E+01  0.86740227976E+03  0.86876727894E+03  0.00000000000E+00 0. -1.
         22    1    3    3    0    0  0.39060411483E+02 -0.18909258070E+02  0.32769595989E+01  0.43520274014E+02  0.00000000000E+00 0.  1.
         22    1    3    3    0    0  0.49870722458E+02 -0.62660556864E+00  0.23723293445E+03  0.24241894889E+03  0.00000000000E+00 0.  1.
</event>
<event>
 7    1  0.6485470E-006  0.6360714E+02  0.7818608E-02  0.1401851E+00
          2   -1    0    0  502    0  0.00000000000E+00  0.00000000000E+00  0.55858847138E+03  0.55858847138E+03  0.00000000000E+00 0. -1.
          1   -1    0    0  501    0 -0.00000000000E+00 -0.00000000000E+00 -0.10934185246E+03  0.10934185246E+03  0.00000000000E+00 0. -1.
         25    2    1    2    0    0  0.39521223128E+01 -0.41584933330E+02  0.78280449034E+02  0.15328710488E+03  0.12499672744E+03 0.  0.
          2    1    1    2  501    0 -0.54816860604E+02 -0.90553456803E+00 -0.58452554951E+02  0.80139936234E+02  0.00000000000E+00 0. -1.
          1    1    1    2  502    0  0.50864738291E+02  0.42490467898E+02  0.42941872484E+03  0.43450328273E+03  0.00000000000E+00 0. -1.
         22    1    3    3    0    0 -0.33872424548E+02 -0.33189861202E+02  0.98691982472E+02  0.10949436257E+03  0.00000000000E+00 0.  1.
         22    1    3    3    0    0  0.37824546861E+02 -0.83950721271E+01 -0.20411533437E+02  0.43792742304E+02  0.00000000000E+00 0.  1.
</event>
<event>
 7    1  0.6485470E-006  0.8684693E+02  0.7818608E-02  0.1375313E+00
          2   -1    0    0  502    0  0.00000000000E+00  0.00000000000E+00  0.18452606421E+03  0.18452606421E+03  0.00000000000E+00 0. -1.
          1   -1    0    0  501    0 -0.00000000000E+00 -0.00000000000E+00 -0.75996179223E+03  0.75996179223E+03  0.00000000000E+00 0. -1.
         25    2    1    2    0    0  0.12789382272E+03  0.26364376998E+02 -0.10091514089E+03  0.20703485111E+03  0.12501061416E+03 0.  0.
          2    1    1    2  501    0 -0.78434222039E+02 -0.31452484911E+02 -0.59820738563E+03  0.60414672242E+03  0.00000000000E+00 0. -1.
          1    1    1    2  502    0 -0.49459600679E+02  0.50881079135E+01  0.12368679849E+03  0.13330628291E+03  0.00000000000E+00 0. -1.
         22    1    3    3    0    0  0.18336899282E+02  0.52945141170E+02 -0.45386679521E+00  0.56032453488E+02  0.00000000000E+00 0. -1.
         22    1    3    3    0    0  0.10955692344E+03 -0.26580764172E+02 -0.10046127409E+03  0.15100239763E+03  0.00000000000E+00 0. -1.
</event>
<event>
 7    1  0.6485470E-006  0.1102551E+03  0.7818608E-02  0.1290165E+00
          2   -1    0    0  502    0  0.00000000000E+00  0.00000000000E+00  0.93828978703E+03  0.93828978703E+03  0.00000000000E+00 0. -1.
          1   -1    0    0  501    0 -0.00000000000E+00 -0.00000000000E+00 -0.62791120644E+03  0.62791120644E+03  0.00000000000E+00 0. -1.
         25    2    1    2    0    0  0.13345968372E+02 -0.68636905172E+02  0.54871247227E+02  0.15337825001E+03  0.12499957673E+03 0.  0.
          2    1    1    2  501    0  0.65740455907E+02  0.92587849170E+02 -0.57100675322E+03  0.58218813934E+03  0.00000000000E+00 0. -1.
          1    1    1    2  502    0 -0.79086424279E+02 -0.23950943999E+02  0.82651408659E+03  0.83063460411E+03  0.00000000000E+00 0. -1.
         22    1    3    3    0    0 -0.51319479914E+01 -0.68853837250E+01  0.82718595738E+02  0.83163161797E+02  0.00000000000E+00 0. -1.
         22    1    3    3    0    0  0.18477916363E+02 -0.61751521447E+02 -0.27847348511E+02  0.70215088216E+02  0.00000000000E+00 0. -1.
</event>
<event>
 7    1  0.6485470E-006  0.2292866E+03  0.7818608E-02  0.1229158E+00
          2   -1    0    0  502    0  0.00000000000E+00  0.00000000000E+00  0.49544812507E+03  0.49544812507E+03  0.00000000000E+00 0. -1.
          1   -1    0    0  501    0 -0.00000000000E+00 -0.00000000000E+00 -0.60683763159E+03  0.60683763159E+03  0.00000000000E+00 0. -1.
         25    2    1    2    0    0  0.24614637377E+03 -0.12483097335E+03 -0.74519994857E+02  0.31200796648E+03  0.12499972914E+03 0.  0.
          2    1    1    2  501    0 -0.20958706758E+03  0.62316895559E+02 -0.38063428961E+03  0.43896764892E+03  0.00000000000E+00 0. -1.
          1    1    1    2  502    0 -0.36559306190E+02  0.62514077795E+02  0.34376477795E+03  0.35131014126E+03  0.00000000000E+00 0. -1.
         22    1    3    3    0    0  0.18641527843E+03 -0.27009160241E+02 -0.46313737072E+02  0.19397193872E+03  0.00000000000E+00 0.  1.
         22    1    3    3    0    0  0.59731095334E+02 -0.97821813113E+02 -0.28206257785E+02  0.11803602776E+03  0.00000000000E+00 0.  1.
</event>
<event>
 7    1  0.6485470E-006  0.7471874E+02  0.7818608E-02  0.1461036E+00
          2   -1    0    0  502    0  0.00000000000E+00  0.00000000000E+00  0.49024735540E+03  0.49024735540E+03  0.00000000000E+00 0. -1.
          1   -1    0    0  501    0 -0.00000000000E+00 -0.00000000000E+00 -0.77972387978E+02  0.77972387978E+02  0.00000000000E+00 0. -1.
         25    2    1    2    0    0  0.46517578925E+02 -0.83367376082E+02  0.16124666293E+03  0.22525513867E+03  0.12500154657E+03 0.  0.
          2    1    1    2  501    0 -0.47989521340E+02  0.53582862894E+02 -0.16483477109E+02  0.73795815409E+02  0.00000000000E+00 0. -1.
          1    1    1    2  502    0  0.14719424142E+01  0.29784513188E+02  0.26751178160E+03  0.26916878930E+03  0.00000000000E+00 0. -1.
         22    1    3    3    0    0  0.11395719093E+02  0.11303833014E+02  0.11157403230E+03  0.11272268511E+03  0.00000000000E+00 0.  1.
         22    1    3    3    0    0  0.35121859832E+02 -0.94671209097E+02  0.49672630634E+02  0.11253245356E+03  0.00000000000E+00 0.  1.
</event>
<event>
 7    1  0.6485470E-006  0.6328511E+02  0.7818608E-02  0.1473060E+00
          2   -1    0    0  502    0  0.00000000000E+00  0.00000000000E+00  0.18275810824E+03  0.18275810824E+03  0.00000000000E+00 0. -1.
          1   -1    0    0  501    0 -0.00000000000E+00 -0.00000000000E+00 -0.33353952759E+04  0.33353952759E+04  0.00000000000E+00 0. -1.
         25    2    1    2    0    0  0.50621069950E+02 -0.63255859444E+02 -0.22826217115E+04  0.22874771083E+04  0.12500338769E+03 0.  0.
          2    1    1    2  501    0 -0.49496588892E+02  0.30983851030E+02 -0.10480809752E+04  0.10497064551E+04  0.00000000000E+00 0. -1.
          1    1    1    2  502    0 -0.11244810577E+01  0.32272008414E+02  0.17806551896E+03  0.18096982076E+03  0.00000000000E+00 0. -1.
         22    1    3    3    0    0  0.35620830245E+02 -0.56044053323E+01 -0.18916036583E+04  0.18919473177E+04  0.00000000000E+00 0. -1.
         22    1    3    3    0    0  0.15000239705E+02 -0.57651454112E+02 -0.39101805318E+03  0.39552979062E+03  0.00000000000E+00 0. -1.
</event>
<event>
 7    1  0.6485470E-006  0.3643521E+02  0.7818608E-02  0.1613277E+00
          2   -1    0    0  502    0  0.00000000000E+00  0.00000000000E+00  0.45171624309E+03  0.45171624309E+03  0.00000000000E+00 0. -1.
          1   -1    0    0  501    0 -0.00000000000E+00 -0.00000000000E+00 -0.15324070522E+04  0.15324070522E+04  0.00000000000E+00 0. -1.
         25    2    1    2    0    0  0.15176440891E+02  0.16064143091E+01 -0.18433826975E+03  0.22324790344E+03  0.12500449501E+03 0.  0.
          2    1    1    2  501    0  0.20494154909E+02 -0.94291830870E+01 -0.13277466925E+04  0.13279383266E+04  0.00000000000E+00 0. -1.
          1    1    1    2  502    0 -0.35670595800E+02  0.78227687778E+01  0.43139415312E+03  0.43293706524E+03  0.00000000000E+00 0. -1.
         22    1    3    3    0    0  0.17282599241E+02 -0.57720744114E+01  0.15098437055E+02  0.23663640486E+02  0.00000000000E+00 0. -1.
         22    1    3    3    0    0 -0.21061583502E+01  0.73784887205E+01 -0.19943670681E+03  0.19958426296E+03  0.00000000000E+00 0. -1.
</event>
<event>
 7    1  0.6485470E-006  0.1502249E+03  0.7818608E-02  0.1303528E+00
          2   -1    0    0  502    0  0.00000000000E+00  0.00000000000E+00  0.27466060464E+04  0.27466060464E+04  0.00000000000E+00 0. -1.
          1   -1    0    0  501    0 -0.00000000000E+00 -0.00000000000E+00 -0.11067857163E+04  0.11067857163E+04  0.00000000000E+00 0. -1.
         25    2    1    2    0    0  0.80194144618E+02 -0.66904472776E+02 -0.67112272090E+02  0.17617054400E+03  0.12499877679E+03 0.  0.
          2    1    1    2  501    0 -0.10563616640E+03  0.11406506818E+03 -0.97874180173E+03  0.99101228745E+03  0.00000000000E+00 0. -1.
          1    1    1    2  502    0  0.25442021783E+02 -0.47160595402E+02  0.26856744039E+04  0.26862089312E+04  0.00000000000E+00 0. -1.
         22    1    3    3    0    0  0.61412735552E+02 -0.89845023261E+02 -0.68907669175E+01  0.10904648074E+03  0.00000000000E+00 0. -1.
         22    1    3    3    0    0  0.18781409066E+02  0.22940550486E+02 -0.60221505172E+02  0.67124063258E+02  0.00000000000E+00 0. -1.
</event>
<event>
 7    1  0.6485470E-006  0.1215201E+03  0.7818608E-02  0.1247034E+00
          2   -1    0    0  502    0  0.00000000000E+00  0.00000000000E+00  0.16073406483E+04  0.16073406483E+04  0.00000000000E+00 0. -1.
          1   -1    0    0  501    0 -0.00000000000E+00 -0.00000000000E+00 -0.23843394470E+04  0.23843394470E+04  0.00000000000E+00 0. -1.
         25    2    1    2    0    0 -0.73821527409E+02  0.41139257213E+02  0.57592690724E+02  0.16150620667E+03  0.12500112150E+03 0.  0.
          2    1    1    2  501    0 -0.31625009197E+02 -0.10941450745E+03 -0.23283543178E+04  0.23311382423E+04  0.00000000000E+00 0. -1.
          1    1    1    2  502    0  0.10544653661E+03  0.68275250233E+02  0.14937628283E+04  0.14990356464E+04  0.00000000000E+00 0. -1.
         22    1    3    3    0    0 -0.36769644583E+01  0.10244883124E+02  0.80716631699E+02  0.81447236483E+02  0.00000000000E+00 0. -1.
         22    1    3    3    0    0 -0.70144562951E+02  0.30894374089E+02 -0.23123940975E+02  0.80058970192E+02  0.00000000000E+00 0. -1.
</event>
<event>
 7    1  0.6485470E-006  0.4640814E+02  0.7818608E-02  0.1538772E+00
          2   -1    0    0  502    0  0.00000000000E+00  0.00000000000E+00  0.42478090521E+03  0.42478090521E+03  0.00000000000E+00 0. -1.
          1   -1    0    0  501    0 -0.00000000000E+00 -0.00000000000E+00 -0.10379397582E+03  0.10379397582E+03  0.00000000000E+00 0. -1.
         25    2    1    2    0    0  0.18611908018E+02  0.87531150855E+01  0.11349121260E+03  0.17008427278E+03  0.12500153745E+03 0.  0.
          2    1    1    2  501    0 -0.46698727505E+02 -0.10334166526E+02 -0.67131157798E+02  0.82426685580E+02  0.00000000000E+00 0. -1.
          1    1    1    2  502    0  0.28086819487E+02  0.15810514407E+01  0.27462687459E+03  0.27606392267E+03  0.00000000000E+00 0. -1.
         22    1    3    3    0    0  0.16336328021E+02 -0.27257312054E+02  0.12748312514E+03  0.13138410813E+03  0.00000000000E+00 0. -1.
         22    1    3    3    0    0  0.22755799969E+01  0.36010427140E+02 -0.13991912543E+02  0.38700164647E+02  0.00000000000E+00 0. -1.
</event>
<event>
 7    1  0.6485470E-006  0.1119144E+03  0.7818608E-02  0.1403211E+00
          2   -1    0    0  502    0  0.00000000000E+00  0.00000000000E+00  0.76441370173E+03  0.76441370173E+03  0.00000000000E+00 0. -1.
          1   -1    0    0  501    0 -0.00000000000E+00 -0.00000000000E+00 -0.19233218593E+03  0.19233218593E+03  0.00000000000E+00 0. -1.
         25    2    1    2    0    0 -0.13190611533E+03  0.72163537906E+01  0.45696983360E+03  0.49183179875E+03  0.12500316163E+03 0.  0.
          2    1    1    2  501    0  0.11026098085E+03  0.14733649540E+02 -0.15625187686E+03  0.19180514422E+03  0.00000000000E+00 0. -1.
          1    1    1    2  502    0  0.21645134485E+02 -0.21950003330E+02  0.27136355905E+03  0.27310894470E+03  0.00000000000E+00 0. -1.
         22    1    3    3    0    0 -0.14180209221E+03 -0.24166651373E+02  0.31803370194E+03  0.34905199608E+03  0.00000000000E+00 0. -1.
         22    1    3    3    0    0  0.98959768790E+01  0.31383005164E+02  0.13893613165E+03  0.14277980267E+03  0.00000000000E+00 0. -1.
</event>
<event>
 7    1  0.6485470E-006  0.4368152E+02  0.7818608E-02  0.1489658E+00
          2   -1    0    0  502    0  0.00000000000E+00  0.00000000000E+00  0.64234007236E+02  0.64234007236E+02  0.00000000000E+00 0. -1.
          1   -1    0    0  501    0 -0.00000000000E+00 -0.00000000000E+00 -0.36734267510E+03  0.36734267510E+03  0.00000000000E+00 0. -1.
         25    2    1    2    0    0 -0.48144472707E+00 -0.17573578158E+01 -0.12833692237E+03  0.17915811068E+03  0.12499577146E+03 0.  0.
          2    1    1    2  501    0 -0.30730307516E+02 -0.31043898283E+02 -0.19713671300E+03  0.20191819887E+03  0.00000000000E+00 0. -1.
          1    1    1    2  502    0  0.31211752243E+02  0.32801256099E+02  0.22364967513E+02  0.50500372786E+02  0.00000000000E+00 0. -1.
         22    1    3    3    0    0  0.24610744284E+02 -0.57854727217E+02 -0.74248473595E+02  0.97291798353E+02  0.00000000000E+00 0. -1.
         22    1    3    3    0    0 -0.25092189011E+02  0.56097369401E+02 -0.54088448779E+02  0.81866312329E+02  0.00000000000E+00 0. -1.
</event>
<event>
 7    1  0.6485470E-006  0.7493874E+02  0.7818608E-02  0.1477990E+00
          2   -1    0    0  502    0  0.00000000000E+00  0.00000000000E+00  0.88022581548E+02  0.88022581548E+02  0.00000000000E+00 0. -1.
          1   -1    0    0  501    0 -0.00000000000E+00 -0.00000000000E+00 -0.10565709345E+04  0.10565709345E+04  0.00000000000E+00 0. -1.
         25    2    1    2    0    0 -0.51095878567E+02  0.56891260066E+00 -0.94864850846E+02  0.16503323894E+03  0.12500207023E+03 0.  0.
          2    1    1    2  501    0  0.75197116226E+02 -0.11173349868E+02 -0.92168296926E+03  0.92481292479E+03  0.00000000000E+00 0. -1.
          1    1    1    2  502    0 -0.24101237659E+02  0.10604437267E+02  0.47999467115E+02  0.54747352354E+02  0.00000000000E+00 0. -1.
         22    1    3    3    0    0 -0.48581782520E+02 -0.50147634160E+02 -0.16647020770E+02  0.71778117175E+02  0.00000000000E+00 0.  1.
         22    1    3    3    0    0 -0.25140960476E+01  0.50716546761E+02 -0.78217830076E+02  0.93255121768E+02  0.00000000000E+00 0.  1.
</event>
<event>
 7    1  0.6485470E-006  0.4547901E+02  0.7818608E-02  0.1520055E+00
          2   -1    0    0  502    0  0.00000000000E+00  0.00000000000E+00  0.10408025743E+03  0.10408025743E+03  0.00000000000E+00 0. -1.
          1   -1    0    0  501    0 -0.00000000000E+00 -0.00000000000E+00 -0.51740378721E+03  0.51740378721E+03  0.00000000000E+00 0. -1.
         25    2    1    2    0    0 -0.55230993882E+02  0.42336831610E+02 -0.14044419987E+03  0.20048067732E+03  0.12500023482E+03 0.  0.
          2    1    1    2  501    0  0.32233549783E+02 -0.40081614502E+01 -0.33935024074E+03  0.34090123640E+03  0.00000000000E+00 0. -1.
          1    1    1    2  502    0  0.22997444098E+02 -0.38328670160E+02  0.66470910833E+02  0.80102130922E+02  0.00000000000E+00 0. -1.
         22    1    3    3    0    0 -0.38311716543E+02 -0.37854275327E+02 -0.88023761987E+02  0.10319358730E+03  0.00000000000E+00 0.  1.
         22    1    3    3    0    0 -0.16919277339E+02  0.80191106937E+02 -0.52420437883E+02  0.97287090024E+02  0.00000000000E+00 0.  1.
</event>
<event>
 7    1  0.6485470E-006  0.6383116E+02  0.7818608E-02  0.1434723E+00
          2   -1    0    0  502    0  0.00000000000E+00  0.00000000000E+00  0.50424431749E+03  0.50424431749E+03  0.00000000000E+00 0. -1.
          1   -1    0    0  501    0 -0.00000000000E+00 -0.00000000000E+00 -0.84406538357E+03  0.84406538357E+03  0.00000000000E+00 0. -1.
         25    2    1    2    0    0 -0.52089676034E+02  0.42698225506E+02 -0.86332850090E+02  0.16617518879E+03  0.12499743819E+03 0.  0.
          2    1    1    2  501    0 -0.11888838934E+02 -0.40699076504E+02 -0.71497428602E+03  0.71623040217E+03  0.00000000000E+00 0. -1.
          1    1    1    2  502    0  0.63978514968E+02 -0.19991490020E+01  0.46148607003E+03  0.46590411010E+03  0.00000000000E+00 0. -1.
         22    1    3    3    0    0  0.38966806290E+02 -0.69246874314E+00 -0.11672672004E+02  0.40683445984E+02  0.00000000000E+00 0. -1.
         22    1    3    3    0    0 -0.91056482324E+02  0.43390694249E+02 -0.74660178086E+02  0.12549174281E+03  0.00000000000E+00 0. -1.
</event>
<event>
 7    1  0.6485470E-006  0.1049632E+03  0.7818608E-02  0.1360290E+00
          2   -1    0    0  502    0  0.00000000000E+00  0.00000000000E+00  0.79547236840E+03  0.79547236840E+03  0.00000000000E+00 0. -1.
          1   -1    0    0  501    0 -0.00000000000E+00 -0.00000000000E+00 -0.26225538642E+03  0.26225538642E+03  0.00000000000E+00 0. -1.
         25    2    1    2    0    0 -0.58121964423E+02 -0.89175576553E+02  0.20283710330E+02  0.16542628366E+03  0.12499592080E+03 0.  0.
          2    1    1    2  501    0  0.44024452743E+02 -0.15294908091E+02 -0.18278952037E+03  0.18863747085E+03  0.00000000000E+00 0. -1.
          1    1    1    2  502    0  0.14097511680E+02  0.10447048464E+03  0.69572279202E+03  0.70366400031E+03  0.00000000000E+00 0. -1.
         22    1    3    3    0    0 -0.80995191909E+02 -0.51366937307E+02 -0.28059085906E+02  0.99930454130E+02  0.00000000000E+00 0. -1.
         22    1    3    3    0    0  0.22873227487E+02 -0.37808639246E+02  0.48342796236E+02  0.65495829525E+02  0.00000000000E+00 0. -1.
</event>
<event>
 7    1  0.6485470E-006  0.7515483E+02  0.7818608E-02  0.1374238E+00
          2   -1    0    0  502    0  0.00000000000E+00  0.00000000000E+00  0.16676114348E+04  0.16676114348E+04  0.00000000000E+00 0. -1.
          1   -1    0    0  501    0 -0.00000000000E+00 -0.00000000000E+00 -0.61460472204E+02  0.61460472204E+02  0.00000000000E+00 0. -1.
         25    2    1    2    0    0 -0.35015200251E+02  0.11828498588E+03  0.76560689919E+03  0.78548973860E+03  0.12499121255E+03 0.  0.
          2    1    1    2  501    0 -0.19768449737E+01 -0.73657745399E+02 -0.23695738205E+02  0.77400642003E+02  0.00000000000E+00 0. -1.
          1    1    1    2  502    0  0.36992045225E+02 -0.44627240481E+02  0.86423980165E+03  0.86618152645E+03  0.00000000000E+00 0. -1.
         22    1    3    3    0    0 -0.69013839222E+02  0.34592186855E+02  0.23804864143E+03  0.25025324190E+03  0.00000000000E+00 0.  1.
         22    1    3    3    0    0  0.33998638970E+02  0.83692799025E+02  0.52755825776E+03  0.53523649669E+03  0.00000000000E+00 0.  1.
</event>
<event>
 7    1  0.6485470E-006  0.9811959E+02  0.7818608E-02  0.1322229E+00
          2   -1    0    0  502    0  0.00000000000E+00  0.00000000000E+00  0.14548422715E+04  0.14548422715E+04  0.00000000000E+00 0. -1.
          1   -1    0    0  501    0 -0.00000000000E+00 -0.00000000000E+00 -0.36669284555E+03  0.36669284555E+03  0.00000000000E+00 0. -1.
         25    2    1    2    0    0 -0.14861510088E+03  0.22964724163E+02 -0.12525529501E+03  0.23225115687E+03  0.12505152608E+03 0.  0.
          2    1    1    2  501    0  0.80710485552E+02 -0.36747396542E+02 -0.17656684742E+03  0.19758645004E+03  0.00000000000E+00 0. -1.
          1    1    1    2  502    0  0.67904615326E+02  0.13782672379E+02  0.13899715684E+04  0.13916975102E+04  0.00000000000E+00 0. -1.
         22    1    3    3    0    0 -0.93305604824E+02  0.74922221095E+02 -0.78659427387E+02  0.14320118932E+03  0.00000000000E+00 0.  1.
         22    1    3    3    0    0 -0.55309496054E+02 -0.51957496932E+02 -0.46595867624E+02  0.89049967551E+02  0.00000000000E+00 0.  1.
</event>
<event>
 7    1  0.6485470E-006  0.3335634E+03  0.7818608E-02  0.1275838E+00
          2   -1    0    0  502    0  0.00000000000E+00  0.00000000000E+00  0.22753928732E+03  0.22753928732E+03  0.00000000000E+00 0. -1.
          1   -1    0    0  501    0 -0.00000000000E+00 -0.00000000000E+00 -0.13945677472E+04  0.13945677472E+04  0.00000000000E+00 0. -1.
         25    2    1    2    0    0 -0.32467224621E+03 -0.14072719247E+03 -0.25866544249E+03  0.45579414997E+03  0.12499714333E+03 0.  0.
          2    1    1    2  501    0  0.30771228367E+03  0.11444134782E+03 -0.10089256650E+04  0.10609970165E+04  0.00000000000E+00 0. -1.
          1    1    1    2  502    0  0.16959962547E+02  0.26285844653E+02  0.10056264761E+03  0.10531586801E+03  0.00000000000E+00 0. -1.
         22    1    3    3    0    0 -0.18677365015E+03 -0.13070144429E+03 -0.20783373656E+03  0.30848359111E+03  0.00000000000E+00 0.  1.
         22    1    3    3    0    0 -0.13789859607E+03 -0.10025748184E+02 -0.50831705931E+02  0.14731055886E+03  0.00000000000E+00 0.  1.
</event>
<event>
 7    1  0.6485470E-006  0.6254479E+02  0.7818608E-02  0.1542599E+00
          2   -1    0    0  502    0  0.00000000000E+00  0.00000000000E+00  0.15301136455E+03  0.15301136455E+03  0.00000000000E+00 0. -1.
          1   -1    0    0  501    0 -0.00000000000E+00 -0.00000000000E+00 -0.64376472359E+03  0.64376472359E+03  0.00000000000E+00 0. -1.
         25    2    1    2    0    0  0.18443702341E+02  0.79513369511E+02  0.49527561068E+02  0.15729096504E+03  0.12499968917E+03 0.  0.
          2    1    1    2  501    0 -0.87034268525E+01 -0.61634117429E+02 -0.58607377759E+03  0.58936999147E+03  0.00000000000E+00 0. -1.
          1    1    1    2  502    0 -0.97402754885E+01 -0.17879252081E+02  0.45792857484E+02  0.50115131629E+02  0.00000000000E+00 0. -1.
         22    1    3    3    0    0 -0.46366541165E+02  0.54175330459E+02  0.51032037015E+02  0.87687464167E+02  0.00000000000E+00 0.  1.
         22    1    3    3    0    0  0.64810243506E+02  0.25338039051E+02 -0.15044759477E+01  0.69603500876E+02  0.00000000000E+00 0.  1.
</event>
<event>
 7    1  0.6485470E-006  0.1758325E+03  0.7818608E-02  0.1278501E+00
          2   -1    0    0  502    0  0.00000000000E+00  0.00000000000E+00  0.28219778767E+03  0.28219778767E+03  0.00000000000E+00 0. -1.
          1   -1    0    0  501    0 -0.00000000000E+00 -0.00000000000E+00 -0.14279603556E+04  0.14279603556E+04  0.00000000000E+00 0. -1.
         25    2    1    2    0    0  0.12307519355E+03  0.70259180900E+02 -0.51998753397E+03  0.55325920666E+03  0.12499943401E+03 0.  0.
          2    1    1    2  501    0  0.56383980992E+00  0.57850203309E+02 -0.86041495827E+03  0.86235773571E+03  0.00000000000E+00 0. -1.
          1    1    1    2  502    0 -0.12363903336E+03 -0.12810938421E+03  0.23463992435E+03  0.29454120084E+03  0.00000000000E+00 0. -1.
         22    1    3    3    0    0  0.10054814405E+03  0.75506765051E+02 -0.51428846604E+03  0.52943727404E+03  0.00000000000E+00 0.  1.
         22    1    3    3    0    0  0.22527049498E+02 -0.52475841507E+01 -0.56990679296E+01  0.23821932621E+02  0.00000000000E+00 0.  1.
</event>
<event>
 7    1  0.6485470E-006  0.3247151E+03  0.7818608E-02  0.1189345E+00
          2   -1    0    0  502    0  0.00000000000E+00  0.00000000000E+00  0.23860526343E+04  0.23860526343E+04  0.00000000000E+00 0. -1.
          1   -1    0    0  501    0 -0.00000000000E+00 -0.00000000000E+00 -0.18193385936E+04  0.18193385936E+04  0.00000000000E+00 0. -1.
         25    2    1    2    0    0  0.32558848961E+03 -0.55862268185E+02 -0.19876896022E+03  0.40529499737E+03  0.12500591097E+03 0.  0.
          2    1    1    2  501    0 -0.32434580685E+03 -0.22403065938E+02 -0.14992066149E+04  0.15340542930E+04  0.00000000000E+00 0. -1.
          1    1    1    2  502    0 -0.12426827544E+01  0.78265334123E+02  0.22646896158E+04  0.22660419375E+04  0.00000000000E+00 0. -1.
         22    1    3    3    0    0  0.65604875314E+02 -0.49738599887E+02 -0.78890507009E+01  0.82705290669E+02  0.00000000000E+00 0. -1.
         22    1    3    3    0    0  0.25998361429E+03 -0.61236682982E+01 -0.19087990952E+03  0.32258970671E+03  0.00000000000E+00 0. -1.
</event>
<event>
 7    1  0.6485470E-006  0.1223225E+03  0.7818608E-02  0.1351352E+00
          2   -1    0    0  502    0  0.00000000000E+00  0.00000000000E+00  0.15524823929E+04  0.15524823929E+04  0.00000000000E+00 0. -1.
          1   -1    0    0  501    0 -0.00000000000E+00 -0.00000000000E+00 -0.34079075502E+03  0.34079075502E+03  0.00000000000E+00 0. -1.
         25    2    1    2    0    0 -0.15524137452E+03 -0.32242771426E+02  0.37557506080E+03  0.42640437288E+03  0.12499832894E+03 0.  0.
          2    1    1    2  501    0  0.37681589895E+02  0.20986426170E+02 -0.31085514189E+03  0.31383315877E+03  0.00000000000E+00 0. -1.
          1    1    1    2  502    0  0.11755978462E+03  0.11256345256E+02  0.11469717189E+04  0.11530356162E+04  0.00000000000E+00 0. -1.
         22    1    3    3    0    0 -0.56292313173E+02 -0.28318719173E+02  0.35758718499E+02  0.72453159535E+02  0.00000000000E+00 0. -1.
         22    1    3    3    0    0 -0.98949061344E+02 -0.39240522535E+01  0.33981634231E+03  0.35395121334E+03  0.00000000000E+00 0. -1.
</event>
<event>
 7    1  0.6485470E-006  0.4657487E+02  0.7818608E-02  0.1537129E+00
          2   -1    0    0  502    0  0.00000000000E+00  0.00000000000E+00  0.30504093408E+04  0.30504093408E+04  0.00000000000E+00 0. -1.
          1   -1    0    0  501    0 -0.00000000000E+00 -0.00000000000E+00 -0.25710098598E+03  0.25710098598E+03  0.00000000000E+00 0. -1.
         25    2    1    2    0    0 -0.47749516446E+02 -0.55376127867E+02  0.62577117034E+03  0.64231009322E+03  0.12500466541E+03 0.  0.
          2    1    1    2  501    0  0.13364567890E+02  0.24982707124E+02 -0.24780633001E+03  0.24942077805E+03  0.00000000000E+00 0. -1.
          1    1    1    2  502    0  0.34384948556E+02  0.30393420742E+02  0.24153435145E+04  0.24157794555E+04  0.00000000000E+00 0. -1.
         22    1    3    3    0    0 -0.82573489475E+01 -0.45496646093E+02  0.63418630800E+02  0.78485994610E+02  0.00000000000E+00 0. -1.
         22    1    3    3    0    0 -0.39492167499E+02 -0.98794817735E+01  0.56235253954E+03  0.56382409861E+03  0.00000000000E+00 0. -1.
</event>
<event>
 7    1  0.6485470E-006  0.6182798E+02  0.7818608E-02  0.1487963E+00
          2   -1    0    0  502    0  0.00000000000E+00  0.00000000000E+00  0.25457816662E+04  0.25457816662E+04  0.00000000000E+00 0. -1.
          1   -1    0    0  501    0 -0.00000000000E+00 -0.00000000000E+00 -0.10710888240E+03  0.10710888240E+03  0.00000000000E+00 0. -1.
         25    2    1    2    0    0  0.21329569498E+02 -0.72493028843E+02  0.93435731734E+03  0.94570555625E+03  0.12500085154E+03 0.  0.
          2    1    1    2  501    0  0.62875085334E+01  0.61425125845E+02 -0.91886645528E+02  0.11070562079E+03  0.00000000000E+00 0. -1.
          1    1    1    2  502    0 -0.27617078031E+02  0.11067902998E+02  0.15962021120E+04  0.15964793716E+04  0.00000000000E+00 0. -1.
         22    1    3    3    0    0  0.23515205737E+01 -0.84240394251E+02  0.31900926994E+03  0.32995285721E+03  0.00000000000E+00 0. -1.
         22    1    3    3    0    0  0.18978048924E+02  0.11747365408E+02  0.61534804741E+03  0.61575269904E+03  0.00000000000E+00 0. -1.
</event>
<event>
 7    1  0.6485470E-006  0.4988651E+02  0.7818608E-02  0.1517238E+00
          2   -1    0    0  502    0  0.00000000000E+00  0.00000000000E+00  0.13926826220E+03  0.13926826220E+03  0.00000000000E+00 0. -1.
          1   -1    0    0  501    0 -0.00000000000E+00 -0.00000000000E+00 -0.22994062021E+03  0.22994062021E+03  0.00000000000E+00 0. -1.
         25    2    1    2    0    0 -0.17720244401E+02  0.12979572970E+02 -0.53420206374E+02  0.13769442000E+03  0.12499423377E+03 0.  0.
          2    1    1    2  501    0 -0.26980580729E+02  0.13514886191E+02 -0.12551502590E+03  0.12909153966E+03  0.00000000000E+00 0. -1.
          1    1    1    2  502    0  0.44700825130E+02 -0.26494459161E+02  0.88262874252E+02  0.10242292275E+03  0.00000000000E+00 0. -1.
         22    1    3    3    0    0  0.49273366449E+02  0.30023442986E+02 -0.26771296355E+02  0.63607971816E+02  0.00000000000E+00 0.  1.
         22    1    3    3    0    0 -0.66993610850E+02 -0.17043870016E+02 -0.26648910019E+02  0.74086448188E+02  0.00000000000E+00 0.  1.
</event>
<event>
 7    1  0.6485470E-006  0.8374292E+02  0.7818608E-02  0.1461446E+00
          2   -1    0    0  502    0  0.00000000000E+00  0.00000000000E+00  0.22397454511E+03  0.22397454511E+03  0.00000000000E+00 0. -1.
          1   -1    0    0  501    0 -0.00000000000E+00 -0.00000000000E+00 -0.54303358333E+03  0.54303358333E+03  0.00000000000E+00 0. -1.
         25    2    1    2    0    0 -0.97573309738E+02  0.40411453823E+02  0.41431982228E+02  0.16880429922E+03  0.12499858364E+03 0.  0.
          2    1    1    2  501    0  0.23583324693E+02 -0.12148333902E+02 -0.46573275458E+03  0.46648767820E+03  0.00000000000E+00 0. -1.
          1    1    1    2  502    0  0.73989985045E+02 -0.28263119920E+02  0.10524173414E+03  0.13171615102E+03  0.00000000000E+00 0. -1.
         22    1    3    3    0    0 -0.11715573098E+02 -0.12826408709E+02 -0.37021856058E+02  0.40894855904E+02  0.00000000000E+00 0. -1.
         22    1    3    3    0    0 -0.85857736640E+02  0.53237862532E+02  0.78453838287E+02  0.12790944332E+03  0.00000000000E+00 0. -1.
</event>
<event>
 7    1  0.6485470E-006  0.6972745E+02  0.7818608E-02  0.1444649E+00
          2   -1    0    0  502    0  0.00000000000E+00  0.00000000000E+00  0.11664957555E+04  0.11664957555E+04  0.00000000000E+00 0. -1.
          1   -1    0    0  501    0 -0.00000000000E+00 -0.00000000000E+00 -0.63762802860E+03  0.63762802860E+03  0.00000000000E+00 0. -1.
         25    2    1    2    0    0 -0.56624910759E+01  0.35936301431E+02 -0.14193976627E+03  0.19260216855E+03  0.12500086606E+03 0.  0.
          2    1    1    2  501    0  0.12947242003E+02  0.33632465134E+02 -0.46859261530E+03  0.46997639611E+03  0.00000000000E+00 0. -1.
          1    1    1    2  502    0 -0.72847509267E+01 -0.69568766565E+02  0.11394001085E+04  0.11415452195E+04  0.00000000000E+00 0. -1.
         22    1    3    3    0    0  0.48511566575E+01  0.82024880239E+02 -0.79963181107E+02  0.11465480815E+03  0.00000000000E+00 0. -1.
         22    1    3    3    0    0 -0.10513647733E+02 -0.46088578808E+02 -0.61976585159E+02  0.77947360399E+02  0.00000000000E+00 0. -1.
</event>
<event>
 7    1  0.6485470E-006  0.1113638E+03  0.7818608E-02  0.1414743E+00
          2   -1    0    0  502    0  0.00000000000E+00  0.00000000000E+00  0.55010634105E+03  0.55010634105E+03  0.00000000000E+00 0. -1.
          1   -1    0    0  501    0 -0.00000000000E+00 -0.00000000000E+00 -0.14845349154E+03  0.14845349154E+03  0.00000000000E+00 0. -1.
         25    2    1    2    0    0  0.12917024921E+03  0.46692554518E+02  0.13900310834E+02  0.18623556777E+03  0.12500128053E+03 0.  0.
          2    1    1    2  501    0 -0.27658473893E+02 -0.60381880416E+01 -0.51985483949E+02  0.59194099658E+02  0.00000000000E+00 0. -1.
          1    1    1    2  502    0 -0.10151177531E+03 -0.40654366477E+02  0.43973802262E+03  0.45313016516E+03  0.00000000000E+00 0. -1.
         22    1    3    3    0    0  0.40063017266E+02  0.80722817730E+02  0.22858556467E+01  0.90146790241E+02  0.00000000000E+00 0.  1.
         22    1    3    3    0    0  0.89107231940E+02 -0.34030263212E+02  0.11614455187E+02  0.96088777532E+02  0.00000000000E+00 0.  1.
</event>
<event>
 7    1  0.6485470E-006  0.1079528E+03  0.7818608E-02  0.1304029E+00
          2   -1    0    0  502    0  0.00000000000E+00  0.00000000000E+00  0.78492616923E+03  0.78492616923E+03  0.00000000000E+00 0. -1.
          1   -1    0    0  501    0 -0.00000000000E+00 -0.00000000000E+00 -0.14487912715E+04  0.14487912715E+04  0.00000000000E+00 0. -1.
         25    2    1    2    0    0  0.16930599422E+02  0.15129273870E+03  0.37668335724E+02  0.20054781183E+03  0.12499753330E+03 0.  0.
          2    1    1    2  501    0  0.37409119052E+02 -0.10072709460E+03 -0.13631620645E+04  0.13673902895E+04  0.00000000000E+00 0. -1.
          1    1    1    2  502    0 -0.54339718474E+02 -0.50565644107E+02  0.66162862650E+03  0.66577933940E+03  0.00000000000E+00 0. -1.
         22    1    3    3    0    0  0.52369818893E+02  0.14711741067E+03  0.12059922163E+02  0.15662557957E+03  0.00000000000E+00 0. -1.
         22    1    3    3    0    0 -0.35439219471E+02  0.41753280286E+01  0.25608413561E+02  0.43922232252E+02  0.00000000000E+00 0. -1.
</event>
<event>
 7    1  0.6485470E-006  0.7026929E+02  0.7818608E-02  0.1401348E+00
          2   -1    0    0  502    0  0.00000000000E+00  0.00000000000E+00  0.52764420949E+02  0.52764420949E+02  0.00000000000E+00 0. -1.
          1   -1    0    0  501    0 -0.00000000000E+00 -0.00000000000E+00 -0.53716806614E+03  0.53716806614E+03  0.00000000000E+00 0. -1.
         25    2    1    2    0    0 -0.36797936847E+02  0.71865675291E+02 -0.93223514769E+02  0.17559752509E+03  0.12500041468E+03 0.  0.
          2    1    1    2  501    0  0.63995363300E+02 -0.30119535130E+02 -0.31822009353E+03  0.32598561448E+03  0.00000000000E+00 0. -1.
          1    1    1    2  502    0 -0.27197426453E+02 -0.41746140160E+02 -0.72960036887E+02  0.88349347516E+02  0.00000000000E+00 0. -1.
         22    1    3    3    0    0  0.25182629322E+02  0.79626944355E+02 -0.69948169929E+02  0.10893742040E+03  0.00000000000E+00 0. -1.
         22    1    3    3    0    0 -0.61980566168E+02 -0.77612690644E+01 -0.23275344841E+02  0.66660104692E+02  0.00000000000E+00 0. -1.
</event>
<event>
 7    1  0.6485470E-006  0.7110548E+02  0.7818608E-02  0.1416016E+00
          2   -1    0    0  502    0  0.00000000000E+00  0.00000000000E+00  0.17164351395E+04  0.17164351395E+04  0.00000000000E+00 0. -1.
          1   -1    0    0  501    0 -0.00000000000E+00 -0.00000000000E+00 -0.12071847300E+03  0.12071847300E+03  0.00000000000E+00 0. -1.
         25    2    1    2    0    0  0.31460649680E+02 -0.85589233328E+02  0.71426854888E+03  0.73083472359E+03  0.12499817580E+03 0.  0.
          2    1    1    2  501    0 -0.40587267200E+02  0.16738797851E+02 -0.10688394526E+03  0.11554951911E+03  0.00000000000E+00 0. -1.
          1    1    1    2  502    0  0.91266175200E+01  0.68850435477E+02  0.98833206288E+03  0.99076936979E+03  0.00000000000E+00 0. -1.
         22    1    3    3    0    0 -0.33691683900E+02 -0.80446520662E+02  0.34675180011E+03  0.35755221035E+03  0.00000000000E+00 0. -1.
         22    1    3    3    0    0  0.65152333580E+02 -0.51427126657E+01  0.36751674877E+03  0.37328251324E+03  0.00000000000E+00 0. -1.
</event>
<event>
 7    1  0.6485470E-006  0.9296786E+02  0.7818608E-02  0.1352209E+00
          2   -1    0    0  502    0  0.00000000000E+00  0.00000000000E+00  0.21570759728E+04  0.21570759728E+04  0.00000000000E+00 0. -1.
          1   -1    0    0  501    0 -0.00000000000E+00 -0.00000000000E+00 -0.43632031127E+03  0.43632031127E+03  0.00000000000E+00 0. -1.
         25    2    1    2    0    0 -0.55821222510E+02 -0.29948805471E+02  0.26659620513E+03  0.30118453750E+03  0.12500259681E+03 0.  0.
          2    1    1    2  501    0  0.40986459471E+02  0.84298977007E+02 -0.41335398390E+03  0.42384870342E+03  0.00000000000E+00 0. -1.
          1    1    1    2  502    0  0.14834763039E+02 -0.54350171535E+02  0.18675134403E+04  0.18683630431E+04  0.00000000000E+00 0. -1.
         22    1    3    3    0    0 -0.17949742635E+02  0.19076627800E+02 -0.12930732042E+01  0.26225617766E+02  0.00000000000E+00 0. -1.
         22    1    3    3    0    0 -0.37871479876E+02 -0.49025433272E+02  0.26788927834E+03  0.27495891974E+03  0.00000000000E+00 0. -1.
</event>
<event>
 7    1  0.6485470E-006  0.9418521E+02  0.7818608E-02  0.1381016E+00
          2   -1    0    0  502    0  0.00000000000E+00  0.00000000000E+00  0.60224469722E+03  0.60224469722E+03  0.00000000000E+00 0. -1.
          1   -1    0    0  501    0 -0.00000000000E+00 -0.00000000000E+00 -0.27718444041E+03  0.27718444041E+03  0.00000000000E+00 0. -1.
         25    2    1    2    0    0 -0.59362054070E+02  0.45892812055E+02 -0.11764522764E+03  0.18733843752E+03  0.12500114770E+03 0.  0.
          2    1    1    2  501    0  0.62144382779E+02 -0.89561653275E+02 -0.99817194898E+02  0.14780624630E+03  0.00000000000E+00 0. -1.
          1    1    1    2  502    0 -0.27823287092E+01  0.43668841220E+02  0.54252267935E+03  0.54428445381E+03  0.00000000000E+00 0. -1.
         22    1    3    3    0    0 -0.27725127228E+02  0.24000147367E+01  0.23417646897E+02  0.36370715373E+02  0.00000000000E+00 0. -1.
         22    1    3    3    0    0 -0.31636926842E+02  0.43492797318E+02 -0.14106287454E+03  0.15096772215E+03  0.00000000000E+00 0. -1.
</event>
<event>
 7    1  0.6485470E-006  0.8832646E+02  0.7818608E-02  0.1342312E+00
          2   -1    0    0  502    0  0.00000000000E+00  0.00000000000E+00  0.15771328629E+03  0.15771328629E+03  0.00000000000E+00 0. -1.
          1   -1    0    0  501    0 -0.00000000000E+00 -0.00000000000E+00 -0.52536307132E+03  0.52536307132E+03  0.00000000000E+00 0. -1.
         25    2    1    2    0    0  0.10585458501E+03  0.68077591341E+02 -0.21213429967E+03  0.27652483882E+03  0.12500109509E+03 0.  0.
          2    1    1    2  501    0 -0.19262303882E+02 -0.61604936565E+02 -0.26160851839E+03  0.26945356085E+03  0.00000000000E+00 0. -1.
          1    1    1    2  502    0 -0.86592281132E+02 -0.64726547761E+01  0.10609303304E+03  0.13709795794E+03  0.00000000000E+00 0. -1.
         22    1    3    3    0    0  0.12226187262E+03  0.82366663863E+02 -0.20707101653E+03  0.25418622838E+03  0.00000000000E+00 0. -1.
         22    1    3    3    0    0 -0.16407287604E+02 -0.14289072522E+02 -0.50632831424E+01  0.22338610436E+02  0.00000000000E+00 0. -1.
</event>
<event>
 7    1  0.6485470E-006  0.4405467E+02  0.7818608E-02  0.1496947E+00
          2   -1    0    0  502    0  0.00000000000E+00  0.00000000000E+00  0.44886162117E+03  0.44886162117E+03  0.00000000000E+00 0. -1.
          1   -1    0    0  501    0 -0.00000000000E+00 -0.00000000000E+00 -0.55484737610E+03  0.55484737610E+03  0.00000000000E+00 0. -1.
         25    2    1    2    0    0 -0.18313508321E+02  0.13613485098E+02 -0.10773073685E+03  0.16658728013E+03  0.12499879470E+03 0.  0.
          2    1    1    2  501    0  0.41768199767E+02  0.17833483614E+02 -0.41553105656E+03  0.41800559160E+03  0.00000000000E+00 0. -1.
          1    1    1    2  502    0 -0.23454691446E+02 -0.31446968712E+02  0.41727603848E+03  0.41911612553E+03  0.00000000000E+00 0. -1.
         22    1    3    3    0    0 -0.56954807500E+02  0.30857429808E+02 -0.17767132734E+02  0.67169204829E+02  0.00000000000E+00 0.  1.
         22    1    3    3    0    0  0.38641299179E+02 -0.17243944710E+02 -0.89963604116E+02  0.99418075303E+02  0.00000000000E+00 0.  1.
</event>
<event>
 7    1  0.6485470E-006  0.5081063E+02  0.7818608E-02  0.1441714E+00
          2   -1    0    0  502    0  0.00000000000E+00  0.00000000000E+00  0.20368007083E+03  0.20368007083E+03  0.00000000000E+00 0. -1.
          1   -1    0    0  501    0 -0.00000000000E+00 -0.00000000000E+00 -0.10269330791E+03  0.10269330791E+03  0.00000000000E+00 0. -1.
         25    2    1    2    0    0  0.61705172699E+02 -0.11905975969E+02  0.93842566673E+02  0.16846156988E+03  0.12499437029E+03 0.  0.
          2    1    1    2  501    0 -0.37410673731E+02 -0.34382582530E+02 -0.42181428406E+02  0.66037817899E+02  0.00000000000E+00 0. -1.
          1    1    1    2  502    0 -0.24294498968E+02  0.46288558499E+02  0.49325624653E+02  0.71873990953E+02  0.00000000000E+00 0. -1.
         22    1    3    3    0    0  0.74547321144E+02 -0.23994106788E+02  0.11611243874E+03  0.14005398488E+03  0.00000000000E+00 0. -1.
         22    1    3    3    0    0 -0.12842148445E+02  0.12088130819E+02 -0.22269872071E+02  0.28407584998E+02  0.00000000000E+00 0. -1.
</event>
<event>
 7    1  0.6485470E-006  0.7966425E+02  0.7818608E-02  0.1402196E+00
          2   -1    0    0  502    0  0.00000000000E+00  0.00000000000E+00  0.48051596628E+03  0.48051596628E+03  0.00000000000E+00 0. -1.
          1   -1    0    0  501    0 -0.00000000000E+00 -0.00000000000E+00 -0.16295143619E+04  0.16295143619E+04  0.00000000000E+00 0. -1.
         25    2    1    2    0    0 -0.39034034374E+02  0.11070245120E+03 -0.15488567096E+03  0.23106873480E+03  0.12499800236E+03 0.  0.
          2    1    1    2  501    0  0.41070174344E+02 -0.67095278801E+02 -0.14343798626E+04  0.14365354593E+04  0.00000000000E+00 0. -1.
          1    1    1    2  502    0 -0.20361399698E+01 -0.43607172396E+02  0.44026713794E+03  0.44242613406E+03  0.00000000000E+00 0. -1.
         22    1    3    3    0    0 -0.51136877647E+02  0.68782666141E+02 -0.18243049410E+02  0.87629014993E+02  0.00000000000E+00 0. -1.
         22    1    3    3    0    0  0.12102843273E+02  0.41919785057E+02 -0.13664262155E+03  0.14343971981E+03  0.00000000000E+00 0. -1.
</event>
<event>
 7    1  0.6485470E-006  0.9362933E+02  0.7818608E-02  0.1460237E+00
          2   -1    0    0  502    0  0.00000000000E+00  0.00000000000E+00  0.14213367519E+04  0.14213367519E+04  0.00000000000E+00 0. -1.
          1   -1    0    0  501    0 -0.00000000000E+00 -0.00000000000E+00 -0.15274666498E+04  0.15274666498E+04  0.00000000000E+00 0. -1.
         25    2    1    2    0    0 -0.10235985849E+03 -0.57203648976E+02  0.51085385867E+02  0.17884215955E+03  0.12500001318E+03 0.  0.
          2    1    1    2  501    0  0.81507605655E+02  0.45450969251E+02 -0.14619907238E+04  0.14649662647E+04  0.00000000000E+00 0. -1.
          1    1    1    2  502    0  0.20852252839E+02  0.11752679725E+02  0.13047754401E+04  0.13049949774E+04  0.00000000000E+00 0. -1.
         22    1    3    3    0    0 -0.58367294261E+01  0.36405620561E+02  0.12957777073E+02  0.39081205272E+02  0.00000000000E+00 0.  1.
         22    1    3    3    0    0 -0.96523129067E+02 -0.93609269537E+02  0.38127608794E+02  0.13976095428E+03  0.00000000000E+00 0.  1.
</event>
<event>
 7    1  0.6485470E-006  0.8162769E+02  0.7818608E-02  0.1379478E+00
          2   -1    0    0  502    0  0.00000000000E+00  0.00000000000E+00  0.10531683641E+04  0.10531683641E+04  0.00000000000E+00 0. -1.
          1   -1    0    0  501    0 -0.00000000000E+00 -0.00000000000E+00 -0.22322990475E+03  0.22322990475E+03  0.00000000000E+00 0. -1.
         25    2    1    2    0    0 -0.16475836348E+02 -0.32111359640E+02  0.18073701155E+03  0.22269729518E+03  0.12500250132E+03 0.  0.
          2    1    1    2  501    0 -0.34583025720E+02 -0.37655027643E+02 -0.19678012230E+03  0.20331331316E+03  0.00000000000E+00 0. -1.
          1    1    1    2  502    0  0.51058862069E+02  0.69766387283E+02  0.84598157015E+03  0.85038766055E+03  0.00000000000E+00 0. -1.
         22    1    3    3    0    0  0.50767618583E+02  0.17759904418E+00  0.45125836271E+02  0.67924397216E+02  0.00000000000E+00 0. -1.
         22    1    3    3    0    0 -0.67243454931E+02 -0.32288958685E+02  0.13561117528E+03  0.15477289797E+03  0.00000000000E+00 0. -1.
</event>
<event>
 7    1  0.6485470E-006  0.1708251E+03  0.7818608E-02  0.1223071E+00
          2   -1    0    0  502    0  0.00000000000E+00  0.00000000000E+00  0.10696365322E+04  0.10696365322E+04  0.00000000000E+00 0. -1.
          1   -1    0    0  501    0 -0.00000000000E+00 -0.00000000000E+00 -0.19759304899E+03  0.19759304899E+03  0.00000000000E+00 0. -1.
         25    2    1    2    0    0 -0.12129231721E+03 -0.31648693212E+02  0.21428718454E+03  0.27794982981E+03  0.12499457764E+03 0.  0.
          2    1    1    2  501    0 -0.64136102061E+02  0.81296588939E+02 -0.13696530253E+03  0.17170343344E+03  0.00000000000E+00 0. -1.
          1    1    1    2  502    0  0.18542841928E+03 -0.49647895727E+02  0.79472160119E+03  0.81757631792E+03  0.00000000000E+00 0. -1.
         22    1    3    3    0    0  0.37344902598E+01 -0.24354349509E+02 -0.52591290650E+01  0.25194030961E+02  0.00000000000E+00 0. -1.
         22    1    3    3    0    0 -0.12502680747E+03 -0.72943437028E+01  0.21954631360E+03  0.25275579885E+03  0.00000000000E+00 0. -1.
</event>
<event>
 7    1  0.6485470E-006  0.1557149E+03  0.7818608E-02  0.1296386E+00
          2   -1    0    0  502    0  0.00000000000E+00  0.00000000000E+00  0.18608862439E+03  0.18608862439E+03  0.00000000000E+00 0. -1.
          1   -1    0    0  501    0 -0.00000000000E+00 -0.00000000000E+00 -0.21590408062E+04  0.21590408062E+04  0.00000000000E+00 0. -1.
         25    2    1    2    0    0  0.16294863408E+03  0.94646071323E+02 -0.15184363914E+03  0.27237734155E+03  0.12499115678E+03 0.  0.
          2    1    1    2  501    0 -0.54544681234E+02  0.85743589287E+01 -0.19018683690E+04  0.19026696862E+04  0.00000000000E+00 0. -1.
          1    1    1    2  502    0 -0.10840395285E+03 -0.10322043025E+03  0.80759826295E+02  0.17008240285E+03  0.00000000000E+00 0. -1.
         22    1    3    3    0    0  0.99103849992E+02  0.98892074139E+01 -0.13045999050E+03  0.16413158937E+03  0.00000000000E+00 0.  1.
         22    1    3    3    0    0  0.63844784092E+02  0.84756863909E+02 -0.21383648636E+02  0.10824575218E+03  0.00000000000E+00 0.  1.
</event>
<event>
 7    1  0.6485470E-006  0.1820729E+03  0.7818608E-02  0.1255734E+00
          2   -1    0    0  502    0  0.00000000000E+00  0.00000000000E+00  0.69338394370E+03  0.69338394370E+03  0.00000000000E+00 0. -1.
          1   -1    0    0  501    0 -0.00000000000E+00 -0.00000000000E+00 -0.63829745544E+03  0.63829745544E+03  0.00000000000E+00 0. -1.
         25    2    1    2    0    0 -0.30222052068E+02  0.24165144068E+03 -0.85425209400E+02  0.28675918487E+03  0.12499828996E+03 0.  0.
          2    1    1    2  501    0  0.27796378145E+02 -0.63919183614E+02 -0.43604870192E+03  0.44158438731E+03  0.00000000000E+00 0. -1.
          1    1    1    2  502    0  0.24256739226E+01 -0.17773225706E+03  0.57656039958E+03  0.60333782697E+03  0.00000000000E+00 0. -1.
         22    1    3    3    0    0 -0.60191470806E+02  0.16382503080E+03 -0.10139299877E+03  0.20184695706E+03  0.00000000000E+00 0.  1.
         22    1    3    3    0    0  0.29969418738E+02  0.77826409877E+02  0.15967789370E+02  0.84912227807E+02  0.00000000000E+00 0.  1.
</event>
<event>
 7    1  0.6485470E-006  0.8846102E+02  0.7818608E-02  0.1329315E+00
          2   -1    0    0  502    0  0.00000000000E+00  0.00000000000E+00  0.15731635181E+04  0.15731635181E+04  0.00000000000E+00 0. -1.
          1   -1    0    0  501    0 -0.00000000000E+00 -0.00000000000E+00 -0.56871349562E+03  0.56871349562E+03  0.00000000000E+00 0. -1.
         25    2    1    2    0    0 -0.36704975467E+02  0.79829381388E+02 -0.27668565978E+02  0.15527890752E+03  0.12500401682E+03 0.  0.
          2    1    1    2  501    0  0.72160902946E+02  0.16773792755E+01 -0.47319204125E+03  0.47866555905E+03  0.00000000000E+00 0. -1.
          1    1    1    2  502    0 -0.35455927480E+02 -0.81506760664E+02  0.15053106297E+04  0.15079325471E+04  0.00000000000E+00 0. -1.
         22    1    3    3    0    0  0.20882676038E+02  0.91539288539E+02 -0.13815478922E+02  0.94902028233E+02  0.00000000000E+00 0. -1.
         22    1    3    3    0    0 -0.57587651505E+02 -0.11709907151E+02 -0.13853087056E+02  0.60376879286E+02  0.00000000000E+00 0. -1.
</event>
<event>
 7    1  0.6485470E-006  0.1262736E+03  0.7818608E-02  0.1244517E+00
          2   -1    0    0  502    0  0.00000000000E+00  0.00000000000E+00  0.16790568419E+03  0.16790568419E+03  0.00000000000E+00 0. -1.
          1   -1    0    0  501    0 -0.00000000000E+00 -0.00000000000E+00 -0.19131449603E+04  0.19131449603E+04  0.00000000000E+00 0. -1.
         25    2    1    2    0    0  0.20382445091E+03  0.11125788360E+03 -0.13356312395E+04  0.13614172941E+04  0.12499406945E+03 0.  0.
          2    1    1    2  501    0 -0.85579350398E+02 -0.72894050993E+02 -0.53285287126E+03  0.54458199594E+03  0.00000000000E+00 0. -1.
          1    1    1    2  502    0 -0.11824510051E+03 -0.38363832607E+02  0.12324483460E+03  0.17505135447E+03  0.00000000000E+00 0. -1.
         22    1    3    3    0    0  0.60694638015E+02  0.65541689367E+02 -0.25086628843E+03  0.26629578817E+03  0.00000000000E+00 0.  1.
         22    1    3    3    0    0  0.14312981289E+03  0.45716194233E+02 -0.10847649510E+04  0.10951215059E+04  0.00000000000E+00 0.  1.
</event>
<event>
 7    1  0.6485470E-006  0.8254936E+02  0.7818608E-02  0.1415888E+00
          2   -1    0    0  502    0  0.00000000000E+00  0.00000000000E+00  0.10261366422E+03  0.10261366422E+03  0.00000000000E+00 0. -1.
          1   -1    0    0  501    0 -0.00000000000E+00 -0.00000000000E+00 -0.17016653799E+04  0.17016653799E+04  0.00000000000E+00 0. -1.
         25    2    1    2    0    0 -0.11481331848E+03  0.10825088993E+02 -0.30362191414E+03  0.34801147019E+03  0.12500574380E+03 0.  0.
          2    1    1    2  501    0  0.80675405038E+02  0.55322447332E+01 -0.13701348687E+04  0.13725191019E+04  0.00000000000E+00 0. -1.
          1    1    1    2  502    0  0.34137913438E+02 -0.16357333726E+02  0.74705067172E+02  0.83748471996E+02  0.00000000000E+00 0. -1.
         22    1    3    3    0    0 -0.13009452575E+03 -0.23406601483E+02 -0.22617268487E+03  0.26196667346E+03  0.00000000000E+00 0.  1.
         22    1    3    3    0    0  0.15281207275E+02  0.34231690476E+02 -0.77449229277E+02  0.86044796729E+02  0.00000000000E+00 0.  1.
</event>
<event>
 7    1  0.6485470E-006  0.8826008E+02  0.7818608E-02  0.1445487E+00
          2   -1    0    0  502    0  0.00000000000E+00  0.00000000000E+00  0.26451829536E+03  0.26451829536E+03  0.00000000000E+00 0. -1.
          1   -1    0    0  501    0 -0.00000000000E+00 -0.00000000000E+00 -0.34545938242E+03  0.34545938242E+03  0.00000000000E+00 0. -1.
         25    2    1    2    0    0 -0.80813891235E+02 -0.68729612242E+02 -0.10058830886E+03  0.19234402626E+03  0.12499428764E+03 0.  0.
          2    1    1    2  501    0  0.28275854024E+02 -0.10376883487E+01 -0.18917712376E+03  0.19128142846E+03  0.00000000000E+00 0. -1.
          1    1    1    2  502    0  0.52538037212E+02  0.69767300591E+02  0.20882434557E+03  0.22635222306E+03  0.00000000000E+00 0. -1.
         22    1    3    3    0    0  0.22926448094E+02 -0.35647865588E+02 -0.65360582305E+02  0.77899923379E+02  0.00000000000E+00 0. -1.
         22    1    3    3    0    0 -0.10374033933E+03 -0.33081746654E+02 -0.35227726554E+02  0.11444410288E+03  0.00000000000E+00 0. -1.
</event>
<event>
 7    1  0.6485470E-006  0.1346122E+03  0.7818608E-02  0.1322713E+00
          2   -1    0    0  502    0  0.00000000000E+00  0.00000000000E+00  0.23618226267E+03  0.23618226267E+03  0.00000000000E+00 0. -1.
          1   -1    0    0  501    0 -0.00000000000E+00 -0.00000000000E+00 -0.24245721069E+04  0.24245721069E+04  0.00000000000E+00 0. -1.
         25    2    1    2    0    0 -0.11816033675E+03 -0.69337801361E+02 -0.44749646089E+02  0.19077948913E+03  0.12499874707E+03 0.  0.
          2    1    1    2  501    0 -0.15951721435E+02  0.47691109549E+02 -0.22782062883E+04  0.22787612406E+04  0.00000000000E+00 0. -1.
          1    1    1    2  502    0  0.13411205819E+03  0.21646691812E+02  0.13456609023E+03  0.19121363983E+03  0.00000000000E+00 0. -1.
         22    1    3    3    0    0 -0.32401435997E+02  0.33386862323E+02 -0.31764747129E+02  0.56334135217E+02  0.00000000000E+00 0.  1.
         22    1    3    3    0    0 -0.85758900757E+02 -0.10272466368E+03 -0.12984898959E+02  0.13444535391E+03  0.00000000000E+00 0.  1.
</event>
<event>
 7    1  0.6485470E-006  0.5969715E+02  0.7818608E-02  0.1490375E+00
          2   -1    0    0  502    0  0.00000000000E+00  0.00000000000E+00  0.16492426612E+04  0.16492426612E+04  0.00000000000E+00 0. -1.
          1   -1    0    0  501    0 -0.00000000000E+00 -0.00000000000E+00 -0.92575249398E+02  0.92575249398E+02  0.00000000000E+00 0. -1.
         25    2    1    2    0    0  0.84654246688E+02 -0.71601687667E+01  0.40697282433E+03  0.43413091203E+03  0.12500063815E+03 0.  0.
          2    1    1    2  501    0 -0.26624056281E+02  0.14466044392E+02 -0.75367067815E+02  0.81229931209E+02  0.00000000000E+00 0. -1.
          1    1    1    2  502    0 -0.58030190407E+02 -0.73058756253E+01  0.12250616553E+04  0.12264570674E+04  0.00000000000E+00 0. -1.
         22    1    3    3    0    0  0.10951896340E+03 -0.34337031496E+01  0.38642636094E+03  0.40166095914E+03  0.00000000000E+00 0.  1.
         22    1    3    3    0    0 -0.24864716714E+02 -0.37264656171E+01  0.20546463383E+02  0.32469952891E+02  0.00000000000E+00 0.  1.
</event>
<event>
 7    1  0.6485470E-006  0.1269445E+03  0.7818608E-02  0.1288888E+00
          2   -1    0    0  502    0  0.00000000000E+00  0.00000000000E+00  0.91962739386E+03  0.91962739386E+03  0.00000000000E+00 0. -1.
          1   -1    0    0  501    0 -0.00000000000E+00 -0.00000000000E+00 -0.13538030018E+03  0.13538030018E+03  0.00000000000E+00 0. -1.
         25    2    1    2    0    0 -0.14683562893E+03 -0.32902463967E+02  0.13118734497E+03  0.23553442508E+03  0.12499228719E+03 0.  0.
          2    1    1    2  501    0  0.93515610692E+02  0.82223957417E+02 -0.33605018876E+02  0.12897769540E+03  0.00000000000E+00 0. -1.
          1    1    1    2  502    0  0.53320018236E+02 -0.49321493450E+02  0.68666476759E+03  0.69049557356E+03  0.00000000000E+00 0. -1.
         22    1    3    3    0    0 -0.93468989597E+02 -0.78197317157E+02  0.60510883791E+02  0.13606189578E+03  0.00000000000E+00 0. -1.
         22    1    3    3    0    0 -0.53366639331E+02  0.45294853190E+02  0.70676461181E+02  0.99472529293E+02  0.00000000000E+00 0. -1.
</event>
<event>
 7    1  0.6485470E-006  0.1589110E+03  0.7818608E-02  0.1253965E+00
          2   -1    0    0  502    0  0.00000000000E+00  0.00000000000E+00  0.14423532636E+04  0.14423532636E+04  0.00000000000E+00 0. -1.
          1   -1    0    0  501    0 -0.00000000000E+00 -0.00000000000E+00 -0.56582482109E+03  0.56582482109E+03  0.00000000000E+00 0. -1.
         25    2    1    2    0    0 -0.17076798780E+03  0.91728989220E+02  0.11756794713E+04  0.11980913613E+04  0.12499911112E+03 0.  0.
          2    1    1    2  501    0  0.79287630350E+02 -0.17854041718E+02 -0.53787222135E+03  0.54397777678E+03  0.00000000000E+00 0. -1.
          1    1    1    2  502    0  0.91480357448E+02 -0.73874947501E+02  0.23872119259E+03  0.26610894660E+03  0.00000000000E+00 0. -1.
         22    1    3    3    0    0 -0.12461163433E+03  0.55671666275E+02  0.10566914093E+04  0.10654689710E+04  0.00000000000E+00 0. -1.
         22    1    3    3    0    0 -0.46156353467E+02  0.36057322944E+02  0.11898806200E+03  0.13262239027E+03  0.00000000000E+00 0. -1.
</event>
<event>
 7    1  0.6485470E-006  0.5152084E+02  0.7818608E-02  0.1466540E+00
          2   -1    0    0  502    0  0.00000000000E+00  0.00000000000E+00  0.96479454244E+02  0.96479454244E+02  0.00000000000E+00 0. -1.
          1   -1    0    0  501    0 -0.00000000000E+00 -0.00000000000E+00 -0.16491571316E+04  0.16491571316E+04  0.00000000000E+00 0. -1.
         25    2    1    2    0    0  0.17268604396E+02 -0.48607720051E+02 -0.85732290448E+03  0.86792276398E+03  0.12500578601E+03 0.  0.
          2    1    1    2  501    0  0.24291173595E+02  0.48179880976E+02 -0.78081813949E+03  0.78268022142E+03  0.00000000000E+00 0. -1.
          1    1    1    2  502    0 -0.41559777991E+02  0.42783907456E+00  0.85463366581E+02  0.95033600480E+02  0.00000000000E+00 0. -1.
         22    1    3    3    0    0  0.49840362525E+02 -0.71790483633E+02 -0.70673412622E+03  0.71211730806E+03  0.00000000000E+00 0. -1.
         22    1    3    3    0    0 -0.32571758129E+02  0.23182763583E+02 -0.15058877826E+03  0.15580545592E+03  0.00000000000E+00 0. -1.
</event>
<event>
 7    1  0.6485470E-006  0.1082543E+03  0.7818608E-02  0.1272598E+00
          2   -1    0    0  502    0  0.00000000000E+00  0.00000000000E+00  0.58999040613E+03  0.58999040613E+03  0.00000000000E+00 0. -1.
          1   -1    0    0  501    0 -0.00000000000E+00 -0.00000000000E+00 -0.19448693532E+03  0.19448693532E+03  0.00000000000E+00 0. -1.
         25    2    1    2    0    0  0.24358002664E+01 -0.78289991844E+02  0.15518410878E+03  0.21410811002E+03  0.12499967685E+03 0.  0.
          2    1    1    2  501    0 -0.99845017889E+02  0.58311403154E+02 -0.13751725425E+03  0.17966703245E+03  0.00000000000E+00 0. -1.
          1    1    1    2  502    0  0.97409217623E+02  0.19978588690E+02  0.37783661628E+03  0.39070219898E+03  0.00000000000E+00 0. -1.
         22    1    3    3    0    0  0.48815508692E+02 -0.62033113083E+02  0.14320982775E+03  0.16352405258E+03  0.00000000000E+00 0. -1.
         22    1    3    3    0    0 -0.46379708425E+02 -0.16256878762E+02  0.11974281025E+02  0.50584057436E+02  0.00000000000E+00 0. -1.
</event>
<event>
 7    1  0.6485470E-006  0.4564501E+02  0.7818608E-02  0.1561056E+00
          2   -1    0    0  502    0  0.00000000000E+00  0.00000000000E+00  0.16038711265E+04  0.16038711265E+04  0.00000000000E+00 0. -1.
          1   -1    0    0  501    0 -0.00000000000E+00 -0.00000000000E+00 -0.58436966033E+03  0.58436966033E+03  0.00000000000E+00 0. -1.
         25    2    1    2    0    0 -0.59822194650E+02  0.35368702800E+02 -0.36381987921E+02  0.14757623163E+03  0.12500181993E+03 0.  0.
          2    1    1    2  501    0  0.18212050882E+02 -0.16813779138E+02 -0.49174317030E+03  0.49236747202E+03  0.00000000000E+00 0. -1.
          1    1    1    2  502    0  0.41610143768E+02 -0.18554923662E+02  0.15476266244E+04  0.15482970832E+04  0.00000000000E+00 0. -1.
         22    1    3    3    0    0 -0.27746966381E+02  0.45376009897E+02  0.38394684396E+02  0.65597471044E+02  0.00000000000E+00 0. -1.
         22    1    3    3    0    0 -0.32075228270E+02 -0.10007307097E+02 -0.74776672316E+02  0.81978760582E+02  0.00000000000E+00 0. -1.
</event>
<event>
 7    1  0.6485470E-006  0.6321753E+02  0.7818608E-02  0.1409401E+00
          2   -1    0    0  502    0  0.00000000000E+00  0.00000000000E+00  0.17979729066E+02  0.17979729066E+02  0.00000000000E+00 0. -1.
          1   -1    0    0  501    0 -0.00000000000E+00 -0.00000000000E+00 -0.13935664274E+04  0.13935664274E+04  0.00000000000E+00 0. -1.
         25    2    1    2    0    0  0.31103004661E+02 -0.22837904974E+02 -0.38490790044E+03  0.40653199498E+03  0.12500081728E+03 0.  0.
          2    1    1    2  501    0  0.27781486661E+02  0.56785961398E+02 -0.80161339543E+03  0.80410228960E+03  0.00000000000E+00 0. -1.
          1    1    1    2  502    0 -0.58884491322E+02 -0.33948056424E+02 -0.18906540247E+03  0.20091187189E+03  0.00000000000E+00 0. -1.
         22    1    3    3    0    0 -0.30606818682E+02 -0.35845192516E+02 -0.28143499363E+03  0.28535471052E+03  0.00000000000E+00 0. -1.
         22    1    3    3    0    0  0.61709823342E+02  0.13007287542E+02 -0.10347290681E+03  0.12117728446E+03  0.00000000000E+00 0. -1.
</event>
<event>
 7    1  0.6485470E-006  0.9185159E+02  0.7818608E-02  0.1299416E+00
          2   -1    0    0  502    0  0.00000000000E+00  0.00000000000E+00  0.79431269887E+03  0.79431269887E+03  0.00000000000E+00 0. -1.
          1   -1    0    0  501    0 -0.00000000000E+00 -0.00000000000E+00 -0.30922427743E+03  0.30922427743E+03  0.00000000000E+00 0. -1.
         25    2    1    2    0    0 -0.43189338938E+01 -0.16099056781E+02 -0.17814474295E+03  0.21826424179E+03  0.12500358787E+03 0.  0.
          2    1    1    2  501    0 -0.86990318462E+02  0.29485580605E+02 -0.88705281605E+02  0.12769237234E+03  0.00000000000E+00 0. -1.
          1    1    1    2  502    0  0.91309252355E+02 -0.13386523825E+02  0.75193844600E+03  0.75758036218E+03  0.00000000000E+00 0. -1.
         22    1    3    3    0    0 -0.23253837961E+02  0.14565570908E+02 -0.18009371985E+03  0.18217201971E+03  0.00000000000E+00 0.  1.
         22    1    3    3    0    0  0.18934904067E+02 -0.30664627688E+02  0.19489768987E+01  0.36092222074E+02  0.00000000000E+00 0.  1.
</event>
<event>
 7    1  0.6485470E-006  0.4315364E+02  0.7818608E-02  0.1576282E+00
          2   -1    0    0  502    0  0.00000000000E+00  0.00000000000E+00  0.19362625884E+03  0.19362625884E+03  0.00000000000E+00 0. -1.
          1   -1    0    0  501    0 -0.00000000000E+00 -0.00000000000E+00 -0.56959283225E+03  0.56959283225E+03  0.00000000000E+00 0. -1.
         25    2    1    2    0    0  0.23002961756E+02  0.24706701413E+02  0.25365352635E+01  0.12951042168E+03  0.12500783163E+03 0.  0.
          2    1    1    2  501    0  0.19585829670E+02 -0.13577740726E+02 -0.50201851062E+03  0.50258386840E+03  0.00000000000E+00 0. -1.
          1    1    1    2  502    0 -0.42588791426E+02 -0.11128960687E+02  0.12351540195E+03  0.13112480101E+03  0.00000000000E+00 0. -1.
         22    1    3    3    0    0  0.31027928238E+01 -0.17361037490E+02 -0.53696288854E+02  0.56518354388E+02  0.00000000000E+00 0. -1.
         22    1    3    3    0    0  0.19900168932E+02  0.42067738903E+02  0.56232824118E+02  0.72992067296E+02  0.00000000000E+00 0. -1.
</event>
<event>
 7    1  0.6485470E-006  0.1196521E+03  0.7818608E-02  0.1292896E+00
          2   -1    0    0  502    0  0.00000000000E+00  0.00000000000E+00  0.41563238549E+03  0.41563238549E+03  0.00000000000E+00 0. -1.
          1   -1    0    0  501    0 -0.00000000000E+00 -0.00000000000E+00 -0.74006788511E+03  0.74006788511E+03  0.00000000000E+00 0. -1.
         25    2    1    2    0    0  0.12589448984E+02 -0.17724318120E+03 -0.52163903409E+02  0.22343891528E+03  0.12502094439E+03 0.  0.
          2    1    1    2  501    0 -0.37411878583E+02  0.64107955470E+02 -0.58970420357E+03  0.59435723797E+03  0.00000000000E+00 0. -1.
          1    1    1    2  502    0  0.24822429599E+02  0.11313522573E+03  0.31743260736E+03  0.33790411736E+03  0.00000000000E+00 0. -1.
         22    1    3    3    0    0 -0.88738831221E+01 -0.76116901017E+02 -0.85501672740E+02  0.11481752681E+03  0.00000000000E+00 0. -1.
         22    1    3    3    0    0  0.21463332106E+02 -0.10112628018E+03  0.33337769331E+02  0.10862138847E+03  0.00000000000E+00 0. -1.
</event>
<event>
 7    1  0.6485470E-006  0.7612759E+02  0.7818608E-02  0.1441988E+00
          2   -1    0    0  502    0  0.00000000000E+00  0.00000000000E+00  0.11450189798E+04  0.11450189798E+04  0.00000000000E+00 0. -1.
          1   -1    0    0  501    0 -0.00000000000E+00 -0.00000000000E+00 -0.28768058162E+02  0.28768058162E+02  0.00000000000E+00 0. -1.
         25    2    1    2    0    0 -0.56503525055E+02  0.18686898931E+02  0.70928864059E+03  0.72267446242E+03  0.12500461760E+03 0.  0.
          2    1    1    2  501    0  0.77924986916E+02  0.72878986566E+01  0.50675520203E+02  0.93238540318E+02  0.00000000000E+00 0. -1.
          1    1    1    2  502    0 -0.21421461861E+02 -0.25974797587E+02  0.35628676087E+03  0.35787403525E+03  0.00000000000E+00 0. -1.
         22    1    3    3    0    0 -0.49494199458E+02  0.49359575676E+01  0.70486624861E+03  0.70661904014E+03  0.00000000000E+00 0.  1.
         22    1    3    3    0    0 -0.70093255975E+01  0.13750941363E+02  0.44223919822E+01  0.16055422279E+02  0.00000000000E+00 0.  1.
</event>
<event>
 7    1  0.6485470E-006  0.8742393E+02  0.7818608E-02  0.1387741E+00
          2   -1    0    0  502    0  0.00000000000E+00  0.00000000000E+00  0.16371524650E+03  0.16371524650E+03  0.00000000000E+00 0. -1.
          1   -1    0    0  501    0 -0.00000000000E+00 -0.00000000000E+00 -0.67220083266E+03  0.67220083266E+03  0.00000000000E+00 0. -1.
         25    2    1    2    0    0 -0.69871240345E+02 -0.48205038582E+02 -0.17029744284E+03  0.22766436464E+03  0.12499651162E+03 0.  0.
          2    1    1    2  501    0  0.38874631516E+02  0.80331192946E+02 -0.46516895174E+03  0.47365228934E+03  0.00000000000E+00 0. -1.
          1    1    1    2  502    0  0.30996608828E+02 -0.32126154363E+02  0.12698080841E+03  0.13459942518E+03  0.00000000000E+00 0. -1.
         22    1    3    3    0    0 -0.38481218441E+02 -0.85868511543E+02 -0.14402679767E+03  0.17204047168E+03  0.00000000000E+00 0.  1.
         22    1    3    3    0    0 -0.31390021904E+02  0.37663472960E+02 -0.26270645167E+02  0.55623892960E+02  0.00000000000E+00 0.  1.
</event>
<event>
 7    1  0.6485470E-006  0.1458986E+03  0.7818608E-02  0.1311546E+00
          2   -1    0    0  502    0  0.00000000000E+00  0.00000000000E+00  0.97724316930E+03  0.97724316930E+03  0.00000000000E+00 0. -1.
          1   -1    0    0  501    0 -0.00000000000E+00 -0.00000000000E+00 -0.43250303394E+03  0.43250303394E+03  0.00000000000E+00 0. -1.
         25    2    1    2    0    0 -0.15376782929E+03  0.15876086077E+02  0.54311184886E+03  0.57835102523E+03  0.12499132998E+03 0.  0.
          2    1    1    2  501    0  0.24145368843E+02  0.45249487206E+02 -0.40087349337E+03  0.40414115432E+03  0.00000000000E+00 0. -1.
          1    1    1    2  502    0  0.12962246045E+03 -0.61125573282E+02  0.40250177987E+03  0.42725402369E+03  0.00000000000E+00 0. -1.
         22    1    3    3    0    0 -0.90607993696E+02  0.39491230130E+02  0.15092670140E+03  0.18041129392E+03  0.00000000000E+00 0. -1.
         22    1    3    3    0    0 -0.63159835595E+02 -0.23615144054E+02  0.39218514746E+03  0.39793973130E+03  0.00000000000E+00 0. -1.
</event>
<event>
 7    1  0.6485470E-006  0.7206997E+02  0.7818608E-02  0.1361226E+00
          2   -1    0    0  502    0  0.00000000000E+00  0.00000000000E+00  0.91374015160E+03  0.91374015160E+03  0.00000000000E+00 0. -1.
          1   -1    0    0  501    0 -0.00000000000E+00 -0.00000000000E+00 -0.25261438841E+03  0.25261438841E+03  0.00000000000E+00 0. -1.
         25    2    1    2    0    0  0.12284414740E+02  0.95091454460E+01  0.66096384525E+02  0.14224760247E+03  0.12499727064E+03 0.  0.
          2    1    1    2  501    0 -0.74214292143E+02  0.16951144732E+02 -0.20632860916E+03  0.21992407195E+03  0.00000000000E+00 0. -1.
          1    1    1    2  502    0  0.61929877403E+02 -0.26460290178E+02  0.80135798782E+03  0.80418286559E+03  0.00000000000E+00 0. -1.
         22    1    3    3    0    0 -0.40638529123E+02  0.89485178594E+01  0.77630136809E+02  0.88079533162E+02  0.00000000000E+00 0. -1.
         22    1    3    3    0    0  0.52922943863E+02  0.56062758661E+00 -0.11533752283E+02  0.54168069304E+02  0.00000000000E+00 0. -1.
</event>
<event>
 7    1  0.6485470E-006  0.1693168E+03  0.7818608E-02  0.1234542E+00
          2   -1    0    0  502    0  0.00000000000E+00  0.00000000000E+00  0.27877553345E+04  0.27877553345E+04  0.00000000000E+00 0. -1.
          1   -1    0    0  501    0 -0.00000000000E+00 -0.00000000000E+00 -0.11208721749E+03  0.11208721749E+03  0.00000000000E+00 0. -1.
         25    2    1    2    0    0  0.48210322924E+02  0.12605761164E+03  0.47870171639E+03  0.51282834902E+03  0.12499130208E+03 0.  0.
          2    1    1    2  501    0  0.91832476666E+02 -0.13243684795E+02 -0.67928852687E+02  0.11499099089E+03  0.00000000000E+00 0. -1.
          1    1    1    2  502    0 -0.14004279959E+03 -0.11281392685E+03  0.22648952533E+04  0.22720232121E+04  0.00000000000E+00 0. -1.
         22    1    3    3    0    0  0.47204683395E+02  0.66876984827E+02  0.42531073081E+03  0.43311664823E+03  0.00000000000E+00 0. -1.
         22    1    3    3    0    0  0.10056395288E+01  0.59180626818E+02  0.53390985581E+02  0.79711700789E+02  0.00000000000E+00 0. -1.
</event>
<event>
 7    1  0.6485470E-006  0.1216144E+03  0.7818608E-02  0.1434992E+00
          2   -1    0    0  502    0  0.00000000000E+00  0.00000000000E+00  0.59301399971E+03  0.59301399971E+03  0.00000000000E+00 0. -1.
          1   -1    0    0  501    0 -0.00000000000E+00 -0.00000000000E+00 -0.17626203783E+04  0.17626203783E+04  0.00000000000E+00 0. -1.
         25    2    1    2    0    0 -0.13338276953E+03 -0.37675181250E+02 -0.53121773145E+03  0.56305231406E+03  0.12500099067E+03 0.  0.
          2    1    1    2  501    0  0.11138100077E+03  0.40704212343E+02 -0.12123777138E+04  0.12181634870E+04  0.00000000000E+00 0. -1.
          1    1    1    2  502    0  0.22001768767E+02 -0.30290310932E+01  0.57398906666E+03  0.57441857692E+03  0.00000000000E+00 0. -1.
         22    1    3    3    0    0 -0.89187449391E+02 -0.29959348900E+02 -0.49906638947E+03  0.50785748475E+03  0.00000000000E+00 0. -1.
         22    1    3    3    0    0 -0.44195320143E+02 -0.77158323495E+01 -0.32151341981E+02  0.55194829310E+02  0.00000000000E+00 0. -1.
</event>
<event>
 7    1  0.6485470E-006  0.6870016E+02  0.7818608E-02  0.1375291E+00
          2   -1    0    0  502    0  0.00000000000E+00  0.00000000000E+00  0.14520020393E+04  0.14520020393E+04  0.00000000000E+00 0. -1.
          1   -1    0    0  501    0 -0.00000000000E+00 -0.00000000000E+00 -0.29028142298E+02  0.29028142298E+02  0.00000000000E+00 0. -1.
         25    2    1    2    0    0 -0.11023048574E+02 -0.15089729066E+02  0.55688801446E+03  0.57105076226E+03  0.12500201959E+03 0.  0.
          2    1    1    2  501    0  0.42392967025E+02 -0.54060598320E+02  0.38175973520E+02  0.78594636573E+02  0.00000000000E+00 0. -1.
          1    1    1    2  502    0 -0.31369918451E+02  0.69150327385E+02  0.82790990904E+03  0.83138478278E+03  0.00000000000E+00 0. -1.
         22    1    3    3    0    0  0.55889119579E+01 -0.63752586379E+02  0.18795262028E+03  0.19854927771E+03  0.00000000000E+00 0. -1.
         22    1    3    3    0    0 -0.16611960532E+02  0.48662857313E+02  0.36893539418E+03  0.37250148455E+03  0.00000000000E+00 0. -1.
</event>
<event>
 7    1  0.6485470E-006  0.5773071E+02  0.7818608E-02  0.1482132E+00
          2   -1    0    0  502    0  0.00000000000E+00  0.00000000000E+00  0.86405279436E+03  0.86405279436E+03  0.00000000000E+00 0. -1.
          1   -1    0    0  501    0 -0.00000000000E+00 -0.00000000000E+00 -0.83083525076E+03  0.83083525076E+03  0.00000000000E+00 0. -1.
         25    2    1    2    0    0 -0.64432504823E+02 -0.10261629962E+02  0.21334293431E+03  0.25573085685E+03  0.12500485910E+03 0.  0.
          2    1    1    2  501    0  0.44491215427E+02  0.36798451536E+02 -0.80817309046E+03  0.81023289148E+03  0.00000000000E+00 0. -1.
          1    1    1    2  502    0  0.19941289395E+02 -0.26536821574E+02  0.62804769975E+03  0.62892429678E+03  0.00000000000E+00 0. -1.
         22    1    3    3    0    0  0.16796430647E+02  0.89877506155E+01  0.14931440609E+03  0.15052472093E+03  0.00000000000E+00 0. -1.
         22    1    3    3    0    0 -0.81228935470E+02 -0.19249380577E+02  0.64028528217E+02  0.10520613592E+03  0.00000000000E+00 0. -1.
</event>
<event>
 7    1  0.6485470E-006  0.9671852E+02  0.7818608E-02  0.1343795E+00
          2   -1    0    0  502    0  0.00000000000E+00  0.00000000000E+00  0.20119565801E+04  0.20119565801E+04  0.00000000000E+00 0. -1.
          1   -1    0    0  501    0 -0.00000000000E+00 -0.00000000000E+00 -0.66354840531E+03  0.66354840531E+03  0.00000000000E+00 0. -1.
         25    2    1    2    0    0  0.86076690407E+02 -0.79142669174E+02  0.90593001662E+03  0.92195809337E+03  0.12499908885E+03 0.  0.
          2    1    1    2  501    0  0.60682389287E+01  0.57879102560E+02 -0.65220016930E+03  0.65479147434E+03  0.00000000000E+00 0. -1.
          1    1    1    2  502    0 -0.92144929336E+02  0.21263566613E+02  0.10946783275E+04  0.10987554177E+04  0.00000000000E+00 0. -1.
         22    1    3    3    0    0  0.82501416951E+02 -0.80579951055E+02  0.90945377335E+03  0.91673648241E+03  0.00000000000E+00 0. -1.
         22    1    3    3    0    0  0.35752734565E+01  0.14372818813E+01 -0.35237567387E+01  0.52216109629E+01  0.00000000000E+00 0. -1.
</event>
<event>
 7    1  0.6485470E-006  0.4519883E+02  0.7818608E-02  0.1500485E+00
          2   -1    0    0  502    0  0.00000000000E+00  0.00000000000E+00  0.35060543335E+03  0.35060543335E+03  0.00000000000E+00 0. -1.
          1   -1    0    0  501    0 -0.00000000000E+00 -0.00000000000E+00 -0.67233598724E+03  0.67233598724E+03  0.00000000000E+00 0. -1.
         25    2    1    2    0    0 -0.87107074845E+01 -0.10190736714E+02 -0.30709330010E+02  0.12941830849E+03  0.12500523222E+03 0.  0.
          2    1    1    2  501    0 -0.25566663316E+01  0.45766522929E+02 -0.59022445107E+03  0.59200170085E+03  0.00000000000E+00 0. -1.
          1    1    1    2  502    0  0.11267373816E+02 -0.35575786215E+02  0.29920322720E+03  0.30152141125E+03  0.00000000000E+00 0. -1.
         22    1    3    3    0    0  0.13894785360E+02 -0.19167204695E+02  0.44482833062E+02  0.50390170006E+02  0.00000000000E+00 0.  1.
         22    1    3    3    0    0 -0.22605492845E+02  0.89764679812E+01 -0.75192163072E+02  0.79028138480E+02  0.00000000000E+00 0.  1.
</event>
<event>
 7    1  0.6485470E-006  0.1102459E+03  0.7818608E-02  0.1333737E+00
          2   -1    0    0  502    0  0.00000000000E+00  0.00000000000E+00  0.16037938544E+04  0.16037938544E+04  0.00000000000E+00 0. -1.
          1   -1    0    0  501    0 -0.00000000000E+00 -0.00000000000E+00 -0.26636353607E+03  0.26636353607E+03  0.00000000000E+00 0. -1.
         25    2    1    2    0    0  0.46940819523E+02 -0.72596687181E+02 -0.95194110598E+00  0.15198581694E+03  0.12500025133E+03 0.  0.
          2    1    1    2  501    0  0.51570489815E+02  0.21080566034E+02 -0.18373711314E+03  0.19199800110E+03  0.00000000000E+00 0. -1.
          1    1    1    2  502    0 -0.98511309338E+02  0.51516121147E+02  0.15221193726E+04  0.15261735724E+04  0.00000000000E+00 0. -1.
         22    1    3    3    0    0 -0.21890933501E+02  0.22311518006E+02 -0.13554664014E+02  0.34069718546E+02  0.00000000000E+00 0.  1.
         22    1    3    3    0    0  0.68831753023E+02 -0.94908205188E+02  0.12602722908E+02  0.11791609840E+03  0.00000000000E+00 0.  1.
</event>
<event>
 7    1  0.6485470E-006  0.1060559E+03  0.7818608E-02  0.1460233E+00
          2   -1    0    0  502    0  0.00000000000E+00  0.00000000000E+00  0.35200413652E+03  0.35200413652E+03  0.00000000000E+00 0. -1.
          1   -1    0    0  501    0 -0.00000000000E+00 -0.00000000000E+00 -0.74474774631E+03  0.74474774631E+03  0.00000000000E+00 0. -1.
         25    2    1    2    0    0 -0.54714573479E+02  0.74841729674E+02 -0.22628830648E+03  0.27464098097E+03  0.12500520680E+03 0.  0.
          2    1    1    2  501    0  0.64078868434E+01  0.20137333376E+02 -0.48538819161E+03  0.48584799039E+03  0.00000000000E+00 0. -1.
          1    1    1    2  502    0  0.48306686636E+02 -0.94979063050E+02  0.31893288830E+03  0.33626291147E+03  0.00000000000E+00 0. -1.
         22    1    3    3    0    0 -0.32741812926E+02  0.99986024561E+02 -0.10423353216E+03  0.14810084621E+03  0.00000000000E+00 0. -1.
         22    1    3    3    0    0 -0.21972760553E+02 -0.25144294887E+02 -0.12205477432E+03  0.12654013476E+03  0.00000000000E+00 0. -1.
</event>
<event>
 7    1  0.6485470E-006  0.2227616E+02  0.7818608E-02  0.1707315E+00
          2   -1    0    0  502    0  0.00000000000E+00  0.00000000000E+00  0.57042285726E+03  0.57042285726E+03  0.00000000000E+00 0. -1.
          1   -1    0    0  501    0 -0.00000000000E+00 -0.00000000000E+00 -0.24283650703E+03  0.24283650703E+03  0.00000000000E+00 0. -1.
         25    2    1    2    0    0  0.32210646430E+02 -0.12319953098E+02 -0.11222836638E+03  0.17149195306E+03  0.12499990702E+03 0.  0.
          2    1    1    2  501    0 -0.20756445054E+02 -0.67765605239E+01 -0.99563561798E+02  0.10192965526E+03  0.00000000000E+00 0. -1.
          1    1    1    2  502    0 -0.11454201376E+02  0.19096513622E+02  0.53937827840E+03  0.53983775597E+03  0.00000000000E+00 0. -1.
         22    1    3    3    0    0  0.25651234849E+02 -0.60522842355E+02 -0.22596866461E+02  0.69509845849E+02  0.00000000000E+00 0.  1.
         22    1    3    3    0    0  0.65594115811E+01  0.48202889258E+02 -0.89631499917E+02  0.10198210721E+03  0.00000000000E+00 0.  1.
</event>
<event>
 7    1  0.6485470E-006  0.4797632E+02  0.7818608E-02  0.1566352E+00
          2   -1    0    0  502    0  0.00000000000E+00  0.00000000000E+00  0.65855428675E+03  0.65855428675E+03  0.00000000000E+00 0. -1.
          1   -1    0    0  501    0 -0.00000000000E+00 -0.00000000000E+00 -0.22733983894E+04  0.22733983894E+04  0.00000000000E+00 0. -1.
         25    2    1    2    0    0  0.14276024031E+02 -0.58296123042E+02  0.91999073959E+02  0.16640477423E+03  0.12499790580E+03 0.  0.
          2    1    1    2  501    0 -0.27198117515E+02  0.39502335170E+02 -0.22356925678E+04  0.22362069291E+04  0.00000000000E+00 0. -1.
          1    1    1    2  502    0  0.12922093484E+02  0.18793787871E+02  0.52884939117E+03  0.52934097282E+03  0.00000000000E+00 0. -1.
         22    1    3    3    0    0 -0.16376116527E+02 -0.89403183018E+02  0.80080037087E+02  0.12113595117E+03  0.00000000000E+00 0. -1.
         22    1    3    3    0    0  0.30652140558E+02  0.31107059976E+02  0.11919036872E+02  0.45268823058E+02  0.00000000000E+00 0. -1.
</event>
<event>
 7    1  0.6485470E-006  0.3727654E+02  0.7818608E-02  0.1548422E+00
          2   -1    0    0  502    0  0.00000000000E+00  0.00000000000E+00  0.17964409257E+04  0.17964409257E+04  0.00000000000E+00 0. -1.
          1   -1    0    0  501    0 -0.00000000000E+00 -0.00000000000E+00 -0.18331075235E+02  0.18331075235E+02  0.00000000000E+00 0. -1.
         25    2    1    2    0    0  0.14402251205E+01 -0.34568624319E+02  0.13135563626E+04  0.13199436356E+04  0.12499527744E+03 0.  0.
          2    1    1    2  501    0 -0.31314749572E+02  0.20786497744E+02  0.97411399545E+01  0.38827591180E+02  0.00000000000E+00 0. -1.
          1    1    1    2  502    0  0.29874524452E+02  0.13782126575E+02  0.45481234788E+03  0.45600077413E+03  0.00000000000E+00 0. -1.
         22    1    3    3    0    0  0.50285921094E+02 -0.47436485980E+02  0.99588368959E+03  0.99828012965E+03  0.00000000000E+00 0.  1.
         22    1    3    3    0    0 -0.48845695974E+02  0.12867861660E+02  0.31767267304E+03  0.32166350598E+03  0.00000000000E+00 0.  1.
</event>
<event>
 7    1  0.6485470E-006  0.1723973E+03  0.7818608E-02  0.1319122E+00
          2   -1    0    0  502    0  0.00000000000E+00  0.00000000000E+00  0.16193702902E+04  0.16193702902E+04  0.00000000000E+00 0. -1.
          1   -1    0    0  501    0 -0.00000000000E+00 -0.00000000000E+00 -0.93815853119E+03  0.93815853119E+03  0.00000000000E+00 0. -1.
         25    2    1    2    0    0  0.19131638284E+03  0.79198017629E+02  0.81823847569E+03  0.85323693709E+03  0.12499913349E+03 0.  0.
          2    1    1    2  501    0 -0.15092006735E+03 -0.82662050935E+02 -0.91208439254E+03  0.92817445586E+03  0.00000000000E+00 0. -1.
          1    1    1    2  502    0 -0.40396315485E+02  0.34640333063E+01  0.77505767585E+03  0.77611742844E+03  0.00000000000E+00 0. -1.
         22    1    3    3    0    0  0.10561508431E+03  0.18157585091E+01  0.56672074719E+03  0.57648091756E+03  0.00000000000E+00 0.  1.
         22    1    3    3    0    0  0.85701298527E+02  0.77382259120E+02  0.25151772850E+03  0.27675601953E+03  0.00000000000E+00 0.  1.
</event>
<event>
 7    1  0.6485470E-006  0.6726937E+02  0.7818608E-02  0.1452895E+00
          2   -1    0    0  502    0  0.00000000000E+00  0.00000000000E+00  0.99905685688E+03  0.99905685688E+03  0.00000000000E+00 0. -1.
          1   -1    0    0  501    0 -0.00000000000E+00 -0.00000000000E+00 -0.50250735755E+03  0.50250735755E+03  0.00000000000E+00 0. -1.
         25    2    1    2    0    0  0.33886981470E+02 -0.95539949348E+02  0.51051405130E+03  0.53528201717E+03  0.12500412752E+03 0.  0.
          2    1    1    2  501    0 -0.28387237923E+02  0.60823008394E+02 -0.48717044630E+03  0.49177262772E+03  0.00000000000E+00 0. -1.
          1    1    1    2  502    0 -0.54997435479E+01  0.34716940954E+02  0.47320589433E+03  0.47450956955E+03  0.00000000000E+00 0. -1.
         22    1    3    3    0    0  0.35539509919E+02 -0.10997701694E+03  0.26219724551E+03  0.28654039257E+03  0.00000000000E+00 0.  1.
         22    1    3    3    0    0 -0.16525284484E+01  0.14437067595E+02  0.24831680579E+03  0.24874162460E+03  0.00000000000E+00 0.  1.
</event>
<event>
 7    1  0.6485470E-006  0.1676174E+03  0.7818608E-02  0.1245036E+00
          2   -1    0    0  502    0  0.00000000000E+00  0.00000000000E+00  0.20135497903E+03  0.20135497903E+03  0.00000000000E+00 0. -1.
          1   -1    0    0  501    0 -0.00000000000E+00 -0.00000000000E+00 -0.10897274524E+04  0.10897274524E+04  0.00000000000E+00 0. -1.
         25    2    1    2    0    0 -0.14565831420E+03 -0.11713890942E+03 -0.25399822065E+03  0.33923567219E+03  0.12501150585E+03 0.  0.
          2    1    1    2  501    0 -0.17988122043E+02  0.82303115721E+02 -0.74598262221E+03  0.75072461531E+03  0.00000000000E+00 0. -1.
          1    1    1    2  502    0  0.16364643625E+03  0.34835793700E+02  0.11160836953E+03  0.20112214390E+03  0.00000000000E+00 0. -1.
         22    1    3    3    0    0 -0.86469614348E+02 -0.12397855220E+03 -0.12141487355E+03  0.19387946547E+03  0.00000000000E+00 0. -1.
         22    1    3    3    0    0 -0.59188699857E+02  0.68396427794E+01 -0.13258334710E+03  0.14535620672E+03  0.00000000000E+00 0. -1.
</event>
<event>
 7    1  0.6485470E-006  0.1235298E+03  0.7818608E-02  0.1379866E+00
          2   -1    0    0  502    0  0.00000000000E+00  0.00000000000E+00  0.14748022616E+04  0.14748022616E+04  0.00000000000E+00 0. -1.
          1   -1    0    0  501    0 -0.00000000000E+00 -0.00000000000E+00 -0.26002651673E+04  0.26002651673E+04  0.00000000000E+00 0. -1.
         25    2    1    2    0    0  0.10809157390E+03 -0.96562650797E+02  0.25789996102E+03  0.32116277782E+03  0.12500002433E+03 0.  0.
          2    1    1    2  501    0 -0.74467005232E+02  0.98440939478E+02 -0.25669112207E+04  0.25698772672E+04  0.00000000000E+00 0. -1.
          1    1    1    2  502    0 -0.33624568671E+02 -0.18782886816E+01  0.11835483540E+04  0.11840273839E+04  0.00000000000E+00 0. -1.
         22    1    3    3    0    0  0.53915875217E+02 -0.91139764500E+02  0.24245047369E+03  0.26456683553E+03  0.00000000000E+00 0. -1.
         22    1    3    3    0    0  0.54175698687E+02 -0.54228862967E+01  0.15449487333E+02  0.56595942282E+02  0.00000000000E+00 0. -1.
</event>
<event>
 7    1  0.6485470E-006  0.7000968E+02  0.7818608E-02  0.1377290E+00
          2   -1    0    0  502    0  0.00000000000E+00  0.00000000000E+00  0.23484094699E+03  0.23484094699E+03  0.00000000000E+00 0. -1.
          1   -1    0    0  501    0 -0.00000000000E+00 -0.00000000000E+00 -0.40420502519E+03  0.40420502519E+03  0.00000000000E+00 0. -1.
         25    2    1    2    0    0 -0.19736233649E+02  0.42210525540E+02  0.21397863985E+02  0.13510848252E+03  0.12500074432E+03 0.  0.
          2    1    1    2  501    0  0.54801336871E+02  0.26069952369E+02 -0.33505076234E+03  0.34050233815E+03  0.00000000000E+00 0. -1.
          1    1    1    2  502    0 -0.35065103223E+02 -0.68280477909E+02  0.14428882015E+03  0.16343515151E+03  0.00000000000E+00 0. -1.
         22    1    3    3    0    0  0.43961346088E+02  0.47927593459E+02 -0.64499845736E+01  0.65354850360E+02  0.00000000000E+00 0.  1.
         22    1    3    3    0    0 -0.63697579737E+02 -0.57170679185E+01  0.27847848558E+02  0.69753632158E+02  0.00000000000E+00 0.  1.
</event>
<event>
 7    1  0.6485470E-006  0.1406079E+03  0.7818608E-02  0.1324593E+00
          2   -1    0    0  502    0  0.00000000000E+00  0.00000000000E+00  0.46299488011E+03  0.46299488011E+03  0.00000000000E+00 0. -1.
          1   -1    0    0  501    0 -0.00000000000E+00 -0.00000000000E+00 -0.28352909090E+03  0.28352909090E+03  0.00000000000E+00 0. -1.
         25    2    1    2    0    0 -0.16027482707E+03 -0.60742889045E+01  0.73674401264E+01  0.20347809107E+03  0.12499654873E+03 0.  0.
          2    1    1    2  501    0  0.13018625226E+03  0.42630315951E+02 -0.15825928938E+03  0.20931270098E+03  0.00000000000E+00 0. -1.
          1    1    1    2  502    0  0.30088574812E+02 -0.36556027046E+02  0.33035763847E+03  0.33373317896E+03  0.00000000000E+00 0. -1.
         22    1    3    3    0    0 -0.95078480420E+02 -0.65074780644E+02  0.86410904381E+01  0.11553922693E+03  0.00000000000E+00 0.  1.
         22    1    3    3    0    0 -0.65196346647E+02  0.59000491740E+02 -0.12736503117E+01  0.87938864143E+02  0.00000000000E+00 0.  1.
</event>
<event>
 7    1  0.6485470E-006  0.1046271E+03  0.7818608E-02  0.1402775E+00
          2   -1    0    0  502    0  0.00000000000E+00  0.00000000000E+00  0.39868394126E+03  0.39868394126E+03  0.00000000000E+00 0. -1.
          1   -1    0    0  501    0 -0.00000000000E+00 -0.00000000000E+00 -0.15767576762E+04  0.15767576762E+04  0.00000000000E+00 0. -1.
         25    2    1    2    0    0  0.10577918760E+03 -0.83896792396E+02 -0.20722027121E+03  0.27711614423E+03  0.12500083316E+03 0.  0.
          2    1    1    2  501    0 -0.76080451662E+02  0.69309739913E+02 -0.13318476019E+04  0.13358181425E+04  0.00000000000E+00 0. -1.
          1    1    1    2  502    0 -0.29698735937E+02  0.14587052483E+02  0.36099413818E+03  0.36250733071E+03  0.00000000000E+00 0. -1.
         22    1    3    3    0    0  0.81823020581E+02 -0.88022349134E+02 -0.21922469254E+03  0.25000481288E+03  0.00000000000E+00 0. -1.
         22    1    3    3    0    0  0.23956167018E+02  0.41255567376E+01  0.12004421326E+02  0.27111331357E+02  0.00000000000E+00 0. -1.
</event>
<event>
 7    1  0.6485470E-006  0.2024215E+03  0.7818608E-02  0.1344614E+00
          2   -1    0    0  502    0  0.00000000000E+00  0.00000000000E+00  0.89405785372E+03  0.89405785372E+03  0.00000000000E+00 0. -1.
          1   -1    0    0  501    0 -0.00000000000E+00 -0.00000000000E+00 -0.82157630444E+03  0.82157630444E+03  0.00000000000E+00 0. -1.
         25    2    1    2    0    0  0.15325130873E+03  0.12877893823E+03 -0.14307410132E+03  0.27598069397E+03  0.12500066567E+03 0.  0.
          2    1    1    2  501    0  0.18214864316E+02 -0.20751104799E+02 -0.59931979859E+03  0.59995550719E+03  0.00000000000E+00 0. -1.
          1    1    1    2  502    0 -0.17146617304E+03 -0.10802783343E+03  0.81487544918E+03  0.83969795699E+03  0.00000000000E+00 0. -1.
         22    1    3    3    0    0  0.11047675787E+03  0.40131914190E+02 -0.13229009360E+03  0.17696427162E+03  0.00000000000E+00 0. -1.
         22    1    3    3    0    0  0.42774550858E+02  0.88647024042E+02 -0.10784007720E+02  0.99016422350E+02  0.00000000000E+00 0. -1.
</event>
<event>
 7    1  0.6485470E-006  0.6062253E+02  0.7818608E-02  0.1534467E+00
          2   -1    0    0  502    0  0.00000000000E+00  0.00000000000E+00  0.30323086903E+03  0.30323086903E+03  0.00000000000E+00 0. -1.
          1   -1    0    0  501    0 -0.00000000000E+00 -0.00000000000E+00 -0.58681245595E+02  0.58681245595E+02  0.00000000000E+00 0. -1.
         25    2    1    2    0    0  0.46640903427E+02 -0.83810599139E+01  0.15900201562E+03  0.20773175081E+03  0.12500089314E+03 0.  0.
          2    1    1    2  501    0  0.19431568251E+02  0.10632029710E+02 -0.19864203042E+02  0.29752520279E+02  0.00000000000E+00 0. -1.
          1    1    1    2  502    0 -0.66072471678E+02 -0.22509697957E+01  0.10541181086E+03  0.12442784354E+03  0.00000000000E+00 0. -1.
         22    1    3    3    0    0  0.16773215548E+02  0.57247827354E+02  0.54730866743E+02  0.80957533750E+02  0.00000000000E+00 0. -1.
         22    1    3    3    0    0  0.29867687880E+02 -0.65628887268E+02  0.10427114887E+03  0.12677421706E+03  0.00000000000E+00 0. -1.
</event>
<event>
 7    1  0.6485470E-006  0.9410801E+02  0.7818608E-02  0.1482002E+00
          2   -1    0    0  502    0  0.00000000000E+00  0.00000000000E+00  0.13881528090E+03  0.13881528090E+03  0.00000000000E+00 0. -1.
          1   -1    0    0  501    0 -0.00000000000E+00 -0.00000000000E+00 -0.26319833289E+03  0.26319833289E+03  0.00000000000E+00 0. -1.
         25    2    1    2    0    0 -0.10048090430E+03  0.33572840151E+02 -0.46580638834E+02  0.17034848670E+03  0.12500121313E+03 0.  0.
          2    1    1    2  501    0  0.90295013277E+02 -0.15918910457E+02 -0.13936245672E+03  0.16681875038E+03  0.00000000000E+00 0. -1.
          1    1    1    2  502    0  0.10185891020E+02 -0.17653929694E+02  0.61560043562E+02  0.64846376713E+02  0.00000000000E+00 0. -1.
         22    1    3    3    0    0 -0.22405139610E+02  0.23087204362E+02  0.41284703997E+02  0.52339622375E+02  0.00000000000E+00 0.  1.
         22    1    3    3    0    0 -0.78075764686E+02  0.10485635789E+02 -0.87865342831E+02  0.11800886433E+03  0.00000000000E+00 0.  1.
</event>
<event>
 7    1  0.6485470E-006  0.8669867E+02  0.7818608E-02  0.1439430E+00
          2   -1    0    0  502    0  0.00000000000E+00  0.00000000000E+00  0.13026387559E+02  0.13026387559E+02  0.00000000000E+00 0. -1.
          1   -1    0    0  501    0 -0.00000000000E+00 -0.00000000000E+00 -0.36842475408E+04  0.36842475408E+04  0.00000000000E+00 0. -1.
         25    2    1    2    0    0 -0.92341658454E+02 -0.67496316751E+02 -0.21727095104E+04  0.21793058705E+04  0.12499890491E+03 0.  0.
          2    1    1    2  501    0  0.25440363617E+02  0.16149680804E+02 -0.13220103031E+04  0.13223536841E+04  0.00000000000E+00 0. -1.
          1    1    1    2  502    0  0.66901294837E+02  0.51346635947E+02 -0.17650133971E+03  0.19561437369E+03  0.00000000000E+00 0. -1.
         22    1    3    3    0    0  0.24888477030E+02 -0.21778480923E+02 -0.21211454052E+03  0.21467723871E+03  0.00000000000E+00 0. -1.
         22    1    3    3    0    0 -0.11723013548E+03 -0.45717835827E+02 -0.19605949699E+04  0.19646286318E+04  0.00000000000E+00 0. -1.
</event>
<event>
 7    1  0.6485470E-006  0.3825231E+03  0.7818608E-02  0.1259687E+00
          2   -1    0    0  502    0  0.00000000000E+00  0.00000000000E+00  0.16597810008E+04  0.16597810008E+04  0.00000000000E+00 0. -1.
          1   -1    0    0  501    0 -0.00000000000E+00 -0.00000000000E+00 -0.15542876496E+04  0.15542876496E+04  0.00000000000E+00 0. -1.
         25    2    1    2    0    0  0.15146980617E+03 -0.35162236942E+03 -0.25583771287E+03  0.47713700509E+03  0.12500157377E+03 0.  0.
          2    1    1    2  501    0 -0.12161505651E+03  0.36288270289E+03 -0.11567994483E+04  0.12184658558E+04  0.00000000000E+00 0. -1.
          1    1    1    2  502    0 -0.29854749655E+02 -0.11260333474E+02  0.15181305124E+04  0.15184657895E+04  0.00000000000E+00 0. -1.
         22    1    3    3    0    0  0.17154288385E+03 -0.33620001878E+03 -0.23965925838E+03  0.44709503884E+03  0.00000000000E+00 0.  1.
         22    1    3    3    0    0 -0.20073077678E+02 -0.15422350639E+02 -0.16178454484E+02  0.30041966250E+02  0.00000000000E+00 0.  1.
</event>
<event>
 7    1  0.6485470E-006  0.8249644E+02  0.7818608E-02  0.1402453E+00
          2   -1    0    0  502    0  0.00000000000E+00  0.00000000000E+00  0.16008487993E+04  0.16008487993E+04  0.00000000000E+00 0. -1.
          1   -1    0    0  501    0 -0.00000000000E+00 -0.00000000000E+00 -0.20608653225E+04  0.20608653225E+04  0.00000000000E+00 0. -1.
         25    2    1    2    0    0  0.31700899871E+02 -0.11127805660E+03  0.13670734901E+02  0.17087478956E+03  0.12499420700E+03 0.  0.
          2    1    1    2  501    0 -0.30275699123E+02  0.29211510819E+02 -0.19809233414E+04  0.19813700348E+04  0.00000000000E+00 0. -1.
          1    1    1    2  502    0 -0.14252007478E+01  0.82066545777E+02  0.15072360833E+04  0.15094692975E+04  0.00000000000E+00 0. -1.
         22    1    3    3    0    0  0.56970672065E+02 -0.60686708696E+01  0.24133782603E+02  0.62168526639E+02  0.00000000000E+00 0.  1.
         22    1    3    3    0    0 -0.25269772194E+02 -0.10520938573E+03 -0.10463047703E+02  0.10870626292E+03  0.00000000000E+00 0.  1.
</event>
<event>
 7    1  0.6485470E-006  0.7321928E+02  0.7818608E-02  0.1472242E+00
          2   -1    0    0  502    0  0.00000000000E+00  0.00000000000E+00  0.14703680154E+03  0.14703680154E+03  0.00000000000E+00 0. -1.
          1   -1    0    0  501    0 -0.00000000000E+00 -0.00000000000E+00 -0.33699240270E+03  0.33699240270E+03  0.00000000000E+00 0. -1.
         25    2    1    2    0    0  0.20518381684E+02  0.50102801979E+02 -0.13094480267E+03  0.18894619486E+03  0.12499131352E+03 0.  0.
          2    1    1    2  501    0  0.27000230588E+02  0.76891158495E+01 -0.16387575816E+03  0.16626304180E+03  0.00000000000E+00 0. -1.
          1    1    1    2  502    0 -0.47518612272E+02 -0.57791917828E+02  0.10486495968E+03  0.12881996758E+03  0.00000000000E+00 0. -1.
         22    1    3    3    0    0  0.71112303695E+02  0.16957234807E+02 -0.53051426227E+02  0.90326969249E+02  0.00000000000E+00 0.  1.
         22    1    3    3    0    0 -0.50593922010E+02  0.33145567172E+02 -0.77893376441E+02  0.98619225615E+02  0.00000000000E+00 0.  1.
</event>
<event>
 7    1  0.6485470E-006  0.1033894E+03  0.7818608E-02  0.1288776E+00
          2   -1    0    0  502    0  0.00000000000E+00  0.00000000000E+00  0.12835910000E+04  0.12835910000E+04  0.00000000000E+00 0. -1.
          1   -1    0    0  501    0 -0.00000000000E+00 -0.00000000000E+00 -0.63481648683E+02  0.63481648683E+02  0.00000000000E+00 0. -1.
         25    2    1    2    0    0  0.91293331797E+02 -0.10246463899E+03  0.41011253065E+03  0.45017148586E+03  0.12501441602E+03 0.  0.
          2    1    1    2  501    0 -0.89275379010E+02  0.11478537087E+00  0.93807614871E+01  0.89766949147E+02  0.00000000000E+00 0. -1.
          1    1    1    2  502    0 -0.20179527873E+01  0.10234985362E+03  0.80061605917E+03  0.80713421367E+03  0.00000000000E+00 0. -1.
         22    1    3    3    0    0  0.85408198549E+02 -0.80174279696E+02  0.15635985358E+03  0.19537369147E+03  0.00000000000E+00 0. -1.
         22    1    3    3    0    0  0.58851332482E+01 -0.22290359291E+02  0.25375267707E+03  0.25479779440E+03  0.00000000000E+00 0. -1.
</event>
<event>
 7    1  0.6485470E-006  0.7700455E+02  0.7818608E-02  0.1345415E+00
          2   -1    0    0  502    0  0.00000000000E+00  0.00000000000E+00  0.55838625597E+03  0.55838625597E+03  0.00000000000E+00 0. -1.
          1   -1    0    0  501    0 -0.00000000000E+00 -0.00000000000E+00 -0.25872599222E+03  0.25872599222E+03  0.00000000000E+00 0. -1.
         25    2    1    2    0    0  0.94605249208E+02 -0.82223571053E+02  0.28411705129E+02  0.17928470539E+03  0.12499964713E+03 0.  0.
          2    1    1    2  501    0 -0.23431391768E+02  0.70806925248E+02 -0.17267277475E+03  0.18809183375E+03  0.00000000000E+00 0. -1.
          1    1    1    2  502    0 -0.71173857440E+02  0.11416645805E+02  0.44392133337E+03  0.44973570906E+03  0.00000000000E+00 0. -1.
         22    1    3    3    0    0  0.56083527609E+02 -0.96265777690E+02 -0.22760736372E+02  0.11371241420E+03  0.00000000000E+00 0.  1.
         22    1    3    3    0    0  0.38521721599E+02  0.14042206638E+02  0.51172441501E+02  0.65572291186E+02  0.00000000000E+00 0.  1.
</event>
<event>
 7    1  0.6485470E-006  0.7173334E+02  0.7818608E-02  0.1455075E+00
          2   -1    0    0  502    0  0.00000000000E+00  0.00000000000E+00  0.49005869757E+03  0.49005869757E+03  0.00000000000E+00 0. -1.
          1   -1    0    0  501    0 -0.00000000000E+00 -0.00000000000E+00 -0.82203651550E+03  0.82203651550E+03  0.00000000000E+00 0. -1.
         25    2    1    2    0    0 -0.98984922018E+01  0.85362501384E+02 -0.51362215682E+03  0.53555336398E+03  0.12499979560E+03 0.  0.
          2    1    1    2  501    0  0.28194234046E+02 -0.16045603995E+02 -0.29386925965E+03  0.29565438947E+03  0.00000000000E+00 0. -1.
          1    1    1    2  502    0 -0.18295741844E+02 -0.69316897389E+02  0.47551359854E+03  0.48088745963E+03  0.00000000000E+00 0. -1.
         22    1    3    3    0    0 -0.47367381105E+02  0.94573706798E+02 -0.29132419246E+03  0.30993166976E+03  0.00000000000E+00 0.  1.
         22    1    3    3    0    0  0.37468888903E+02 -0.92112054142E+01 -0.22229796436E+03  0.22562169421E+03  0.00000000000E+00 0.  1.
</event>
<event>
 7    1  0.6485470E-006  0.5842408E+02  0.7818608E-02  0.1527725E+00
          2   -1    0    0  502    0  0.00000000000E+00  0.00000000000E+00  0.17873392426E+04  0.17873392426E+04  0.00000000000E+00 0. -1.
          1   -1    0    0  501    0 -0.00000000000E+00 -0.00000000000E+00 -0.31731978756E+03  0.31731978756E+03  0.00000000000E+00 0. -1.
         25    2    1    2    0    0 -0.19240769481E+02  0.33090042903E+02  0.34256027130E+03  0.36665777994E+03  0.12500091987E+03 0.  0.
          2    1    1    2  501    0 -0.21880042576E+02  0.99283160631E+01 -0.30417912302E+03  0.30512660750E+03  0.00000000000E+00 0. -1.
          1    1    1    2  502    0  0.41120812057E+02 -0.43018358966E+02  0.14316383068E+04  0.14328746427E+04  0.00000000000E+00 0. -1.
         22    1    3    3    0    0  0.49821324555E+01  0.74215060388E+02  0.26799024497E+03  0.27812131927E+03  0.00000000000E+00 0. -1.
         22    1    3    3    0    0 -0.24222901937E+02 -0.41125017485E+02  0.74570026325E+02  0.88536460667E+02  0.00000000000E+00 0. -1.
</event>
<event>
 7    1  0.6485470E-006  0.7912635E+02  0.7818608E-02  0.1363467E+00
          2   -1    0    0  502    0  0.00000000000E+00  0.00000000000E+00  0.41938247288E+04  0.41938247288E+04  0.00000000000E+00 0. -1.
          1   -1    0    0  501    0 -0.00000000000E+00 -0.00000000000E+00 -0.78273065764E+02  0.78273065764E+02  0.00000000000E+00 0. -1.
         25    2    1    2    0    0 -0.35394950176E+02  0.18129965571E+02  0.21492053824E+03  0.25178883708E+03  0.12500113028E+03 0.  0.
          2    1    1    2  501    0  0.34076485467E+02 -0.78315514105E+02 -0.29014823388E+02  0.90201921197E+02  0.00000000000E+00 0. -1.
          1    1    1    2  502    0  0.13184647089E+01  0.60185548535E+02  0.39296459482E+04  0.39301070363E+04  0.00000000000E+00 0. -1.
         22    1    3    3    0    0 -0.63527029158E+02  0.22892210093E+01  0.42723316908E+02  0.76591159896E+02  0.00000000000E+00 0.  1.
         22    1    3    3    0    0  0.28132078983E+02  0.15840744561E+02  0.17219722133E+03  0.17519767718E+03  0.00000000000E+00 0.  1.
</event>
<event>
 7    1  0.6485470E-006  0.2419498E+03  0.7818608E-02  0.1302039E+00
          2   -1    0    0  502    0  0.00000000000E+00  0.00000000000E+00  0.15760466183E+04  0.15760466183E+04  0.00000000000E+00 0. -1.
          1   -1    0    0  501    0 -0.00000000000E+00 -0.00000000000E+00 -0.13939092142E+03  0.13939092142E+03  0.00000000000E+00 0. -1.
         25    2    1    2    0    0  0.23095074671E+03 -0.36375063420E+02  0.60158657568E+03  0.65741525438E+03  0.12500806382E+03 0.  0.
          2    1    1    2  501    0 -0.24400236065E+03  0.52737906377E+01  0.22875980358E+02  0.24512909935E+03  0.00000000000E+00 0. -1.
          1    1    1    2  502    0  0.13051613942E+02  0.31101272783E+02  0.81219314083E+03  0.81289318598E+03  0.00000000000E+00 0. -1.
         22    1    3    3    0    0  0.25838190147E+02  0.33372973132E+02  0.54058754866E+02  0.68583645160E+02  0.00000000000E+00 0. -1.
         22    1    3    3    0    0  0.20511255656E+03 -0.69748036552E+02  0.54752782081E+03  0.58883160922E+03  0.00000000000E+00 0. -1.
</event>
<event>
 7    1  0.6485470E-006  0.4898321E+02  0.7818608E-02  0.1460223E+00
          2   -1    0    0  502    0  0.00000000000E+00  0.00000000000E+00  0.66678878824E+03  0.66678878824E+03  0.00000000000E+00 0. -1.
          1   -1    0    0  501    0 -0.00000000000E+00 -0.00000000000E+00 -0.25046180406E+02  0.25046180406E+02  0.00000000000E+00 0. -1.
         25    2    1    2    0    0 -0.34868365989E+02 -0.30839566944E+02  0.26820307884E+03  0.29954181818E+03  0.12500211001E+03 0.  0.
          2    1    1    2  501    0  0.53990344318E+02 -0.10731039251E+02  0.93186277311E+02  0.10823028579E+03  0.00000000000E+00 0. -1.
          1    1    1    2  502    0 -0.19121978329E+02  0.41570606195E+02  0.28035325169E+03  0.28406286467E+03  0.00000000000E+00 0. -1.
         22    1    3    3    0    0  0.46950517665E+02 -0.17646116617E+02  0.90705274932E+02  0.10364932919E+03  0.00000000000E+00 0.  1.
         22    1    3    3    0    0 -0.81818883654E+02 -0.13193450326E+02  0.17749780390E+03  0.19589248899E+03  0.00000000000E+00 0.  1.
</event>
<event>
 7    1  0.6485470E-006  0.1022772E+03  0.7818608E-02  0.1345176E+00
          2   -1    0    0  502    0  0.00000000000E+00  0.00000000000E+00  0.12805037501E+03  0.12805037501E+03  0.00000000000E+00 0. -1.
          1   -1    0    0  501    0 -0.00000000000E+00 -0.00000000000E+00 -0.11712383192E+04  0.11712383192E+04  0.00000000000E+00 0. -1.
         25    2    1    2    0    0 -0.49540148929E+02 -0.44552192092E+02 -0.40808215444E+02  0.14741027155E+03  0.12500141412E+03 0.  0.
          2    1    1    2  501    0 -0.40470711418E+02 -0.36327499769E+02 -0.10269583436E+04  0.10283972993E+04  0.00000000000E+00 0. -1.
          1    1    1    2  502    0  0.90010860347E+02  0.80879691862E+02  0.24578614790E+02  0.12348112342E+03  0.00000000000E+00 0. -1.
         22    1    3    3    0    0 -0.11379653331E+02 -0.81825546501E+02 -0.42123656663E+01  0.82720375934E+02  0.00000000000E+00 0. -1.
         22    1    3    3    0    0 -0.38160495598E+02  0.37273354409E+02 -0.36595849778E+02  0.64689895611E+02  0.00000000000E+00 0. -1.
</event>
<event>
 7    1  0.6485470E-006  0.5222663E+02  0.7818608E-02  0.1494923E+00
          2   -1    0    0  502    0  0.00000000000E+00  0.00000000000E+00  0.23209554462E+04  0.23209554462E+04  0.00000000000E+00 0. -1.
          1   -1    0    0  501    0 -0.00000000000E+00 -0.00000000000E+00 -0.65375047598E+03  0.65375047598E+03  0.00000000000E+00 0. -1.
         25    2    1    2    0    0  0.67526286352E+02  0.49440433748E+02  0.21510866736E+03  0.26249419078E+03  0.12500922199E+03 0.  0.
          2    1    1    2  501    0 -0.46658602319E+02 -0.23159577883E+02 -0.62884555539E+03  0.63099930567E+03  0.00000000000E+00 0. -1.
          1    1    1    2  502    0 -0.20867684033E+02 -0.26280855865E+02  0.20809418582E+04  0.20812124257E+04  0.00000000000E+00 0. -1.
         22    1    3    3    0    0  0.12308138249E+02  0.90080512258E+01 -0.15618676330E+02  0.21830673474E+02  0.00000000000E+00 0. -1.
         22    1    3    3    0    0  0.55218148103E+02  0.40432382522E+02  0.23072734369E+03  0.24066351730E+03  0.00000000000E+00 0. -1.
</event>
<event>
 7    1  0.6485470E-006  0.6588085E+02  0.7818608E-02  0.1420593E+00
          2   -1    0    0  502    0  0.00000000000E+00  0.00000000000E+00  0.71404902919E+03  0.71404902919E+03  0.00000000000E+00 0. -1.
          1   -1    0    0  501    0 -0.00000000000E+00 -0.00000000000E+00 -0.23089515263E+04  0.23089515263E+04  0.00000000000E+00 0. -1.
         25    2    1    2    0    0  0.99833021020E+02 -0.16112948381E+02  0.23140470782E+03  0.28178362988E+03  0.12501046388E+03 0.  0.
          2    1    1    2  501    0 -0.57174616985E+02  0.32624001578E+02 -0.22821428083E+04  0.22830919955E+04  0.00000000000E+00 0. -1.
          1    1    1    2  502    0 -0.42658404035E+02 -0.16511053197E+02  0.45583560337E+03  0.45812493014E+03  0.00000000000E+00 0. -1.
         22    1    3    3    0    0  0.43690072497E+02 -0.56954962337E+02  0.18456769228E+03  0.19803515648E+03  0.00000000000E+00 0. -1.
         22    1    3    3    0    0  0.56142948523E+02  0.40842013956E+02  0.46837015537E+02  0.83748473402E+02  0.00000000000E+00 0. -1.
</event>
<event>
 7    1  0.6485470E-006  0.1302985E+03  0.7818608E-02  0.1234591E+00
          2   -1    0    0  502    0  0.00000000000E+00  0.00000000000E+00  0.14114155135E+04  0.14114155135E+04  0.00000000000E+00 0. -1.
          1   -1    0    0  501    0 -0.00000000000E+00 -0.00000000000E+00 -0.11890923135E+03  0.11890923135E+03  0.00000000000E+00 0. -1.
         25    2    1    2    0    0 -0.11896322318E+02  0.26395083407E+02  0.94466311032E+02  0.15933321219E+03  0.12499986270E+03 0.  0.
          2    1    1    2  501    0 -0.10848644509E+03  0.52463590149E+02 -0.38190251294E+02  0.12641294378E+03  0.00000000000E+00 0. -1.
          1    1    1    2  502    0  0.12038276741E+03 -0.78858673556E+02  0.12362302224E+04  0.12445785889E+04  0.00000000000E+00 0. -1.
         22    1    3    3    0    0  0.48462186898E+02 -0.17288828969E+02  0.23979810987E+02  0.56767230873E+02  0.00000000000E+00 0. -1.
         22    1    3    3    0    0 -0.60358509216E+02  0.43683912376E+02  0.70486500045E+02  0.10256598132E+03  0.00000000000E+00 0. -1.
</event>
<event>
 7    1  0.6485470E-006  0.1612059E+03  0.7818608E-02  0.1263236E+00
          2   -1    0    0  502    0  0.00000000000E+00  0.00000000000E+00  0.12022206139E+04  0.12022206139E+04  0.00000000000E+00 0. -1.
          1   -1    0    0  501    0 -0.00000000000E+00 -0.00000000000E+00 -0.15662588234E+03  0.15662588234E+03  0.00000000000E+00 0. -1.
         25    2    1    2    0    0  0.90694573106E+02 -0.79528324025E+02  0.90673715760E+03  0.92322689822E+03  0.12500149078E+03 0.  0.
          2    1    1    2  501    0 -0.15664394322E+03  0.47940824686E+02 -0.95841716689E+02  0.18979273505E+03  0.00000000000E+00 0. -1.
          1    1    1    2  502    0  0.65949370111E+02  0.31587499339E+02  0.23469929059E+03  0.24582686293E+03  0.00000000000E+00 0. -1.
         22    1    3    3    0    0 -0.19902333382E+02 -0.23052077829E+02  0.41267206143E+03  0.41379431056E+03  0.00000000000E+00 0.  1.
         22    1    3    3    0    0  0.11059690649E+03 -0.56476246196E+02  0.49406509617E+03  0.50943258766E+03  0.00000000000E+00 0.  1.
</event>
<event>
 7    1  0.6485470E-006  0.5031690E+02  0.7818608E-02  0.1460438E+00
          2   -1    0    0  502    0  0.00000000000E+00  0.00000000000E+00  0.15678222436E+04  0.15678222436E+04  0.00000000000E+00 0. -1.
          1   -1    0    0  501    0 -0.00000000000E+00 -0.00000000000E+00 -0.26341624924E+04  0.26341624924E+04  0.00000000000E+00 0. -1.
         25    2    1    2    0    0 -0.28514324956E+02 -0.88675035115E+02 -0.10209333001E+03  0.18634421031E+03  0.12499915241E+03 0.  0.
          2    1    1    2  501    0  0.74326276086E+01  0.49513417565E+02 -0.24893678156E+04  0.24898712705E+04  0.00000000000E+00 0. -1.
          1    1    1    2  502    0  0.21081697348E+02  0.39161617551E+02  0.15251208968E+04  0.15257692552E+04  0.00000000000E+00 0. -1.
         22    1    3    3    0    0  0.10596732642E+02 -0.65220092773E+02  0.85922029419E+01  0.66631653105E+02  0.00000000000E+00 0. -1.
         22    1    3    3    0    0 -0.39111057599E+02 -0.23454942342E+02 -0.11068553296E+03  0.11971255721E+03  0.00000000000E+00 0. -1.
</event>
<event>
 7    1  0.6485470E-006  0.1096469E+03  0.7818608E-02  0.1282229E+00
          2   -1    0    0  502    0  0.00000000000E+00  0.00000000000E+00  0.79999825210E+03  0.79999825210E+03  0.00000000000E+00 0. -1.
          1   -1    0    0  501    0 -0.00000000000E+00 -0.00000000000E+00 -0.63279747008E+03  0.63279747008E+03  0.00000000000E+00 0. -1.
         25    2    1    2    0    0 -0.51409393103E+02 -0.46535805272E+02 -0.31555305354E+03  0.34642098868E+03  0.12500105971E+03 0.  0.
          2    1    1    2  501    0 -0.56676353412E+02  0.69323466456E+02 -0.29115974756E+03  0.30461771228E+03  0.00000000000E+00 0. -1.
          1    1    1    2  502    0  0.10808574651E+03 -0.22787661185E+02  0.77391358311E+03  0.78175702122E+03  0.00000000000E+00 0. -1.
         22    1    3    3    0    0  0.39028483258E+02 -0.30671154014E+02 -0.87873593744E+02  0.10092428187E+03  0.00000000000E+00 0.  1.
         22    1    3    3    0    0 -0.90437876361E+02 -0.15864651258E+02 -0.22767945980E+03  0.24549670681E+03  0.00000000000E+00 0.  1.
</event>
<event>
 7    1  0.6485470E-006  0.8700569E+02  0.7818608E-02  0.1409436E+00
          2   -1    0    0  502    0  0.00000000000E+00  0.00000000000E+00  0.25272376510E+04  0.25272376510E+04  0.00000000000E+00 0. -1.
          1   -1    0    0  501    0 -0.00000000000E+00 -0.00000000000E+00 -0.80296127406E+02  0.80296127406E+02  0.00000000000E+00 0. -1.
         25    2    1    2    0    0  0.41194049378E+01 -0.52742641561E+02  0.28137247589E+03  0.31240177290E+03  0.12500256714E+03 0.  0.
          2    1    1    2  501    0 -0.60775865206E+01  0.90454546591E+02 -0.32821707396E+02  0.96416941112E+02  0.00000000000E+00 0. -1.
          1    1    1    2  502    0  0.19581815828E+01 -0.37711905030E+02  0.21983907551E+04  0.21987150644E+04  0.00000000000E+00 0. -1.
         22    1    3    3    0    0  0.19444860786E+02  0.28063210844E+02  0.17309242997E+03  0.17642742339E+03  0.00000000000E+00 0. -1.
         22    1    3    3    0    0 -0.15325455848E+02 -0.80805852405E+02  0.10828004592E+03  0.13597434951E+03  0.00000000000E+00 0. -1.
</event>
<event>
 7    1  0.6485470E-006  0.7638834E+02  0.7818608E-02  0.1448464E+00
          2   -1    0    0  502    0  0.00000000000E+00  0.00000000000E+00  0.97171285650E+03  0.97171285650E+03  0.00000000000E+00 0. -1.
          1   -1    0    0  501    0 -0.00000000000E+00 -0.00000000000E+00 -0.54608565354E+03  0.54608565354E+03  0.00000000000E+00 0. -1.
         25    2    1    2    0    0  0.20064437195E+02 -0.49645676564E+02  0.34286326529E+02  0.14024522818E+03  0.12500358794E+03 0.  0.
          2    1    1    2  501    0 -0.50889680846E+02  0.58161661279E+02 -0.48978632446E+03  0.49584592576E+03  0.00000000000E+00 0. -1.
          1    1    1    2  502    0  0.30825243652E+02 -0.85159847149E+01  0.88112720090E+03  0.88170735610E+03  0.00000000000E+00 0. -1.
         22    1    3    3    0    0 -0.15760023492E+02 -0.81408501077E+02  0.28489542187E+01  0.82968903381E+02  0.00000000000E+00 0. -1.
         22    1    3    3    0    0  0.35824460686E+02  0.31762824513E+02  0.31437372310E+02  0.57276324797E+02  0.00000000000E+00 0. -1.
</event>
<event>
 7    1  0.6485470E-006  0.1273403E+03  0.7818608E-02  0.1315147E+00
          2   -1    0    0  502    0  0.00000000000E+00  0.00000000000E+00  0.19443080114E+03  0.19443080114E+03  0.00000000000E+00 0. -1.
          1   -1    0    0  501    0 -0.00000000000E+00 -0.00000000000E+00 -0.14537447260E+04  0.14537447260E+04  0.00000000000E+00 0. -1.
         25    2    1    2    0    0 -0.14332369031E+02 -0.10257607322E+03 -0.16501942408E+03  0.23148071536E+03  0.12499857463E+03 0.  0.
          2    1    1    2  501    0 -0.37912524389E+02  0.12507520595E+03 -0.12469526076E+04  0.12537830643E+04  0.00000000000E+00 0. -1.
          1    1    1    2  502    0  0.52244893420E+02 -0.22499132730E+02  0.15265810688E+03  0.16291174745E+03  0.00000000000E+00 0. -1.
         22    1    3    3    0    0 -0.51174927871E+02 -0.67023999342E+02 -0.34198700357E+02  0.90998026553E+02  0.00000000000E+00 0.  1.
         22    1    3    3    0    0  0.36842558841E+02 -0.35552073877E+02 -0.13082072373E+03  0.14048268881E+03  0.00000000000E+00 0.  1.
</event>
<event>
 7    1  0.6485470E-006  0.4733665E+02  0.7818608E-02  0.1479120E+00
          2   -1    0    0  502    0  0.00000000000E+00  0.00000000000E+00  0.93122498835E+03  0.93122498835E+03  0.00000000000E+00 0. -1.
          1   -1    0    0  501    0 -0.00000000000E+00 -0.00000000000E+00 -0.79539968174E+03  0.79539968174E+03  0.00000000000E+00 0. -1.
         25    2    1    2    0    0 -0.66530025713E+02 -0.31016459280E+02  0.62212343024E+03  0.63878887367E+03  0.12500159040E+03 0.  0.
          2    1    1    2  501    0  0.22920051646E+02  0.34419692747E+02 -0.78492937123E+03  0.78601791444E+03  0.00000000000E+00 0. -1.
          1    1    1    2  502    0  0.43609974067E+02 -0.34032334669E+01  0.29863124759E+03  0.30181788196E+03  0.00000000000E+00 0. -1.
         22    1    3    3    0    0 -0.37964105898E+02 -0.75300089476E+02  0.27351539363E+03  0.28622027770E+03  0.00000000000E+00 0. -1.
         22    1    3    3    0    0 -0.28565919815E+02  0.44283630197E+02  0.34860803661E+03  0.35256859597E+03  0.00000000000E+00 0. -1.
</event>
<event>
 7    1  0.6485470E-006  0.6545832E+02  0.7818608E-02  0.1393082E+00
          2   -1    0    0  502    0  0.00000000000E+00  0.00000000000E+00  0.73327547093E+03  0.73327547093E+03  0.00000000000E+00 0. -1.
          1   -1    0    0  501    0 -0.00000000000E+00 -0.00000000000E+00 -0.13473402551E+04  0.13473402551E+04  0.00000000000E+00 0. -1.
         25    2    1    2    0    0  0.11801054070E+03  0.29150038458E+02  0.79057573679E+02  0.19144491215E+03  0.12499936789E+03 0.  0.
          2    1    1    2  501    0 -0.61368103186E+02 -0.21787495177E+02 -0.12889588237E+04  0.12906028003E+04  0.00000000000E+00 0. -1.
          1    1    1    2  502    0 -0.56642437514E+02 -0.73625432808E+01  0.59583646586E+03  0.59856801353E+03  0.00000000000E+00 0. -1.
         22    1    3    3    0    0  0.75300241564E+02  0.74750822363E+02  0.72750567110E+02  0.12864857884E+03  0.00000000000E+00 0.  1.
         22    1    3    3    0    0  0.42710299136E+02 -0.45600783905E+02  0.63070065685E+01  0.62796333308E+02  0.00000000000E+00 0.  1.
</event>
<event>
 7    1  0.6485470E-006  0.3992821E+02  0.7818608E-02  0.1615026E+00
          2   -1    0    0  502    0  0.00000000000E+00  0.00000000000E+00  0.24921946354E+03  0.24921946354E+03  0.00000000000E+00 0. -1.
          1   -1    0    0  501    0 -0.00000000000E+00 -0.00000000000E+00 -0.88532388145E+03  0.88532388145E+03  0.00000000000E+00 0. -1.
         25    2    1    2    0    0  0.13208200510E+02 -0.18397940943E+02  0.25750690048E+02  0.12963302517E+03  0.12501472868E+03 0.  0.
          2    1    1    2  501    0 -0.53668289875E+00 -0.20367020428E+02 -0.83083183014E+03  0.83108160461E+03  0.00000000000E+00 0. -1.
          1    1    1    2  502    0 -0.12671517611E+02  0.38764961371E+02  0.16897672219E+03  0.17382871521E+03  0.00000000000E+00 0. -1.
         22    1    3    3    0    0  0.45927552779E+02  0.30056044093E+02  0.41812927911E+02  0.69000194430E+02  0.00000000000E+00 0. -1.
         22    1    3    3    0    0 -0.32719352270E+02 -0.48453985036E+02 -0.16062237864E+02  0.60632830744E+02  0.00000000000E+00 0. -1.
</event>
<event>
 7    1  0.6485470E-006  0.1824508E+03  0.7818608E-02  0.1212137E+00
          2   -1    0    0  502    0  0.00000000000E+00  0.00000000000E+00  0.11537115783E+04  0.11537115783E+04  0.00000000000E+00 0. -1.
          1   -1    0    0  501    0 -0.00000000000E+00 -0.00000000000E+00 -0.86055394395E+03  0.86055394395E+03  0.00000000000E+00 0. -1.
         25    2    1    2    0    0 -0.63225708376E+01 -0.18135594497E+02  0.31842066382E+03  0.34261469948E+03  0.12499695382E+03 0.  0.
          2    1    1    2  501    0 -0.27192003088E+02 -0.18041307748E+03 -0.82603822746E+03  0.84594765605E+03  0.00000000000E+00 0. -1.
          1    1    1    2  502    0  0.33514573925E+02  0.19854867198E+03  0.80077519802E+03  0.82570316674E+03  0.00000000000E+00 0. -1.
         22    1    3    3    0    0 -0.50370381310E+02 -0.50476915244E+02  0.16489699990E+03  0.17965554503E+03  0.00000000000E+00 0. -1.
         22    1    3    3    0    0  0.44047810473E+02  0.32341320747E+02  0.15352366392E+03  0.16295915445E+03  0.00000000000E+00 0. -1.
</event>
<event>
 7    1  0.6485470E-006  0.5254971E+02  0.7818608E-02  0.1480201E+00
          2   -1    0    0  502    0  0.00000000000E+00  0.00000000000E+00  0.14782154561E+04  0.14782154561E+04  0.00000000000E+00 0. -1.
          1   -1    0    0  501    0 -0.00000000000E+00 -0.00000000000E+00 -0.57127696412E+02  0.57127696412E+02  0.00000000000E+00 0. -1.
         25    2    1    2    0    0  0.18598771066E+02 -0.63633489540E+02  0.10842209693E+03  0.17825840495E+03  0.12500229021E+03 0.  0.
          2    1    1    2  501    0 -0.39469370902E+02  0.33121843851E+02  0.82934199586E+01  0.52188778431E+02  0.00000000000E+00 0. -1.
          1    1    1    2  502    0  0.20870599836E+02  0.30511645689E+02  0.13043722429E+04  0.13048959692E+04  0.00000000000E+00 0. -1.
         22    1    3    3    0    0 -0.48385740259E+02 -0.16160534292E+02  0.13526126621E+02  0.52775930408E+02  0.00000000000E+00 0.  1.
         22    1    3    3    0    0  0.66984511325E+02 -0.47472955247E+02  0.94895970305E+02  0.12548247454E+03  0.00000000000E+00 0.  1.
</event>
<event>
 7    1  0.6485470E-006  0.2963210E+02  0.7818608E-02  0.1633640E+00
          2   -1    0    0  502    0  0.00000000000E+00  0.00000000000E+00  0.29662252946E+03  0.29662252946E+03  0.00000000000E+00 0. -1.
          1   -1    0    0  501    0 -0.00000000000E+00 -0.00000000000E+00 -0.44535003130E+03  0.44535003130E+03  0.00000000000E+00 0. -1.
         25    2    1    2    0    0  0.33536064086E+02 -0.82968049936E+01 -0.20025041728E+03  0.23857904764E+03  0.12500491105E+03 0.  0.
          2    1    1    2  501    0 -0.15770241220E+02  0.25354457023E+02 -0.22439787590E+03  0.22637569593E+03  0.00000000000E+00 0. -1.
          1    1    1    2  502    0 -0.17765822867E+02 -0.17057652030E+02  0.27592079133E+03  0.27701781719E+03  0.00000000000E+00 0. -1.
         22    1    3    3    0    0  0.62064670469E+02 -0.46247381861E+02 -0.15369580419E+03  0.17208499026E+03  0.00000000000E+00 0.  1.
         22    1    3    3    0    0 -0.28528606383E+02  0.37950576867E+02 -0.46554613092E+02  0.66494057380E+02  0.00000000000E+00 0.  1.
</event>
<event>
 7    1  0.6485470E-006  0.9299524E+02  0.7818608E-02  0.1328116E+00
          2   -1    0    0  502    0  0.00000000000E+00  0.00000000000E+00  0.58481130701E+03  0.58481130701E+03  0.00000000000E+00 0. -1.
          1   -1    0    0  501    0 -0.00000000000E+00 -0.00000000000E+00 -0.79061895814E+03  0.79061895814E+03  0.00000000000E+00 0. -1.
         25    2    1    2    0    0 -0.61792231864E+02 -0.74408692955E+01 -0.76941566791E+02  0.15943028814E+03  0.12499746246E+03 0.  0.
          2    1    1    2  501    0  0.59471808295E+02  0.76792750976E+02 -0.66668494411E+03  0.67372311619E+03  0.00000000000E+00 0. -1.
          1    1    1    2  502    0  0.23204235687E+01 -0.69351881681E+02  0.53781885977E+03  0.54227686082E+03  0.00000000000E+00 0. -1.
         22    1    3    3    0    0 -0.79709140687E+02  0.25252266027E+02 -0.87153199096E+02  0.12077625661E+03  0.00000000000E+00 0. -1.
         22    1    3    3    0    0  0.17916908823E+02 -0.32693135323E+02  0.10211632305E+02  0.38654031527E+02  0.00000000000E+00 0. -1.
</event>
<event>
 7    1  0.6485470E-006  0.1176300E+03  0.7818608E-02  0.1414100E+00
          2   -1    0    0  502    0  0.00000000000E+00  0.00000000000E+00  0.15001279639E+03  0.15001279639E+03  0.00000000000E+00 0. -1.
          1   -1    0    0  501    0 -0.00000000000E+00 -0.00000000000E+00 -0.13377246297E+04  0.13377246297E+04  0.00000000000E+00 0. -1.
         25    2    1    2    0    0  0.16604154467E+01  0.12414816160E+03 -0.66798616545E+03  0.69083102790E+03  0.12500587537E+03 0.  0.
          2    1    1    2  501    0 -0.25362396930E+02 -0.90710057016E+01 -0.63307640075E+03  0.63364916437E+03  0.00000000000E+00 0. -1.
          1    1    1    2  502    0  0.23701981483E+02 -0.11507715590E+03  0.11335073291E+03  0.16325723380E+03  0.00000000000E+00 0. -1.
         22    1    3    3    0    0 -0.50838870003E+02  0.12835482181E+02 -0.17280279021E+03  0.18058279157E+03  0.00000000000E+00 0. -1.
         22    1    3    3    0    0  0.52499285449E+02  0.11131267942E+03 -0.49518337524E+03  0.51024823634E+03  0.00000000000E+00 0. -1.
</event>
<event>
 7    1  0.6485470E-006  0.2566091E+02  0.7818608E-02  0.1687693E+00
          2   -1    0    0  502    0  0.00000000000E+00  0.00000000000E+00  0.40800624407E+03  0.40800624407E+03  0.00000000000E+00 0. -1.
          1   -1    0    0  501    0 -0.00000000000E+00 -0.00000000000E+00 -0.10775019495E+03  0.10775019495E+03  0.00000000000E+00 0. -1.
         25    2    1    2    0    0  0.45940958682E+02 -0.63876637965E+01  0.12694261043E+03  0.18409710202E+03  0.12500377074E+03 0.  0.
          2    1    1    2  501    0 -0.25270275296E+02  0.24493045127E+01 -0.76684138647E+02  0.80777738432E+02  0.00000000000E+00 0. -1.
          1    1    1    2  502    0 -0.20670683387E+02  0.39383592838E+01  0.24999757734E+03  0.25088159857E+03  0.00000000000E+00 0. -1.
         22    1    3    3    0    0  0.47369674842E+02 -0.40005715226E+02  0.13581506402E+03  0.14929861004E+03  0.00000000000E+00 0. -1.
         22    1    3    3    0    0 -0.14287161596E+01  0.33618051430E+02 -0.88724535902E+01  0.34798491986E+02  0.00000000000E+00 0. -1.
</event>
<event>
 7    1  0.6485470E-006  0.8966600E+02  0.7818608E-02  0.1391019E+00
          2   -1    0    0  502    0  0.00000000000E+00  0.00000000000E+00  0.46995505677E+03  0.46995505677E+03  0.00000000000E+00 0. -1.
          1   -1    0    0  501    0 -0.00000000000E+00 -0.00000000000E+00 -0.97943175496E+03  0.97943175496E+03  0.00000000000E+00 0. -1.
         25    2    1    2    0    0  0.59961672853E+02  0.47455693786E+02 -0.36802112167E+03  0.39612055105E+03  0.12499799953E+03 0.  0.
          2    1    1    2  501    0 -0.41244978712E+02 -0.85493079484E+02 -0.59259007206E+03  0.60014432299E+03  0.00000000000E+00 0. -1.
          1    1    1    2  502    0 -0.18716694140E+02  0.38037385698E+02  0.45113449554E+03  0.45312193769E+03  0.00000000000E+00 0. -1.
         22    1    3    3    0    0  0.94662871428E+02  0.13224444812E+02 -0.27439295397E+03  0.29056400045E+03  0.00000000000E+00 0. -1.
         22    1    3    3    0    0 -0.34701198575E+02  0.34231248974E+02 -0.93628167703E+02  0.10555655061E+03  0.00000000000E+00 0. -1.
</event>
<event>
 7    1  0.6485470E-006  0.8258882E+02  0.7818608E-02  0.1475401E+00
          2   -1    0    0  502    0  0.00000000000E+00  0.00000000000E+00  0.10482590555E+04  0.10482590555E+04  0.00000000000E+00 0. -1.
          1   -1    0    0  501    0 -0.00000000000E+00 -0.00000000000E+00 -0.11892571373E+04  0.11892571373E+04  0.00000000000E+00 0. -1.
         25    2    1    2    0    0 -0.21518644792E+02  0.10060685648E+03  0.64370477322E+03  0.66374982640E+03  0.12499282113E+03 0.  0.
          2    1    1    2  501    0  0.54073123834E+01 -0.82369046259E+02 -0.11774129597E+04  0.11803030020E+04  0.00000000000E+00 0. -1.
          1    1    1    2  502    0  0.16111332409E+02 -0.18237810221E+02  0.39271010474E+03  0.39346336439E+03  0.00000000000E+00 0. -1.
         22    1    3    3    0    0  0.35158919601E+02  0.70937505578E+02  0.19424928150E+03  0.20976430270E+03  0.00000000000E+00 0. -1.
         22    1    3    3    0    0 -0.56677564393E+02  0.29669350902E+02  0.44945549172E+03  0.45398552370E+03  0.00000000000E+00 0. -1.
</event>
<event>
 7    1  0.6485470E-006  0.1174143E+03  0.7818608E-02  0.1353693E+00
          2   -1    0    0  502    0  0.00000000000E+00  0.00000000000E+00  0.32262938001E+03  0.32262938001E+03  0.00000000000E+00 0. -1.
          1   -1    0    0  501    0 -0.00000000000E+00 -0.00000000000E+00 -0.14560547151E+04  0.14560547151E+04  0.00000000000E+00 0. -1.
         25    2    1    2    0    0  0.46461493504E+02  0.14242643926E+03 -0.62742233036E+02  0.20495228018E+03  0.12499955347E+03 0.  0.
          2    1    1    2  501    0 -0.11361056221E+02 -0.11581175562E+03 -0.13176948093E+04  0.13228231351E+04  0.00000000000E+00 0. -1.
          1    1    1    2  502    0 -0.35100437283E+02 -0.26614683635E+02  0.24701170725E+03  0.25090867981E+03  0.00000000000E+00 0. -1.
         22    1    3    3    0    0  0.32615165868E+02 -0.97283318119E+00 -0.50820209175E+02  0.60393618120E+02  0.00000000000E+00 0.  1.
         22    1    3    3    0    0  0.13846327636E+02  0.14339927244E+03 -0.11922023861E+02  0.14455866206E+03  0.00000000000E+00 0.  1.
</event>
<event>
 7    1  0.6485470E-006  0.9115501E+02  0.7818608E-02  0.1322485E+00
          2   -1    0    0  502    0  0.00000000000E+00  0.00000000000E+00  0.10359279011E+04  0.10359279011E+04  0.00000000000E+00 0. -1.
          1   -1    0    0  501    0 -0.00000000000E+00 -0.00000000000E+00 -0.16849958986E+03  0.16849958986E+03  0.00000000000E+00 0. -1.
         25    2    1    2    0    0  0.13962142117E+03 -0.63431034208E+02  0.37576756922E+03  0.42466960231E+03  0.12500147077E+03 0.  0.
          2    1    1    2  501    0 -0.65252328518E+02  0.60873404579E+02 -0.12778403926E+03  0.15585954720E+03  0.00000000000E+00 0. -1.
          1    1    1    2  502    0 -0.74369092649E+02  0.25576296295E+01  0.61944478133E+03  0.62389834150E+03  0.00000000000E+00 0. -1.
         22    1    3    3    0    0  0.74828185068E+02  0.26511829050E+02  0.10157373725E+03  0.12891609077E+03  0.00000000000E+00 0. -1.
         22    1    3    3    0    0  0.64793236100E+02 -0.89942863258E+02  0.27419383197E+03  0.29575351154E+03  0.00000000000E+00 0. -1.
</event>
<event>
 7    1  0.6485470E-006  0.1012933E+03  0.7818608E-02  0.1341735E+00
          2   -1    0    0  502    0  0.00000000000E+00  0.00000000000E+00  0.52012371089E+03  0.52012371089E+03  0.00000000000E+00 0. -1.
          1   -1    0    0  501    0 -0.00000000000E+00 -0.00000000000E+00 -0.36639641148E+03  0.36639641148E+03  0.00000000000E+00 0. -1.
         25    2    1    2    0    0 -0.51587627272E+02 -0.57509188203E+02 -0.52164864706E+00  0.14697512654E+03  0.12503129884E+03 0.  0.
          2    1    1    2  501    0 -0.48624808961E+02  0.28898906450E+02 -0.28374243205E+03  0.28932557195E+03  0.00000000000E+00 0. -1.
          1    1    1    2  502    0  0.10021243623E+03  0.28610281752E+02  0.43799138010E+03  0.45021942388E+03  0.00000000000E+00 0. -1.
         22    1    3    3    0    0 -0.91345596386E+01 -0.16749222436E+02  0.59758160245E+02  0.62729692713E+02  0.00000000000E+00 0. -1.
         22    1    3    3    0    0 -0.42453067633E+02 -0.40759965767E+02 -0.60279808892E+02  0.84245433828E+02  0.00000000000E+00 0. -1.
</event>
<event>
 7    1  0.6485470E-006  0.4843177E+02  0.7818608E-02  0.1482786E+00
          2   -1    0    0  502    0  0.00000000000E+00  0.00000000000E+00  0.69416336186E+03  0.69416336186E+03  0.00000000000E+00 0. -1.
          1   -1    0    0  501    0 -0.00000000000E+00 -0.00000000000E+00 -0.36797690125E+03  0.36797690125E+03  0.00000000000E+00 0. -1.
         25    2    1    2    0    0 -0.64492104447E+02 -0.54774228219E+02  0.10201233198E+03  0.18218132459E+03  0.12499628611E+03 0.  0.
          2    1    1    2  501    0  0.42684810845E+02  0.21976585498E+02 -0.32542649197E+03  0.32894887910E+03  0.00000000000E+00 0. -1.
          1    1    1    2  502    0  0.21807293602E+02  0.32797642721E+02  0.54960062060E+03  0.55101005942E+03  0.00000000000E+00 0. -1.
         22    1    3    3    0    0 -0.81837940706E+02 -0.75448717451E+01  0.17811025165E+02  0.84092843014E+02  0.00000000000E+00 0.  1.
         22    1    3    3    0    0  0.17345836259E+02 -0.47229356474E+02  0.84201306816E+02  0.98088481576E+02  0.00000000000E+00 0.  1.
</event>
<event>
 7    1  0.6485470E-006  0.1141720E+03  0.7818608E-02  0.1359985E+00
          2   -1    0    0  502    0  0.00000000000E+00  0.00000000000E+00  0.15969764976E+04  0.15969764976E+04  0.00000000000E+00 0. -1.
          1   -1    0    0  501    0 -0.00000000000E+00 -0.00000000000E+00 -0.61520474915E+03  0.61520474915E+03  0.00000000000E+00 0. -1.
         25    2    1    2    0    0  0.97305530093E+02  0.10784743254E+03  0.78815931014E+03  0.81112260218E+03  0.12500137084E+03 0.  0.
          2    1    1    2  501    0 -0.36966686781E+02 -0.21880208175E+02 -0.59949248324E+03  0.60102954744E+03  0.00000000000E+00 0. -1.
          1    1    1    2  502    0 -0.60338843312E+02 -0.85967224362E+02  0.79310492150E+03  0.80002909709E+03  0.00000000000E+00 0. -1.
         22    1    3    3    0    0  0.66320156796E+02  0.97624487187E+02  0.30771415789E+03  0.32957079158E+03  0.00000000000E+00 0.  1.
         22    1    3    3    0    0  0.30985373297E+02  0.10222945350E+02  0.48044515226E+03  0.48155181060E+03  0.00000000000E+00 0.  1.
</event>
<event>
 7    1  0.6485470E-006  0.7734191E+02  0.7818608E-02  0.1424797E+00
          2   -1    0    0  502    0  0.00000000000E+00  0.00000000000E+00  0.10591824839E+03  0.10591824839E+03  0.00000000000E+00 0. -1.
          1   -1    0    0  501    0 -0.00000000000E+00 -0.00000000000E+00 -0.89130426254E+03  0.89130426254E+03  0.00000000000E+00 0. -1.
         25    2    1    2    0    0 -0.22171479774E+02 -0.46797550874E+02 -0.47269553110E+03  0.49167843444E+03  0.12500012996E+03 0.  0.
          2    1    1    2  501    0 -0.37522597861E+02 -0.39392407493E+01 -0.39214846567E+03  0.39395923913E+03  0.00000000000E+00 0. -1.
          1    1    1    2  502    0  0.59694077636E+02  0.50736791623E+02  0.79457982613E+02  0.11158483737E+03  0.00000000000E+00 0. -1.
         22    1    3    3    0    0  0.46778414726E+02 -0.29094712205E+02 -0.12243763058E+03  0.13425980688E+03  0.00000000000E+00 0. -1.
         22    1    3    3    0    0 -0.68949894500E+02 -0.17702838668E+02 -0.35025790052E+03  0.35741862756E+03  0.00000000000E+00 0. -1.
</event>
<event>
 7    1  0.6485470E-006  0.5266873E+02  0.7818608E-02  0.1469880E+00
          2   -1    0    0  502    0  0.00000000000E+00  0.00000000000E+00  0.10834291170E+04  0.10834291170E+04  0.00000000000E+00 0. -1.
          1   -1    0    0  501    0 -0.00000000000E+00 -0.00000000000E+00 -0.28416883509E+03  0.28416883509E+03  0.00000000000E+00 0. -1.
         25    2    1    2    0    0 -0.84192196979E+02  0.21949198082E+02 -0.13695586267E+03  0.20482082002E+03  0.12499826666E+03 0.  0.
          2    1    1    2  501    0  0.45029760778E+02 -0.15483651374E+02 -0.10788267621E+03  0.11792410543E+03  0.00000000000E+00 0. -1.
          1    1    1    2  502    0  0.39162436201E+02 -0.64655467074E+01  0.10440988208E+04  0.10448530267E+04  0.00000000000E+00 0. -1.
         22    1    3    3    0    0 -0.87966856368E+02 -0.21408230179E+02 -0.13331126456E+03  0.16114705519E+03  0.00000000000E+00 0. -1.
         22    1    3    3    0    0  0.37746593888E+01  0.43357428260E+02 -0.36445981053E+01  0.43673764828E+02  0.00000000000E+00 0. -1.
</event>
<event>
 7    1  0.6485470E-006  0.4854566E+02  0.7818608E-02  0.1535238E+00
          2   -1    0    0  502    0  0.00000000000E+00  0.00000000000E+00  0.20578700561E+04  0.20578700561E+04  0.00000000000E+00 0. -1.
          1   -1    0    0  501    0 -0.00000000000E+00 -0.00000000000E+00 -0.81799908832E+03  0.81799908832E+03  0.00000000000E+00 0. -1.
         25    2    1    2    0    0  0.57468455648E+02 -0.45318326017E+02 -0.49144047096E+03  0.51234267446E+03  0.12499962203E+03 0.  0.
          2    1    1    2  501    0 -0.26295536221E+02  0.81209523061E+01 -0.31522027117E+03  0.31641938064E+03  0.00000000000E+00 0. -1.
          1    1    1    2  502    0 -0.31172919428E+02  0.37197373711E+02  0.20465317099E+04  0.20471070893E+04  0.00000000000E+00 0. -1.
         22    1    3    3    0    0  0.44091831464E+02 -0.75889689334E+02 -0.45306382231E+03  0.46148690300E+03  0.00000000000E+00 0.  1.
         22    1    3    3    0    0  0.13376624184E+02  0.30571363317E+02 -0.38376648647E+02  0.50855771462E+02  0.00000000000E+00 0.  1.
</event>
<event>
 7    1  0.6485470E-006  0.6766405E+02  0.7818608E-02  0.1450158E+00
          2   -1    0    0  502    0  0.00000000000E+00  0.00000000000E+00  0.13698912406E+04  0.13698912406E+04  0.00000000000E+00 0. -1.
          1   -1    0    0  501    0 -0.00000000000E+00 -0.00000000000E+00 -0.12436824896E+03  0.12436824896E+03  0.00000000000E+00 0. -1.
         25    2    1    2    0    0 -0.41459977050E+02 -0.25345112937E+01  0.15228872897E+03  0.20134495902E+03  0.12499032805E+03 0.  0.
          2    1    1    2  501    0  0.62121969964E+02  0.31592583403E+02 -0.87375598187E+02  0.11176638867E+03  0.00000000000E+00 0. -1.
          1    1    1    2  502    0 -0.20661992915E+02 -0.29058072109E+02  0.11806098609E+04  0.11811481419E+04  0.00000000000E+00 0. -1.
         22    1    3    3    0    0 -0.33698620221E+01 -0.72838005849E+01 -0.21718684827E+02  0.23154070735E+02  0.00000000000E+00 0. -1.
         22    1    3    3    0    0 -0.38090115027E+02  0.47492892912E+01  0.17400741379E+03  0.17819088828E+03  0.00000000000E+00 0. -1.
</event>
<event>
 7    1  0.6485470E-006  0.3764346E+03  0.7818608E-02  0.1222892E+00
          2   -1    0    0  502    0  0.00000000000E+00  0.00000000000E+00  0.12208924743E+04  0.12208924743E+04  0.00000000000E+00 0. -1.
          1   -1    0    0  501    0 -0.00000000000E+00 -0.00000000000E+00 -0.95069901741E+03  0.95069901741E+03  0.00000000000E+00 0. -1.
         25    2    1    2    0    0 -0.25804076225E+03  0.32915717177E+03  0.19993921330E+03  0.48013559197E+03  0.12500007583E+03 0.  0.
          2    1    1    2  501    0  0.22760421902E+03 -0.29324016374E+03 -0.76740785349E+03  0.85247186918E+03  0.00000000000E+00 0. -1.
          1    1    1    2  502    0  0.30436543226E+02 -0.35917008029E+02  0.83766209706E+03  0.83898403053E+03  0.00000000000E+00 0. -1.
         22    1    3    3    0    0 -0.20451251123E+03  0.21731054779E+03  0.83103353048E+02  0.30976670047E+03  0.00000000000E+00 0. -1.
         22    1    3    3    0    0 -0.53528251017E+02  0.11184662398E+03  0.11683586025E+03  0.17036889150E+03  0.00000000000E+00 0. -1.
</event>
<event>
 7    1  0.6485470E-006  0.1383983E+03  0.7818608E-02  0.1395766E+00
          2   -1    0    0  502    0  0.00000000000E+00  0.00000000000E+00  0.10318818191E+04  0.10318818191E+04  0.00000000000E+00 0. -1.
          1   -1    0    0  501    0 -0.00000000000E+00 -0.00000000000E+00 -0.24399218270E+03  0.24399218270E+03  0.00000000000E+00 0. -1.
         25    2    1    2    0    0 -0.75649417300E+02 -0.12391277316E+03  0.46050846823E+03  0.49876907533E+03  0.12500132600E+03 0.  0.
          2    1    1    2  501    0  0.91995734665E+02  0.10312750780E+03 -0.20326794021E+03  0.24579738318E+03  0.00000000000E+00 0. -1.
          1    1    1    2  502    0 -0.16346317365E+02  0.20785265363E+02  0.53064910836E+03  0.53130754329E+03  0.00000000000E+00 0. -1.
         22    1    3    3    0    0 -0.33239527498E+02 -0.16947683211E+02  0.17777291667E+02  0.41329435679E+02  0.00000000000E+00 0. -1.
         22    1    3    3    0    0 -0.42409889802E+02 -0.10696508995E+03  0.44273117656E+03  0.45743963965E+03  0.00000000000E+00 0. -1.
</event>
<event>
 7    1  0.6485470E-006  0.4849710E+02  0.7818608E-02  0.1550281E+00
          2   -1    0    0  502    0  0.00000000000E+00  0.00000000000E+00  0.62613976259E+03  0.62613976259E+03  0.00000000000E+00 0. -1.
          1   -1    0    0  501    0 -0.00000000000E+00 -0.00000000000E+00 -0.34868649801E+02  0.34868649801E+02  0.00000000000E+00 0. -1.
         25    2    1    2    0    0  0.68882067916E+02  0.15199827855E+02  0.55478940993E+03  0.57304891329E+03  0.12497197130E+03 0.  0.
          2    1    1    2  501    0 -0.47450697463E+02 -0.23510153425E+01  0.50073514884E+01  0.47772058065E+02  0.00000000000E+00 0. -1.
          1    1    1    2  502    0 -0.21431370453E+02 -0.12848812513E+02  0.31474351372E+02  0.40187441032E+02  0.00000000000E+00 0. -1.
         22    1    3    3    0    0  0.78136613549E+02 -0.25982050982E+02  0.48136325491E+03  0.48835538343E+03  0.00000000000E+00 0. -1.
         22    1    3    3    0    0 -0.92545456330E+01  0.41181878838E+02  0.73426155023E+02  0.84693529865E+02  0.00000000000E+00 0. -1.
</event>
<event>
 7    1  0.6485470E-006  0.9886633E+02  0.7818608E-02  0.1365708E+00
          2   -1    0    0  502    0  0.00000000000E+00  0.00000000000E+00  0.15097675679E+03  0.15097675679E+03  0.00000000000E+00 0. -1.
          1   -1    0    0  501    0 -0.00000000000E+00 -0.00000000000E+00 -0.85720992817E+03  0.85720992817E+03  0.00000000000E+00 0. -1.
         25    2    1    2    0    0  0.40866862888E+02 -0.45962479805E+02 -0.23989976812E+03  0.27741616770E+03  0.12500072530E+03 0.  0.
          2    1    1    2  501    0 -0.71558293727E+02  0.81936429394E+02 -0.58917910256E+03  0.59913786624E+03  0.00000000000E+00 0. -1.
          1    1    1    2  502    0  0.30691430839E+02 -0.35973949589E+02  0.12284569931E+03  0.13163265102E+03  0.00000000000E+00 0. -1.
         22    1    3    3    0    0 -0.39723822614E+02 -0.13844757810E+02 -0.34356018879E+02  0.54313860432E+02  0.00000000000E+00 0. -1.
         22    1    3    3    0    0  0.80590685502E+02 -0.32117721995E+02 -0.20554374924E+03  0.22310230727E+03  0.00000000000E+00 0. -1.
</event>
<event>
 7    1  0.6485470E-006  0.1000886E+03  0.7818608E-02  0.1331549E+00
          2   -1    0    0  502    0  0.00000000000E+00  0.00000000000E+00  0.17662868429E+04  0.17662868429E+04  0.00000000000E+00 0. -1.
          1   -1    0    0  501    0 -0.00000000000E+00 -0.00000000000E+00 -0.61291610939E+03  0.61291610939E+03  0.00000000000E+00 0. -1.
         25    2    1    2    0    0 -0.11839237139E+03 -0.51535210273E+02  0.12207391249E+03  0.21725527547E+03  0.12500073244E+03 0.  0.
          2    1    1    2  501    0  0.56611169419E+02 -0.26613014698E+02 -0.56203459395E+03  0.56550505025E+03  0.00000000000E+00 0. -1.
          1    1    1    2  502    0  0.61781201968E+02  0.78148224971E+02  0.15933314150E+04  0.15964426266E+04  0.00000000000E+00 0. -1.
         22    1    3    3    0    0 -0.82131392754E+02 -0.25403605311E+02 -0.13569941210E+01  0.85981104154E+02  0.00000000000E+00 0. -1.
         22    1    3    3    0    0 -0.36260978634E+02 -0.26131604962E+02  0.12343090661E+03  0.13127417132E+03  0.00000000000E+00 0. -1.
</event>
<event>
 7    1  0.6485470E-006  0.7673885E+02  0.7818608E-02  0.1451507E+00
          2   -1    0    0  502    0  0.00000000000E+00  0.00000000000E+00  0.19323170902E+03  0.19323170902E+03  0.00000000000E+00 0. -1.
          1   -1    0    0  501    0 -0.00000000000E+00 -0.00000000000E+00 -0.10854333566E+04  0.10854333566E+04  0.00000000000E+00 0. -1.
         25    2    1    2    0    0  0.55033829404E+02 -0.82364886731E+01  0.68431151908E+02  0.15298475695E+03  0.12499980473E+03 0.  0.
          2    1    1    2  501    0 -0.75542903398E+02 -0.15180319080E+02 -0.10387425057E+04  0.10415964504E+04  0.00000000000E+00 0. -1.
          1    1    1    2  502    0  0.20509073995E+02  0.23416807753E+02  0.78109706258E+02  0.84083858220E+02  0.00000000000E+00 0. -1.
         22    1    3    3    0    0 -0.76209466746E+01 -0.41316916450E+02  0.70537670036E+02  0.82101944601E+02  0.00000000000E+00 0.  1.
         22    1    3    3    0    0  0.62654776078E+02  0.33080427777E+02 -0.21065181280E+01  0.70882812345E+02  0.00000000000E+00 0.  1.
</event>
<event>
 7    1  0.6485470E-006  0.1395445E+03  0.7818608E-02  0.1281137E+00
          2   -1    0    0  502    0  0.00000000000E+00  0.00000000000E+00  0.16781779791E+04  0.16781779791E+04  0.00000000000E+00 0. -1.
          1   -1    0    0  501    0 -0.00000000000E+00 -0.00000000000E+00 -0.32163813091E+03  0.32163813091E+03  0.00000000000E+00 0. -1.
         25    2    1    2    0    0  0.93683932450E+02  0.18570064194E+03  0.57519181380E+03  0.62429430315E+03  0.12504537843E+03 0.  0.
          2    1    1    2  501    0 -0.54073016854E+02 -0.12666745026E+03 -0.27987135663E+03  0.31192388554E+03  0.00000000000E+00 0. -1.
          1    1    1    2  502    0 -0.39610915597E+02 -0.59033191673E+02  0.10612193910E+04  0.10635979213E+04  0.00000000000E+00 0. -1.
         22    1    3    3    0    0  0.90497340641E+02  0.50899533147E+02  0.30757606488E+03  0.32462835185E+03  0.00000000000E+00 0. -1.
         22    1    3    3    0    0  0.31865918099E+01  0.13480110879E+03  0.26761574893E+03  0.29966595131E+03  0.00000000000E+00 0. -1.
</event>
<event>
 7    1  0.6485470E-006  0.2865005E+03  0.7818608E-02  0.1163528E+00
          2   -1    0    0  502    0  0.00000000000E+00  0.00000000000E+00  0.20523332835E+04  0.20523332835E+04  0.00000000000E+00 0. -1.
          1   -1    0    0  501    0 -0.00000000000E+00 -0.00000000000E+00 -0.11800278549E+03  0.11800278549E+03  0.00000000000E+00 0. -1.
         25    2    1    2    0    0  0.18068456588E+03 -0.11581957573E+03  0.11424928611E+04  0.11691777291E+04  0.12500215270E+03 0.  0.
          2    1    1    2  501    0 -0.29282334576E+03  0.76597618293E+02  0.13113878869E+03  0.32986374286E+03  0.00000000000E+00 0. -1.
          1    1    1    2  502    0  0.11213877988E+03  0.39221957437E+02  0.66069884825E+03  0.67129459701E+03  0.00000000000E+00 0. -1.
         22    1    3    3    0    0  0.19726114754E+03 -0.89134060448E+02  0.10204676429E+04  0.10431735480E+04  0.00000000000E+00 0. -1.
         22    1    3    3    0    0 -0.16576581657E+02 -0.26685515281E+02  0.12202521816E+03  0.12600418109E+03  0.00000000000E+00 0. -1.
</event>
<event>
 7    1  0.6485470E-006  0.4972099E+02  0.7818608E-02  0.1458141E+00
          2   -1    0    0  502    0  0.00000000000E+00  0.00000000000E+00  0.22466493140E+03  0.22466493140E+03  0.00000000000E+00 0. -1.
          1   -1    0    0  501    0 -0.00000000000E+00 -0.00000000000E+00 -0.17574776629E+04  0.17574776629E+04  0.00000000000E+00 0. -1.
         25    2    1    2    0    0 -0.40420169462E+02  0.85812683677E+02 -0.61077394142E+01  0.15703448177E+03  0.12499966882E+03 0.  0.
          2    1    1    2  501    0  0.16997270164E+02 -0.46494203727E+02 -0.16720219387E+04  0.16727546089E+04  0.00000000000E+00 0. -1.
          1    1    1    2  502    0  0.23422899298E+02 -0.39318479951E+02  0.14531694663E+03  0.15235350359E+03  0.00000000000E+00 0. -1.
         22    1    3    3    0    0 -0.70353721337E+02  0.78353094194E+02  0.30047812424E+02  0.10950673270E+03  0.00000000000E+00 0.  1.
         22    1    3    3    0    0  0.29933551875E+02  0.74595894838E+01 -0.36155551838E+02  0.47527749072E+02  0.00000000000E+00 0.  1.
</event>
<event>
 7    1  0.6485470E-006  0.3585244E+02  0.7818608E-02  0.1549846E+00
          2   -1    0    0  502    0  0.00000000000E+00  0.00000000000E+00  0.53304646643E+03  0.53304646643E+03  0.00000000000E+00 0. -1.
          1   -1    0    0  501    0 -0.00000000000E+00 -0.00000000000E+00 -0.50373788701E+03  0.50373788701E+03  0.00000000000E+00 0. -1.
         25    2    1    2    0    0  0.62245400578E+02  0.28269509683E+02 -0.28210215980E+03  0.31603464088E+03  0.12499044203E+03 0.  0.
          2    1    1    2  501    0 -0.33033070294E+02 -0.75964779631E+01 -0.20263974862E+03  0.20545500221E+03  0.00000000000E+00 0. -1.
          1    1    1    2  502    0 -0.29212330284E+02 -0.20673031720E+02  0.51405048784E+03  0.51529471036E+03  0.00000000000E+00 0. -1.
         22    1    3    3    0    0  0.54019631875E+02 -0.32848183657E+02 -0.21842274178E+03  0.22738869348E+03  0.00000000000E+00 0. -1.
         22    1    3    3    0    0  0.82257687029E+01  0.61117693340E+02 -0.63679418022E+02  0.88645947395E+02  0.00000000000E+00 0. -1.
</event>
<event>
 7    1  0.6485470E-006  0.3857783E+02  0.7818608E-02  0.1529503E+00
          2   -1    0    0  502    0  0.00000000000E+00  0.00000000000E+00  0.25579017407E+03  0.25579017407E+03  0.00000000000E+00 0. -1.
          1   -1    0    0  501    0 -0.00000000000E+00 -0.00000000000E+00 -0.11504731060E+03  0.11504731060E+03  0.00000000000E+00 0. -1.
         25    2    1    2    0    0 -0.25693020739E+02  0.55638147343E+01 -0.11475271300E+02  0.12825787734E+03  0.12500925525E+03 0.  0.
          2    1    1    2  501    0  0.15515580273E+02  0.32443832526E+02 -0.35648126704E+02  0.50637184338E+02  0.00000000000E+00 0. -1.
          1    1    1    2  502    0  0.10177440465E+02 -0.38007647260E+02  0.18786626147E+03  0.19194242299E+03  0.00000000000E+00 0. -1.
         22    1    3    3    0    0 -0.69227737823E+02  0.30159478431E+02 -0.18551363430E+02  0.77757487796E+02  0.00000000000E+00 0.  1.
         22    1    3    3    0    0  0.43534717084E+02 -0.24595663696E+02  0.70760921297E+01  0.50500389544E+02  0.00000000000E+00 0.  1.
</event>
<event>
 7    1  0.6485470E-006  0.5989544E+02  0.7818608E-02  0.1411635E+00
          2   -1    0    0  502    0  0.00000000000E+00  0.00000000000E+00  0.87274497758E+03  0.87274497758E+03  0.00000000000E+00 0. -1.
          1   -1    0    0  501    0 -0.00000000000E+00 -0.00000000000E+00 -0.23109023078E+04  0.23109023078E+04  0.00000000000E+00 0. -1.
         25    2    1    2    0    0  0.11968805472E+02 -0.72533585055E+02  0.56176159300E+03  0.58017730653E+03  0.12500098549E+03 0.  0.
          2    1    1    2  501    0 -0.48413489081E+02  0.23744228601E+02 -0.22983026586E+04  0.22989351372E+04  0.00000000000E+00 0. -1.
          1    1    1    2  502    0  0.36444683609E+02  0.48789356454E+02  0.29838373538E+03  0.30453484169E+03  0.00000000000E+00 0. -1.
         22    1    3    3    0    0  0.58442358759E+02 -0.43066678676E+01  0.30133171457E+03  0.30697696802E+03  0.00000000000E+00 0.  1.
         22    1    3    3    0    0 -0.46473553287E+02 -0.68226917188E+02  0.26042987843E+03  0.27320033851E+03  0.00000000000E+00 0.  1.
</event>
<event>
 7    1  0.6485470E-006  0.5490267E+02  0.7818608E-02  0.1423005E+00
          2   -1    0    0  502    0  0.00000000000E+00  0.00000000000E+00  0.24098794597E+03  0.24098794597E+03  0.00000000000E+00 0. -1.
          1   -1    0    0  501    0 -0.00000000000E+00 -0.00000000000E+00 -0.30770368074E+04  0.30770368074E+04  0.00000000000E+00 0. -1.
         25    2    1    2    0    0  0.48756916408E+01 -0.21891970449E+01 -0.70366720733E+02  0.14354943185E+03  0.12500559605E+03 0.  0.
          2    1    1    2  501    0  0.61214994872E+01  0.54937524889E+02 -0.29662656526E+04  0.29667806670E+04  0.00000000000E+00 0. -1.
          1    1    1    2  502    0 -0.10997191128E+02 -0.52748327844E+02  0.20058351185E+03  0.20769465455E+03  0.00000000000E+00 0. -1.
         22    1    3    3    0    0  0.45493154505E+01  0.12292022569E+02  0.34905598431E+02  0.37285263734E+02  0.00000000000E+00 0. -1.
         22    1    3    3    0    0  0.32637619024E+00 -0.14481219614E+02 -0.10527231916E+03  0.10626416811E+03  0.00000000000E+00 0. -1.
</event>
<event>
 7    1  0.6485470E-006  0.1840110E+03  0.7818608E-02  0.1359084E+00
          2   -1    0    0  502    0  0.00000000000E+00  0.00000000000E+00  0.19909021940E+04  0.19909021940E+04  0.00000000000E+00 0. -1.
          1   -1    0    0  501    0 -0.00000000000E+00 -0.00000000000E+00 -0.38493219254E+03  0.38493219254E+03  0.00000000000E+00 0. -1.
         25    2    1    2    0    0  0.10611287201E+03  0.13525564566E+03  0.31104858741E+03  0.37673482936E+03  0.12499550644E+03 0.  0.
          2    1    1    2  501    0 -0.94067287540E+02 -0.15925850054E+03 -0.32767819242E+03  0.37627771974E+03  0.00000000000E+00 0. -1.
          1    1    1    2  502    0 -0.12045584468E+02  0.24002854879E+02  0.16225996065E+04  0.16228218374E+04  0.00000000000E+00 0. -1.
         22    1    3    3    0    0  0.88145152283E+02  0.19742479430E+02  0.17811783646E+03  0.19971303671E+03  0.00000000000E+00 0. -1.
         22    1    3    3    0    0  0.17967719725E+02  0.11551316623E+03  0.13293075095E+03  0.17702179265E+03  0.00000000000E+00 0. -1.
</event>
<event>
 7    1  0.6485470E-006  0.7381765E+02  0.7818608E-02  0.1376053E+00
          2   -1    0    0  502    0  0.00000000000E+00  0.00000000000E+00  0.23705068867E+04  0.23705068867E+04  0.00000000000E+00 0. -1.
          1   -1    0    0  501    0 -0.00000000000E+00 -0.00000000000E+00 -0.20719582994E+03  0.20719582994E+03  0.00000000000E+00 0. -1.
         25    2    1    2    0    0 -0.34567656089E+02 -0.10197005805E+03 -0.88399179223E+02  0.18716877265E+03  0.12499967592E+03 0.  0.
          2    1    1    2  501    0 -0.21463338400E+02  0.54035671843E+02 -0.56543348359E+02  0.81102891258E+02  0.00000000000E+00 0. -1.
          1    1    1    2  502    0  0.56030994488E+02  0.47934386211E+02  0.23082535843E+04  0.23094310527E+04  0.00000000000E+00 0. -1.
         22    1    3    3    0    0  0.23519744838E+01 -0.45122356864E+02  0.27506163095E+02  0.52897522448E+02  0.00000000000E+00 0. -1.
         22    1    3    3    0    0 -0.36919630573E+02 -0.56847701189E+02 -0.11590534232E+03  0.13427125020E+03  0.00000000000E+00 0. -1.
</event>
<event>
 7    1  0.6485470E-006  0.4845409E+02  0.7818608E-02  0.1475549E+00
          2   -1    0    0  502    0  0.00000000000E+00  0.00000000000E+00  0.25139297196E+03  0.25139297196E+03  0.00000000000E+00 0. -1.
          1   -1    0    0  501    0 -0.00000000000E+00 -0.00000000000E+00 -0.12342813519E+04  0.12342813519E+04  0.00000000000E+00 0. -1.
         25    2    1    2    0    0  0.10714814586E+02  0.19063419240E+02 -0.10468884928E+03  0.16450871387E+03  0.12500056228E+03 0.  0.
          2    1    1    2  501    0  0.38361052044E+02 -0.15661086548E+02 -0.10965548541E+04  0.10973374084E+04  0.00000000000E+00 0. -1.
          1    1    1    2  502    0 -0.49075866631E+02 -0.34023326929E+01  0.21835532341E+03  0.22382820156E+03  0.00000000000E+00 0. -1.
         22    1    3    3    0    0 -0.45615190469E+02 -0.20274529312E+02 -0.16205410177E+02  0.52482544330E+02  0.00000000000E+00 0. -1.
         22    1    3    3    0    0  0.56330005056E+02  0.39337948552E+02 -0.88483439103E+02  0.11202616954E+03  0.00000000000E+00 0. -1.
</event>
<event>
 7    1  0.6485470E-006  0.6216395E+02  0.7818608E-02  0.1539324E+00
          2   -1    0    0  502    0  0.00000000000E+00  0.00000000000E+00  0.32790978830E+03  0.32790978830E+03  0.00000000000E+00 0. -1.
          1   -1    0    0  501    0 -0.00000000000E+00 -0.00000000000E+00 -0.70464431349E+03  0.70464431349E+03  0.00000000000E+00 0. -1.
         25    2    1    2    0    0 -0.31157959715E+02  0.76380871840E+02 -0.66796835401E+02  0.16398778375E+03  0.12500127985E+03 0.  0.
          2    1    1    2  501    0  0.79821833136E+01 -0.19343644918E+02 -0.58567031369E+03  0.58604403263E+03  0.00000000000E+00 0. -1.
          1    1    1    2  502    0  0.23175776401E+02 -0.57037226923E+02  0.27573262390E+03  0.28252228540E+03  0.00000000000E+00 0. -1.
         22    1    3    3    0    0  0.38056138509E+02  0.28806891729E+02  0.11575925139E+02  0.49113223597E+02  0.00000000000E+00 0. -1.
         22    1    3    3    0    0 -0.69214098223E+02  0.47573980112E+02 -0.78372760539E+02  0.11487456016E+03  0.00000000000E+00 0. -1.
</event>
<event>
 7    1  0.6485470E-006  0.1268741E+03  0.7818608E-02  0.1419257E+00
          2   -1    0    0  502    0  0.00000000000E+00  0.00000000000E+00  0.19743116646E+04  0.19743116646E+04  0.00000000000E+00 0. -1.
          1   -1    0    0  501    0 -0.00000000000E+00 -0.00000000000E+00 -0.24558551127E+03  0.24558551127E+03  0.00000000000E+00 0. -1.
         25    2    1    2    0    0 -0.10605253683E+03 -0.31936990122E+02  0.53801341039E+02  0.17546191235E+03  0.12500074592E+03 0.  0.
          2    1    1    2  501    0 -0.94407182857E+01 -0.22062548261E+02 -0.18178057676E+03  0.18335774127E+03  0.00000000000E+00 0. -1.
          1    1    1    2  502    0  0.11549325512E+03  0.53999538383E+02  0.18567053890E+04  0.18610775222E+04  0.00000000000E+00 0. -1.
         22    1    3    3    0    0 -0.67450752789E+02 -0.41776597583E+02 -0.28275785026E+02  0.84228309826E+02  0.00000000000E+00 0. -1.
         22    1    3    3    0    0 -0.38601784046E+02  0.98396074609E+01  0.82077126065E+02  0.91233602525E+02  0.00000000000E+00 0. -1.
</event>
<event>
 7    1  0.6485470E-006  0.1038615E+03  0.7818608E-02  0.1322975E+00
          2   -1    0    0  502    0  0.00000000000E+00  0.00000000000E+00  0.37264962004E+03  0.37264962004E+03  0.00000000000E+00 0. -1.
          1   -1    0    0  501    0 -0.00000000000E+00 -0.00000000000E+00 -0.10892406604E+04  0.10892406604E+04  0.00000000000E+00 0. -1.
         25    2    1    2    0    0  0.34359904908E+02  0.88724722194E+02 -0.11055332724E+03  0.19209122691E+03  0.12499728756E+03 0.  0.
          2    1    1    2  501    0  0.55564373317E+02 -0.33776768198E+02 -0.92838670762E+03  0.93066113518E+03  0.00000000000E+00 0. -1.
          1    1    1    2  502    0 -0.89924278225E+02 -0.54947953996E+02  0.32234899445E+03  0.33913791839E+03  0.00000000000E+00 0. -1.
         22    1    3    3    0    0  0.12194498959E+01  0.10390032552E+03 -0.11543884758E+03  0.15531546038E+03  0.00000000000E+00 0. -1.
         22    1    3    3    0    0  0.33140455012E+02 -0.15175603326E+02  0.48855203481E+01  0.36775766529E+02  0.00000000000E+00 0. -1.
</event>
<event>
 7    1  0.6485470E-006  0.6958327E+02  0.7818608E-02  0.1411346E+00
          2   -1    0    0  502    0  0.00000000000E+00  0.00000000000E+00  0.23403737782E+04  0.23403737782E+04  0.00000000000E+00 0. -1.
          1   -1    0    0  501    0 -0.00000000000E+00 -0.00000000000E+00 -0.30023478222E+03  0.30023478222E+03  0.00000000000E+00 0. -1.
         25    2    1    2    0    0  0.11448262424E+02  0.47336888684E+02  0.28844283810E+00  0.13415127166E+03  0.12499854697E+03 0.  0.
          2    1    1    2  501    0 -0.57791161443E+02 -0.43286449987E+02 -0.22747241077E+03  0.23865714478E+03  0.00000000000E+00 0. -1.
          1    1    1    2  502    0  0.46342899018E+02 -0.40504386970E+01  0.22673229639E+04  0.22678001440E+04  0.00000000000E+00 0. -1.
         22    1    3    3    0    0 -0.98251095877E+00  0.84588077354E+02 -0.24055219055E+02  0.87947494120E+02  0.00000000000E+00 0.  1.
         22    1    3    3    0    0  0.12430773383E+02 -0.37251188670E+02  0.24343661893E+02  0.46203777536E+02  0.00000000000E+00 0.  1.
</event>
<event>
 7    1  0.6485470E-006  0.4516680E+02  0.7818608E-02  0.1584676E+00
          2   -1    0    0  502    0  0.00000000000E+00  0.00000000000E+00  0.22471008116E+04  0.22471008116E+04  0.00000000000E+00 0. -1.
          1   -1    0    0  501    0 -0.00000000000E+00 -0.00000000000E+00 -0.14508427141E+03  0.14508427141E+03  0.00000000000E+00 0. -1.
         25    2    1    2    0    0 -0.30482660481E+02  0.10156745125E+02  0.12384039137E+04  0.12451116323E+04  0.12500548569E+03 0.  0.
          2    1    1    2  501    0 -0.17150557957E+02 -0.13164090578E+02 -0.14033565449E+03  0.14199130551E+03  0.00000000000E+00 0. -1.
          1    1    1    2  502    0  0.47633218437E+02  0.30073454533E+01  0.10039482810E+04  0.10050821452E+04  0.00000000000E+00 0. -1.
         22    1    3    3    0    0  0.30209866251E+02  0.22876788243E+02  0.91685900197E+03  0.91764176722E+03  0.00000000000E+00 0. -1.
         22    1    3    3    0    0 -0.60692526731E+02 -0.12720043118E+02  0.32154491171E+03  0.32746986509E+03  0.00000000000E+00 0. -1.
</event>
<event>
 7    1  0.6485470E-006  0.8851444E+02  0.7818608E-02  0.1401867E+00
          2   -1    0    0  502    0  0.00000000000E+00  0.00000000000E+00  0.16735944315E+04  0.16735944315E+04  0.00000000000E+00 0. -1.
          1   -1    0    0  501    0 -0.00000000000E+00 -0.00000000000E+00 -0.30519550078E+03  0.30519550078E+03  0.00000000000E+00 0. -1.
         25    2    1    2    0    0  0.58443724382E+02 -0.50496912213E+01 -0.55585821786E+02  0.14884613984E+03  0.12499688580E+03 0.  0.
          2    1    1    2  501    0  0.27364780265E+02  0.28335482227E+02 -0.19984063543E+03  0.20368605824E+03  0.00000000000E+00 0. -1.
          1    1    1    2  502    0 -0.85808504647E+02 -0.23285791006E+02  0.16238253880E+04  0.16262577342E+04  0.00000000000E+00 0. -1.
         22    1    3    3    0    0  0.33029698873E+02  0.10624900448E+02 -0.93995983377E+02  0.10019528137E+03  0.00000000000E+00 0.  1.
         22    1    3    3    0    0  0.25414025509E+02 -0.15674591669E+02  0.38410161590E+02  0.48650858471E+02  0.00000000000E+00 0.  1.
</event>
<event>
 7    1  0.6485470E-006  0.4727520E+02  0.7818608E-02  0.1492430E+00
          2   -1    0    0  502    0  0.00000000000E+00  0.00000000000E+00  0.84829787925E+03  0.84829787925E+03  0.00000000000E+00 0. -1.
          1   -1    0    0  501    0 -0.00000000000E+00 -0.00000000000E+00 -0.21009203709E+03  0.21009203709E+03  0.00000000000E+00 0. -1.
         25    2    1    2    0    0  0.15788934130E+02 -0.49044649454E+02 -0.86678203790E+01  0.13547638164E+03  0.12499620311E+03 0.  0.
          2    1    1    2  501    0 -0.42396295709E+02  0.22309297853E+02 -0.13339330566E+03  0.14173540368E+03  0.00000000000E+00 0. -1.
          1    1    1    2  502    0  0.26607361579E+02  0.26735351601E+02  0.78026696820E+03  0.78117813102E+03  0.00000000000E+00 0. -1.
         22    1    3    3    0    0 -0.15534056055E+01 -0.65042372842E+02  0.43471113717E+02  0.78247434857E+02  0.00000000000E+00 0. -1.
         22    1    3    3    0    0  0.17342339735E+02  0.15997723388E+02 -0.52138934096E+02  0.57228946782E+02  0.00000000000E+00 0. -1.
</event>
<event>
 7    1  0.6485470E-006  0.5555185E+02  0.7818608E-02  0.1523892E+00
          2   -1    0    0  502    0  0.00000000000E+00  0.00000000000E+00  0.87025093605E+03  0.87025093605E+03  0.00000000000E+00 0. -1.
          1   -1    0    0  501    0 -0.00000000000E+00 -0.00000000000E+00 -0.15245330647E+03  0.15245330647E+03  0.00000000000E+00 0. -1.
         25    2    1    2    0    0 -0.22114805445E+02  0.61750671058E+02 -0.91077132396E+02  0.16798568247E+03  0.12498774129E+03 0.  0.
          2    1    1    2  501    0 -0.15413227687E+02 -0.20839899671E+02 -0.14347598831E+02  0.29626383483E+02  0.00000000000E+00 0. -1.
          1    1    1    2  502    0  0.37528033132E+02 -0.40910771387E+02  0.82322236081E+03  0.82509217656E+03  0.00000000000E+00 0. -1.
         22    1    3    3    0    0  0.34628979075E+02  0.74934915786E+02 -0.47549129141E+02  0.95264513213E+02  0.00000000000E+00 0. -1.
         22    1    3    3    0    0 -0.56743784519E+02 -0.13184244728E+02 -0.43528003255E+02  0.72721169256E+02  0.00000000000E+00 0. -1.
</event>
<event>
 7    1  0.6485470E-006  0.2465897E+03  0.7818608E-02  0.1202496E+00
          2   -1    0    0  502    0  0.00000000000E+00  0.00000000000E+00  0.22724293913E+04  0.22724293913E+04  0.00000000000E+00 0. -1.
          1   -1    0    0  501    0 -0.00000000000E+00 -0.00000000000E+00 -0.92455001928E+03  0.92455001928E+03  0.00000000000E+00 0. -1.
         25    2    1    2    0    0  0.22069502782E+03 -0.73668025898E+02 -0.24139219572E+03  0.35781261584E+03  0.12500561010E+03 0.  0.
          2    1    1    2  501    0 -0.30216922157E+02 -0.83997070515E+02 -0.61481106521E+03  0.62125776949E+03  0.00000000000E+00 0. -1.
          1    1    1    2  502    0 -0.19047810566E+03  0.15766509641E+03  0.22040826330E+04  0.22179090253E+04  0.00000000000E+00 0. -1.
         22    1    3    3    0    0  0.14456558613E+02  0.13918624114E+02  0.88350179957E+01  0.21926644229E+02  0.00000000000E+00 0.  1.
         22    1    3    3    0    0  0.20623846921E+03 -0.87586650012E+02 -0.25022721372E+03  0.33588597161E+03  0.00000000000E+00 0.  1.
</event>
<event>
 7    1  0.6485470E-006  0.3644491E+02  0.7818608E-02  0.1536661E+00
          2   -1    0    0  502    0  0.00000000000E+00  0.00000000000E+00  0.74563050704E+02  0.74563050704E+02  0.00000000000E+00 0. -1.
          1   -1    0    0  501    0 -0.00000000000E+00 -0.00000000000E+00 -0.18517937735E+04  0.18517937735E+04  0.00000000000E+00 0. -1.
         25    2    1    2    0    0  0.36206212155E+02 -0.96843161963E+01 -0.24452540713E+03  0.27716919587E+03  0.12500165050E+03 0.  0.
          2    1    1    2  501    0 -0.26516811474E+02 -0.25318154038E+02 -0.15850517630E+04  0.15854757146E+04  0.00000000000E+00 0. -1.
          1    1    1    2  502    0 -0.96894006810E+01  0.35002470234E+02  0.52346447311E+02  0.63711913754E+02  0.00000000000E+00 0. -1.
         22    1    3    3    0    0  0.13324411200E+02 -0.54610163199E+02 -0.20651568257E+03  0.21402929007E+03  0.00000000000E+00 0.  1.
         22    1    3    3    0    0  0.22881800954E+02  0.44925847002E+02 -0.38009724562E+02  0.63139905805E+02  0.00000000000E+00 0.  1.
</event>
<event>
 7    1  0.6485470E-006  0.4102236E+02  0.7818608E-02  0.1611144E+00
          2   -1    0    0  502    0  0.00000000000E+00  0.00000000000E+00  0.84276464319E+02  0.84276464319E+02  0.00000000000E+00 0. -1.
          1   -1    0    0  501    0 -0.00000000000E+00 -0.00000000000E+00 -0.17452394844E+04  0.17452394844E+04  0.00000000000E+00 0. -1.
         25    2    1    2    0    0  0.42266838924E+02 -0.38177185205E+02 -0.78302535063E+03  0.79498278168E+03  0.12499976116E+03 0.  0.
          2    1    1    2  501    0 -0.19914280799E+02  0.38934220252E+01 -0.95077154547E+03  0.95098804881E+03  0.00000000000E+00 0. -1.
          1    1    1    2  502    0 -0.22352558125E+02  0.34283763179E+02  0.72833876055E+02  0.83545118191E+02  0.00000000000E+00 0. -1.
         22    1    3    3    0    0  0.64196059090E+02 -0.21828935719E+01 -0.19206445666E+03  0.20252075088E+03  0.00000000000E+00 0.  1.
         22    1    3    3    0    0 -0.21929220166E+02 -0.35994291633E+02 -0.59096089398E+03  0.59246203080E+03  0.00000000000E+00 0.  1.
</event>
<event>
 7    1  0.6485470E-006  0.6640565E+02  0.7818608E-02  0.1404791E+00
          2   -1    0    0  502    0  0.00000000000E+00  0.00000000000E+00  0.46381580489E+04  0.46381580489E+04  0.00000000000E+00 0. -1.
          1   -1    0    0  501    0 -0.00000000000E+00 -0.00000000000E+00 -0.54995172988E+03  0.54995172988E+03  0.00000000000E+00 0. -1.
         25    2    1    2    0    0  0.55070093990E+02  0.49017385956E+01  0.10268839734E+02  0.13706571535E+03  0.12499927585E+03 0.  0.
          2    1    1    2  501    0 -0.15826872943E+02  0.48809369782E+02 -0.48495738679E+03  0.48766434305E+03  0.00000000000E+00 0. -1.
          1    1    1    2  502    0 -0.39243221048E+02 -0.53711108378E+02  0.45628948661E+04  0.45633797204E+04  0.00000000000E+00 0. -1.
         22    1    3    3    0    0  0.12903959057E+02 -0.28788750961E+02 -0.48128280918E+02  0.57546813686E+02  0.00000000000E+00 0. -1.
         22    1    3    3    0    0  0.42166134933E+02  0.33690489557E+02  0.58397120652E+02  0.79518901667E+02  0.00000000000E+00 0. -1.
</event>
<event>
 7    1  0.6485470E-006  0.9346485E+02  0.7818608E-02  0.1350458E+00
          2   -1    0    0  502    0  0.00000000000E+00  0.00000000000E+00  0.31699376434E+04  0.31699376434E+04  0.00000000000E+00 0. -1.
          1   -1    0    0  501    0 -0.00000000000E+00 -0.00000000000E+00 -0.17908695624E+03  0.17908695624E+03  0.00000000000E+00 0. -1.
         25    2    1    2    0    0 -0.12752842071E+03 -0.80677608133E+01  0.46929506502E+02  0.18482014754E+03  0.12501008561E+03 0.  0.
          2    1    1    2  501    0  0.40079189522E+02  0.40361707284E+02 -0.10203693854E+03  0.11682014242E+03  0.00000000000E+00 0. -1.
          1    1    1    2  502    0  0.87449231184E+02 -0.32293946470E+02  0.30459581192E+04  0.30473843097E+04  0.00000000000E+00 0. -1.
         22    1    3    3    0    0 -0.10056435183E+03  0.46630089880E+02  0.52862865557E+01  0.11097521780E+03  0.00000000000E+00 0.  1.
         22    1    3    3    0    0 -0.26964068881E+02 -0.54697850693E+02  0.41643219946E+02  0.73844929741E+02  0.00000000000E+00 0.  1.
</event>
<event>
 7    1  0.6485470E-006  0.1014353E+03  0.7818608E-02  0.1286982E+00
          2   -1    0    0  502    0  0.00000000000E+00  0.00000000000E+00  0.25321496284E+04  0.25321496284E+04  0.00000000000E+00 0. -1.
          1   -1    0    0  501    0 -0.00000000000E+00 -0.00000000000E+00 -0.38227494605E+03  0.38227494605E+03  0.00000000000E+00 0. -1.
         25    2    1    2    0    0  0.19210423141E+02  0.12611105945E+02 -0.35748991373E+02  0.13202467974E+03  0.12499778129E+03 0.  0.
          2    1    1    2  501    0  0.73805266318E+02 -0.55829158047E+02 -0.29012535196E+03  0.30452722714E+03  0.00000000000E+00 0. -1.
          1    1    1    2  502    0 -0.93015689460E+02  0.43218052102E+02  0.24757490257E+04  0.24778726675E+04  0.00000000000E+00 0. -1.
         22    1    3    3    0    0  0.30150455068E+02 -0.25644157170E+02 -0.69413175056E+02  0.79905329041E+02  0.00000000000E+00 0.  1.
         22    1    3    3    0    0 -0.10940031927E+02  0.38255263115E+02  0.33664183683E+02  0.52119350702E+02  0.00000000000E+00 0.  1.
</event>
<event>
 7    1  0.6485470E-006  0.9031422E+02  0.7818608E-02  0.1391959E+00
          2   -1    0    0  502    0  0.00000000000E+00  0.00000000000E+00  0.28126115959E+04  0.28126115959E+04  0.00000000000E+00 0. -1.
          1   -1    0    0  501    0 -0.00000000000E+00 -0.00000000000E+00 -0.12913856218E+02  0.12913856218E+02  0.00000000000E+00 0. -1.
         25    2    1    2    0    0  0.11931148004E+03 -0.20208744404E+01  0.14236823618E+04  0.14341326744E+04  0.12500298989E+03 0.  0.
          2    1    1    2  501    0 -0.38076942842E+02 -0.17178722807E+02  0.62181738073E+02  0.74910150469E+02  0.00000000000E+00 0. -1.
          1    1    1    2  502    0 -0.81234537193E+02  0.19199597247E+02  0.13138336399E+04  0.13164826273E+04  0.00000000000E+00 0. -1.
         22    1    3    3    0    0  0.12169517728E+03 -0.36722464703E+02  0.85612133191E+03  0.86550678249E+03  0.00000000000E+00 0. -1.
         22    1    3    3    0    0 -0.23836972480E+01  0.34701590263E+02  0.56756102986E+03  0.56862589194E+03  0.00000000000E+00 0. -1.
</event>
<event>
 7    1  0.6485470E-006  0.1335066E+03  0.7818608E-02  0.1313210E+00
          2   -1    0    0  502    0  0.00000000000E+00  0.00000000000E+00  0.21830098923E+03  0.21830098923E+03  0.00000000000E+00 0. -1.
          1   -1    0    0  501    0 -0.00000000000E+00 -0.00000000000E+00 -0.16108924541E+04  0.16108924541E+04  0.00000000000E+00 0. -1.
         25    2    1    2    0    0 -0.11129307770E+03  0.11563365918E+03 -0.78132873006E+02  0.21791427557E+03  0.12499837349E+03 0.  0.
          2    1    1    2  501    0 -0.32947259742E+01 -0.55113728607E+02 -0.14339478044E+04  0.14350103428E+04  0.00000000000E+00 0. -1.
          1    1    1    2  502    0  0.11458780367E+03 -0.60519930575E+02  0.11948921251E+03  0.17626882496E+03  0.00000000000E+00 0. -1.
         22    1    3    3    0    0 -0.63449863038E+02 -0.62504318511E+01 -0.56524503431E+02  0.85205472278E+02  0.00000000000E+00 0. -1.
         22    1    3    3    0    0 -0.47843214662E+02  0.12188409103E+03 -0.21608369575E+02  0.13270880329E+03  0.00000000000E+00 0. -1.
</event>
<event>
 7    1  0.6485470E-006  0.9153240E+02  0.7818608E-02  0.1398775E+00
          2   -1    0    0  502    0  0.00000000000E+00  0.00000000000E+00  0.35207114288E+03  0.35207114288E+03  0.00000000000E+00 0. -1.
          1   -1    0    0  501    0 -0.00000000000E+00 -0.00000000000E+00 -0.42209026445E+03  0.42209026445E+03  0.00000000000E+00 0. -1.
         25    2    1    2    0    0  0.82752509376E+02 -0.52575384805E+02 -0.36081824829E+03  0.39424210003E+03  0.12499950496E+03 0.  0.
          2    1    1    2  501    0 -0.80192247707E+02  0.13622493957E+02 -0.50577629943E+01  0.81498158877E+02  0.00000000000E+00 0. -1.
          1    1    1    2  502    0 -0.25602616693E+01  0.38952890848E+02  0.29585688971E+03  0.29842114844E+03  0.00000000000E+00 0. -1.
         22    1    3    3    0    0 -0.53540851045E+01  0.42580660398E+01  0.81649495579E+01  0.10651936678E+02  0.00000000000E+00 0. -1.
         22    1    3    3    0    0  0.88106594481E+02 -0.56833450845E+02 -0.36898319784E+03  0.38359016335E+03  0.00000000000E+00 0. -1.
</event>
<event>
 7    1  0.6485470E-006  0.5948915E+02  0.7818608E-02  0.1526498E+00
          2   -1    0    0  502    0  0.00000000000E+00  0.00000000000E+00  0.15227898283E+04  0.15227898283E+04  0.00000000000E+00 0. -1.
          1   -1    0    0  501    0 -0.00000000000E+00 -0.00000000000E+00 -0.16804162922E+02  0.16804162922E+02  0.00000000000E+00 0. -1.
         25    2    1    2    0    0  0.76571159187E+02  0.18209097368E+02  0.57338554155E+03  0.59210817296E+03  0.12500558219E+03 0.  0.
          2    1    1    2  501    0 -0.18980355456E+02 -0.14341950775E+02  0.15111566362E+02  0.28183415037E+02  0.00000000000E+00 0. -1.
          1    1    1    2  502    0 -0.57590803732E+02 -0.38671465929E+01  0.91748855744E+03  0.91930240320E+03  0.00000000000E+00 0. -1.
         22    1    3    3    0    0  0.48487123811E+02  0.72076463281E+02  0.32646061592E+03  0.33782029466E+03  0.00000000000E+00 0.  1.
         22    1    3    3    0    0  0.28084035376E+02 -0.53867365913E+02  0.24692492562E+03  0.25428787830E+03  0.00000000000E+00 0.  1.
</event>
<event>
 7    1  0.6485470E-006  0.4274114E+02  0.7818608E-02  0.1489181E+00
          2   -1    0    0  502    0  0.00000000000E+00  0.00000000000E+00  0.15520474161E+02  0.15520474161E+02  0.00000000000E+00 0. -1.
          1   -1    0    0  501    0 -0.00000000000E+00 -0.00000000000E+00 -0.16534797172E+04  0.16534797172E+04  0.00000000000E+00 0. -1.
         25    2    1    2    0    0 -0.67409585003E+01 -0.89229554693E+01 -0.42438169382E+03  0.44254865230E+03  0.12499771176E+03 0.  0.
          2    1    1    2  501    0  0.41976662169E+02 -0.15150789301E+02 -0.11437233607E+04  0.11445936887E+04  0.00000000000E+00 0. -1.
          1    1    1    2  502    0 -0.35235703669E+02  0.24073744771E+02 -0.69854188561E+02  0.81857850325E+02  0.00000000000E+00 0. -1.
         22    1    3    3    0    0 -0.98548181428E+01 -0.34426207272E+02 -0.28319166728E+02  0.45653656939E+02  0.00000000000E+00 0.  1.
         22    1    3    3    0    0  0.31138596426E+01  0.25503251803E+02 -0.39606252710E+03  0.39689499536E+03  0.00000000000E+00 0.  1.
</event>
<event>
 7    1  0.6485470E-006  0.1188307E+03  0.7818608E-02  0.1265619E+00
          2   -1    0    0  502    0  0.00000000000E+00  0.00000000000E+00  0.22050965209E+04  0.22050965209E+04  0.00000000000E+00 0. -1.
          1   -1    0    0  501    0 -0.00000000000E+00 -0.00000000000E+00 -0.68262191228E+03  0.68262191228E+03  0.00000000000E+00 0. -1.
         25    2    1    2    0    0  0.33690657863E+02  0.26942010070E+01  0.69724518159E+03  0.70916761108E+03  0.12500215278E+03 0.  0.
          2    1    1    2  501    0  0.38855135186E+02  0.11229880304E+03 -0.66833176572E+03  0.67881373863E+03  0.00000000000E+00 0. -1.
          1    1    1    2  502    0 -0.72545793049E+02 -0.11499300404E+03  0.14935611927E+04  0.14997370834E+04  0.00000000000E+00 0. -1.
         22    1    3    3    0    0  0.45005430081E+02 -0.47278483166E+02  0.22880989940E+03  0.23793846635E+03  0.00000000000E+00 0. -1.
         22    1    3    3    0    0 -0.11314772218E+02  0.49972684173E+02  0.46843528219E+03  0.47122914472E+03  0.00000000000E+00 0. -1.
</event>
<event>
 7    1  0.6485470E-006  0.6964322E+02  0.7818608E-02  0.1474717E+00
          2   -1    0    0  502    0  0.00000000000E+00  0.00000000000E+00  0.92302561313E+03  0.92302561313E+03  0.00000000000E+00 0. -1.
          1   -1    0    0  501    0 -0.00000000000E+00 -0.00000000000E+00 -0.90363906650E+02  0.90363906650E+02  0.00000000000E+00 0. -1.
         25    2    1    2    0    0  0.58353154874E+02  0.73892553405E+02  0.97438678402E+02  0.18435003740E+03  0.12500176042E+03 0.  0.
          2    1    1    2  501    0 -0.44091945587E+02 -0.48642310994E+02 -0.23523480680E+02  0.69739000766E+02  0.00000000000E+00 0. -1.
          1    1    1    2  502    0 -0.14261209287E+02 -0.25250242410E+02  0.75874650876E+03  0.75930048161E+03  0.00000000000E+00 0. -1.
         22    1    3    3    0    0  0.52971535885E+02  0.28962473498E+01 -0.11428193834E+02  0.54267628260E+02  0.00000000000E+00 0. -1.
         22    1    3    3    0    0  0.53816189893E+01  0.70996306055E+02  0.10886687224E+03  0.13008240914E+03  0.00000000000E+00 0. -1.
</event>
<event>
 7    1  0.9714372E-006  0.1067965E+03  0.7818608E-02  0.1411860E+00
          2   -1    0    0  502    0  0.00000000000E+00  0.00000000000E+00  0.16410157505E+04  0.16410157505E+04  0.00000000000E+00 0. -1.
          1   -1    0    0  501    0 -0.00000000000E+00 -0.00000000000E+00 -0.15563970448E+04  0.15563970448E+04  0.00000000000E+00 0. -1.
         25    2    1    2    0    0  0.23919232341E+02  0.12964369812E+03 -0.23196799808E+03  0.29464206609E+03  0.12500070737E+03 0.  0.
          2    1    1    2  501    0 -0.19434796860E+02 -0.23100860267E+02 -0.12911492688E+04  0.12915021469E+04  0.00000000000E+00 0. -1.
          1    1    1    2  502    0 -0.44844354813E+01 -0.10654283785E+03  0.16077359727E+04  0.16112685823E+04  0.00000000000E+00 0. -1.
         22    1    3    3    0    0 -0.29402089561E+02  0.12438682434E+03 -0.17073806156E+03  0.21327927843E+03  0.00000000000E+00 0.  1.
         22    1    3    3    0    0  0.53321321902E+02  0.52568737776E+01 -0.61229936513E+02  0.81362787665E+02  0.00000000000E+00 0.  1.
</event>
<event>
 7    1  0.6485470E-006  0.1117419E+03  0.7818608E-02  0.1403509E+00
          2   -1    0    0  502    0  0.00000000000E+00  0.00000000000E+00  0.37601934523E+03  0.37601934523E+03  0.00000000000E+00 0. -1.
          1   -1    0    0  501    0 -0.00000000000E+00 -0.00000000000E+00 -0.59467612196E+03  0.59467612196E+03  0.00000000000E+00 0. -1.
         25    2    1    2    0    0 -0.68632737322E+02 -0.44965266836E+02 -0.22123616624E+03  0.26702576649E+03  0.12499996344E+03 0.  0.
          2    1    1    2  501    0 -0.25187790517E+02 -0.17729945501E+02 -0.34081834028E+03  0.34220741785E+03  0.00000000000E+00 0. -1.
          1    1    1    2  502    0  0.93820527839E+02  0.62695212337E+02  0.34339772980E+03  0.36146228285E+03  0.00000000000E+00 0. -1.
         22    1    3    3    0    0 -0.10341957447E+03 -0.25382125646E+02 -0.13456567040E+03  0.17160355573E+03  0.00000000000E+00 0. -1.
         22    1    3    3    0    0  0.34786837151E+02 -0.19583141190E+02 -0.86670495842E+02  0.95422210765E+02  0.00000000000E+00 0. -1.
</event>
<event>
 7    1  0.6485470E-006  0.1092596E+03  0.7818608E-02  0.1344282E+00
          2   -1    0    0  502    0  0.00000000000E+00  0.00000000000E+00  0.11742845867E+04  0.11742845867E+04  0.00000000000E+00 0. -1.
          1   -1    0    0  501    0 -0.00000000000E+00 -0.00000000000E+00 -0.10517229439E+04  0.10517229439E+04  0.00000000000E+00 0. -1.
         25    2    1    2    0    0 -0.10131779182E+03  0.54080318242E+02  0.16888184279E+03  0.23944819719E+03  0.12499754618E+03 0.  0.
          2    1    1    2  501    0  0.37402756498E+02  0.35111528908E+02 -0.10126856083E+04  0.10139841847E+04  0.00000000000E+00 0. -1.
          1    1    1    2  502    0  0.63915035317E+02 -0.89191847150E+02  0.96636540838E+03  0.97257514869E+03  0.00000000000E+00 0. -1.
         22    1    3    3    0    0 -0.62822534218E+02  0.89307286385E+02  0.76411614715E+02  0.13327114118E+03  0.00000000000E+00 0.  1.
         22    1    3    3    0    0 -0.38495257597E+02 -0.35226968143E+02  0.92470228079E+02  0.10617705601E+03  0.00000000000E+00 0.  1.
</event>
<event>
 7    1  0.6485470E-006  0.9735157E+02  0.7818608E-02  0.1390660E+00
          2   -1    0    0  502    0  0.00000000000E+00  0.00000000000E+00  0.13480710766E+04  0.13480710766E+04  0.00000000000E+00 0. -1.
          1   -1    0    0  501    0 -0.00000000000E+00 -0.00000000000E+00 -0.27805714083E+03  0.27805714083E+03  0.00000000000E+00 0. -1.
         25    2    1    2    0    0  0.10041266956E+03  0.84221007937E+02  0.18434387361E+03  0.25842501717E+03  0.12499977351E+03 0.  0.
          2    1    1    2  501    0 -0.63119142128E+02 -0.72278564020E+02 -0.23110834929E+03  0.25023845834E+03  0.00000000000E+00 0. -1.
          1    1    1    2  502    0 -0.37293527430E+02 -0.11942443917E+02  0.11167784114E+04  0.11174647419E+04  0.00000000000E+00 0. -1.
         22    1    3    3    0    0 -0.23378661539E+02 -0.10042388463E+02  0.23454196609E+02  0.34605067837E+02  0.00000000000E+00 0.  1.
         22    1    3    3    0    0  0.12379133110E+03  0.94263396400E+02  0.16088967700E+03  0.22381994934E+03  0.00000000000E+00 0.  1.
</event>
<event>
 7    1  0.6485470E-006  0.5351943E+02  0.7818608E-02  0.1443529E+00
          2   -1    0    0  502    0  0.00000000000E+00  0.00000000000E+00  0.43499049248E+02  0.43499049248E+02  0.00000000000E+00 0. -1.
          1   -1    0    0  501    0 -0.00000000000E+00 -0.00000000000E+00 -0.12392679938E+04  0.12392679938E+04  0.00000000000E+00 0. -1.
         25    2    1    2    0    0 -0.28933506315E+02 -0.23972798004E+02 -0.31290775410E+03  0.33904206346E+03  0.12500566142E+03 0.  0.
          2    1    1    2  501    0  0.53102596711E+02 -0.16738502320E+02 -0.89347224332E+03  0.89520540258E+03  0.00000000000E+00 0. -1.
          1    1    1    2  502    0 -0.24169090396E+02  0.40711300324E+02  0.10611052908E+02  0.48519576961E+02  0.00000000000E+00 0. -1.
         22    1    3    3    0    0  0.90141861831E+01  0.18863252985E+02  0.38437146575E-01  0.20906442623E+02  0.00000000000E+00 0.  1.
         22    1    3    3    0    0 -0.37947692498E+02 -0.42836050989E+02 -0.31294619125E+03  0.31813562084E+03  0.00000000000E+00 0.  1.
</event>
<event>
 7    1  0.6485470E-006  0.6437433E+02  0.7818608E-02  0.1469254E+00
          2   -1    0    0  502    0  0.00000000000E+00  0.00000000000E+00  0.63377413872E+03  0.63377413872E+03  0.00000000000E+00 0. -1.
          1   -1    0    0  501    0 -0.00000000000E+00 -0.00000000000E+00 -0.23471371533E+03  0.23471371533E+03  0.00000000000E+00 0. -1.
         25    2    1    2    0    0 -0.37694808928E+02  0.31506193716E+02  0.28918833927E+03  0.31885780447E+03  0.12500745994E+03 0.  0.
          2    1    1    2  501    0 -0.29273794907E+02 -0.14393589794E+02 -0.21501301860E+03  0.21747351255E+03  0.00000000000E+00 0. -1.
          1    1    1    2  502    0  0.66968603834E+02 -0.17112603922E+02  0.32488510272E+03  0.33215653702E+03  0.00000000000E+00 0. -1.
         22    1    3    3    0    0 -0.20109153440E+02 -0.47426536742E+02  0.13974674273E+03  0.14893893562E+03  0.00000000000E+00 0.  1.
         22    1    3    3    0    0 -0.17585655488E+02  0.78932730458E+02  0.14944159654E+03  0.16991886885E+03  0.00000000000E+00 0.  1.
</event>
<event>
 7    1  0.6485470E-006  0.5183203E+02  0.7818608E-02  0.1478495E+00
          2   -1    0    0  502    0  0.00000000000E+00  0.00000000000E+00  0.37110301619E+03  0.37110301619E+03  0.00000000000E+00 0. -1.
          1   -1    0    0  501    0 -0.00000000000E+00 -0.00000000000E+00 -0.35589111481E+03  0.35589111481E+03  0.00000000000E+00 0. -1.
         25    2    1    2    0    0  0.27993770883E+02 -0.13690850977E+02 -0.17477564819E+03  0.21712570694E+03  0.12500381916E+03 0.  0.
          2    1    1    2  501    0 -0.27351366324E+02  0.51618854451E+02 -0.15352715992E+03  0.16426561481E+03  0.00000000000E+00 0. -1.
          1    1    1    2  502    0 -0.64240455914E+00 -0.37928003474E+02  0.34351470949E+03  0.34560280926E+03  0.00000000000E+00 0. -1.
         22    1    3    3    0    0  0.68739482095E+02  0.23619927018E+02 -0.86458784677E+02  0.11295193136E+03  0.00000000000E+00 0. -1.
         22    1    3    3    0    0 -0.40745711212E+02 -0.37310777995E+02 -0.88316863510E+02  0.10417377557E+03  0.00000000000E+00 0. -1.
</event>
<event>
 7    1  0.6485470E-006  0.8458624E+02  0.7818608E-02  0.1353167E+00
          2   -1    0    0  502    0  0.00000000000E+00  0.00000000000E+00  0.88797025824E+03  0.88797025824E+03  0.00000000000E+00 0. -1.
          1   -1    0    0  501    0 -0.00000000000E+00 -0.00000000000E+00 -0.13143753047E+04  0.13143753047E+04  0.00000000000E+00 0. -1.
         25    2    1    2    0    0  0.96347913779E+02  0.29054866168E+01  0.35705719806E+03  0.39039270907E+03  0.12500104907E+03 0.  0.
          2    1    1    2  501    0 -0.27933909221E+02 -0.54698809052E+02 -0.12933942107E+04  0.12948516700E+04  0.00000000000E+00 0. -1.
          1    1    1    2  502    0 -0.68414004558E+02  0.51793322436E+02  0.50993196617E+03  0.51710118390E+03  0.00000000000E+00 0. -1.
         22    1    3    3    0    0  0.22858468533E+02 -0.55166938076E+02  0.18626274068E+03  0.19560089265E+03  0.00000000000E+00 0. -1.
         22    1    3    3    0    0  0.73489445246E+02  0.58072424693E+02  0.17079445738E+03  0.19479181642E+03  0.00000000000E+00 0. -1.
</event>
<event>
 7    1  0.6485470E-006  0.7392006E+02  0.7818608E-02  0.1465172E+00
          2   -1    0    0  502    0  0.00000000000E+00  0.00000000000E+00  0.96943375889E+03  0.96943375889E+03  0.00000000000E+00 0. -1.
          1   -1    0    0  501    0 -0.00000000000E+00 -0.00000000000E+00 -0.20914631836E+04  0.20914631836E+04  0.00000000000E+00 0. -1.
         25    2    1    2    0    0  0.98210768124E+02  0.16873685544E+02 -0.14425860982E+03  0.21532582951E+03  0.12499836042E+03 0.  0.
          2    1    1    2  501    0 -0.73419288862E+02 -0.13424124088E+01 -0.19107364354E+04  0.19121469398E+04  0.00000000000E+00 0. -1.
          1    1    1    2  502    0 -0.24791479263E+02 -0.15531273135E+02  0.93296562052E+03  0.93342417312E+03  0.00000000000E+00 0. -1.
         22    1    3    3    0    0  0.31030804909E+02 -0.47136067945E+02 -0.94412421043E+02  0.10999284069E+03  0.00000000000E+00 0.  1.
         22    1    3    3    0    0  0.67179963215E+02  0.64009753490E+02 -0.49846188781E+02  0.10533298883E+03  0.00000000000E+00 0.  1.
</event>
<event>
 7    1  0.6485470E-006  0.1270424E+03  0.7818608E-02  0.1257523E+00
          2   -1    0    0  502    0  0.00000000000E+00  0.00000000000E+00  0.64087371801E+03  0.64087371801E+03  0.00000000000E+00 0. -1.
          1   -1    0    0  501    0 -0.00000000000E+00 -0.00000000000E+00 -0.97680988623E+03  0.97680988623E+03  0.00000000000E+00 0. -1.
         25    2    1    2    0    0 -0.80274550679E+02 -0.15452285635E+03 -0.10899806333E+03  0.24047368665E+03  0.12500279813E+03 0.  0.
          2    1    1    2  501    0 -0.13256137472E+02  0.12478815420E+03 -0.79291643403E+03  0.80278532620E+03  0.00000000000E+00 0. -1.
          1    1    1    2  502    0  0.93530688151E+02  0.29734702149E+02  0.56597832914E+03  0.57442459139E+03  0.00000000000E+00 0. -1.
         22    1    3    3    0    0 -0.83126237135E+02 -0.12150843678E+03 -0.23897169537E+02  0.14914873858E+03  0.00000000000E+00 0. -1.
         22    1    3    3    0    0  0.28516864564E+01 -0.33014419568E+02 -0.85100893791E+02  0.91324948065E+02  0.00000000000E+00 0. -1.
</event>
<event>
 7    1  0.6485470E-006  0.9241578E+02  0.7818608E-02  0.1379192E+00
          2   -1    0    0  502    0  0.00000000000E+00  0.00000000000E+00  0.11571846766E+04  0.11571846766E+04  0.00000000000E+00 0. -1.
          1   -1    0    0  501    0 -0.00000000000E+00 -0.00000000000E+00 -0.15245212279E+04  0.15245212279E+04  0.00000000000E+00 0. -1.
         25    2    1    2    0    0 -0.68698099413E+02  0.69733124989E+02 -0.20777617317E+03  0.26149187022E+03  0.12499968989E+03 0.  0.
          2    1    1    2  501    0  0.88112119824E+02 -0.28844548211E+02 -0.12877668226E+04  0.12910999740E+04  0.00000000000E+00 0. -1.
          1    1    1    2  502    0 -0.19414020412E+02 -0.40888576777E+02  0.11282064444E+04  0.11291140603E+04  0.00000000000E+00 0. -1.
         22    1    3    3    0    0  0.33598582394E+02  0.12771001812E+02 -0.22775120449E+02  0.42551960444E+02  0.00000000000E+00 0. -1.
         22    1    3    3    0    0 -0.10229668181E+03  0.56962123177E+02 -0.18500105272E+03  0.21893990978E+03  0.00000000000E+00 0. -1.
</event>
<event>
 7    1  0.6485470E-006  0.4841646E+02  0.7818608E-02  0.1525301E+00
          2   -1    0    0  502    0  0.00000000000E+00  0.00000000000E+00  0.22363401534E+03  0.22363401534E+03  0.00000000000E+00 0. -1.
          1   -1    0    0  501    0 -0.00000000000E+00 -0.00000000000E+00 -0.13453097068E+04  0.13453097068E+04  0.00000000000E+00 0. -1.
         25    2    1    2    0    0  0.37960548150E+02 -0.58354688739E+02 -0.19652915640E+03  0.24309746137E+03  0.12500557386E+03 0.  0.
          2    1    1    2  501    0 -0.10859464388E+02  0.46795352699E+02 -0.11238973043E+04  0.11249235013E+04  0.00000000000E+00 0. -1.
          1    1    1    2  502    0 -0.27101083763E+02  0.11559336040E+02  0.19875076929E+03  0.20092275950E+03  0.00000000000E+00 0. -1.
         22    1    3    3    0    0 -0.13852909245E+02 -0.52858771922E+02 -0.18049011821E+03  0.18858058128E+03  0.00000000000E+00 0.  1.
         22    1    3    3    0    0  0.51813457395E+02 -0.54959168166E+01 -0.16039038184E+02  0.54516880090E+02  0.00000000000E+00 0.  1.
</event>
<event>
 7    1  0.6485470E-006  0.7311091E+02  0.7818608E-02  0.1373665E+00
          2   -1    0    0  502    0  0.00000000000E+00  0.00000000000E+00  0.11349565134E+04  0.11349565134E+04  0.00000000000E+00 0. -1.
          1   -1    0    0  501    0 -0.00000000000E+00 -0.00000000000E+00 -0.16591831121E+03  0.16591831121E+03  0.00000000000E+00 0. -1.
         25    2    1    2    0    0 -0.10198160847E+03  0.77733788488E+02  0.14505404328E+03  0.23045186285E+03  0.12499838111E+03 0.  0.
          2    1    1    2  501    0  0.37757061440E+02 -0.46459897986E+02 -0.11450922719E+03  0.12921486339E+03  0.00000000000E+00 0. -1.
          1    1    1    2  502    0  0.64224547035E+02 -0.31273890502E+02  0.93849338611E+03  0.94120809837E+03  0.00000000000E+00 0. -1.
         22    1    3    3    0    0 -0.11928690034E+03  0.81217875143E+02  0.15367042252E+03  0.21080869667E+03  0.00000000000E+00 0.  1.
         22    1    3    3    0    0  0.17305291863E+02 -0.34840866552E+01 -0.86163792446E+01  0.19643166179E+02  0.00000000000E+00 0.  1.
</event>
<event>
 7    1  0.6485470E-006  0.5969105E+02  0.7818608E-02  0.1438356E+00
          2   -1    0    0  502    0  0.00000000000E+00  0.00000000000E+00  0.38927153811E+03  0.38927153811E+03  0.00000000000E+00 0. -1.
          1   -1    0    0  501    0 -0.00000000000E+00 -0.00000000000E+00 -0.22207400173E+03  0.22207400173E+03  0.00000000000E+00 0. -1.
         25    2    1    2    0    0 -0.59845806316E+02 -0.18631082738E+02 -0.21067297604E+02  0.14140930271E+03  0.12499648830E+03 0.  0.
          2    1    1    2  501    0  0.29186329147E+02 -0.33087772322E+02 -0.13453497381E+03  0.14158496270E+03  0.00000000000E+00 0. -1.
          1    1    1    2  502    0  0.30659477169E+02  0.51718855060E+02  0.32279980779E+03  0.32835127443E+03  0.00000000000E+00 0. -1.
         22    1    3    3    0    0 -0.42221553607E+02  0.51585259458E+02 -0.17535068886E+02  0.68928783706E+02  0.00000000000E+00 0. -1.
         22    1    3    3    0    0 -0.17624252709E+02 -0.70216342196E+02 -0.35322287180E+01  0.72480519001E+02  0.00000000000E+00 0. -1.
</event>
<event>
 7    1  0.6485470E-006  0.5721167E+02  0.7818608E-02  0.1469484E+00
          2   -1    0    0  502    0  0.00000000000E+00  0.00000000000E+00  0.32371103235E+04  0.32371103235E+04  0.00000000000E+00 0. -1.
          1   -1    0    0  501    0 -0.00000000000E+00 -0.00000000000E+00 -0.22166649555E+02  0.22166649555E+02  0.00000000000E+00 0. -1.
         25    2    1    2    0    0 -0.79964250610E+02 -0.46718723565E+02  0.33560148685E+03  0.36990549449E+03  0.12499918548E+03 0.  0.
          2    1    1    2  501    0  0.34026839833E+02  0.13601433157E+02  0.66249141697E+02  0.75708477653E+02  0.00000000000E+00 0. -1.
          1    1    1    2  502    0  0.45937410777E+02  0.33117290408E+02  0.28130930454E+04  0.28136630009E+04  0.00000000000E+00 0. -1.
         22    1    3    3    0    0  0.36055510551E+01 -0.25176120863E+02  0.22142693776E+01  0.25529199929E+02  0.00000000000E+00 0.  1.
         22    1    3    3    0    0 -0.83569801665E+02 -0.21542602702E+02  0.33338721748E+03  0.34437629457E+03  0.00000000000E+00 0.  1.
</event>
<event>
 7    1  0.6485470E-006  0.6535794E+02  0.7818608E-02  0.1396448E+00
          2   -1    0    0  502    0  0.00000000000E+00  0.00000000000E+00  0.21600956109E+03  0.21600956109E+03  0.00000000000E+00 0. -1.
          1   -1    0    0  501    0 -0.00000000000E+00 -0.00000000000E+00 -0.48531011431E+03  0.48531011431E+03  0.00000000000E+00 0. -1.
         25    2    1    2    0    0  0.32758487845E+02  0.11665101246E+02 -0.24762411173E+03  0.27958072861E+03  0.12505394830E+03 0.  0.
          2    1    1    2  501    0 -0.51823339523E+02 -0.63990986160E+02 -0.20988700987E+03  0.22546188534E+03  0.00000000000E+00 0. -1.
          1    1    1    2  502    0  0.19064851678E+02  0.52325884914E+02  0.18821056839E+03  0.19627706146E+03  0.00000000000E+00 0. -1.
         22    1    3    3    0    0  0.20535732632E+02 -0.25295421091E+02 -0.39543876295E+01  0.32820905296E+02  0.00000000000E+00 0.  1.
         22    1    3    3    0    0  0.12222755213E+02  0.36960522337E+02 -0.24366972410E+03  0.24675982331E+03  0.00000000000E+00 0.  1.
</event>
<event>
 7    1  0.6485470E-006  0.1879346E+03  0.7818608E-02  0.1221923E+00
          2   -1    0    0  502    0  0.00000000000E+00  0.00000000000E+00  0.14676801195E+04  0.14676801195E+04  0.00000000000E+00 0. -1.
          1   -1    0    0  501    0 -0.00000000000E+00 -0.00000000000E+00 -0.15994325898E+04  0.15994325898E+04  0.00000000000E+00 0. -1.
         25    2    1    2    0    0  0.23628685124E+03  0.14983246603E+03  0.19547225663E+03  0.36347807759E+03  0.12500266328E+03 0.  0.
          2    1    1    2  501    0 -0.16415228384E+03 -0.87614399126E+02 -0.15077922978E+04  0.15192300249E+04  0.00000000000E+00 0. -1.
          1    1    1    2  502    0 -0.72134567405E+02 -0.62218066902E+02  0.11805675708E+04  0.11844046069E+04  0.00000000000E+00 0. -1.
         22    1    3    3    0    0  0.20571568163E+03  0.13754648260E+03  0.10799471691E+03  0.27000154708E+03  0.00000000000E+00 0.  1.
         22    1    3    3    0    0  0.30571169613E+02  0.12285983423E+02  0.87477539720E+02  0.93476530507E+02  0.00000000000E+00 0.  1.
</event>
<event>
 7    1  0.6485470E-006  0.5529679E+02  0.7818608E-02  0.1483143E+00
          2   -1    0    0  502    0  0.00000000000E+00  0.00000000000E+00  0.41029600603E+03  0.41029600603E+03  0.00000000000E+00 0. -1.
          1   -1    0    0  501    0 -0.00000000000E+00 -0.00000000000E+00 -0.73504623055E+02  0.73504623055E+02  0.00000000000E+00 0. -1.
         25    2    1    2    0    0  0.35940026422E+02 -0.77407078891E+02  0.12228019863E+03  0.19457963999E+03  0.12500099184E+03 0.  0.
          2    1    1    2  501    0 -0.16185411919E+02  0.49233085302E+02 -0.17478471558E+02  0.54693337943E+02  0.00000000000E+00 0. -1.
          1    1    1    2  502    0 -0.19754614503E+02  0.28173993589E+02  0.23198965590E+03  0.23452765115E+03  0.00000000000E+00 0. -1.
         22    1    3    3    0    0 -0.20188124502E+02 -0.18021937547E+02 -0.17812345132E+02  0.32397997514E+02  0.00000000000E+00 0. -1.
         22    1    3    3    0    0  0.56128150924E+02 -0.59385141344E+02  0.14009254376E+03  0.16218164248E+03  0.00000000000E+00 0. -1.
</event>
<event>
 7    1  0.6485470E-006  0.2360901E+03  0.7818608E-02  0.1348613E+00
          2   -1    0    0  502    0  0.00000000000E+00  0.00000000000E+00  0.32730689278E+03  0.32730689278E+03  0.00000000000E+00 0. -1.
          1   -1    0    0  501    0 -0.00000000000E+00 -0.00000000000E+00 -0.79292765722E+03  0.79292765722E+03  0.00000000000E+00 0. -1.
         25    2    1    2    0    0  0.24960714119E+03  0.28285085123E+02 -0.26860938594E+03  0.38843248588E+03  0.12500009160E+03 0.  0.
          2    1    1    2  501    0 -0.22804957004E+03 -0.20632261757E+02 -0.43560094763E+03  0.49211836198E+03  0.00000000000E+00 0. -1.
          1    1    1    2  502    0 -0.21557571144E+02 -0.76528233661E+01  0.23858956913E+03  0.23968370215E+03  0.00000000000E+00 0. -1.
         22    1    3    3    0    0 -0.86069453813E+01  0.20359754050E+02 -0.24676721610E+02  0.33129136469E+02  0.00000000000E+00 0.  1.
         22    1    3    3    0    0  0.25821408657E+03  0.79253310730E+01 -0.24393266433E+03  0.35530334941E+03  0.00000000000E+00 0.  1.
</event>
<event>
 7    1  0.6485470E-006  0.9016735E+02  0.7818608E-02  0.1455791E+00
          2   -1    0    0  502    0  0.00000000000E+00  0.00000000000E+00  0.16471086086E+04  0.16471086086E+04  0.00000000000E+00 0. -1.
          1   -1    0    0  501    0 -0.00000000000E+00 -0.00000000000E+00 -0.25727355306E+02  0.25727355306E+02  0.00000000000E+00 0. -1.
         25    2    1    2    0    0  0.87441614136E+02 -0.55992694881E+02  0.86489365068E+03  0.88002644092E+03  0.12499716783E+03 0.  0.
          2    1    1    2  501    0 -0.25377042370E+02 -0.38901348252E+01 -0.52503872615E+01  0.26204846781E+02  0.00000000000E+00 0. -1.
          1    1    1    2  502    0 -0.62064571766E+02  0.59882829706E+02  0.76173798991E+03  0.76660467624E+03  0.00000000000E+00 0. -1.
         22    1    3    3    0    0  0.11211877628E+03 -0.33452095031E+02  0.49562068021E+03  0.50924406850E+03  0.00000000000E+00 0.  1.
         22    1    3    3    0    0 -0.24677162139E+02 -0.22540599850E+02  0.36927297048E+03  0.37078237242E+03  0.00000000000E+00 0.  1.
</event>
<event>
 7    1  0.6485470E-006  0.8565461E+02  0.7818608E-02  0.1331964E+00
          2   -1    0    0  502    0  0.00000000000E+00  0.00000000000E+00  0.20631884063E+03  0.20631884063E+03  0.00000000000E+00 0. -1.
          1   -1    0    0  501    0 -0.00000000000E+00 -0.00000000000E+00 -0.90077383441E+03  0.90077383441E+03  0.00000000000E+00 0. -1.
         25    2    1    2    0    0 -0.69341558501E+02 -0.27392293509E+02 -0.10135432317E+03  0.17736043066E+03  0.12500173623E+03 0.  0.
          2    1    1    2  501    0 -0.72926028345E+01  0.72464238928E+02 -0.74778236025E+03  0.75132064146E+03  0.00000000000E+00 0. -1.
          1    1    1    2  502    0  0.76634161336E+02 -0.45071945419E+02  0.15468168963E+03  0.17841160292E+03  0.00000000000E+00 0. -1.
         22    1    3    3    0    0  0.24797779980E+01  0.60555478797E+01  0.26309068034E+02  0.27110625590E+02  0.00000000000E+00 0. -1.
         22    1    3    3    0    0 -0.71821336499E+02 -0.33447841389E+02 -0.12766339120E+03  0.15024980507E+03  0.00000000000E+00 0. -1.
</event>
<event>
 7    1  0.6485470E-006  0.5639490E+02  0.7818608E-02  0.1555414E+00
          2   -1    0    0  502    0  0.00000000000E+00  0.00000000000E+00  0.42490276805E+03  0.42490276805E+03  0.00000000000E+00 0. -1.
          1   -1    0    0  501    0 -0.00000000000E+00 -0.00000000000E+00 -0.13929435203E+04  0.13929435203E+04  0.00000000000E+00 0. -1.
         25    2    1    2    0    0 -0.22213374325E+02 -0.43337753381E+02 -0.31241309750E+03  0.33998845288E+03  0.12497443633E+03 0.  0.
          2    1    1    2  501    0 -0.19966906197E+02  0.58068203868E+01 -0.10647022700E+04  0.10649053105E+04  0.00000000000E+00 0. -1.
          1    1    1    2  502    0  0.42180280522E+02  0.37530932994E+02  0.40907461530E+03  0.41295252497E+03  0.00000000000E+00 0. -1.
         22    1    3    3    0    0  0.19380834461E+02 -0.72593796679E+02 -0.12542133445E+03  0.14620529127E+03  0.00000000000E+00 0. -1.
         22    1    3    3    0    0 -0.41594208786E+02  0.29256043298E+02 -0.18699176306E+03  0.19378316161E+03  0.00000000000E+00 0. -1.
</event>
<event>
 7    1  0.6485470E-006  0.3811746E+03  0.7818608E-02  0.1063670E+00
          2   -1    0    0  502    0  0.00000000000E+00  0.00000000000E+00  0.20232164183E+04  0.20232164183E+04  0.00000000000E+00 0. -1.
          1   -1    0    0  501    0 -0.00000000000E+00 -0.00000000000E+00 -0.32725536451E+03  0.32725536451E+03  0.00000000000E+00 0. -1.
         25    2    1    2    0    0  0.22759990205E+03  0.21029307214E+03  0.50309017455E+03  0.60394600092E+03  0.12500462671E+03 0.  0.
          2    1    1    2  501    0 -0.16751267759E+03  0.26876672664E+03 -0.12692980839E+03  0.34118503302E+03  0.00000000000E+00 0. -1.
          1    1    1    2  502    0 -0.60087224455E+02 -0.47905979878E+03  0.13198006876E+04  0.14053407489E+04  0.00000000000E+00 0. -1.
         22    1    3    3    0    0  0.72020795390E+02  0.64077362405E+00  0.12935858920E+03  0.14805759068E+03  0.00000000000E+00 0.  1.
         22    1    3    3    0    0  0.15557910666E+03  0.20965229852E+03  0.37373158535E+03  0.45588841024E+03  0.00000000000E+00 0.  1.
</event>
<event>
 7    1  0.6485470E-006  0.1693220E+03  0.7818608E-02  0.1327653E+00
          2   -1    0    0  502    0  0.00000000000E+00  0.00000000000E+00  0.16411639925E+04  0.16411639925E+04  0.00000000000E+00 0. -1.
          1   -1    0    0  501    0 -0.00000000000E+00 -0.00000000000E+00 -0.12866555332E+04  0.12866555332E+04  0.00000000000E+00 0. -1.
         25    2    1    2    0    0  0.18431146731E+03  0.73365835662E+02  0.21053794828E+03  0.31512980856E+03  0.12500922265E+03 0.  0.
          2    1    1    2  501    0 -0.23320138849E+02 -0.30339975775E+02 -0.12290239305E+04  0.12296195204E+04  0.00000000000E+00 0. -1.
          1    1    1    2  502    0 -0.16099132846E+03 -0.43025859888E+02  0.13729944416E+04  0.13830701968E+04  0.00000000000E+00 0. -1.
         22    1    3    3    0    0  0.16563000547E+03  0.46157368864E+02  0.22145390108E+03  0.28036695903E+03  0.00000000000E+00 0.  1.
         22    1    3    3    0    0  0.18681461839E+02  0.27208466799E+02 -0.10915952791E+02  0.34762849528E+02  0.00000000000E+00 0.  1.
</event>
<event>
 7    1  0.6485470E-006  0.4313026E+02  0.7818608E-02  0.1597329E+00
          2   -1    0    0  502    0  0.00000000000E+00  0.00000000000E+00  0.24315608621E+03  0.24315608621E+03  0.00000000000E+00 0. -1.
          1   -1    0    0  501    0 -0.00000000000E+00 -0.00000000000E+00 -0.52613532517E+02  0.52613532517E+02  0.00000000000E+00 0. -1.
         25    2    1    2    0    0  0.55033792244E+01  0.35528360115E+02  0.92408886260E+02  0.15957515468E+03  0.12502910131E+03 0.  0.
          2    1    1    2  501    0  0.20959603499E+02  0.37366420418E+00 -0.69114882049E+01  0.22072908122E+02  0.00000000000E+00 0. -1.
          1    1    1    2  502    0 -0.26462982723E+02 -0.35902024319E+02  0.10504515563E+03  0.11412155593E+03  0.00000000000E+00 0. -1.
         22    1    3    3    0    0 -0.18929857611E+02  0.40754038712E+02  0.11650055866E+03  0.12486637397E+03  0.00000000000E+00 0.  1.
         22    1    3    3    0    0  0.24433236835E+02 -0.52256785966E+01 -0.24091672399E+02  0.34708780705E+02  0.00000000000E+00 0.  1.
</event>
<event>
 7    1  0.6485470E-006  0.1188521E+03  0.7818608E-02  0.1273423E+00
          2   -1    0    0  502    0  0.00000000000E+00  0.00000000000E+00  0.11260623958E+04  0.11260623958E+04  0.00000000000E+00 0. -1.
          1   -1    0    0  501    0 -0.00000000000E+00 -0.00000000000E+00 -0.12300016481E+04  0.12300016481E+04  0.00000000000E+00 0. -1.
         25    2    1    2    0    0  0.89913286612E+02  0.14135556817E+03  0.19134687754E+03  0.28338088955E+03  0.12500122103E+03 0.  0.
          2    1    1    2  501    0 -0.86349646217E+02 -0.24850777928E+02 -0.11784450426E+04  0.11818657034E+04  0.00000000000E+00 0. -1.
          1    1    1    2  502    0 -0.35636403946E+01 -0.11650479024E+03  0.88315891277E+03  0.89081745093E+03  0.00000000000E+00 0. -1.
         22    1    3    3    0    0  0.18861295506E+02 -0.13044243998E+02 -0.52237612129E+01  0.23519958564E+02  0.00000000000E+00 0.  1.
         22    1    3    3    0    0  0.71051991106E+02  0.15439981216E+03  0.19657063875E+03  0.25986093099E+03  0.00000000000E+00 0.  1.
</event>
<event>
 7    1  0.6485470E-006  0.9497936E+02  0.7818608E-02  0.1369764E+00
          2   -1    0    0  502    0  0.00000000000E+00  0.00000000000E+00  0.54222318960E+03  0.54222318960E+03  0.00000000000E+00 0. -1.
          1   -1    0    0  501    0 -0.00000000000E+00 -0.00000000000E+00 -0.32839957886E+03  0.32839957886E+03  0.00000000000E+00 0. -1.
         25    2    1    2    0    0  0.42397850800E+02  0.35071710501E+02 -0.13661759317E+03  0.19317267643E+03  0.12499485400E+03 0.  0.
          2    1    1    2  501    0  0.77882360580E+01  0.46950248889E+02 -0.15541353456E+03  0.16253722409E+03  0.00000000000E+00 0. -1.
          1    1    1    2  502    0 -0.50186086858E+02 -0.82021959390E+02  0.50585473847E+03  0.51491286794E+03  0.00000000000E+00 0. -1.
         22    1    3    3    0    0  0.60544874576E+02 -0.30473788344E+02 -0.57905691962E+02  0.89148206797E+02  0.00000000000E+00 0. -1.
         22    1    3    3    0    0 -0.18147023776E+02  0.65545498845E+02 -0.78711901207E+02  0.10402446963E+03  0.00000000000E+00 0. -1.
</event>
<event>
 7    1  0.6485470E-006  0.1125315E+03  0.7818608E-02  0.1424471E+00
          2   -1    0    0  502    0  0.00000000000E+00  0.00000000000E+00  0.98146108275E+03  0.98146108275E+03  0.00000000000E+00 0. -1.
          1   -1    0    0  501    0 -0.00000000000E+00 -0.00000000000E+00 -0.25743472689E+03  0.25743472689E+03  0.00000000000E+00 0. -1.
         25    2    1    2    0    0  0.94113485218E+02 -0.77227960581E+02  0.19195131494E+03  0.25940621699E+03  0.12499908843E+03 0.  0.
          2    1    1    2  501    0 -0.70196229305E+02  0.87412826483E+02 -0.20941947803E+03  0.23753953486E+03  0.00000000000E+00 0. -1.
          1    1    1    2  502    0 -0.23917255913E+02 -0.10184865902E+02  0.74149451894E+03  0.74195005779E+03  0.00000000000E+00 0. -1.
         22    1    3    3    0    0  0.29609785804E+02 -0.80753219336E+02  0.41143289329E+02  0.95344596623E+02  0.00000000000E+00 0.  1.
         22    1    3    3    0    0  0.64503699415E+02  0.35252587542E+01  0.15080802562E+03  0.16406162037E+03  0.00000000000E+00 0.  1.
</event>
<event>
 7    1  0.6485470E-006  0.3606778E+02  0.7818608E-02  0.1543909E+00
          2   -1    0    0  502    0  0.00000000000E+00  0.00000000000E+00  0.53551508676E+03  0.53551508676E+03  0.00000000000E+00 0. -1.
          1   -1    0    0  501    0 -0.00000000000E+00 -0.00000000000E+00 -0.16830127803E+03  0.16830127803E+03  0.00000000000E+00 0. -1.
         25    2    1    2    0    0  0.64772344348E+02  0.15804625900E+02  0.36328775989E+02  0.14625815396E+03  0.12500569924E+03 0.  0.
          2    1    1    2  501    0 -0.29882486371E+02 -0.18679072459E+02 -0.10988633680E+03  0.11539877709E+03  0.00000000000E+00 0. -1.
          1    1    1    2  502    0 -0.34889857978E+02  0.28744465593E+01  0.44077136955E+03  0.44215943374E+03  0.00000000000E+00 0. -1.
         22    1    3    3    0    0  0.43083601967E+02 -0.47466248000E+02  0.45691879817E+02  0.78720958701E+02  0.00000000000E+00 0.  1.
         22    1    3    3    0    0  0.21688742382E+02  0.63270873900E+02 -0.93631038282E+01  0.67537195259E+02  0.00000000000E+00 0.  1.
</event>
<event>
 7    1  0.6485470E-006  0.1075670E+03  0.7818608E-02  0.1378298E+00
          2   -1    0    0  502    0  0.00000000000E+00  0.00000000000E+00  0.44114569415E+03  0.44114569415E+03  0.00000000000E+00 0. -1.
          1   -1    0    0  501    0 -0.00000000000E+00 -0.00000000000E+00 -0.22332550482E+04  0.22332550482E+04  0.00000000000E+00 0. -1.
         25    2    1    2    0    0 -0.36063611372E+02 -0.67635158083E+02  0.29253557594E+03  0.32722710055E+03  0.12500165387E+03 0.  0.
          2    1    1    2  501    0  0.24175304271E+02  0.10496080873E+03 -0.22116466038E+04  0.22142678060E+04  0.00000000000E+00 0. -1.
          1    1    1    2  502    0  0.11888307102E+02 -0.37325650645E+02  0.12700167379E+03  0.13290583579E+03  0.00000000000E+00 0. -1.
         22    1    3    3    0    0 -0.15607706521E+02  0.26413287680E+02  0.16292456550E+03  0.16578804635E+03  0.00000000000E+00 0.  1.
         22    1    3    3    0    0 -0.20455904851E+02 -0.94048445764E+02  0.12961101044E+03  0.16143905420E+03  0.00000000000E+00 0.  1.
</event>
<event>
 7    1  0.6485470E-006  0.1246947E+03  0.7818608E-02  0.1303310E+00
          2   -1    0    0  502    0  0.00000000000E+00  0.00000000000E+00  0.25088371397E+03  0.25088371397E+03  0.00000000000E+00 0. -1.
          1   -1    0    0  501    0 -0.00000000000E+00 -0.00000000000E+00 -0.66645191035E+03  0.66645191035E+03  0.00000000000E+00 0. -1.
         25    2    1    2    0    0  0.65180157973E+02  0.12639687253E+03  0.21975241521E+02  0.19060912474E+03  0.12499721924E+03 0.  0.
          2    1    1    2  501    0  0.34527397083E+02 -0.54700793484E+02 -0.55383182066E+03  0.55759663157E+03  0.00000000000E+00 0. -1.
          1    1    1    2  502    0 -0.99707555056E+02 -0.71696079045E+02  0.11628838277E+03  0.16912986801E+03  0.00000000000E+00 0. -1.
         22    1    3    3    0    0  0.26316712570E+02  0.10008563609E+03  0.68833586613E+02  0.12428904440E+03  0.00000000000E+00 0.  1.
         22    1    3    3    0    0  0.38863445403E+02  0.26311236436E+02 -0.46858345092E+02  0.66320080339E+02  0.00000000000E+00 0.  1.
</event>
<event>
 7    1  0.6485470E-006  0.5191802E+03  0.7818608E-02  0.1185020E+00
          2   -1    0    0  502    0  0.00000000000E+00  0.00000000000E+00  0.11372948683E+04  0.11372948683E+04  0.00000000000E+00 0. -1.
          1   -1    0    0  501    0 -0.00000000000E+00 -0.00000000000E+00 -0.13206756389E+04  0.13206756389E+04  0.00000000000E+00 0. -1.
         25    2    1    2    0    0  0.46110751158E+03  0.16415411856E+03 -0.38594560425E+03  0.63572562256E+03  0.12500538332E+03 0.  0.
          2    1    1    2  501    0 -0.50804101280E+03 -0.18502286097E+03 -0.71879899282E+03  0.89945045547E+03  0.00000000000E+00 0. -1.
          1    1    1    2  502    0  0.46933501220E+02  0.20868742410E+02  0.92136382648E+03  0.92279442927E+03  0.00000000000E+00 0. -1.
         22    1    3    3    0    0  0.13778897313E+02  0.28322385606E+02 -0.34351019864E+01  0.31683046937E+02  0.00000000000E+00 0.  1.
         22    1    3    3    0    0  0.44732861426E+03  0.13583173295E+03 -0.38251050227E+03  0.60404257562E+03  0.00000000000E+00 0.  1.
</event>
<event>
 7    1  0.6485470E-006  0.4394951E+02  0.7818608E-02  0.1502694E+00
          2   -1    0    0  502    0  0.00000000000E+00  0.00000000000E+00  0.31344030201E+04  0.31344030201E+04  0.00000000000E+00 0. -1.
          1   -1    0    0  501    0 -0.00000000000E+00 -0.00000000000E+00 -0.21973250258E+02  0.21973250258E+02  0.00000000000E+00 0. -1.
         25    2    1    2    0    0  0.19631671236E+02 -0.80485814985E+01  0.73463703071E+03  0.74549172636E+03  0.12496465503E+03 0.  0.
          2    1    1    2  501    0 -0.10647418367E+02 -0.36271027013E+02  0.55452527277E+01  0.38206082582E+02  0.00000000000E+00 0. -1.
          1    1    1    2  502    0 -0.89842528692E+01  0.44319608511E+02  0.23722474864E+04  0.23726784614E+04  0.00000000000E+00 0. -1.
         22    1    3    3    0    0  0.59256156686E+02 -0.21535017439E+02  0.21187569353E+03  0.22105736493E+03  0.00000000000E+00 0. -1.
         22    1    3    3    0    0 -0.39624485450E+02  0.13486435941E+02  0.52276133718E+03  0.52443436143E+03  0.00000000000E+00 0. -1.
</event>
<event>
 7    1  0.6485470E-006  0.1124987E+03  0.7818608E-02  0.1303869E+00
          2   -1    0    0  502    0  0.00000000000E+00  0.00000000000E+00  0.12142550335E+04  0.12142550335E+04  0.00000000000E+00 0. -1.
          1   -1    0    0  501    0 -0.00000000000E+00 -0.00000000000E+00 -0.78383887415E+03  0.78383887415E+03  0.00000000000E+00 0. -1.
         25    2    1    2    0    0  0.98921647471E+01  0.41109688181E+02  0.25219714165E+03  0.28463255785E+03  0.12499773337E+03 0.  0.
          2    1    1    2  501    0 -0.24228576039E+02 -0.11098649245E+03 -0.76205989945E+03  0.77048057454E+03  0.00000000000E+00 0. -1.
          1    1    1    2  502    0  0.14336411292E+02  0.69876804265E+02  0.94027891712E+03  0.94298077523E+03  0.00000000000E+00 0. -1.
         22    1    3    3    0    0  0.46837870744E+02 -0.19973158598E+02  0.55192601293E+02  0.75092852108E+02  0.00000000000E+00 0. -1.
         22    1    3    3    0    0 -0.36945705997E+02  0.61082846779E+02  0.19700454035E+03  0.20953970574E+03  0.00000000000E+00 0. -1.
</event>
<event>
 7    1  0.6485470E-006  0.6291226E+02  0.7818608E-02  0.1511532E+00
          2   -1    0    0  502    0  0.00000000000E+00  0.00000000000E+00  0.34497203015E+03  0.34497203015E+03  0.00000000000E+00 0. -1.
          1   -1    0    0  501    0 -0.00000000000E+00 -0.00000000000E+00 -0.13121129944E+04  0.13121129944E+04  0.00000000000E+00 0. -1.
         25    2    1    2    0    0 -0.39432764232E+02  0.78139981678E+02  0.37102156702E+01  0.15266347689E+03  0.12502628462E+03 0.  0.
          2    1    1    2  501    0  0.27962088262E+02 -0.56077670611E+02 -0.12362616814E+04  0.12378487502E+04  0.00000000000E+00 0. -1.
          1    1    1    2  502    0  0.11470675969E+02 -0.22062311067E+02  0.26541050154E+03  0.26657279738E+03  0.00000000000E+00 0. -1.
         22    1    3    3    0    0 -0.82632681142E+02  0.32876478400E+02  0.11247182319E+02  0.89641072811E+02  0.00000000000E+00 0. -1.
         22    1    3    3    0    0  0.43199916910E+02  0.45263503278E+02 -0.75369666487E+01  0.63022404082E+02  0.00000000000E+00 0. -1.
</event>
<event>
 7    1  0.6485470E-006  0.2514058E+03  0.7818608E-02  0.1159095E+00
          2   -1    0    0  502    0  0.00000000000E+00  0.00000000000E+00  0.50484248548E+03  0.50484248548E+03  0.00000000000E+00 0. -1.
          1   -1    0    0  501    0 -0.00000000000E+00 -0.00000000000E+00 -0.11992894493E+04  0.11992894493E+04  0.00000000000E+00 0. -1.
         25    2    1    2    0    0  0.10042482095E+03 -0.18803440369E+03 -0.31190182441E+03  0.39792975713E+03  0.12499304741E+03 0.  0.
          2    1    1    2  501    0 -0.12438716766E+03 -0.69599915839E+02 -0.80134286736E+03  0.81392057772E+03  0.00000000000E+00 0. -1.
          1    1    1    2  502    0  0.23962346703E+02  0.25763431953E+03  0.41879772797E+03  0.49228159992E+03  0.00000000000E+00 0. -1.
         22    1    3    3    0    0 -0.15179430797E+02 -0.33724237384E+02 -0.12129636437E+03  0.12680909793E+03  0.00000000000E+00 0.  1.
         22    1    3    3    0    0  0.11560425175E+03 -0.15431016630E+03 -0.19060546004E+03  0.27112065920E+03  0.00000000000E+00 0.  1.
</event>
<event>
 7    1  0.6485470E-006  0.4651969E+02  0.7818608E-02  0.1509042E+00
          2   -1    0    0  502    0  0.00000000000E+00  0.00000000000E+00  0.23164066077E+03  0.23164066077E+03  0.00000000000E+00 0. -1.
          1   -1    0    0  501    0 -0.00000000000E+00 -0.00000000000E+00 -0.23837617315E+03  0.23837617315E+03  0.00000000000E+00 0. -1.
         25    2    1    2    0    0 -0.25590828220E+02 -0.20425538227E+02 -0.11628582898E+03  0.17384805016E+03  0.12501462883E+03 0.  0.
          2    1    1    2  501    0  0.98573430567E+01  0.50792223030E+02 -0.84524780798E+02  0.99103257774E+02  0.00000000000E+00 0. -1.
          1    1    1    2  502    0  0.15733485163E+02 -0.30366684802E+02  0.19407509741E+03  0.19706552599E+03  0.00000000000E+00 0. -1.
         22    1    3    3    0    0  0.20207820743E+02  0.30459908088E+02  0.26145531449E+01  0.36646935862E+02  0.00000000000E+00 0.  1.
         22    1    3    3    0    0 -0.45798648963E+02 -0.50885446315E+02 -0.11890038213E+03  0.13720111430E+03  0.00000000000E+00 0.  1.
</event>
<event>
 7    1  0.6485470E-006  0.7540608E+02  0.7818608E-02  0.1344473E+00
          2   -1    0    0  502    0  0.00000000000E+00  0.00000000000E+00  0.22640831105E+04  0.22640831105E+04  0.00000000000E+00 0. -1.
          1   -1    0    0  501    0 -0.00000000000E+00 -0.00000000000E+00 -0.91833054721E+03  0.91833054721E+03  0.00000000000E+00 0. -1.
         25    2    1    2    0    0  0.25295849708E+02  0.65176322459E+02  0.82895558644E+02  0.16548295347E+03  0.12500040490E+03 0.  0.
          2    1    1    2  501    0  0.48601482489E+02 -0.58365814805E+02 -0.87474738595E+03  0.87803853085E+03  0.00000000000E+00 0. -1.
          1    1    1    2  502    0 -0.73897332198E+02 -0.68105076544E+01  0.21376043906E+04  0.21388921734E+04  0.00000000000E+00 0. -1.
         22    1    3    3    0    0  0.38197510516E+02 -0.18737204082E+02  0.66606081371E+02  0.79034819555E+02  0.00000000000E+00 0. -1.
         22    1    3    3    0    0 -0.12901660808E+02  0.83913526542E+02  0.16289477272E+02  0.86448133919E+02  0.00000000000E+00 0. -1.
</event>
<event>
 7    1  0.6485470E-006  0.1415275E+03  0.7818608E-02  0.1257246E+00
          2   -1    0    0  502    0  0.00000000000E+00  0.00000000000E+00  0.53770983618E+03  0.53770983618E+03  0.00000000000E+00 0. -1.
          1   -1    0    0  501    0 -0.00000000000E+00 -0.00000000000E+00 -0.20292461849E+03  0.20292461849E+03  0.00000000000E+00 0. -1.
         25    2    1    2    0    0 -0.44315569387E+02  0.70226477760E+02  0.17504550148E+01  0.15007687764E+03  0.12499750893E+03 0.  0.
          2    1    1    2  501    0 -0.88019954590E+02  0.75131086073E+01 -0.98636843934E+02  0.13241293815E+03  0.00000000000E+00 0. -1.
          1    1    1    2  502    0  0.13233552398E+03 -0.77739586368E+02  0.43167160660E+03  0.45814463889E+03  0.00000000000E+00 0. -1.
         22    1    3    3    0    0 -0.84576902084E+02  0.45506292745E+02  0.22235191245E+02  0.98582345149E+02  0.00000000000E+00 0. -1.
         22    1    3    3    0    0  0.40261332696E+02  0.24720185015E+02 -0.20484736230E+02  0.51494532488E+02  0.00000000000E+00 0. -1.
</event>
<event>
 7    1  0.9405021E-006  0.1637060E+03  0.7818608E-02  0.1232212E+00
          2   -1    0    0  502    0  0.00000000000E+00  0.00000000000E+00  0.14302767032E+04  0.14302767032E+04  0.00000000000E+00 0. -1.
          1   -1    0    0  501    0 -0.00000000000E+00 -0.00000000000E+00 -0.84825584040E+03  0.84825584040E+03  0.00000000000E+00 0. -1.
         25    2    1    2    0    0 -0.58893170765E+02 -0.10956324670E+03 -0.40909333910E+03  0.44548321766E+03  0.12500170613E+03 0.  0.
          2    1    1    2  501    0 -0.89928515771E+02  0.39658933610E+02 -0.41035850903E+03  0.42196454223E+03  0.00000000000E+00 0. -1.
          1    1    1    2  502    0  0.14882168654E+03  0.69904313086E+02  0.14014727109E+04  0.14110847837E+04  0.00000000000E+00 0. -1.
         22    1    3    3    0    0 -0.41499271305E+02  0.11667109117E+02 -0.49675365378E+02  0.65771976400E+02  0.00000000000E+00 0.  1.
         22    1    3    3    0    0 -0.17393899460E+02 -0.12123035581E+03 -0.35941797372E+03  0.37971124126E+03  0.00000000000E+00 0.  1.
</event>
<event>
 7    1  0.6485470E-006  0.2945490E+02  0.7818608E-02  0.1640972E+00
          2   -1    0    0  502    0  0.00000000000E+00  0.00000000000E+00  0.15165163924E+02  0.15165163924E+02  0.00000000000E+00 0. -1.
          1   -1    0    0  501    0 -0.00000000000E+00 -0.00000000000E+00 -0.76093888614E+03  0.76093888614E+03  0.00000000000E+00 0. -1.
         25    2    1    2    0    0 -0.77805196294E+01 -0.45200745103E+02 -0.43016923148E+03  0.45030407900E+03  0.12499820801E+03 0.  0.
          2    1    1    2  501    0 -0.85312094896E+01  0.22171810204E+02 -0.27680647026E+03  0.27782403186E+03  0.00000000000E+00 0. -1.
          1    1    1    2  502    0  0.16311729119E+02  0.23028934899E+02 -0.38798020478E+02  0.47975939204E+02  0.00000000000E+00 0. -1.
         22    1    3    3    0    0 -0.39632746998E+02 -0.17488296792E+02 -0.38876085417E+03  0.39116696805E+03  0.00000000000E+00 0.  1.
         22    1    3    3    0    0  0.31852227368E+02 -0.27712448312E+02 -0.41408377310E+02  0.59137110947E+02  0.00000000000E+00 0.  1.
</event>
<event>
 7    1  0.6485470E-006  0.2635312E+03  0.7818608E-02  0.1264621E+00
          2   -1    0    0  502    0  0.00000000000E+00  0.00000000000E+00  0.21604315857E+04  0.21604315857E+04  0.00000000000E+00 0. -1.
          1   -1    0    0  501    0 -0.00000000000E+00 -0.00000000000E+00 -0.75892137467E+03  0.75892137467E+03  0.00000000000E+00 0. -1.
         25    2    1    2    0    0  0.59205363099E+02  0.25450695581E+03  0.16712451958E+03  0.33441698764E+03  0.12500020401E+03 0.  0.
          2    1    1    2  501    0  0.42775254759E+02 -0.10851078588E+02 -0.66540717391E+03  0.66686893422E+03  0.00000000000E+00 0. -1.
          1    1    1    2  502    0 -0.10198061786E+03 -0.24365587722E+03  0.18997928653E+04  0.19180670385E+04  0.00000000000E+00 0. -1.
         22    1    3    3    0    0 -0.25665506224E+02  0.50478353427E+02 -0.11871528077E+01  0.56640901355E+02  0.00000000000E+00 0. -1.
         22    1    3    3    0    0  0.84870869324E+02  0.20402860238E+03  0.16831167239E+03  0.27777608628E+03  0.00000000000E+00 0. -1.
</event>
<event>
 7    1  0.6485470E-006  0.6502985E+02  0.7818608E-02  0.1393475E+00
          2   -1    0    0  502    0  0.00000000000E+00  0.00000000000E+00  0.51487986819E+03  0.51487986819E+03  0.00000000000E+00 0. -1.
          1   -1    0    0  501    0 -0.00000000000E+00 -0.00000000000E+00 -0.25887940641E+03  0.25887940641E+03  0.00000000000E+00 0. -1.
         25    2    1    2    0    0 -0.94204950946E+02 -0.73749762537E+02  0.86607340298E+02  0.19349131085E+03  0.12499782288E+03 0.  0.
          2    1    1    2  501    0  0.45914767238E+02  0.34305179631E+02 -0.19876680358E+03  0.20686530256E+03  0.00000000000E+00 0. -1.
          1    1    1    2  502    0  0.48290183708E+02  0.39444582906E+02  0.36815992505E+03  0.37340266118E+03  0.00000000000E+00 0. -1.
         22    1    3    3    0    0 -0.40935873139E+02 -0.10395688485E+03  0.58412773446E+02  0.12607470689E+03  0.00000000000E+00 0. -1.
         22    1    3    3    0    0 -0.53269077808E+02  0.30207122311E+02  0.28194566853E+02  0.67416603955E+02  0.00000000000E+00 0. -1.
</event>
<event>
 7    1  0.6485470E-006  0.5599903E+02  0.7818608E-02  0.1419584E+00
          2   -1    0    0  502    0  0.00000000000E+00  0.00000000000E+00  0.17826675769E+04  0.17826675769E+04  0.00000000000E+00 0. -1.
          1   -1    0    0  501    0 -0.00000000000E+00 -0.00000000000E+00 -0.10284858429E+02  0.10284858429E+02  0.00000000000E+00 0. -1.
         25    2    1    2    0    0 -0.14240078481E+02 -0.47578688465E+02  0.64263087451E+03  0.65655556752E+03  0.12499704370E+03 0.  0.
          2    1    1    2  501    0 -0.44131412160E+02  0.31522544759E+02  0.33691686430E+03  0.34125390228E+03  0.00000000000E+00 0. -1.
          1    1    1    2  502    0  0.58371490641E+02  0.16056143707E+02  0.79283497970E+03  0.79514296557E+03  0.00000000000E+00 0. -1.
         22    1    3    3    0    0 -0.18355895864E+00 -0.69440273574E+02  0.61389308693E+03  0.61780798592E+03  0.00000000000E+00 0.  1.
         22    1    3    3    0    0 -0.14056519522E+02  0.21861585109E+02  0.28737787582E+02  0.38747581598E+02  0.00000000000E+00 0.  1.
</event>
<event>
 7    1  0.6485470E-006  0.1465984E+03  0.7818608E-02  0.1287731E+00
          2   -1    0    0  502    0  0.00000000000E+00  0.00000000000E+00  0.51772795542E+03  0.51772795542E+03  0.00000000000E+00 0. -1.
          1   -1    0    0  501    0 -0.00000000000E+00 -0.00000000000E+00 -0.39912528903E+03  0.39912528903E+03  0.00000000000E+00 0. -1.
         25    2    1    2    0    0 -0.90610232612E+01  0.20099498784E+03  0.26210340259E+03  0.35327646424E+03  0.12499991701E+03 0.  0.
          2    1    1    2  501    0 -0.17128253644E+02 -0.14305590184E+03 -0.33346216477E+03  0.36325663581E+03  0.00000000000E+00 0. -1.
          1    1    1    2  502    0  0.26189276905E+02 -0.57939085996E+02  0.18996142857E+03  0.20032014440E+03  0.00000000000E+00 0. -1.
         22    1    3    3    0    0 -0.64981024489E+02  0.12050260448E+03  0.17470657791E+03  0.22195900431E+03  0.00000000000E+00 0. -1.
         22    1    3    3    0    0  0.55920001228E+02  0.80492383362E+02  0.87396824681E+02  0.13131745992E+03  0.00000000000E+00 0. -1.
</event>
<event>
 7    1  0.6485470E-006  0.8703559E+02  0.7818608E-02  0.1441927E+00
          2   -1    0    0  502    0  0.00000000000E+00  0.00000000000E+00  0.92660138522E+03  0.92660138522E+03  0.00000000000E+00 0. -1.
          1   -1    0    0  501    0 -0.00000000000E+00 -0.00000000000E+00 -0.18953129170E+04  0.18953129170E+04  0.00000000000E+00 0. -1.
         25    2    1    2    0    0  0.79066737818E+02  0.57990140839E+02 -0.62922257607E+02  0.17087235174E+03  0.12499497839E+03 0.  0.
          2    1    1    2  501    0 -0.27063781848E+02  0.11643988542E+02 -0.17761292047E+04  0.17763735481E+04  0.00000000000E+00 0. -1.
          1    1    1    2  502    0 -0.52002955970E+02 -0.69634129381E+02  0.87033993052E+03  0.87466840234E+03  0.00000000000E+00 0. -1.
         22    1    3    3    0    0 -0.15964505791E+02  0.45319350388E+02  0.11616153304E+02  0.49433227513E+02  0.00000000000E+00 0.  1.
         22    1    3    3    0    0  0.95031243608E+02  0.12670790450E+02 -0.74538410911E+02  0.12143912423E+03  0.00000000000E+00 0.  1.
</event>
<event>
 7    1  0.6485470E-006  0.5124135E+02  0.7818608E-02  0.1471197E+00
          2   -1    0    0  502    0  0.00000000000E+00  0.00000000000E+00  0.13975972016E+03  0.13975972016E+03  0.00000000000E+00 0. -1.
          1   -1    0    0  501    0 -0.00000000000E+00 -0.00000000000E+00 -0.15023889677E+03  0.15023889677E+03  0.00000000000E+00 0. -1.
         25    2    1    2    0    0  0.28310961420E+02 -0.72172512925E+02 -0.11264109415E+02  0.14751776357E+03  0.12499691296E+03 0.  0.
          2    1    1    2  501    0  0.43851500142E+01  0.48415848269E+02 -0.55121160235E+02  0.73496028531E+02  0.00000000000E+00 0. -1.
          1    1    1    2  502    0 -0.32696111434E+02  0.23756664656E+02  0.55906093034E+02  0.68984824830E+02  0.00000000000E+00 0. -1.
         22    1    3    3    0    0 -0.41486826354E+02 -0.59427540201E+02  0.10659913171E+02  0.73255873785E+02  0.00000000000E+00 0. -1.
         22    1    3    3    0    0  0.69797787774E+02 -0.12744972724E+02 -0.21924022587E+02  0.74261889784E+02  0.00000000000E+00 0. -1.
</event>
<event>
 7    1  0.6485470E-006  0.8258839E+02  0.7818608E-02  0.1323546E+00
          2   -1    0    0  502    0  0.00000000000E+00  0.00000000000E+00  0.14599032575E+04  0.14599032575E+04  0.00000000000E+00 0. -1.
          1   -1    0    0  501    0 -0.00000000000E+00 -0.00000000000E+00 -0.16478594791E+03  0.16478594791E+03  0.00000000000E+00 0. -1.
         25    2    1    2    0    0 -0.57631931722E+02  0.90089059344E+01  0.46415013696E+03  0.48421191471E+03  0.12499291488E+03 0.  0.
          2    1    1    2  501    0  0.17137610857E+02 -0.80988435034E+02 -0.14180823345E+03  0.16420231237E+03  0.00000000000E+00 0. -1.
          1    1    1    2  502    0  0.40494320865E+02  0.71979529099E+02  0.97277540608E+03  0.97627497833E+03  0.00000000000E+00 0. -1.
         22    1    3    3    0    0 -0.80804283307E+02 -0.34856314977E+02  0.31241935155E+03  0.32457687243E+03  0.00000000000E+00 0. -1.
         22    1    3    3    0    0  0.23172351585E+02  0.43865220911E+02  0.15173078541E+03  0.15963504228E+03  0.00000000000E+00 0. -1.
</event>
<event>
 7    1  0.6485470E-006  0.8875206E+02  0.7818608E-02  0.1480753E+00
          2   -1    0    0  502    0  0.00000000000E+00  0.00000000000E+00  0.91123137002E+02  0.91123137002E+02  0.00000000000E+00 0. -1.
          1   -1    0    0  501    0 -0.00000000000E+00 -0.00000000000E+00 -0.11232443748E+04  0.11232443748E+04  0.00000000000E+00 0. -1.
         25    2    1    2    0    0  0.71077306086E+02 -0.10266123996E+02 -0.82963380724E+03  0.84206357613E+03  0.12498574073E+03 0.  0.
          2    1    1    2  501    0  0.14004985393E+02 -0.16709842220E+02 -0.26336331846E+03  0.26426425402E+03  0.00000000000E+00 0. -1.
          1    1    1    2  502    0 -0.85082291479E+02  0.26975966215E+02  0.60875887923E+02  0.10803968163E+03  0.00000000000E+00 0. -1.
         22    1    3    3    0    0  0.89970485325E+01 -0.48239237143E+02 -0.13525015955E+03  0.14387694931E+03  0.00000000000E+00 0.  1.
         22    1    3    3    0    0  0.62080257554E+02  0.37973113147E+02 -0.69438364768E+03  0.69818662682E+03  0.00000000000E+00 0.  1.
</event>
<event>
 7    1  0.6485470E-006  0.7838457E+02  0.7818608E-02  0.1475464E+00
          2   -1    0    0  502    0  0.00000000000E+00  0.00000000000E+00  0.13679157757E+04  0.13679157757E+04  0.00000000000E+00 0. -1.
          1   -1    0    0  501    0 -0.00000000000E+00 -0.00000000000E+00 -0.19079716312E+03  0.19079716312E+03  0.00000000000E+00 0. -1.
         25    2    1    2    0    0  0.60825952331E+02  0.63830818140E+02  0.14032709227E+03  0.20758438314E+03  0.12500165391E+03 0.  0.
          2    1    1    2  501    0 -0.35794363699E+02 -0.69330723328E+02 -0.14733745912E+03  0.16672226165E+03  0.00000000000E+00 0. -1.
          1    1    1    2  502    0 -0.25031588632E+02  0.54999051884E+01  0.11841289795E+04  0.11844062941E+04  0.00000000000E+00 0. -1.
         22    1    3    3    0    0  0.63930661953E+02  0.79734371212E+02  0.15504266628E+03  0.18569579386E+03  0.00000000000E+00 0. -1.
         22    1    3    3    0    0 -0.31047096226E+01 -0.15903553072E+02 -0.14715574016E+02  0.21888589282E+02  0.00000000000E+00 0. -1.
</event>
<event>
 7    1  0.6485470E-006  0.5801692E+02  0.7818608E-02  0.1524757E+00
          2   -1    0    0  502    0  0.00000000000E+00  0.00000000000E+00  0.57431754286E+03  0.57431754286E+03  0.00000000000E+00 0. -1.
          1   -1    0    0  501    0 -0.00000000000E+00 -0.00000000000E+00 -0.86331475477E+03  0.86331475477E+03  0.00000000000E+00 0. -1.
         25    2    1    2    0    0 -0.13306277940E+02 -0.43911871944E+02  0.13078670826E+03  0.18664314110E+03  0.12500075812E+03 0.  0.
          2    1    1    2  501    0  0.37982947964E+02  0.43990300750E+02 -0.83400803371E+03  0.83603065206E+03  0.00000000000E+00 0. -1.
          1    1    1    2  502    0 -0.24676670024E+02 -0.78428806679E-01  0.41422411354E+03  0.41495850447E+03  0.00000000000E+00 0. -1.
         22    1    3    3    0    0  0.24985846134E+01  0.40966448169E+02  0.18547516844E+02  0.45038907422E+02  0.00000000000E+00 0.  1.
         22    1    3    3    0    0 -0.15804862553E+02 -0.84878320113E+02  0.11223919142E+03  0.14160423368E+03  0.00000000000E+00 0.  1.
</event>
<event>
 7    1  0.6485470E-006  0.4620704E+02  0.7818608E-02  0.1499825E+00
          2   -1    0    0  502    0  0.00000000000E+00  0.00000000000E+00  0.37069694535E+03  0.37069694535E+03  0.00000000000E+00 0. -1.
          1   -1    0    0  501    0 -0.00000000000E+00 -0.00000000000E+00 -0.45548085172E+03  0.45548085172E+03  0.00000000000E+00 0. -1.
         25    2    1    2    0    0 -0.50285934976E+02  0.40738041037E+02 -0.10471407165E+03  0.17544325762E+03  0.12500814613E+03 0.  0.
          2    1    1    2  501    0  0.13737023871E+02 -0.43704545466E+02 -0.31272580180E+03  0.31606363320E+03  0.00000000000E+00 0. -1.
          1    1    1    2  502    0  0.36548911105E+02  0.29665044291E+01  0.33265596708E+03  0.33467090625E+03  0.00000000000E+00 0. -1.
         22    1    3    3    0    0  0.26711375597E+02  0.14546413790E+01  0.12724324346E+02  0.29622997787E+02  0.00000000000E+00 0.  1.
         22    1    3    3    0    0 -0.76997310573E+02  0.39283399658E+02 -0.11743839600E+03  0.14582025984E+03  0.00000000000E+00 0.  1.
</event>
<event>
 7    1  0.6485470E-006  0.2228351E+03  0.7818608E-02  0.1292185E+00
          2   -1    0    0  502    0  0.00000000000E+00  0.00000000000E+00  0.49568825756E+03  0.49568825756E+03  0.00000000000E+00 0. -1.
          1   -1    0    0  501    0 -0.00000000000E+00 -0.00000000000E+00 -0.12938330747E+04  0.12938330747E+04  0.00000000000E+00 0. -1.
         25    2    1    2    0    0 -0.82891934302E+02 -0.24692148013E+03  0.13087104586E+03  0.31716274984E+03  0.12499475638E+03 0.  0.
          2    1    1    2  501    0  0.63432195560E+02  0.21183564660E+03 -0.11889538637E+04  0.12093424968E+04  0.00000000000E+00 0. -1.
          1    1    1    2  502    0  0.19459738743E+02  0.35085833524E+02  0.25993800063E+03  0.26301608566E+03  0.00000000000E+00 0. -1.
         22    1    3    3    0    0 -0.10768711250E+03 -0.13363243179E+03  0.92786682096E+02  0.19509871706E+03  0.00000000000E+00 0. -1.
         22    1    3    3    0    0  0.24795178199E+02 -0.11328904834E+03  0.38084363764E+02  0.12206403278E+03  0.00000000000E+00 0. -1.
</event>
<event>
 7    1  0.6485470E-006  0.5994121E+02  0.7818608E-02  0.1479978E+00
          2   -1    0    0  502    0  0.00000000000E+00  0.00000000000E+00  0.18714102599E+04  0.18714102599E+04  0.00000000000E+00 0. -1.
          1   -1    0    0  501    0 -0.00000000000E+00 -0.00000000000E+00 -0.39045761388E+03  0.39045761388E+03  0.00000000000E+00 0. -1.
         25    2    1    2    0    0  0.36200968528E+02 -0.58450016414E+02  0.90225439257E+03  0.91346405101E+03  0.12500667596E+03 0.  0.
          2    1    1    2  501    0 -0.37705193317E+01  0.59820716271E+02 -0.38224325316E+03  0.38691425341E+03  0.00000000000E+00 0. -1.
          1    1    1    2  502    0 -0.32430449197E+02 -0.13706998576E+01  0.96094150663E+03  0.96148956937E+03  0.00000000000E+00 0. -1.
         22    1    3    3    0    0 -0.25320707435E+02 -0.48435693950E+02  0.69225970194E+03  0.69441388927E+03  0.00000000000E+00 0. -1.
         22    1    3    3    0    0  0.61521675964E+02 -0.10014322464E+02  0.20999469062E+03  0.21905016174E+03  0.00000000000E+00 0. -1.
</event>
<event>
 7    1  0.6485470E-006  0.2006816E+03  0.7818608E-02  0.1196547E+00
          2   -1    0    0  502    0  0.00000000000E+00  0.00000000000E+00  0.31007561673E+04  0.31007561673E+04  0.00000000000E+00 0. -1.
          1   -1    0    0  501    0 -0.00000000000E+00 -0.00000000000E+00 -0.23676166358E+03  0.23676166358E+03  0.00000000000E+00 0. -1.
         25    2    1    2    0    0  0.78991098105E+02  0.28448279470E+03  0.79145143340E+03  0.85392685179E+03  0.12500257083E+03 0.  0.
          2    1    1    2  501    0 -0.67692958930E+02 -0.95446220129E+02 -0.18457573442E+03  0.21854180233E+03  0.00000000000E+00 0. -1.
          1    1    1    2  502    0 -0.11298139175E+02 -0.18903657457E+03  0.22571188047E+04  0.22650491768E+04  0.00000000000E+00 0. -1.
         22    1    3    3    0    0 -0.75228695824E+01 -0.10664362203E+02  0.32730171006E+02  0.35236150216E+02  0.00000000000E+00 0. -1.
         22    1    3    3    0    0  0.86513967687E+02  0.29514715690E+03  0.75872126240E+03  0.81869070157E+03  0.00000000000E+00 0. -1.
</event>
<event>
 7    1  0.6485470E-006  0.1358068E+03  0.7818608E-02  0.1298475E+00
          2   -1    0    0  502    0  0.00000000000E+00  0.00000000000E+00  0.85454313650E+03  0.85454313650E+03  0.00000000000E+00 0. -1.
          1   -1    0    0  501    0 -0.00000000000E+00 -0.00000000000E+00 -0.15054603260E+03  0.15054603260E+03  0.00000000000E+00 0. -1.
         25    2    1    2    0    0  0.12572372171E+03  0.14280742023E+03  0.28789026022E+03  0.36702843895E+03  0.12501463753E+03 0.  0.
          2    1    1    2  501    0 -0.77435293230E+02 -0.10376683676E+03 -0.70556556263E+02  0.14745171643E+03  0.00000000000E+00 0. -1.
          1    1    1    2  502    0 -0.48288428483E+02 -0.39040583472E+02  0.48666339994E+03  0.49060901370E+03  0.00000000000E+00 0. -1.
         22    1    3    3    0    0  0.40890036822E+02  0.97924569011E+02  0.23404836055E+03  0.25698220055E+03  0.00000000000E+00 0.  1.
         22    1    3    3    0    0  0.84833684890E+02  0.44882851215E+02  0.53841899677E+02  0.11004623840E+03  0.00000000000E+00 0.  1.
</event>
<event>
 7    1  0.6485470E-006  0.1131086E+03  0.7818608E-02  0.1319129E+00
          2   -1    0    0  502    0  0.00000000000E+00  0.00000000000E+00  0.72615766153E+03  0.72615766153E+03  0.00000000000E+00 0. -1.
          1   -1    0    0  501    0 -0.00000000000E+00 -0.00000000000E+00 -0.43421810100E+03  0.43421810100E+03  0.00000000000E+00 0. -1.
         25    2    1    2    0    0 -0.15360920625E+03 -0.46896668441E+02  0.16235443496E+03  0.26033381956E+03  0.12497859536E+03 0.  0.
          2    1    1    2  501    0  0.61130968469E+02 -0.90203150014E+01 -0.37701392882E+03  0.38204432192E+03  0.00000000000E+00 0. -1.
          1    1    1    2  502    0  0.92478237782E+02  0.55916983442E+02  0.50659905439E+03  0.51799762105E+03  0.00000000000E+00 0. -1.
         22    1    3    3    0    0 -0.12225108921E+03  0.25194624154E+02  0.96282100615E+02  0.15763990865E+03  0.00000000000E+00 0. -1.
         22    1    3    3    0    0 -0.31358117038E+02 -0.72091292595E+02  0.66072334348E+02  0.10269391091E+03  0.00000000000E+00 0. -1.
</event>
<event>
 7    1  0.6485470E-006  0.9467045E+02  0.7818608E-02  0.1350259E+00
          2   -1    0    0  502    0  0.00000000000E+00  0.00000000000E+00  0.18176860532E+03  0.18176860532E+03  0.00000000000E+00 0. -1.
          1   -1    0    0  501    0 -0.00000000000E+00 -0.00000000000E+00 -0.33227751437E+03  0.33227751437E+03  0.00000000000E+00 0. -1.
         25    2    1    2    0    0  0.10195596779E+02 -0.65606904343E+02 -0.15835263409E+03  0.21238721595E+03  0.12499822674E+03 0.  0.
          2    1    1    2  501    0 -0.51108829406E+02 -0.23496645915E+02 -0.12469508125E+03  0.13679571668E+03  0.00000000000E+00 0. -1.
          1    1    1    2  502    0  0.40913232626E+02  0.89103550258E+02  0.13253880629E+03  0.16486318705E+03  0.00000000000E+00 0. -1.
         22    1    3    3    0    0  0.45338171865E+02  0.74048516872E+01 -0.10702913599E+03  0.11647153132E+03  0.00000000000E+00 0.  1.
         22    1    3    3    0    0 -0.35142575086E+02 -0.73011756030E+02 -0.51323498093E+02  0.95915684634E+02  0.00000000000E+00 0.  1.
</event>
<event>
 7    1  0.6485470E-006  0.5536715E+02  0.7818608E-02  0.1479623E+00
          2   -1    0    0  502    0  0.00000000000E+00  0.00000000000E+00  0.34231345269E+03  0.34231345269E+03  0.00000000000E+00 0. -1.
          1   -1    0    0  501    0 -0.00000000000E+00 -0.00000000000E+00 -0.62518115568E+02  0.62518115568E+02  0.00000000000E+00 0. -1.
         25    2    1    2    0    0 -0.72965275824E+02 -0.43159641813E+02  0.12024855343E+03  0.19306593709E+03  0.12501222062E+03 0.  0.
          2    1    1    2  501    0  0.34336395639E+02  0.78810253194E+01 -0.80980382823E+01  0.36147985415E+02  0.00000000000E+00 0. -1.
          1    1    1    2  502    0  0.38628880185E+02  0.35278616494E+02  0.16764482197E+03  0.17561764575E+03  0.00000000000E+00 0. -1.
         22    1    3    3    0    0 -0.10460314213E+03 -0.14916169907E+02  0.67496817311E+02  0.12537994184E+03  0.00000000000E+00 0. -1.
         22    1    3    3    0    0  0.31637866304E+02 -0.28243471907E+02  0.52751736120E+02  0.67685995252E+02  0.00000000000E+00 0. -1.
</event>
<event>
 7    1  0.6485470E-006  0.3350224E+02  0.7818608E-02  0.1571461E+00
          2   -1    0    0  502    0  0.00000000000E+00  0.00000000000E+00  0.99462002153E+03  0.99462002153E+03  0.00000000000E+00 0. -1.
          1   -1    0    0  501    0 -0.00000000000E+00 -0.00000000000E+00 -0.43428045421E+03  0.43428045421E+03  0.00000000000E+00 0. -1.
         25    2    1    2    0    0 -0.36005802430E+02 -0.20585641045E+02 -0.23102244821E+03  0.26592580807E+03  0.12499990959E+03 0.  0.
          2    1    1    2  501    0  0.42701939106E+01  0.31342797751E+02 -0.18417026445E+03  0.18686704320E+03  0.00000000000E+00 0. -1.
          1    1    1    2  502    0  0.31735608519E+02 -0.10757156705E+02  0.97553227997E+03  0.97610762446E+03  0.00000000000E+00 0. -1.
         22    1    3    3    0    0  0.12922275617E+01 -0.42343519780E+02 -0.13951047185E+02  0.44601291876E+02  0.00000000000E+00 0. -1.
         22    1    3    3    0    0 -0.37298029992E+02  0.21757878734E+02 -0.21707140102E+03  0.22132451620E+03  0.00000000000E+00 0. -1.
</event>
<event>
 7    1  0.6485470E-006  0.5467208E+02  0.7818608E-02  0.1438468E+00
          2   -1    0    0  502    0  0.00000000000E+00  0.00000000000E+00  0.27654386018E+04  0.27654386018E+04  0.00000000000E+00 0. -1.
          1   -1    0    0  501    0 -0.00000000000E+00 -0.00000000000E+00 -0.33954311042E+03  0.33954311042E+03  0.00000000000E+00 0. -1.
         25    2    1    2    0    0  0.43320700673E+01 -0.49150203007E+02  0.61176059030E+03  0.62634163495E+03  0.12497325529E+03 0.  0.
          2    1    1    2  501    0  0.43610054664E+02  0.20364354342E+02 -0.33014309299E+03  0.33363304040E+03  0.00000000000E+00 0. -1.
          1    1    1    2  502    0 -0.47942124731E+02  0.28785848665E+02  0.21442779941E+04  0.21450070369E+04  0.00000000000E+00 0. -1.
         22    1    3    3    0    0 -0.47412235065E+02  0.13219384717E+02  0.31024657059E+03  0.31412673673E+03  0.00000000000E+00 0.  1.
         22    1    3    3    0    0  0.51744305133E+02 -0.62369587724E+02  0.30151401971E+03  0.31221489821E+03  0.00000000000E+00 0.  1.
</event>
<event>
 7    1  0.6485470E-006  0.4280351E+02  0.7818608E-02  0.1578139E+00
          2   -1    0    0  502    0  0.00000000000E+00  0.00000000000E+00  0.64220111380E+03  0.64220111380E+03  0.00000000000E+00 0. -1.
          1   -1    0    0  501    0 -0.00000000000E+00 -0.00000000000E+00 -0.10076407460E+04  0.10076407460E+04  0.00000000000E+00 0. -1.
         25    2    1    2    0    0 -0.25770782651E+02 -0.31881487459E+02 -0.24719955944E+03  0.28002009890E+03  0.12499228424E+03 0.  0.
          2    1    1    2  501    0  0.21204684330E+02 -0.10701104740E+02 -0.74310822486E+03  0.74348771754E+03  0.00000000000E+00 0. -1.
          1    1    1    2  502    0  0.45660983217E+01  0.42582592200E+02  0.62486815207E+03  0.62633404337E+03  0.00000000000E+00 0. -1.
         22    1    3    3    0    0  0.36292310427E+02  0.27560718349E+02 -0.82608796955E+02  0.94344784309E+02  0.00000000000E+00 0. -1.
         22    1    3    3    0    0 -0.62063093078E+02 -0.59442205808E+02 -0.16459076248E+03  0.18567531459E+03  0.00000000000E+00 0. -1.
</event>
<event>
 7    1  0.6485470E-006  0.8132006E+02  0.7818608E-02  0.1390608E+00
          2   -1    0    0  502    0  0.00000000000E+00  0.00000000000E+00  0.33934845550E+04  0.33934845550E+04  0.00000000000E+00 0. -1.
          1   -1    0    0  501    0 -0.00000000000E+00 -0.00000000000E+00 -0.32634930713E+03  0.32634930713E+03  0.00000000000E+00 0. -1.
         25    2    1    2    0    0  0.93268563838E+02 -0.65524338561E+02  0.23495424418E+03  0.28952179236E+03  0.12500762955E+03 0.  0.
          2    1    1    2  501    0 -0.77946119526E+02  0.21199656678E+02 -0.29343190145E+03  0.30434734068E+03  0.00000000000E+00 0. -1.
          1    1    1    2  502    0 -0.15322444312E+02  0.44324681883E+02  0.31256129052E+04  0.31259647291E+04  0.00000000000E+00 0. -1.
         22    1    3    3    0    0  0.50425727977E+01 -0.42815221281E+02  0.17554364599E+03  0.18075990252E+03  0.00000000000E+00 0.  1.
         22    1    3    3    0    0  0.88225991040E+02 -0.22709117280E+02  0.59410598198E+02  0.10876188984E+03  0.00000000000E+00 0.  1.
</event>
<event>
 7    1  0.6485470E-006  0.8103811E+02  0.7818608E-02  0.1371291E+00
          2   -1    0    0  502    0  0.00000000000E+00  0.00000000000E+00  0.10537469326E+04  0.10537469326E+04  0.00000000000E+00 0. -1.
          1   -1    0    0  501    0 -0.00000000000E+00 -0.00000000000E+00 -0.37761788399E+04  0.37761788399E+04  0.00000000000E+00 0. -1.
         25    2    1    2    0    0  0.29348590869E+01  0.11646650800E+03  0.29659822208E+03  0.34229611983E+03  0.12499226946E+03 0.  0.
          2    1    1    2  501    0 -0.33218033755E+02 -0.43935129207E+02 -0.37510238082E+04  0.37514281738E+04  0.00000000000E+00 0. -1.
          1    1    1    2  502    0  0.30283174669E+02 -0.72531378798E+02  0.73199367885E+03  0.73620147884E+03  0.00000000000E+00 0. -1.
         22    1    3    3    0    0  0.79221505643E+01  0.13322095117E+03  0.29612521055E+03  0.32480874776E+03  0.00000000000E+00 0.  1.
         22    1    3    3    0    0 -0.49872914773E+01 -0.16754443165E+02  0.47301153320E+00  0.17487372071E+02  0.00000000000E+00 0.  1.
</event>
<event>
 7    1  0.6485470E-006  0.4616156E+02  0.7818608E-02  0.1564683E+00
          2   -1    0    0  502    0  0.00000000000E+00  0.00000000000E+00  0.99509629153E+03  0.99509629153E+03  0.00000000000E+00 0. -1.
          1   -1    0    0  501    0 -0.00000000000E+00 -0.00000000000E+00 -0.24169587873E+03  0.24169587873E+03  0.00000000000E+00 0. -1.
         25    2    1    2    0    0  0.59757575716E+02  0.33250495242E+02  0.92371346610E+02  0.16981038091E+03  0.12500614585E+03 0.  0.
          2    1    1    2  501    0 -0.16934293201E+02 -0.16942538497E+02 -0.20165940971E+03  0.20307717110E+03  0.00000000000E+00 0. -1.
          1    1    1    2  502    0 -0.42823282515E+02 -0.16307956745E+02  0.86268847591E+03  0.86390461825E+03  0.00000000000E+00 0. -1.
         22    1    3    3    0    0  0.60931982235E+02 -0.12546750798E+02 -0.47856398350E+01  0.62394148470E+02  0.00000000000E+00 0. -1.
         22    1    3    3    0    0 -0.11744065187E+01  0.45797246040E+02  0.97156986445E+02  0.10741623244E+03  0.00000000000E+00 0. -1.
</event>
<event>
 7    1  0.6485470E-006  0.5380455E+02  0.7818608E-02  0.1467972E+00
          2   -1    0    0  502    0  0.00000000000E+00  0.00000000000E+00  0.56166471353E+03  0.56166471353E+03  0.00000000000E+00 0. -1.
          1   -1    0    0  501    0 -0.00000000000E+00 -0.00000000000E+00 -0.53314106002E+03  0.53314106002E+03  0.00000000000E+00 0. -1.
         25    2    1    2    0    0  0.16281035061E+02  0.37666042920E+01 -0.80762781750E+02  0.14975205562E+03  0.12499516725E+03 0.  0.
          2    1    1    2  501    0  0.37213006897E+02 -0.12914368277E+02 -0.41555306109E+03  0.41741578237E+03  0.00000000000E+00 0. -1.
          1    1    1    2  502    0 -0.53494041958E+02  0.91477639850E+01  0.52483949635E+03  0.52763793556E+03  0.00000000000E+00 0. -1.
         22    1    3    3    0    0  0.62577297461E+01  0.52608123388E+02  0.21275191523E+01  0.53021695236E+02  0.00000000000E+00 0.  1.
         22    1    3    3    0    0  0.10023305314E+02 -0.48841519096E+02 -0.82890300903E+02  0.96730360388E+02  0.00000000000E+00 0.  1.
</event>
<event>
 7    1  0.6485470E-006  0.2560800E+02  0.7818608E-02  0.1686901E+00
          2   -1    0    0  502    0  0.00000000000E+00  0.00000000000E+00  0.36757789933E+02  0.36757789933E+02  0.00000000000E+00 0. -1.
          1   -1    0    0  501    0 -0.00000000000E+00 -0.00000000000E+00 -0.15486346188E+04  0.15486346188E+04  0.00000000000E+00 0. -1.
         25    2    1    2    0    0  0.12170154042E+02  0.65683888042E+01 -0.17193347019E+03  0.21301960309E+03  0.12499990699E+03 0.  0.
          2    1    1    2  501    0  0.12112326940E+02 -0.17370177391E+02 -0.13451284189E+04  0.13452950959E+04  0.00000000000E+00 0. -1.
          1    1    1    2  502    0 -0.24282480982E+02  0.10801788586E+02  0.51850602241E+01  0.27077709815E+02  0.00000000000E+00 0. -1.
         22    1    3    3    0    0  0.35169131199E+01 -0.59261719603E+02 -0.80960592964E+02  0.10039391267E+03  0.00000000000E+00 0. -1.
         22    1    3    3    0    0  0.86532409225E+01  0.65830108408E+02 -0.90972877227E+02  0.11262569042E+03  0.00000000000E+00 0. -1.
</event>
<event>
 7    1  0.6485470E-006  0.5298653E+03  0.7818608E-02  0.1206526E+00
          2   -1    0    0  502    0  0.00000000000E+00  0.00000000000E+00  0.22526660138E+04  0.22526660138E+04  0.00000000000E+00 0. -1.
          1   -1    0    0  501    0 -0.00000000000E+00 -0.00000000000E+00 -0.79876851674E+03  0.79876851674E+03  0.00000000000E+00 0. -1.
         25    2    1    2    0    0  0.45250821458E+03  0.29431496346E+03 -0.33359931345E+03  0.64676192073E+03  0.12500999237E+03 0.  0.
          2    1    1    2  501    0  0.10731441419E+02 -0.38302540299E+02 -0.27371586287E+03  0.27659107363E+03  0.00000000000E+00 0. -1.
          1    1    1    2  502    0 -0.46323965600E+03 -0.25601242316E+03  0.20612126734E+04  0.21280815362E+04  0.00000000000E+00 0. -1.
         22    1    3    3    0    0  0.12214829454E+03  0.19676979891E+02 -0.88916486370E+02  0.15235987314E+03  0.00000000000E+00 0. -1.
         22    1    3    3    0    0  0.33035992004E+03  0.27463798357E+03 -0.24468282708E+03  0.49440204758E+03  0.00000000000E+00 0. -1.
</event>
<event>
 7    1  0.6485470E-006  0.3092308E+02  0.7818608E-02  0.1645751E+00
          2   -1    0    0  502    0  0.00000000000E+00  0.00000000000E+00  0.14754263584E+04  0.14754263584E+04  0.00000000000E+00 0. -1.
          1   -1    0    0  501    0 -0.00000000000E+00 -0.00000000000E+00 -0.98036102726E+01  0.98036102726E+01  0.00000000000E+00 0. -1.
         25    2    1    2    0    0  0.65808698166E+01 -0.15127345900E+02  0.69436126735E+03  0.70571559734E+03  0.12499916116E+03 0.  0.
          2    1    1    2  501    0  0.22010030350E+02  0.70042415007E+00  0.28277826564E+02  0.35840863623E+02  0.00000000000E+00 0. -1.
          1    1    1    2  502    0 -0.28590900167E+02  0.14426921750E+02  0.74298365416E+03  0.74367350766E+03  0.00000000000E+00 0. -1.
         22    1    3    3    0    0 -0.35529253248E+02 -0.11723958846E+02  0.65464957638E+02  0.75401854924E+02  0.00000000000E+00 0.  1.
         22    1    3    3    0    0  0.42110123065E+02 -0.34033870540E+01  0.62889630971E+03  0.63031374242E+03  0.00000000000E+00 0.  1.
</event>
<event>
 7    1  0.6485470E-006  0.4191150E+02  0.7818608E-02  0.1582515E+00
          2   -1    0    0  502    0  0.00000000000E+00  0.00000000000E+00  0.15712644009E+04  0.15712644009E+04  0.00000000000E+00 0. -1.
          1   -1    0    0  501    0 -0.00000000000E+00 -0.00000000000E+00 -0.89909992767E+03  0.89909992767E+03  0.00000000000E+00 0. -1.
         25    2    1    2    0    0  0.12481191395E+02  0.32444322201E+02  0.33573366688E+03  0.35993170280E+03  0.12500128570E+03 0.  0.
          2    1    1    2  501    0 -0.34477641216E+02 -0.23862945976E+02 -0.88639135021E+03  0.88738254077E+03  0.00000000000E+00 0. -1.
          1    1    1    2  502    0  0.21996449821E+02 -0.85813762247E+01  0.12228221565E+04  0.12230500850E+04  0.00000000000E+00 0. -1.
         22    1    3    3    0    0  0.56855304671E+00 -0.34499736627E+02  0.24023014874E+03  0.24269544586E+03  0.00000000000E+00 0.  1.
         22    1    3    3    0    0  0.11912638348E+02  0.66944058828E+02  0.95503518138E+02  0.11723625694E+03  0.00000000000E+00 0.  1.
</event>
<event>
 7    1  0.6485470E-006  0.1212612E+03  0.7818608E-02  0.1352846E+00
          2   -1    0    0  502    0  0.00000000000E+00  0.00000000000E+00  0.37147739672E+03  0.37147739672E+03  0.00000000000E+00 0. -1.
          1   -1    0    0  501    0 -0.00000000000E+00 -0.00000000000E+00 -0.69800224913E+03  0.69800224913E+03  0.00000000000E+00 0. -1.
         25    2    1    2    0    0 -0.59833446436E+02  0.15094109239E+03 -0.20126112068E+03  0.28721095819E+03  0.12498336337E+03 0.  0.
          2    1    1    2  501    0  0.14754324537E+02 -0.40346733962E+02 -0.44183513779E+03  0.44391872907E+03  0.00000000000E+00 0. -1.
          1    1    1    2  502    0  0.45079121899E+02 -0.11059435843E+03  0.31657140606E+03  0.33834995860E+03  0.00000000000E+00 0. -1.
         22    1    3    3    0    0 -0.94112138064E+01 -0.18527768032E+02 -0.51372495296E+02  0.55416445271E+02  0.00000000000E+00 0.  1.
         22    1    3    3    0    0 -0.50422232630E+02  0.16946886043E+03 -0.14988862539E+03  0.23179451291E+03  0.00000000000E+00 0.  1.
</event>
<event>
 7    1  0.6485470E-006  0.8873837E+02  0.7818608E-02  0.1353611E+00
          2   -1    0    0  502    0  0.00000000000E+00  0.00000000000E+00  0.20728035000E+03  0.20728035000E+03  0.00000000000E+00 0. -1.
          1   -1    0    0  501    0 -0.00000000000E+00 -0.00000000000E+00 -0.52218431106E+03  0.52218431106E+03  0.00000000000E+00 0. -1.
         25    2    1    2    0    0  0.43530730503E+02  0.14407689586E+00 -0.12079860531E+03  0.17920157629E+03  0.12500382651E+03 0.  0.
          2    1    1    2  501    0  0.38031474996E+02  0.44219804077E+02 -0.35755645297E+03  0.36228221213E+03  0.00000000000E+00 0. -1.
          1    1    1    2  502    0 -0.81562205499E+02 -0.44363880972E+02  0.16345109722E+03  0.18798087265E+03  0.00000000000E+00 0. -1.
         22    1    3    3    0    0  0.50390470011E+02  0.54335172631E+02 -0.48408300813E+02  0.88514823845E+02  0.00000000000E+00 0. -1.
         22    1    3    3    0    0 -0.68597395081E+01 -0.54191095735E+02 -0.72390304496E+02  0.90686752440E+02  0.00000000000E+00 0. -1.
</event>
<event>
 7    1  0.6485470E-006  0.8982169E+02  0.7818608E-02  0.1322036E+00
          2   -1    0    0  502    0  0.00000000000E+00  0.00000000000E+00  0.31939060752E+04  0.31939060752E+04  0.00000000000E+00 0. -1.
          1   -1    0    0  501    0 -0.00000000000E+00 -0.00000000000E+00 -0.17949483588E+02  0.17949483588E+02  0.00000000000E+00 0. -1.
         25    2    1    2    0    0  0.14473481765E+02  0.44315252863E+02  0.56356473280E+03  0.57914102607E+03  0.12500318678E+03 0.  0.
          2    1    1    2  501    0 -0.65458776152E+02  0.38259942055E+02  0.14689340752E+03  0.16530682900E+03  0.00000000000E+00 0. -1.
          1    1    1    2  502    0  0.50985294387E+02 -0.82575194918E+02  0.24654984513E+04  0.24674077037E+04  0.00000000000E+00 0. -1.
         22    1    3    3    0    0 -0.45039105422E+02  0.52701290070E+02  0.23058093742E+03  0.24077690025E+03  0.00000000000E+00 0.  1.
         22    1    3    3    0    0  0.59512587187E+02 -0.83860372069E+01  0.33298379538E+03  0.33836412582E+03  0.00000000000E+00 0.  1.
</event>
<event>
 7    1  0.6485470E-006  0.7297817E+02  0.7818608E-02  0.1420110E+00
          2   -1    0    0  502    0  0.00000000000E+00  0.00000000000E+00  0.19809080464E+03  0.19809080464E+03  0.00000000000E+00 0. -1.
          1   -1    0    0  501    0 -0.00000000000E+00 -0.00000000000E+00 -0.16456461722E+03  0.16456461722E+03  0.00000000000E+00 0. -1.
         25    2    1    2    0    0  0.53027777901E+02  0.13087107891E+02  0.20201641352E+02  0.13790334747E+03  0.12500403717E+03 0.  0.
          2    1    1    2  501    0 -0.74397360288E+02  0.22426477897E+02 -0.86733063062E+02  0.11644972459E+03  0.00000000000E+00 0. -1.
          1    1    1    2  502    0  0.21369582387E+02 -0.35513585788E+02  0.10005760913E+03  0.10830234980E+03  0.00000000000E+00 0. -1.
         22    1    3    3    0    0  0.17102512121E+02  0.22157378750E+02  0.70256398746E+02  0.75626760599E+02  0.00000000000E+00 0.  1.
         22    1    3    3    0    0  0.35925265780E+02 -0.90702708593E+01 -0.50054757393E+02  0.62276586873E+02  0.00000000000E+00 0.  1.
</event>
<event>
 7    1  0.6485470E-006  0.1906235E+03  0.7818608E-02  0.1371158E+00
          2   -1    0    0  502    0  0.00000000000E+00  0.00000000000E+00  0.26157142078E+03  0.26157142078E+03  0.00000000000E+00 0. -1.
          1   -1    0    0  501    0 -0.00000000000E+00 -0.00000000000E+00 -0.94701783284E+03  0.94701783284E+03  0.00000000000E+00 0. -1.
         25    2    1    2    0    0  0.20411503647E+03 -0.19553562421E+02  0.28309284574E+02  0.24180997294E+03  0.12500143001E+03 0.  0.
          2    1    1    2  501    0 -0.22906078201E+02  0.49794012007E+01 -0.77469023524E+03  0.77504480092E+03  0.00000000000E+00 0. -1.
          1    1    1    2  502    0 -0.18120895827E+03  0.14574161221E+02  0.60934538614E+02  0.19173447976E+03  0.00000000000E+00 0. -1.
         22    1    3    3    0    0  0.13811572298E+02  0.32321351662E+02  0.27390332235E+02  0.44560740597E+02  0.00000000000E+00 0. -1.
         22    1    3    3    0    0  0.19030346417E+03 -0.51874914083E+02  0.91895233905E+00  0.19724923234E+03  0.00000000000E+00 0. -1.
</event>
<event>
 7    1  0.6485470E-006  0.1939137E+03  0.7818608E-02  0.1280291E+00
          2   -1    0    0  502    0  0.00000000000E+00  0.00000000000E+00  0.64478308632E+03  0.64478308632E+03  0.00000000000E+00 0. -1.
          1   -1    0    0  501    0 -0.00000000000E+00 -0.00000000000E+00 -0.99494101884E+03  0.99494101884E+03  0.00000000000E+00 0. -1.
         25    2    1    2    0    0 -0.16440747927E+03 -0.90379677220E+02 -0.18516122498E+03  0.29173324281E+03  0.12500120171E+03 0.  0.
          2    1    1    2  501    0  0.24670364708E+02 -0.45288209578E+02 -0.73953910745E+03  0.74133510659E+03  0.00000000000E+00 0. -1.
          1    1    1    2  502    0  0.13973711456E+03  0.13566788680E+03  0.57454239991E+03  0.60665575575E+03  0.00000000000E+00 0. -1.
         22    1    3    3    0    0  0.17161948683E+02 -0.23474926896E+02 -0.10073697941E+02  0.30774730958E+02  0.00000000000E+00 0.  1.
         22    1    3    3    0    0 -0.18156942795E+03 -0.66904750324E+02 -0.17508752704E+03  0.26095851185E+03  0.00000000000E+00 0.  1.
</event>
<event>
 7    1  0.6485470E-006  0.6964113E+02  0.7818608E-02  0.1464407E+00
          2   -1    0    0  502    0  0.00000000000E+00  0.00000000000E+00  0.15156473004E+03  0.15156473004E+03  0.00000000000E+00 0. -1.
          1   -1    0    0  501    0 -0.00000000000E+00 -0.00000000000E+00 -0.68685601366E+03  0.68685601366E+03  0.00000000000E+00 0. -1.
         25    2    1    2    0    0 -0.72130378936E+02 -0.15944500381E+02 -0.20839736732E+03  0.25399152991E+03  0.12500086360E+03 0.  0.
          2    1    1    2  501    0  0.68228263244E+02 -0.15034841251E+02 -0.45103888479E+03  0.45641781072E+03  0.00000000000E+00 0. -1.
          1    1    1    2  502    0  0.39021156928E+01  0.30979341632E+02  0.12414496849E+03  0.12801140307E+03  0.00000000000E+00 0. -1.
         22    1    3    3    0    0 -0.57426523069E+02  0.94763859934E+01 -0.21596054170E+03  0.22366618657E+03  0.00000000000E+00 0. -1.
         22    1    3    3    0    0 -0.14703855868E+02 -0.25420886375E+02  0.75631743870E+01  0.30325343333E+02  0.00000000000E+00 0. -1.
</event>
<event>
 7    1  0.6485470E-006  0.5770801E+02  0.7818608E-02  0.1539382E+00
          2   -1    0    0  502    0  0.00000000000E+00  0.00000000000E+00  0.84577788974E+03  0.84577788974E+03  0.00000000000E+00 0. -1.
          1   -1    0    0  501    0 -0.00000000000E+00 -0.00000000000E+00 -0.86961299638E+03  0.86961299638E+03  0.00000000000E+00 0. -1.
         25    2    1    2    0    0 -0.34626374358E+02 -0.28131053043E+02  0.69692444021E+02  0.14990727817E+03  0.12499925339E+03 0.  0.
          2    1    1    2  501    0  0.54891243978E+02  0.18278459684E+02 -0.82832388291E+03  0.83034186078E+03  0.00000000000E+00 0. -1.
          1    1    1    2  502    0 -0.20264869620E+02  0.98525933586E+01  0.73479633225E+03  0.73514174717E+03  0.00000000000E+00 0. -1.
         22    1    3    3    0    0  0.33488365855E+02  0.19203507520E+02  0.52553536356E+02  0.65208278096E+02  0.00000000000E+00 0. -1.
         22    1    3    3    0    0 -0.68114740212E+02 -0.47334560563E+02  0.17138907664E+02  0.84699000076E+02  0.00000000000E+00 0. -1.
</event>
<event>
 7    1  0.6485470E-006  0.1451788E+03  0.7818608E-02  0.1312133E+00
          2   -1    0    0  502    0  0.00000000000E+00  0.00000000000E+00  0.34764699332E+03  0.34764699332E+03  0.00000000000E+00 0. -1.
          1   -1    0    0  501    0 -0.00000000000E+00 -0.00000000000E+00 -0.35281349839E+03  0.35281349839E+03  0.00000000000E+00 0. -1.
         25    2    1    2    0    0  0.90458748185E+02 -0.58318979995E+02  0.25369089397E+02  0.16689057112E+03  0.12499993392E+03 0.  0.
          2    1    1    2  501    0  0.39174681234E+02 -0.33074578005E+02 -0.25423078153E+03  0.25934894185E+03  0.00000000000E+00 0. -1.
          1    1    1    2  502    0 -0.12963342942E+03  0.91393558000E+02  0.22369518707E+03  0.27422097874E+03  0.00000000000E+00 0. -1.
         22    1    3    3    0    0  0.11437281345E+03 -0.66506737129E+02  0.17788766694E+01  0.13231572447E+03  0.00000000000E+00 0. -1.
         22    1    3    3    0    0 -0.23914065263E+02  0.81877571336E+01  0.23590212728E+02  0.34574846649E+02  0.00000000000E+00 0. -1.
</event>
<event>
 7    1  0.6485470E-006  0.6097055E+02  0.7818608E-02  0.1406489E+00
          2   -1    0    0  502    0  0.00000000000E+00  0.00000000000E+00  0.26656146740E+03  0.26656146740E+03  0.00000000000E+00 0. -1.
          1   -1    0    0  501    0 -0.00000000000E+00 -0.00000000000E+00 -0.55194820675E+03  0.55194820675E+03  0.00000000000E+00 0. -1.
         25    2    1    2    0    0 -0.59945836387E+02  0.85516757514E+02 -0.33418715742E+03  0.37176961481E+03  0.12499988480E+03 0.  0.
          2    1    1    2  501    0  0.78292243416E+01 -0.54586552133E+02 -0.19131015397E+03  0.19909938082E+03  0.00000000000E+00 0. -1.
          1    1    1    2  502    0  0.52116612046E+02 -0.30930205381E+02  0.24011057204E+03  0.24764067852E+03  0.00000000000E+00 0. -1.
         22    1    3    3    0    0 -0.76863384499E+02  0.54901308241E+02 -0.11052505652E+03  0.14538886354E+03  0.00000000000E+00 0. -1.
         22    1    3    3    0    0  0.16917548111E+02  0.30615449273E+02 -0.22366210090E+03  0.22638075127E+03  0.00000000000E+00 0. -1.
</event>
<event>
 7    1  0.6485470E-006  0.7489881E+02  0.7818608E-02  0.1346761E+00
          2   -1    0    0  502    0  0.00000000000E+00  0.00000000000E+00  0.58806601637E+03  0.58806601637E+03  0.00000000000E+00 0. -1.
          1   -1    0    0  501    0 -0.00000000000E+00 -0.00000000000E+00 -0.23767419818E+03  0.23767419818E+03  0.00000000000E+00 0. -1.
         25    2    1    2    0    0  0.89882607518E+02  0.34043824993E+01  0.26849178986E+03  0.30952111491E+03  0.12500002561E+03 0.  0.
          2    1    1    2  501    0 -0.48882541765E+02  0.57307704613E+02 -0.20589791748E+03  0.21924330850E+03  0.00000000000E+00 0. -1.
          1    1    1    2  502    0 -0.41000065753E+02 -0.60712087113E+02  0.28779794581E+03  0.29697579115E+03  0.00000000000E+00 0. -1.
         22    1    3    3    0    0  0.11768707254E+03  0.92486613403E+01  0.16967739607E+03  0.20670317733E+03  0.00000000000E+00 0. -1.
         22    1    3    3    0    0 -0.27804465022E+02 -0.58442788409E+01  0.98814393786E+02  0.10281793759E+03  0.00000000000E+00 0. -1.
</event>
<event>
 7    1  0.6485470E-006  0.7303256E+02  0.7818608E-02  0.1378363E+00
          2   -1    0    0  502    0  0.00000000000E+00  0.00000000000E+00  0.60909492855E+03  0.60909492855E+03  0.00000000000E+00 0. -1.
          1   -1    0    0  501    0 -0.00000000000E+00 -0.00000000000E+00 -0.45491891357E+03  0.45491891357E+03  0.00000000000E+00 0. -1.
         25    2    1    2    0    0 -0.67490601120E+02  0.90251747067E+02  0.28650829892E+02  0.17072173468E+03  0.12499872620E+03 0.  0.
          2    1    1    2  501    0  0.54278851209E+02 -0.19472606053E+02 -0.37914815609E+03  0.38350840974E+03  0.00000000000E+00 0. -1.
          1    1    1    2  502    0  0.13211749911E+02 -0.70779141014E+02  0.50467334118E+03  0.50978369769E+03  0.00000000000E+00 0. -1.
         22    1    3    3    0    0  0.17382788093E+02  0.66569474205E+02  0.43448766125E+02  0.81372301772E+02  0.00000000000E+00 0. -1.
         22    1    3    3    0    0 -0.84873389213E+02  0.23682272862E+02 -0.14797936233E+02  0.89349432909E+02  0.00000000000E+00 0. -1.
</event>
<event>
 7    1  0.6485470E-006  0.1285116E+03  0.7818608E-02  0.1238132E+00
          2   -1    0    0  502    0  0.00000000000E+00  0.00000000000E+00  0.12874786511E+04  0.12874786511E+04  0.00000000000E+00 0. -1.
          1   -1    0    0  501    0 -0.00000000000E+00 -0.00000000000E+00 -0.42653707892E+03  0.42653707892E+03  0.00000000000E+00 0. -1.
         25    2    1    2    0    0 -0.39455671244E+01  0.30891582956E+02 -0.36199399770E+01  0.12886936672E+03  0.12499740923E+03 0.  0.
          2    1    1    2  501    0  0.97953434817E+02  0.65510647191E+02 -0.34682575969E+03  0.36629855019E+03  0.00000000000E+00 0. -1.
          1    1    1    2  502    0 -0.94007867692E+02 -0.96402230148E+02  0.12113872718E+04  0.12188478131E+04  0.00000000000E+00 0. -1.
         22    1    3    3    0    0 -0.30798034559E+02 -0.35270451082E+02 -0.26608233189E+02  0.53856491955E+02  0.00000000000E+00 0.  1.
         22    1    3    3    0    0  0.26852467434E+02  0.66162034038E+02  0.22988293212E+02  0.75012874763E+02  0.00000000000E+00 0.  1.
</event>
<event>
 7    1  0.6485470E-006  0.1890627E+03  0.7818608E-02  0.1301021E+00
          2   -1    0    0  502    0  0.00000000000E+00  0.00000000000E+00  0.48967496834E+03  0.48967496834E+03  0.00000000000E+00 0. -1.
          1   -1    0    0  501    0 -0.00000000000E+00 -0.00000000000E+00 -0.13430180746E+04  0.13430180746E+04  0.00000000000E+00 0. -1.
         25    2    1    2    0    0  0.51275101168E+02 -0.18610073084E+03 -0.33975703045E+03  0.41027151126E+03  0.12500102073E+03 0.  0.
          2    1    1    2  501    0 -0.77946890515E+01  0.18889243230E+03 -0.95769694590E+03  0.97617854328E+03  0.00000000000E+00 0. -1.
          1    1    1    2  502    0 -0.43480412116E+02 -0.27917014555E+01  0.44411087006E+03  0.44624298845E+03  0.00000000000E+00 0. -1.
         22    1    3    3    0    0  0.56872096741E+02 -0.18591166510E+03 -0.23339045155E+03  0.30375760975E+03  0.00000000000E+00 0. -1.
         22    1    3    3    0    0 -0.55969955736E+01 -0.18906574098E+00 -0.10636657890E+03  0.10651390150E+03  0.00000000000E+00 0. -1.
</event>
<event>
 7    1  0.6485470E-006  0.7999274E+02  0.7818608E-02  0.1399642E+00
          2   -1    0    0  502    0  0.00000000000E+00  0.00000000000E+00  0.18170150330E+04  0.18170150330E+04  0.00000000000E+00 0. -1.
          1   -1    0    0  501    0 -0.00000000000E+00 -0.00000000000E+00 -0.38986514968E+03  0.38986514968E+03  0.00000000000E+00 0. -1.
         25    2    1    2    0    0  0.34263250352E+02  0.12868259862E+02  0.29261746226E+03  0.32029634215E+03  0.12500082055E+03 0.  0.
          2    1    1    2  501    0 -0.72142867717E+02 -0.35958355298E+02 -0.37137539333E+03  0.38002273544E+03  0.00000000000E+00 0. -1.
          1    1    1    2  502    0  0.37879617365E+02  0.23090095436E+02  0.15059078144E+04  0.15065611051E+04  0.00000000000E+00 0. -1.
         22    1    3    3    0    0  0.79703994960E+02 -0.82675508930E+01  0.17927060012E+03  0.19636452653E+03  0.00000000000E+00 0.  1.
         22    1    3    3    0    0 -0.45440744608E+02  0.21135810755E+02  0.11334686214E+03  0.12393181562E+03  0.00000000000E+00 0.  1.
</event>
<event>
 7    1  0.6485470E-006  0.3786615E+02  0.7818608E-02  0.1538794E+00
          2   -1    0    0  502    0  0.00000000000E+00  0.00000000000E+00  0.18046919791E+04  0.18046919791E+04  0.00000000000E+00 0. -1.
          1   -1    0    0  501    0 -0.00000000000E+00 -0.00000000000E+00 -0.42575298939E+03  0.42575298939E+03  0.00000000000E+00 0. -1.
         25    2    1    2    0    0 -0.51221644331E+02  0.21379499077E+02 -0.67269608414E+02  0.15241759950E+03  0.12500073837E+03 0.  0.
          2    1    1    2  501    0  0.18676120237E+02 -0.32743264035E+02 -0.31461561353E+03  0.31686574931E+03  0.00000000000E+00 0. -1.
          1    1    1    2  502    0  0.32545524094E+02  0.11363764958E+02  0.17608242116E+04  0.17611616196E+04  0.00000000000E+00 0. -1.
         22    1    3    3    0    0 -0.13141368247E+02 -0.51316672511E+02 -0.14761103698E+02  0.54990786677E+02  0.00000000000E+00 0.  1.
         22    1    3    3    0    0 -0.38080276084E+02  0.72696171587E+02 -0.52508504716E+02  0.97426812827E+02  0.00000000000E+00 0.  1.
</event>
<event>
 7    1  0.6485470E-006  0.5617062E+02  0.7818608E-02  0.1416150E+00
          2   -1    0    0  502    0  0.00000000000E+00  0.00000000000E+00  0.39867858423E+03  0.39867858423E+03  0.00000000000E+00 0. -1.
          1   -1    0    0  501    0 -0.00000000000E+00 -0.00000000000E+00 -0.52124491346E+03  0.52124491346E+03  0.00000000000E+00 0. -1.
         25    2    1    2    0    0  0.19093755030E+02 -0.41808240121E+02 -0.11350471876E+03  0.17498807045E+03  0.12500001278E+03 0.  0.
          2    1    1    2  501    0  0.37619063288E+02  0.40830973876E+02 -0.37274419136E+03  0.37685619875E+03  0.00000000000E+00 0. -1.
          1    1    1    2  502    0 -0.56712818317E+02  0.97726624558E+00  0.36368258088E+03  0.36807922849E+03  0.00000000000E+00 0. -1.
         22    1    3    3    0    0  0.66012189862E+02 -0.53080644579E+02 -0.67399594577E+02  0.10824910803E+03  0.00000000000E+00 0. -1.
         22    1    3    3    0    0 -0.46918434832E+02  0.11272404458E+02 -0.46105124179E+02  0.66738962420E+02  0.00000000000E+00 0. -1.
</event>
<event>
 7    1  0.6485470E-006  0.2003854E+03  0.7818608E-02  0.1276536E+00
          2   -1    0    0  502    0  0.00000000000E+00  0.00000000000E+00  0.49742758603E+03  0.49742758603E+03  0.00000000000E+00 0. -1.
          1   -1    0    0  501    0 -0.00000000000E+00 -0.00000000000E+00 -0.82414501639E+03  0.82414501639E+03  0.00000000000E+00 0. -1.
         25    2    1    2    0    0 -0.70407151541E+02  0.17090802026E+03 -0.60357167160E+02  0.23116153624E+03  0.12500379926E+03 0.  0.
          2    1    1    2  501    0 -0.51220734164E+02 -0.72136479305E+01 -0.65206396609E+03  0.65411238805E+03  0.00000000000E+00 0. -1.
          1    1    1    2  502    0  0.12162788570E+03 -0.16369437233E+03  0.38570370289E+03  0.43629867813E+03  0.00000000000E+00 0. -1.
         22    1    3    3    0    0 -0.53846400129E+02  0.76340447694E+02 -0.90967411927E+02  0.13039313170E+03  0.00000000000E+00 0.  1.
         22    1    3    3    0    0 -0.16560751413E+02  0.94567572570E+02  0.30610244766E+02  0.10076840454E+03  0.00000000000E+00 0.  1.
</event>
<event>
 7    1  0.6485470E-006  0.6259069E+02  0.7818608E-02  0.1423626E+00
          2   -1    0    0  502    0  0.00000000000E+00  0.00000000000E+00  0.38413706511E+03  0.38413706511E+03  0.00000000000E+00 0. -1.
          1   -1    0    0  501    0 -0.00000000000E+00 -0.00000000000E+00 -0.64077273749E+03  0.64077273749E+03  0.00000000000E+00 0. -1.
         25    2    1    2    0    0 -0.65287877438E+02 -0.79162429078E+02  0.18580199318E+03  0.24632743485E+03  0.12500250947E+03 0.  0.
          2    1    1    2  501    0  0.34618610793E+02  0.31848121014E+02 -0.60484197464E+03  0.60666841464E+03  0.00000000000E+00 0. -1.
          1    1    1    2  502    0  0.30669266645E+02  0.47314308064E+02  0.16240430909E+03  0.17191395311E+03  0.00000000000E+00 0. -1.
         22    1    3    3    0    0 -0.34637758733E+02 -0.87645708875E+02  0.19204090013E+03  0.21391879753E+03  0.00000000000E+00 0.  1.
         22    1    3    3    0    0 -0.30650118705E+02  0.84832797967E+01 -0.62389069550E+01  0.32408637317E+02  0.00000000000E+00 0.  1.
</event>
<event>
 7    1  0.6485470E-006  0.2592429E+03  0.7818608E-02  0.1233894E+00
          2   -1    0    0  502    0  0.00000000000E+00  0.00000000000E+00  0.11967604677E+04  0.11967604677E+04  0.00000000000E+00 0. -1.
          1   -1    0    0  501    0 -0.00000000000E+00 -0.00000000000E+00 -0.59148047520E+03  0.59148047520E+03  0.00000000000E+00 0. -1.
         25    2    1    2    0    0 -0.10512299109E+03  0.17937174631E+03  0.22331852674E+02  0.24361536263E+03  0.12499866654E+03 0.  0.
          2    1    1    2  501    0 -0.15217925438E+02  0.59073567942E+02 -0.46203711968E+03  0.46604674835E+03  0.00000000000E+00 0. -1.
          1    1    1    2  502    0  0.12034091652E+03 -0.23844531425E+03  0.10449852595E+04  0.10785788319E+04  0.00000000000E+00 0. -1.
         22    1    3    3    0    0 -0.82606958205E+02  0.40713952244E+02 -0.24919731331E+02  0.95407171957E+02  0.00000000000E+00 0. -1.
         22    1    3    3    0    0 -0.22516032881E+02  0.13865779406E+03  0.47251584006E+02  0.14820819067E+03  0.00000000000E+00 0. -1.
</event>
<event>
 7    1  0.6485470E-006  0.7072294E+02  0.7818608E-02  0.1373151E+00
          2   -1    0    0  502    0  0.00000000000E+00  0.00000000000E+00  0.95475325884E+02  0.95475325884E+02  0.00000000000E+00 0. -1.
          1   -1    0    0  501    0 -0.00000000000E+00 -0.00000000000E+00 -0.38728473844E+04  0.38728473844E+04  0.00000000000E+00 0. -1.
         25    2    1    2    0    0 -0.64562565696E+01 -0.28439990308E+02 -0.12727098850E+04  0.12791662262E+04  0.12500106567E+03 0.  0.
          2    1    1    2  501    0  0.66389924597E+02  0.44895588422E+02 -0.25857488173E+04  0.25869905647E+04  0.00000000000E+00 0. -1.
          1    1    1    2  502    0 -0.59933668027E+02 -0.16455598114E+02  0.81086643819E+02  0.10216591936E+03  0.00000000000E+00 0. -1.
         22    1    3    3    0    0  0.43178234281E+01 -0.62227516265E+02 -0.11428485911E+04  0.11445496099E+04  0.00000000000E+00 0. -1.
         22    1    3    3    0    0 -0.10774079998E+02  0.33787525957E+02 -0.12986129395E+03  0.13461661627E+03  0.00000000000E+00 0. -1.
</event>
<event>
 7    1  0.6485470E-006  0.7864327E+02  0.7818608E-02  0.1392432E+00
          2   -1    0    0  502    0  0.00000000000E+00  0.00000000000E+00  0.24111790551E+04  0.24111790551E+04  0.00000000000E+00 0. -1.
          1   -1    0    0  501    0 -0.00000000000E+00 -0.00000000000E+00 -0.51831882569E+03  0.51831882569E+03  0.00000000000E+00 0. -1.
         25    2    1    2    0    0  0.90194377706E+02  0.81698137957E+02  0.17015969835E+04  0.17105165552E+04  0.12499991929E+03 0.  0.
          2    1    1    2  501    0 -0.45891077760E+02 -0.63777622019E+02 -0.51003751076E+03  0.51605410421E+03  0.00000000000E+00 0. -1.
          1    1    1    2  502    0 -0.44303299947E+02 -0.17920515938E+02  0.70130075670E+03  0.70292722143E+03  0.00000000000E+00 0. -1.
         22    1    3    3    0    0  0.14781050151E+02 -0.15220761365E+02  0.83420036868E+03  0.83447013495E+03  0.00000000000E+00 0.  1.
         22    1    3    3    0    0  0.75413327556E+02  0.96918899323E+02  0.86739661483E+03  0.87604642026E+03  0.00000000000E+00 0.  1.
</event>
<event>
 7    1  0.6485470E-006  0.4588989E+02  0.7818608E-02  0.1487024E+00
          2   -1    0    0  502    0  0.00000000000E+00  0.00000000000E+00  0.14442010504E+03  0.14442010504E+03  0.00000000000E+00 0. -1.
          1   -1    0    0  501    0 -0.00000000000E+00 -0.00000000000E+00 -0.18885944560E+04  0.18885944560E+04  0.00000000000E+00 0. -1.
         25    2    1    2    0    0  0.15592970521E+02  0.79378503517E+02 -0.67701444550E+03  0.69319333818E+03  0.12499742850E+03 0.  0.
          2    1    1    2  501    0  0.71386426290E+01 -0.39713095537E+02 -0.11993089936E+04  0.11999875633E+04  0.00000000000E+00 0. -1.
          1    1    1    2  502    0 -0.22731613150E+02 -0.39665407980E+02  0.13214908814E+03  0.13983365947E+03  0.00000000000E+00 0. -1.
         22    1    3    3    0    0 -0.31342540736E+00  0.30361955594E+02 -0.25519545181E+02  0.39663506769E+02  0.00000000000E+00 0. -1.
         22    1    3    3    0    0  0.15906395929E+02  0.49016547923E+02 -0.65149490032E+03  0.65352983141E+03  0.00000000000E+00 0. -1.
</event>
<event>
 7    1  0.6485470E-006  0.3036327E+02  0.7818608E-02  0.1649675E+00
          2   -1    0    0  502    0  0.00000000000E+00  0.00000000000E+00  0.15511035568E+04  0.15511035568E+04  0.00000000000E+00 0. -1.
          1   -1    0    0  501    0 -0.00000000000E+00 -0.00000000000E+00 -0.47330185359E+03  0.47330185359E+03  0.00000000000E+00 0. -1.
         25    2    1    2    0    0 -0.31969636703E+02 -0.25410197269E+02 -0.79074507581E+02  0.15344484433E+03  0.12499922682E+03 0.  0.
          2    1    1    2  501    0  0.21705525607E+02 -0.31595251762E+01 -0.35655294167E+03  0.35722697638E+03  0.00000000000E+00 0. -1.
          1    1    1    2  502    0  0.10264111096E+02  0.28569722445E+02  0.15134291524E+04  0.15137335896E+04  0.00000000000E+00 0. -1.
         22    1    3    3    0    0 -0.63178345212E+02 -0.69155014796E+01  0.30872459951E+01  0.63630641615E+02  0.00000000000E+00 0.  1.
         22    1    3    3    0    0  0.31208708509E+02 -0.18494695789E+02 -0.82161753576E+02  0.89814202718E+02  0.00000000000E+00 0.  1.
</event>
<event>
 7    1  0.6485470E-006  0.9753966E+02  0.7818608E-02  0.1294450E+00
          2   -1    0    0  502    0  0.00000000000E+00  0.00000000000E+00  0.11665768769E+04  0.11665768769E+04  0.00000000000E+00 0. -1.
          1   -1    0    0  501    0 -0.00000000000E+00 -0.00000000000E+00 -0.36851714331E+03  0.36851714331E+03  0.00000000000E+00 0. -1.
         25    2    1    2    0    0 -0.11708163728E+02  0.19704493155E+02  0.15975598115E+03  0.20413421514E+03  0.12499382437E+03 0.  0.
          2    1    1    2  501    0 -0.41253729116E+02 -0.92156141271E+02 -0.33686442965E+03  0.35167068189E+03  0.00000000000E+00 0. -1.
          1    1    1    2  502    0  0.52961892844E+02  0.72451648116E+02  0.97516818209E+03  0.97928912318E+03  0.00000000000E+00 0. -1.
         22    1    3    3    0    0 -0.55011687569E+02 -0.25728924622E+02  0.54575078210E+02  0.81649877483E+02  0.00000000000E+00 0.  1.
         22    1    3    3    0    0  0.43303523841E+02  0.45433417778E+02  0.10518090294E+03  0.12248433766E+03  0.00000000000E+00 0.  1.
</event>
<event>
 7    1  0.6485470E-006  0.7510531E+02  0.7818608E-02  0.1513190E+00
          2   -1    0    0  502    0  0.00000000000E+00  0.00000000000E+00  0.17111133899E+04  0.17111133899E+04  0.00000000000E+00 0. -1.
          1   -1    0    0  501    0 -0.00000000000E+00 -0.00000000000E+00 -0.77649829639E+02  0.77649829639E+02  0.00000000000E+00 0. -1.
         25    2    1    2    0    0  0.86675171290E+02  0.35246457456E+02  0.45403447537E+03  0.48013382298E+03  0.12500514014E+03 0.  0.
          2    1    1    2  501    0 -0.16983777255E+02 -0.11653137975E+02 -0.61840820526E+02  0.65180759415E+02  0.00000000000E+00 0. -1.
          1    1    1    2  502    0 -0.69691394036E+02 -0.23593319481E+02  0.12412699054E+04  0.12434486372E+04  0.00000000000E+00 0. -1.
         22    1    3    3    0    0  0.28048104152E+02  0.80655082850E+01  0.91571100615E+01  0.30587599368E+02  0.00000000000E+00 0. -1.
         22    1    3    3    0    0  0.58627067139E+02  0.27180949171E+02  0.44487736531E+03  0.44954622361E+03  0.00000000000E+00 0. -1.
</event>
<event>
 7    1  0.6485470E-006  0.8566320E+02  0.7818608E-02  0.1356932E+00
          2   -1    0    0  502    0  0.00000000000E+00  0.00000000000E+00  0.38922267880E+02  0.38922267880E+02  0.00000000000E+00 0. -1.
          1   -1    0    0  501    0 -0.00000000000E+00 -0.00000000000E+00 -0.10224926022E+04  0.10224926022E+04  0.00000000000E+00 0. -1.
         25    2    1    2    0    0  0.40048175657E+02 -0.32414771881E+02 -0.30721521863E+03  0.33565002758E+03  0.12500070658E+03 0.  0.
          2    1    1    2  501    0 -0.31141190404E+02  0.90479801142E+02 -0.65697404937E+03  0.66390606994E+03  0.00000000000E+00 0. -1.
          1    1    1    2  502    0 -0.89069852530E+01 -0.58065029262E+02 -0.19381066298E+02  0.61858772541E+02  0.00000000000E+00 0. -1.
         22    1    3    3    0    0  0.83383894264E+02 -0.55020369023E+01 -0.20606301663E+03  0.22236257117E+03  0.00000000000E+00 0.  1.
         22    1    3    3    0    0 -0.43335718607E+02 -0.26912734978E+02 -0.10115220200E+03  0.11328745641E+03  0.00000000000E+00 0.  1.
</event>
<event>
 7    1  0.6485470E-006  0.6100676E+02  0.7818608E-02  0.1412939E+00
          2   -1    0    0  502    0  0.00000000000E+00  0.00000000000E+00  0.75357719658E+03  0.75357719658E+03  0.00000000000E+00 0. -1.
          1   -1    0    0  501    0 -0.00000000000E+00 -0.00000000000E+00 -0.64634281175E+03  0.64634281175E+03  0.00000000000E+00 0. -1.
         25    2    1    2    0    0 -0.73727945565E+02  0.77746857370E+02  0.34817264673E+03  0.38513647599E+03  0.12500211767E+03 0.  0.
          2    1    1    2  501    0  0.29539657518E+02 -0.43287368866E+02 -0.62472915444E+03  0.62692336379E+03  0.00000000000E+00 0. -1.
          1    1    1    2  502    0  0.44188288047E+02 -0.34459488504E+02  0.38379089253E+03  0.38786016854E+03  0.00000000000E+00 0. -1.
         22    1    3    3    0    0 -0.21959341339E+02  0.51264345646E+02  0.33332650423E+02  0.64971619887E+02  0.00000000000E+00 0.  1.
         22    1    3    3    0    0 -0.51768604225E+02  0.26482511724E+02  0.31483999631E+03  0.32016485611E+03  0.00000000000E+00 0.  1.
</event>
<event>
 7    1  0.6485470E-006  0.6403268E+02  0.7818608E-02  0.1406798E+00
          2   -1    0    0  502    0  0.00000000000E+00  0.00000000000E+00  0.12697514828E+04  0.12697514828E+04  0.00000000000E+00 0. -1.
          1   -1    0    0  501    0 -0.00000000000E+00 -0.00000000000E+00 -0.28391733641E+02  0.28391733641E+02  0.00000000000E+00 0. -1.
         25    2    1    2    0    0  0.37957102810E+02 -0.10532235200E+03  0.60114907745E+03  0.62413159999E+03  0.12500600508E+03 0.  0.
          2    1    1    2  501    0 -0.21814186024E+02  0.55490981540E+02  0.40640914651E+02  0.72158102025E+02  0.00000000000E+00 0. -1.
          1    1    1    2  502    0 -0.16142916787E+02  0.49831370458E+02  0.59956975707E+03  0.60185351444E+03  0.00000000000E+00 0. -1.
         22    1    3    3    0    0  0.72459644431E+01  0.27410922672E+02  0.64455848251E+02  0.70416042605E+02  0.00000000000E+00 0. -1.
         22    1    3    3    0    0  0.30711138367E+02 -0.13273327467E+03  0.53669322920E+03  0.55371555739E+03  0.00000000000E+00 0. -1.
</event>
<event>
 7    1  0.6485470E-006  0.5548802E+02  0.7818608E-02  0.1471026E+00
          2   -1    0    0  502    0  0.00000000000E+00  0.00000000000E+00  0.99110320900E+03  0.99110320900E+03  0.00000000000E+00 0. -1.
          1   -1    0    0  501    0 -0.00000000000E+00 -0.00000000000E+00 -0.50872298019E+03  0.50872298019E+03  0.00000000000E+00 0. -1.
         25    2    1    2    0    0 -0.46973287483E+02 -0.12951452878E+02 -0.35309062828E+03  0.37771971149E+03  0.12499983521E+03 0.  0.
          2    1    1    2  501    0 -0.29565920788E+01  0.37250857422E+02 -0.14007898345E+03  0.14497754798E+03  0.00000000000E+00 0. -1.
          1    1    1    2  502    0  0.49929879562E+02 -0.24299404544E+02  0.97554984054E+03  0.97712892972E+03  0.00000000000E+00 0. -1.
         22    1    3    3    0    0  0.20631355086E+02 -0.31085760494E+02 -0.32197103617E+02  0.49281140404E+02  0.00000000000E+00 0. -1.
         22    1    3    3    0    0 -0.67604642569E+02  0.18134307616E+02 -0.32089352466E+03  0.32843857109E+03  0.00000000000E+00 0. -1.
</event>
<event>
 7    1  0.6485470E-006  0.1244032E+03  0.7818608E-02  0.1276667E+00
          2   -1    0    0  502    0  0.00000000000E+00  0.00000000000E+00  0.59145500974E+03  0.59145500974E+03  0.00000000000E+00 0. -1.
          1   -1    0    0  501    0 -0.00000000000E+00 -0.00000000000E+00 -0.17154497383E+04  0.17154497383E+04  0.00000000000E+00 0. -1.
         25    2    1    2    0    0  0.19750251583E+03  0.26800689195E+02 -0.30413701973E+03  0.38451170019E+03  0.12499760044E+03 0.  0.
          2    1    1    2  501    0 -0.11463070513E+03 -0.34353588101E+02 -0.13653529243E+04  0.13705870916E+04  0.00000000000E+00 0. -1.
          1    1    1    2  502    0 -0.82871810692E+02  0.75528989051E+01  0.54549521549E+03  0.55180595630E+03  0.00000000000E+00 0. -1.
         22    1    3    3    0    0  0.36360110207E+02  0.83972870519E+01 -0.16997781991E+03  0.17402595009E+03  0.00000000000E+00 0.  1.
         22    1    3    3    0    0  0.16114240562E+03  0.18403402144E+02 -0.13415919982E+03  0.21048575010E+03  0.00000000000E+00 0.  1.
</event>
<event>
 7    1  0.6485470E-006  0.1158922E+03  0.7818608E-02  0.1348105E+00
          2   -1    0    0  502    0  0.00000000000E+00  0.00000000000E+00  0.20235840514E+03  0.20235840514E+03  0.00000000000E+00 0. -1.
          1   -1    0    0  501    0 -0.00000000000E+00 -0.00000000000E+00 -0.22996059895E+04  0.22996059895E+04  0.00000000000E+00 0. -1.
         25    2    1    2    0    0  0.57101484188E+02  0.48820463045E+02 -0.16688471368E+03  0.22162631146E+03  0.12499478853E+03 0.  0.
          2    1    1    2  501    0  0.23525083291E+02  0.40462488631E+02 -0.20843808004E+04  0.20849062242E+04  0.00000000000E+00 0. -1.
          1    1    1    2  502    0 -0.80626567479E+02 -0.89282951676E+02  0.15401792972E+03  0.19543185902E+03  0.00000000000E+00 0. -1.
         22    1    3    3    0    0 -0.13584694649E+02  0.70563102229E+02 -0.80357837283E+02  0.10780110082E+03  0.00000000000E+00 0.  1.
         22    1    3    3    0    0  0.70686178837E+02 -0.21742639184E+02 -0.86526876400E+02  0.11382521064E+03  0.00000000000E+00 0.  1.
</event>
<event>
 7    1  0.6485470E-006  0.7172895E+02  0.7818608E-02  0.1359201E+00
          2   -1    0    0  502    0  0.00000000000E+00  0.00000000000E+00  0.96106001705E+03  0.96106001705E+03  0.00000000000E+00 0. -1.
          1   -1    0    0  501    0 -0.00000000000E+00 -0.00000000000E+00 -0.72389610560E+03  0.72389610560E+03  0.00000000000E+00 0. -1.
         25    2    1    2    0    0  0.68577095647E+02  0.20897732372E+02 -0.18144665662E+03  0.23170455646E+03  0.12499831607E+03 0.  0.
          2    1    1    2  501    0 -0.16276283661E+02 -0.69986093024E+02 -0.51344078653E+03  0.51844422255E+03  0.00000000000E+00 0. -1.
          1    1    1    2  502    0 -0.52300811986E+02  0.49088360652E+02  0.93205135460E+03  0.93480734363E+03  0.00000000000E+00 0. -1.
         22    1    3    3    0    0 -0.14581517025E+02  0.49530404590E+02 -0.96420409591E+02  0.10937448059E+03  0.00000000000E+00 0. -1.
         22    1    3    3    0    0  0.83158612672E+02 -0.28632672218E+02 -0.85026247032E+02  0.12233007588E+03  0.00000000000E+00 0. -1.
</event>
<event>
 7    1  0.6485470E-006  0.4519949E+02  0.7818608E-02  0.1591885E+00
          2   -1    0    0  502    0  0.00000000000E+00  0.00000000000E+00  0.88723559080E+03  0.88723559080E+03  0.00000000000E+00 0. -1.
          1   -1    0    0  501    0 -0.00000000000E+00 -0.00000000000E+00 -0.84699512845E+03  0.84699512845E+03  0.00000000000E+00 0. -1.
         25    2    1    2    0    0 -0.64783069420E+02  0.70015157629E+00  0.15082852795E+03  0.20633416923E+03  0.12500883269E+03 0.  0.
          2    1    1    2  501    0  0.20220403063E+02 -0.43066684526E+01 -0.81840648359E+03  0.81866756652E+03  0.00000000000E+00 0. -1.
          1    1    1    2  502    0  0.44562666356E+02  0.36065168763E+01  0.70781841798E+03  0.70922898350E+03  0.00000000000E+00 0. -1.
         22    1    3    3    0    0 -0.20939759260E+02  0.59632161914E+02  0.94870198270E+02  0.11399483660E+03  0.00000000000E+00 0. -1.
         22    1    3    3    0    0 -0.43843310159E+02 -0.58932010338E+02  0.55958329683E+02  0.92339332622E+02  0.00000000000E+00 0. -1.
</event>
<event>
 7    1  0.6485470E-006  0.1708877E+03  0.7818608E-02  0.1189551E+00
          2   -1    0    0  502    0  0.00000000000E+00  0.00000000000E+00  0.30292833824E+04  0.30292833824E+04  0.00000000000E+00 0. -1.
          1   -1    0    0  501    0 -0.00000000000E+00 -0.00000000000E+00 -0.16988937884E+03  0.16988937884E+03  0.00000000000E+00 0. -1.
         25    2    1    2    0    0 -0.28428366795E+02 -0.34397867920E+02  0.14221665090E+04  0.14283473003E+04  0.12500818226E+03 0.  0.
          2    1    1    2  501    0 -0.21246901515E+02  0.17423388030E+03 -0.11608587691E+03  0.21043955590E+03  0.00000000000E+00 0. -1.
          1    1    1    2  502    0  0.49675268309E+02 -0.13983601238E+03  0.15533133715E+04  0.15603859050E+04  0.00000000000E+00 0. -1.
         22    1    3    3    0    0 -0.54336553083E+02 -0.59284000252E+02  0.59609938066E+03  0.60149939759E+03  0.00000000000E+00 0. -1.
         22    1    3    3    0    0  0.25908186288E+02  0.24886132332E+02  0.82606712837E+03  0.82684790275E+03  0.00000000000E+00 0. -1.
</event>
<event>
 7    1  0.6485470E-006  0.3113976E+02  0.7818608E-02  0.1652309E+00
          2   -1    0    0  502    0  0.00000000000E+00  0.00000000000E+00  0.24528734424E+03  0.24528734424E+03  0.00000000000E+00 0. -1.
          1   -1    0    0  501    0 -0.00000000000E+00 -0.00000000000E+00 -0.13225081884E+03  0.13225081884E+03  0.00000000000E+00 0. -1.
         25    2    1    2    0    0 -0.32549699177E+02  0.24441187915E+02  0.20687561373E+02  0.13307873200E+03  0.12500047652E+03 0.  0.
          2    1    1    2  501    0  0.30773948907E+02 -0.34441347372E+01 -0.72203302907E+02  0.78563445355E+02  0.00000000000E+00 0. -1.
          1    1    1    2  502    0  0.17757502703E+01 -0.20997053178E+02  0.16455226693E+03  0.16589598574E+03  0.00000000000E+00 0. -1.
         22    1    3    3    0    0 -0.54638192556E+02  0.23525768570E+00 -0.37520112415E+02  0.66280813722E+02  0.00000000000E+00 0. -1.
         22    1    3    3    0    0  0.22088493379E+02  0.24205930230E+02  0.58207673787E+02  0.66797918274E+02  0.00000000000E+00 0. -1.
</event>
<event>
 7    1  0.6485470E-006  0.1738748E+03  0.7818608E-02  0.1235678E+00
          2   -1    0    0  502    0  0.00000000000E+00  0.00000000000E+00  0.12794886239E+04  0.12794886239E+04  0.00000000000E+00 0. -1.
          1   -1    0    0  501    0 -0.00000000000E+00 -0.00000000000E+00 -0.11880853940E+03  0.11880853940E+03  0.00000000000E+00 0. -1.
         25    2    1    2    0    0  0.11886733980E+03 -0.15422258894E+03  0.61021914543E+03  0.65261504953E+03  0.12499978404E+03 0.  0.
          2    1    1    2  501    0 -0.88368465451E+02 -0.12901644672E+02 -0.62897521561E+02  0.10923157208E+03  0.00000000000E+00 0. -1.
          1    1    1    2  502    0 -0.30498874353E+02  0.16712423362E+03  0.61335846062E+03  0.63645054169E+03  0.00000000000E+00 0. -1.
         22    1    3    3    0    0  0.14487377186E+03 -0.13380696144E+03  0.49802306456E+03  0.53564884536E+03  0.00000000000E+00 0. -1.
         22    1    3    3    0    0 -0.26006432057E+02 -0.20415627500E+02  0.11219608087E+03  0.11696620416E+03  0.00000000000E+00 0. -1.
</event>
<event>
 7    1  0.6485470E-006  0.1606716E+03  0.7818608E-02  0.1286174E+00
          2   -1    0    0  502    0  0.00000000000E+00  0.00000000000E+00  0.56914190633E+03  0.56914190633E+03  0.00000000000E+00 0. -1.
          1   -1    0    0  501    0 -0.00000000000E+00 -0.00000000000E+00 -0.13528869100E+04  0.13528869100E+04  0.00000000000E+00 0. -1.
         25    2    1    2    0    0 -0.13313324459E+03 -0.14661470132E+03  0.93901652695E+02  0.25231562690E+03  0.12500129496E+03 0.  0.
          2    1    1    2  501    0  0.64080376171E+01  0.58520262924E+02 -0.12579287917E+04  0.12593055742E+04  0.00000000000E+00 0. -1.
          1    1    1    2  502    0  0.12672520698E+03  0.88094438394E+02  0.38028213537E+03  0.41040761523E+03  0.00000000000E+00 0. -1.
         22    1    3    3    0    0 -0.53431449638E+02 -0.61412974276E+02 -0.25572347266E+02  0.85325366478E+02  0.00000000000E+00 0.  1.
         22    1    3    3    0    0 -0.79701794955E+02 -0.85201727042E+02  0.11947399996E+03  0.16699026042E+03  0.00000000000E+00 0.  1.
</event>
<event>
 7    1  0.6485470E-006  0.9764603E+02  0.7818608E-02  0.1407862E+00
          2   -1    0    0  502    0  0.00000000000E+00  0.00000000000E+00  0.26868823121E+03  0.26868823121E+03  0.00000000000E+00 0. -1.
          1   -1    0    0  501    0 -0.00000000000E+00 -0.00000000000E+00 -0.21772249962E+04  0.21772249962E+04  0.00000000000E+00 0. -1.
         25    2    1    2    0    0 -0.12557866369E+03 -0.31193458362E+02 -0.22930878372E+03  0.29146214969E+03  0.12499853516E+03 0.  0.
          2    1    1    2  501    0  0.91525085406E+02  0.30332809844E+02 -0.19143990676E+04  0.19168256861E+04  0.00000000000E+00 0. -1.
          1    1    1    2  502    0  0.34053578282E+02  0.86064851852E+00  0.23517108635E+03  0.23762539166E+03  0.00000000000E+00 0. -1.
         22    1    3    3    0    0 -0.28829431561E+02  0.20592857198E+02  0.19555925234E+01  0.35482759670E+02  0.00000000000E+00 0.  1.
         22    1    3    3    0    0 -0.96749232127E+02 -0.51786315560E+02 -0.23126437624E+03  0.25597939002E+03  0.00000000000E+00 0.  1.
</event>
<event>
 7    1  0.6485470E-006  0.1606074E+03  0.7818608E-02  0.1210643E+00
          2   -1    0    0  502    0  0.00000000000E+00  0.00000000000E+00  0.56267642940E+03  0.56267642940E+03  0.00000000000E+00 0. -1.
          1   -1    0    0  501    0 -0.00000000000E+00 -0.00000000000E+00 -0.24384745671E+03  0.24384745671E+03  0.00000000000E+00 0. -1.
         25    2    1    2    0    0  0.16242420402E+03 -0.71747206148E+01 -0.10973343025E+03  0.23259330863E+03  0.12500049135E+03 0.  0.
          2    1    1    2  501    0 -0.51676214306E+02 -0.11445002486E+03  0.12096877887E+02  0.12615694103E+03  0.00000000000E+00 0. -1.
          1    1    1    2  502    0 -0.11074798972E+03  0.12162474548E+03  0.41646552506E+03  0.44777363645E+03  0.00000000000E+00 0. -1.
         22    1    3    3    0    0  0.68517694666E+02 -0.65170375082E+02 -0.55042280887E+02  0.10941437271E+03  0.00000000000E+00 0.  1.
         22    1    3    3    0    0  0.93906509356E+02  0.57995654467E+02 -0.54691149361E+02  0.12317893592E+03  0.00000000000E+00 0.  1.
</event>
<event>
 7    1  0.6485470E-006  0.1539099E+03  0.7818608E-02  0.1363047E+00
          2   -1    0    0  502    0  0.00000000000E+00  0.00000000000E+00  0.13301188672E+04  0.13301188672E+04  0.00000000000E+00 0. -1.
          1   -1    0    0  501    0 -0.00000000000E+00 -0.00000000000E+00 -0.10934285314E+03  0.10934285314E+03  0.00000000000E+00 0. -1.
         25    2    1    2    0    0  0.29951967296E+02 -0.17163031009E+03  0.20905167804E+03  0.29946825899E+03  0.12499820144E+03 0.  0.
          2    1    1    2  501    0 -0.39248277306E+02  0.14199626561E+03  0.21031928496E+02  0.14881434318E+03  0.00000000000E+00 0. -1.
          1    1    1    2  502    0  0.92963100107E+01  0.29634044477E+02  0.99069240752E+03  0.99117911817E+03  0.00000000000E+00 0. -1.
         22    1    3    3    0    0  0.64221375843E+02 -0.14455078148E+03  0.19978267193E+03  0.25481842465E+03  0.00000000000E+00 0.  1.
         22    1    3    3    0    0 -0.34269408547E+02 -0.27079528610E+02  0.92690061195E+01  0.44649834337E+02  0.00000000000E+00 0.  1.
</event>
<event>
 7    1  0.6485470E-006  0.4978775E+02  0.7818608E-02  0.1525849E+00
          2   -1    0    0  502    0  0.00000000000E+00  0.00000000000E+00  0.90248900535E+03  0.90248900535E+03  0.00000000000E+00 0. -1.
          1   -1    0    0  501    0 -0.00000000000E+00 -0.00000000000E+00 -0.16125953994E+02  0.16125953994E+02  0.00000000000E+00 0. -1.
         25    2    1    2    0    0  0.42933165327E+02  0.25733852095E+02  0.41330545514E+03  0.43468607930E+03  0.12500040184E+03 0.  0.
          2    1    1    2  501    0 -0.20549228467E+02  0.19816726896E+02  0.47968683611E+02  0.55820856880E+02  0.00000000000E+00 0. -1.
          1    1    1    2  502    0 -0.22383936859E+02 -0.45550578991E+02  0.42508891261E+03  0.42810802316E+03  0.00000000000E+00 0. -1.
         22    1    3    3    0    0  0.53556896840E+02  0.57445978718E+02  0.15049416688E+03  0.16975534140E+03  0.00000000000E+00 0.  1.
         22    1    3    3    0    0 -0.10623731514E+02 -0.31712126623E+02  0.26281128826E+03  0.26493073790E+03  0.00000000000E+00 0.  1.
</event>
<event>
 7    1  0.6485470E-006  0.7195411E+02  0.7818608E-02  0.1429662E+00
          2   -1    0    0  502    0  0.00000000000E+00  0.00000000000E+00  0.82583562301E+03  0.82583562301E+03  0.00000000000E+00 0. -1.
          1   -1    0    0  501    0 -0.00000000000E+00 -0.00000000000E+00 -0.46660280610E+03  0.46660280610E+03  0.00000000000E+00 0. -1.
         25    2    1    2    0    0 -0.90661220732E+02 -0.99823837014E+01 -0.70530721737E+02  0.17005271978E+03  0.12499695944E+03 0.  0.
          2    1    1    2  501    0  0.67697830300E+02 -0.21639296160E+02 -0.34216509635E+03  0.34946846571E+03  0.00000000000E+00 0. -1.
          1    1    1    2  502    0  0.22963390432E+02  0.31621679862E+02  0.77192863500E+03  0.77291724361E+03  0.00000000000E+00 0. -1.
         22    1    3    3    0    0 -0.10399205196E+03 -0.34878842311E+02 -0.19039654281E+02  0.11132559879E+03  0.00000000000E+00 0.  1.
         22    1    3    3    0    0  0.13330831224E+02  0.24896458609E+02 -0.51491067456E+02  0.58727120993E+02  0.00000000000E+00 0.  1.
</event>
<event>
 7    1  0.6485470E-006  0.6962536E+02  0.7818608E-02  0.1468648E+00
          2   -1    0    0  502    0  0.00000000000E+00  0.00000000000E+00  0.13500786619E+04  0.13500786619E+04  0.00000000000E+00 0. -1.
          1   -1    0    0  501    0 -0.00000000000E+00 -0.00000000000E+00 -0.57200530285E+03  0.57200530285E+03  0.00000000000E+00 0. -1.
         25    2    1    2    0    0  0.52655392590E+02  0.38933392314E+02  0.27293722059E+02  0.14372984739E+03  0.12499968945E+03 0.  0.
          2    1    1    2  501    0  0.15894387238E+02 -0.25787516193E+02 -0.51237640557E+03  0.51327108678E+03  0.00000000000E+00 0. -1.
          1    1    1    2  502    0 -0.68549779828E+02 -0.13145876120E+02  0.12631560426E+04  0.12650830306E+04  0.00000000000E+00 0. -1.
         22    1    3    3    0    0  0.43257317862E+01  0.73130324578E+02  0.39575867978E+02  0.83264672308E+02  0.00000000000E+00 0.  1.
         22    1    3    3    0    0  0.48329660803E+02 -0.34196932264E+02 -0.12282145918E+02  0.60465175085E+02  0.00000000000E+00 0.  1.
</event>
<event>
 7    1  0.6485470E-006  0.1081584E+03  0.7818608E-02  0.1329541E+00
          2   -1    0    0  502    0  0.00000000000E+00  0.00000000000E+00  0.72579254273E+03  0.72579254273E+03  0.00000000000E+00 0. -1.
          1   -1    0    0  501    0 -0.00000000000E+00 -0.00000000000E+00 -0.57584457081E+03  0.57584457081E+03  0.00000000000E+00 0. -1.
         25    2    1    2    0    0 -0.83334849595E+01 -0.12919248839E+03  0.89352282838E+02  0.20092515775E+03  0.12500776992E+03 0.  0.
          2    1    1    2  501    0 -0.42367463336E+02  0.99180577873E+02 -0.51294113834E+03  0.52415684712E+03  0.00000000000E+00 0. -1.
          1    1    1    2  502    0  0.50700948295E+02  0.30011910519E+02  0.57353682742E+03  0.57655510868E+03  0.00000000000E+00 0. -1.
         22    1    3    3    0    0 -0.16437588636E+02 -0.83085330931E+02 -0.15494929029E+02  0.86101448082E+02  0.00000000000E+00 0. -1.
         22    1    3    3    0    0  0.81041036769E+01 -0.46107157462E+02  0.10484721187E+03  0.11482370967E+03  0.00000000000E+00 0. -1.
</event>
<event>
 7    1  0.6485470E-006  0.9731279E+02  0.7818608E-02  0.1435060E+00
          2   -1    0    0  502    0  0.00000000000E+00  0.00000000000E+00  0.29892541375E+04  0.29892541375E+04  0.00000000000E+00 0. -1.
          1   -1    0    0  501    0 -0.00000000000E+00 -0.00000000000E+00 -0.46368847763E+03  0.46368847763E+03  0.00000000000E+00 0. -1.
         25    2    1    2    0    0  0.69913882915E+02  0.65505119782E+01 -0.15672003508E+03  0.21240955152E+03  0.12500315177E+03 0.  0.
          2    1    1    2  501    0  0.27478625546E+02 -0.38085213676E+01 -0.27763085332E+03  0.27901338751E+03  0.00000000000E+00 0. -1.
          1    1    1    2  502    0 -0.97392508461E+02 -0.27419906106E+01  0.29599165483E+04  0.29615196761E+04  0.00000000000E+00 0. -1.
         22    1    3    3    0    0  0.56684908596E+02  0.63374486212E+02 -0.91999469432E+02  0.12527332813E+03  0.00000000000E+00 0. -1.
         22    1    3    3    0    0  0.13228974319E+02 -0.56823974234E+02 -0.64720565643E+02  0.87136223389E+02  0.00000000000E+00 0. -1.
</event>
<event>
 7    1  0.6485470E-006  0.1761683E+03  0.7818608E-02  0.1172727E+00
          2   -1    0    0  502    0  0.00000000000E+00  0.00000000000E+00  0.31640589567E+04  0.31640589567E+04  0.00000000000E+00 0. -1.
          1   -1    0    0  501    0 -0.00000000000E+00 -0.00000000000E+00 -0.15404313408E+03  0.15404313408E+03  0.00000000000E+00 0. -1.
         25    2    1    2    0    0  0.83149695010E+02  0.20850447850E+03  0.32345728064E+03  0.41308243099E+03  0.12499797223E+03 0.  0.
          2    1    1    2  501    0 -0.16989536552E+03 -0.57843618921E+02 -0.30808214605E+02  0.18209740680E+03  0.00000000000E+00 0. -1.
          1    1    1    2  502    0  0.86745670511E+02 -0.15066085958E+03  0.27173667566E+04  0.27229222530E+04  0.00000000000E+00 0. -1.
         22    1    3    3    0    0  0.80950738652E+02  0.10401852273E+03  0.96932343762E+02  0.16361159625E+03  0.00000000000E+00 0.  1.
         22    1    3    3    0    0  0.21989563581E+01  0.10448595577E+03  0.22652493687E+03  0.24947083474E+03  0.00000000000E+00 0.  1.
</event>
<event>
 7    1  0.6485470E-006  0.7473332E+02  0.7818608E-02  0.1395717E+00
          2   -1    0    0  502    0  0.00000000000E+00  0.00000000000E+00  0.42571252447E+03  0.42571252447E+03  0.00000000000E+00 0. -1.
          1   -1    0    0  501    0 -0.00000000000E+00 -0.00000000000E+00 -0.12848937884E+04  0.12848937884E+04  0.00000000000E+00 0. -1.
         25    2    1    2    0    0  0.13838369052E+01  0.40521968378E+02  0.54318785967E+02  0.14219405516E+03  0.12499869554E+03 0.  0.
          2    1    1    2  501    0  0.41652151641E+02  0.25787346597E+02 -0.12356928427E+04  0.12366635316E+04  0.00000000000E+00 0. -1.
          1    1    1    2  502    0 -0.43035988546E+02 -0.66309314975E+02  0.32219279277E+03  0.33174872611E+03  0.00000000000E+00 0. -1.
         22    1    3    3    0    0 -0.13191346079E+02  0.79715731768E+02  0.59097802189E+02  0.10010574272E+03  0.00000000000E+00 0. -1.
         22    1    3    3    0    0  0.14575182984E+02 -0.39193763390E+02 -0.47790162222E+01  0.42088312436E+02  0.00000000000E+00 0. -1.
</event>
<event>
 7    1  0.6485470E-006  0.9100007E+02  0.7818608E-02  0.1407574E+00
          2   -1    0    0  502    0  0.00000000000E+00  0.00000000000E+00  0.86446453690E+03  0.86446453690E+03  0.00000000000E+00 0. -1.
          1   -1    0    0  501    0 -0.00000000000E+00 -0.00000000000E+00 -0.36858258536E+03  0.36858258536E+03  0.00000000000E+00 0. -1.
         25    2    1    2    0    0  0.90065006054E+02 -0.74250811725E+02 -0.13998686611E+03  0.22101148969E+03  0.12499947014E+03 0.  0.
          2    1    1    2  501    0 -0.54481424990E+02  0.65537977909E+02 -0.17799559265E+03  0.19734711353E+03  0.00000000000E+00 0. -1.
          1    1    1    2  502    0 -0.35583581064E+02  0.87128338154E+01  0.81386441029E+03  0.81468851904E+03  0.00000000000E+00 0. -1.
         22    1    3    3    0    0  0.83945786356E+02 -0.88990628900E+02 -0.15610389240E+03  0.19832965563E+03  0.00000000000E+00 0.  1.
         22    1    3    3    0    0  0.61192196983E+01  0.14739817175E+02  0.16117026291E+02  0.22681834065E+02  0.00000000000E+00 0.  1.
</event>
<event>
 7    1  0.6485470E-006  0.4351931E+02  0.7818608E-02  0.1532015E+00
          2   -1    0    0  502    0  0.00000000000E+00  0.00000000000E+00  0.11949110460E+04  0.11949110460E+04  0.00000000000E+00 0. -1.
          1   -1    0    0  501    0 -0.00000000000E+00 -0.00000000000E+00 -0.16143974480E+03  0.16143974480E+03  0.00000000000E+00 0. -1.
         25    2    1    2    0    0 -0.45671716328E+01  0.29733883890E+02  0.71352794182E+03  0.72501865727E+03  0.12499986689E+03 0.  0.
          2    1    1    2  501    0  0.35594499018E+02 -0.25206104655E+02 -0.15210945180E+03  0.15823906407E+03  0.00000000000E+00 0. -1.
          1    1    1    2  502    0 -0.31027327385E+02 -0.45277792349E+01  0.47205281115E+03  0.47309306943E+03  0.00000000000E+00 0. -1.
         22    1    3    3    0    0 -0.64480554295E+02  0.88556250767E+01  0.35273227243E+03  0.35868679930E+03  0.00000000000E+00 0. -1.
         22    1    3    3    0    0  0.59913382662E+02  0.20878258813E+02  0.36079566939E+03  0.36633185797E+03  0.00000000000E+00 0. -1.
</event>
<event>
 7    1  0.6485470E-006  0.7549033E+02  0.7818608E-02  0.1361005E+00
          2   -1    0    0  502    0  0.00000000000E+00  0.00000000000E+00  0.17823006622E+04  0.17823006622E+04  0.00000000000E+00 0. -1.
          1   -1    0    0  501    0 -0.00000000000E+00 -0.00000000000E+00 -0.56324516211E+02  0.56324516211E+02  0.00000000000E+00 0. -1.
         25    2    1    2    0    0  0.10260369940E+02  0.10782856861E+02  0.11249318268E+03  0.16882074714E+03  0.12499673325E+03 0.  0.
          2    1    1    2  501    0  0.62085577403E+02  0.17162181049E+02  0.10880467881E+02  0.65326441516E+02  0.00000000000E+00 0. -1.
          1    1    1    2  502    0 -0.72345947343E+02 -0.27945037909E+02  0.16026024954E+04  0.16044779897E+04  0.00000000000E+00 0. -1.
         22    1    3    3    0    0 -0.30280522686E+02 -0.29803176633E+02  0.10201152003E+03  0.11050560896E+03  0.00000000000E+00 0. -1.
         22    1    3    3    0    0  0.40540892626E+02  0.40586033493E+02  0.10481662641E+02  0.58315138183E+02  0.00000000000E+00 0. -1.
</event>
<event>
 7    1  0.1051814E-005  0.6718801E+02  0.7818608E-02  0.1404410E+00
          2   -1    0    0  502    0  0.00000000000E+00  0.00000000000E+00  0.10471591053E+04  0.10471591053E+04  0.00000000000E+00 0. -1.
          1   -1    0    0  501    0 -0.00000000000E+00 -0.00000000000E+00 -0.16881899182E+04  0.16881899182E+04  0.00000000000E+00 0. -1.
         25    2    1    2    0    0  0.14479018312E+02 -0.11629059938E+03 -0.31707438339E+03  0.36040778579E+03  0.12499784791E+03 0.  0.
          2    1    1    2  501    0  0.94171699621E-01  0.50866046455E+02 -0.13478733278E+04  0.13488327811E+04  0.00000000000E+00 0. -1.
          1    1    1    2  502    0 -0.14573190011E+02  0.65424552924E+02  0.10239168983E+04  0.10261084566E+04  0.00000000000E+00 0. -1.
         22    1    3    3    0    0  0.54141311454E+02 -0.10276270579E+03 -0.15921512999E+03  0.19708098063E+03  0.00000000000E+00 0.  1.
         22    1    3    3    0    0 -0.39662293142E+02 -0.13527893591E+02 -0.15785925340E+03  0.16332680516E+03  0.00000000000E+00 0.  1.
</event>
<event>
 7    1  0.6485470E-006  0.2562634E+03  0.7818608E-02  0.1220817E+00
          2   -1    0    0  502    0  0.00000000000E+00  0.00000000000E+00  0.24005309119E+04  0.24005309119E+04  0.00000000000E+00 0. -1.
          1   -1    0    0  501    0 -0.00000000000E+00 -0.00000000000E+00 -0.62009723206E+03  0.62009723206E+03  0.00000000000E+00 0. -1.
         25    2    1    2    0    0  0.48169726395E+02  0.19902306938E+03 -0.11328657577E+03  0.26530975612E+03  0.12499965503E+03 0.  0.
          2    1    1    2  501    0  0.61426349048E+02  0.34951141759E+02 -0.42066274146E+03  0.42655822665E+03  0.00000000000E+00 0. -1.
          1    1    1    2  502    0 -0.10959607544E+03 -0.23397421114E+03  0.23143829971E+04  0.23287601612E+04  0.00000000000E+00 0. -1.
         22    1    3    3    0    0 -0.13605453472E+02  0.47814541444E+02 -0.86527702832E+02  0.99791693517E+02  0.00000000000E+00 0.  1.
         22    1    3    3    0    0  0.61775179867E+02  0.15120852794E+03 -0.26758872936E+02  0.16551806261E+03  0.00000000000E+00 0.  1.
</event>
<event>
 7    1  0.6485470E-006  0.1968749E+03  0.7818608E-02  0.1240987E+00
          2   -1    0    0  502    0  0.00000000000E+00  0.00000000000E+00  0.87796472112E+02  0.87796472112E+02  0.00000000000E+00 0. -1.
          1   -1    0    0  501    0 -0.00000000000E+00 -0.00000000000E+00 -0.14609306824E+04  0.14609306824E+04  0.00000000000E+00 0. -1.
         25    2    1    2    0    0  0.15241285929E+03  0.10849580095E+03 -0.75658920611E+03  0.78933659641E+03  0.12499606844E+03 0.  0.
          2    1    1    2  501    0 -0.12062821274E+03 -0.17612002426E+03 -0.64502068174E+03  0.67942704430E+03  0.00000000000E+00 0. -1.
          1    1    1    2  502    0 -0.31784646546E+02  0.67624223303E+02  0.28475677534E+02  0.79963513832E+02  0.00000000000E+00 0. -1.
         22    1    3    3    0    0  0.95693193576E+02  0.13541496248E-01 -0.23849763391E+03  0.25697919928E+03  0.00000000000E+00 0. -1.
         22    1    3    3    0    0  0.56719665712E+02  0.10848225946E+03 -0.51809157220E+03  0.53235739713E+03  0.00000000000E+00 0. -1.
</event>
<event>
 7    1  0.6485470E-006  0.5880662E+02  0.7818608E-02  0.1493927E+00
          2   -1    0    0  502    0  0.00000000000E+00  0.00000000000E+00  0.89097812791E+03  0.89097812791E+03  0.00000000000E+00 0. -1.
          1   -1    0    0  501    0 -0.00000000000E+00 -0.00000000000E+00 -0.77801357068E+03  0.77801357068E+03  0.00000000000E+00 0. -1.
         25    2    1    2    0    0  0.35778152687E+02  0.28721557303E+02  0.40381906687E+03  0.42520378182E+03  0.12499365281E+03 0.  0.
          2    1    1    2  501    0  0.25107709028E+02 -0.16437047759E+02 -0.76500149681E+03  0.76558987958E+03  0.00000000000E+00 0. -1.
          1    1    1    2  502    0 -0.60885861715E+02 -0.12284509544E+02  0.47414698717E+03  0.47819803719E+03  0.00000000000E+00 0. -1.
         22    1    3    3    0    0 -0.17410391949E+02  0.10622039566E+02  0.33821580541E+03  0.33883016468E+03  0.00000000000E+00 0.  1.
         22    1    3    3    0    0  0.53188544636E+02  0.18099517737E+02  0.65603261467E+02  0.86373617140E+02  0.00000000000E+00 0.  1.
</event>
<event>
 7    1  0.6485470E-006  0.5967443E+02  0.7818608E-02  0.1420276E+00
          2   -1    0    0  502    0  0.00000000000E+00  0.00000000000E+00  0.36758123366E+02  0.36758123366E+02  0.00000000000E+00 0. -1.
          1   -1    0    0  501    0 -0.00000000000E+00 -0.00000000000E+00 -0.87879041135E+03  0.87879041135E+03  0.00000000000E+00 0. -1.
         25    2    1    2    0    0  0.13592726809E+02 -0.99332585080E+01 -0.53933070725E+03  0.55388247591E+03  0.12499901396E+03 0.  0.
          2    1    1    2  501    0  0.31464303314E+01 -0.50524890344E+02 -0.29400747128E+03  0.29833380253E+03  0.00000000000E+00 0. -1.
          1    1    1    2  502    0 -0.16739157141E+02  0.60458148852E+02 -0.86941094512E+01  0.63332256264E+02  0.00000000000E+00 0. -1.
         22    1    3    3    0    0  0.30382595768E+02  0.47046640028E+01 -0.26560717645E+02  0.40628902406E+02  0.00000000000E+00 0. -1.
         22    1    3    3    0    0 -0.16789868958E+02 -0.14637922511E+02 -0.51276998961E+03  0.51325357351E+03  0.00000000000E+00 0. -1.
</event>
<event>
 7    1  0.6485470E-006  0.1015229E+03  0.7818608E-02  0.1305253E+00
          2   -1    0    0  502    0  0.00000000000E+00  0.00000000000E+00  0.40405191542E+03  0.40405191542E+03  0.00000000000E+00 0. -1.
          1   -1    0    0  501    0 -0.00000000000E+00 -0.00000000000E+00 -0.26911331807E+03  0.26911331807E+03  0.00000000000E+00 0. -1.
         25    2    1    2    0    0  0.10559253908E+01 -0.54550789742E+02  0.80614987439E+02  0.15839592768E+03  0.12495435193E+03 0.  0.
          2    1    1    2  501    0 -0.61130290183E+02 -0.48526329725E+02 -0.21039634746E+03  0.22440664001E+03  0.00000000000E+00 0. -1.
          1    1    1    2  502    0  0.60074364792E+02  0.10307711947E+03  0.26471995737E+03  0.29036266580E+03  0.00000000000E+00 0. -1.
         22    1    3    3    0    0  0.40533071921E+02 -0.57038405729E+01  0.86117490535E+02  0.95350332420E+02  0.00000000000E+00 0. -1.
         22    1    3    3    0    0 -0.39477146530E+02 -0.48846949169E+02 -0.55025030952E+01  0.63045595259E+02  0.00000000000E+00 0. -1.
</event>
<event>
 7    1  0.6485470E-006  0.5174956E+02  0.7818608E-02  0.1481297E+00
          2   -1    0    0  502    0  0.00000000000E+00  0.00000000000E+00  0.33244071110E+02  0.33244071110E+02  0.00000000000E+00 0. -1.
          1   -1    0    0  501    0 -0.00000000000E+00 -0.00000000000E+00 -0.21954350549E+04  0.21954350549E+04  0.00000000000E+00 0. -1.
         25    2    1    2    0    0  0.22056885524E+02  0.78118282278E+01 -0.51427198436E+03  0.52976198095E+03  0.12499820679E+03 0.  0.
          2    1    1    2  501    0  0.29250015150E+02 -0.23063863384E+02 -0.16448835268E+04  0.16453052367E+04  0.00000000000E+00 0. -1.
          1    1    1    2  502    0 -0.51306900674E+02  0.15252035156E+02 -0.30354727210E+01  0.53611908452E+02  0.00000000000E+00 0. -1.
         22    1    3    3    0    0  0.96464136526E+01 -0.39394820149E+01  0.40346084309E+01  0.11173669052E+02  0.00000000000E+00 0.  1.
         22    1    3    3    0    0  0.12410471872E+02  0.11751310243E+02 -0.51830659279E+03  0.51858831190E+03  0.00000000000E+00 0.  1.
</event>
<event>
 7    1  0.6485470E-006  0.5196309E+02  0.7818608E-02  0.1512967E+00
          2   -1    0    0  502    0  0.00000000000E+00  0.00000000000E+00  0.30391260457E+03  0.30391260457E+03  0.00000000000E+00 0. -1.
          1   -1    0    0  501    0 -0.00000000000E+00 -0.00000000000E+00 -0.90560987611E+02  0.90560987611E+02  0.00000000000E+00 0. -1.
         25    2    1    2    0    0 -0.33501819003E+02 -0.58230257209E+01  0.56063630548E+02  0.14115438029E+03  0.12500059559E+03 0.  0.
          2    1    1    2  501    0 -0.77734560483E+01 -0.28784038512E+02 -0.39388411559E+02  0.49400348755E+02  0.00000000000E+00 0. -1.
          1    1    1    2  502    0  0.41275275051E+02  0.34607064233E+02  0.19667639797E+03  0.20391886314E+03  0.00000000000E+00 0. -1.
         22    1    3    3    0    0 -0.95125223928E+01  0.50921468817E+02  0.60186350017E+02  0.79409576230E+02  0.00000000000E+00 0.  1.
         22    1    3    3    0    0 -0.23989296610E+02 -0.56744494538E+02 -0.41227194681E+01  0.61744804057E+02  0.00000000000E+00 0.  1.
</event>
<event>
 7    1  0.6485470E-006  0.1224480E+03  0.7818608E-02  0.1370404E+00
          2   -1    0    0  502    0  0.00000000000E+00  0.00000000000E+00  0.14652833386E+04  0.14652833386E+04  0.00000000000E+00 0. -1.
          1   -1    0    0  501    0 -0.00000000000E+00 -0.00000000000E+00 -0.82406124808E+03  0.82406124808E+03  0.00000000000E+00 0. -1.
         25    2    1    2    0    0 -0.13006099142E+03 -0.81558045434E+02 -0.21690749147E+03  0.29366747983E+03  0.12499661031E+03 0.  0.
          2    1    1    2  501    0  0.95984457971E+02  0.67876358229E+02 -0.56245940487E+03  0.57461360783E+03  0.00000000000E+00 0. -1.
          1    1    1    2  502    0  0.34076533447E+02  0.13681687206E+02  0.14205889868E+04  0.14210634990E+04  0.00000000000E+00 0. -1.
         22    1    3    3    0    0 -0.14570035117E+03 -0.47513835879E+02 -0.13762034197E+03  0.20597455050E+03  0.00000000000E+00 0.  1.
         22    1    3    3    0    0  0.15639359751E+02 -0.34044209556E+02 -0.79287149502E+02  0.87692929327E+02  0.00000000000E+00 0.  1.
</event>
<event>
 7    1  0.6485470E-006  0.6365298E+02  0.7818608E-02  0.1471283E+00
          2   -1    0    0  502    0  0.00000000000E+00  0.00000000000E+00  0.11044938803E+04  0.11044938803E+04  0.00000000000E+00 0. -1.
          1   -1    0    0  501    0 -0.00000000000E+00 -0.00000000000E+00 -0.40574589452E+03  0.40574589452E+03  0.00000000000E+00 0. -1.
         25    2    1    2    0    0 -0.29918629709E+02 -0.22038560256E+02 -0.12395619005E+03  0.17992084069E+03  0.12500219726E+03 0.  0.
          2    1    1    2  501    0  0.61740755264E+02  0.28715449738E+02 -0.24898942368E+03  0.25813219679E+03  0.00000000000E+00 0. -1.
          1    1    1    2  502    0 -0.31822125555E+02 -0.66768894825E+01  0.10716935995E+04  0.10721867373E+04  0.00000000000E+00 0. -1.
         22    1    3    3    0    0  0.50613917293E+01 -0.27686858235E+02 -0.13871153163E+03  0.14153822385E+03  0.00000000000E+00 0.  1.
         22    1    3    3    0    0 -0.34980021439E+02  0.56482979787E+01  0.14755341577E+02  0.38382616833E+02  0.00000000000E+00 0.  1.
</event>
<event>
 7    1  0.6485470E-006  0.1234888E+03  0.7818608E-02  0.1319866E+00
          2   -1    0    0  502    0  0.00000000000E+00  0.00000000000E+00  0.50963425607E+03  0.50963425607E+03  0.00000000000E+00 0. -1.
          1   -1    0    0  501    0 -0.00000000000E+00 -0.00000000000E+00 -0.37267000630E+03  0.37267000630E+03  0.00000000000E+00 0. -1.
         25    2    1    2    0    0 -0.72594636859E+02  0.27325816433E+02  0.40155480449E+02  0.15249202108E+03  0.12499868934E+03 0.  0.
          2    1    1    2  501    0 -0.44334523842E+02  0.34582069890E+02 -0.30326262786E+03  0.30843101501E+03  0.00000000000E+00 0. -1.
          1    1    1    2  502    0  0.11692916070E+03 -0.61907886323E+02  0.40007139719E+03  0.42138122628E+03  0.00000000000E+00 0. -1.
         22    1    3    3    0    0 -0.10177929697E+03  0.25739387315E+02  0.27471613436E+01  0.10501946604E+03  0.00000000000E+00 0.  1.
         22    1    3    3    0    0  0.29184660114E+02  0.15864291176E+01  0.37408319106E+02  0.47472555036E+02  0.00000000000E+00 0.  1.
</event>
<event>
 7    1  0.6485470E-006  0.8028866E+02  0.7818608E-02  0.1426310E+00
          2   -1    0    0  502    0  0.00000000000E+00  0.00000000000E+00  0.12039387860E+03  0.12039387860E+03  0.00000000000E+00 0. -1.
          1   -1    0    0  501    0 -0.00000000000E+00 -0.00000000000E+00 -0.25299570358E+03  0.25299570358E+03  0.00000000000E+00 0. -1.
         25    2    1    2    0    0  0.35609190216E+02 -0.81038646291E+02 -0.13074448478E+03  0.20138129038E+03  0.12500010878E+03 0.  0.
          2    1    1    2  501    0 -0.35915113775E+02  0.92840454798E+00 -0.62120585215E+02  0.71761580528E+02  0.00000000000E+00 0. -1.
          1    1    1    2  502    0  0.30592355866E+00  0.80110241743E+02  0.60263245020E+02  0.10024671128E+03  0.00000000000E+00 0. -1.
         22    1    3    3    0    0  0.79098567623E+02 -0.74916924738E+02 -0.98811153564E+02  0.14708083859E+03  0.00000000000E+00 0. -1.
         22    1    3    3    0    0 -0.43489377407E+02 -0.61217215528E+01 -0.31933331220E+02  0.54300451792E+02  0.00000000000E+00 0. -1.
</event>
<event>
 7    1  0.7836517E-006  0.6777472E+02  0.7818608E-02  0.1375766E+00
          2   -1    0    0  502    0  0.00000000000E+00  0.00000000000E+00  0.65253933025E+03  0.65253933025E+03  0.00000000000E+00 0. -1.
          1   -1    0    0  501    0 -0.00000000000E+00 -0.00000000000E+00 -0.16361041736E+04  0.16361041736E+04  0.00000000000E+00 0. -1.
         25    2    1    2    0    0 -0.51950985422E+02  0.92960779930E+02 -0.21218164163E+03  0.26830530172E+03  0.12500429751E+03 0.  0.
          2    1    1    2  501    0 -0.86138400570E+01 -0.62888398648E+02 -0.13933054995E+04  0.13947506458E+04  0.00000000000E+00 0. -1.
          1    1    1    2  502    0  0.60564825479E+02 -0.30072381282E+02  0.62192229777E+03  0.62558755636E+03  0.00000000000E+00 0. -1.
         22    1    3    3    0    0 -0.37776441455E+02  0.82268023957E+02 -0.22750355800E+03  0.24485292768E+03  0.00000000000E+00 0. -1.
         22    1    3    3    0    0 -0.14174543966E+02  0.10692755973E+02  0.15321916365E+02  0.23452374039E+02  0.00000000000E+00 0. -1.
</event>
<event>
 7    1  0.6485470E-006  0.7886408E+02  0.7818608E-02  0.1348145E+00
          2   -1    0    0  502    0  0.00000000000E+00  0.00000000000E+00  0.12781279497E+04  0.12781279497E+04  0.00000000000E+00 0. -1.
          1   -1    0    0  501    0 -0.00000000000E+00 -0.00000000000E+00 -0.27138245223E+03  0.27138245223E+03  0.00000000000E+00 0. -1.
         25    2    1    2    0    0  0.12111727533E+03 -0.66428842687E+02  0.26396597312E+03  0.32308689571E+03  0.12499968677E+03 0.  0.
          2    1    1    2  501    0 -0.46632909035E+02  0.50524609387E+02 -0.23542436447E+03  0.24525903805E+03  0.00000000000E+00 0. -1.
          1    1    1    2  502    0 -0.74484366300E+02  0.15904233300E+02  0.97820388880E+03  0.98116446814E+03  0.00000000000E+00 0. -1.
         22    1    3    3    0    0  0.13552311317E+03 -0.86469054171E+02  0.23852503980E+03  0.28764145415E+03  0.00000000000E+00 0. -1.
         22    1    3    3    0    0 -0.14405837832E+02  0.20040211484E+02  0.25440933315E+02  0.35445441568E+02  0.00000000000E+00 0. -1.
</event>
<event>
 7    1  0.6485470E-006  0.1274860E+03  0.7818608E-02  0.1313828E+00
          2   -1    0    0  502    0  0.00000000000E+00  0.00000000000E+00  0.51113171212E+03  0.51113171212E+03  0.00000000000E+00 0. -1.
          1   -1    0    0  501    0 -0.00000000000E+00 -0.00000000000E+00 -0.23324299168E+04  0.23324299168E+04  0.00000000000E+00 0. -1.
         25    2    1    2    0    0  0.80764862965E+02 -0.24258138434E+02 -0.86946390872E+02  0.17406305466E+03  0.12500740675E+03 0.  0.
          2    1    1    2  501    0 -0.10449779462E+03  0.76629393353E+02 -0.21982422793E+04  0.22020583488E+04  0.00000000000E+00 0. -1.
          1    1    1    2  502    0  0.23732931653E+02 -0.52371254919E+02  0.46389046550E+03  0.46744022545E+03  0.00000000000E+00 0. -1.
         22    1    3    3    0    0  0.52156915438E+02 -0.15651596600E+02 -0.11862076699E+03  0.13052280516E+03  0.00000000000E+00 0.  1.
         22    1    3    3    0    0  0.28607947527E+02 -0.86065418339E+01  0.31674376121E+02  0.43540249502E+02  0.00000000000E+00 0.  1.
</event>
<event>
 7    1  0.6485470E-006  0.7503490E+02  0.7818608E-02  0.1407971E+00
          2   -1    0    0  502    0  0.00000000000E+00  0.00000000000E+00  0.11254974028E+04  0.11254974028E+04  0.00000000000E+00 0. -1.
          1   -1    0    0  501    0 -0.00000000000E+00 -0.00000000000E+00 -0.22993901460E+03  0.22993901460E+03  0.00000000000E+00 0. -1.
         25    2    1    2    0    0  0.78007085284E+02  0.90031997439E+01 -0.40866064704E+02  0.15317108519E+03  0.12500073254E+03 0.  0.
          2    1    1    2  501    0 -0.10932909643E+02 -0.42920869913E+02 -0.12786823995E+03  0.13532189909E+03  0.00000000000E+00 0. -1.
          1    1    1    2  502    0 -0.67074175641E+02  0.33917670169E+02  0.10642926929E+04  0.10669434331E+04  0.00000000000E+00 0. -1.
         22    1    3    3    0    0  0.57931630290E+02  0.58994613305E+02 -0.52653764585E+02  0.98024778051E+02  0.00000000000E+00 0.  1.
         22    1    3    3    0    0  0.20075454994E+02 -0.49991413561E+02  0.11787699880E+02  0.55146307143E+02  0.00000000000E+00 0.  1.
</event>
<event>
 7    1  0.6485470E-006  0.3736138E+02  0.7818608E-02  0.1541149E+00
          2   -1    0    0  502    0  0.00000000000E+00  0.00000000000E+00  0.11455862575E+02  0.11455862575E+02  0.00000000000E+00 0. -1.
          1   -1    0    0  501    0 -0.00000000000E+00 -0.00000000000E+00 -0.31694413195E+04  0.31694413195E+04  0.00000000000E+00 0. -1.
         25    2    1    2    0    0 -0.93256446775E+01  0.28470603563E+02 -0.40008033457E+03  0.42022243024E+03  0.12500029541E+03 0.  0.
          2    1    1    2  501    0 -0.25079121376E+02 -0.28110227318E+02 -0.25212637514E+04  0.25215451714E+04  0.00000000000E+00 0. -1.
          1    1    1    2  502    0  0.34404766053E+02 -0.36037624507E+00 -0.23664137092E+03  0.23912958042E+03  0.00000000000E+00 0. -1.
         22    1    3    3    0    0 -0.41773943893E+02  0.10627409428E+02 -0.41834156123E+02  0.60067469049E+02  0.00000000000E+00 0.  1.
         22    1    3    3    0    0  0.32448299215E+02  0.17843194135E+02 -0.35824617844E+03  0.36015496119E+03  0.00000000000E+00 0.  1.
</event>
<event>
 7    1  0.6485470E-006  0.1082564E+03  0.7818608E-02  0.1273105E+00
          2   -1    0    0  502    0  0.00000000000E+00  0.00000000000E+00  0.33610584450E+03  0.33610584450E+03  0.00000000000E+00 0. -1.
          1   -1    0    0  501    0 -0.00000000000E+00 -0.00000000000E+00 -0.59012044988E+03  0.59012044988E+03  0.00000000000E+00 0. -1.
         25    2    1    2    0    0 -0.17256931847E+02  0.97916347040E+02 -0.38838416434E+03  0.41994424859E+03  0.12500200036E+03 0.  0.
          2    1    1    2  501    0  0.11596929010E+03 -0.91050904775E+02 -0.14688970207E+03  0.20812430920E+03  0.00000000000E+00 0. -1.
          1    1    1    2  502    0 -0.98712358254E+02 -0.68654422649E+01  0.28125926103E+03  0.29815773659E+03  0.00000000000E+00 0. -1.
         22    1    3    3    0    0  0.28471246767E+02  0.33373395718E+02 -0.30514870429E+02  0.53437372236E+02  0.00000000000E+00 0.  1.
         22    1    3    3    0    0 -0.45728178614E+02  0.64542951322E+02 -0.35786929392E+03  0.36650687635E+03  0.00000000000E+00 0.  1.
</event>
<event>
 7    1  0.6485470E-006  0.1018367E+03  0.7818608E-02  0.1392775E+00
          2   -1    0    0  502    0  0.00000000000E+00  0.00000000000E+00  0.13928150875E+04  0.13928150875E+04  0.00000000000E+00 0. -1.
          1   -1    0    0  501    0 -0.00000000000E+00 -0.00000000000E+00 -0.19008643166E+03  0.19008643166E+03  0.00000000000E+00 0. -1.
         25    2    1    2    0    0  0.12076159994E+03 -0.49915898386E+02 -0.26786370795E+01  0.18085342738E+03  0.12500330462E+03 0.  0.
          2    1    1    2  501    0 -0.89408520778E+02  0.30639122590E+02 -0.75281698190E+02  0.12083035009E+03  0.00000000000E+00 0. -1.
          1    1    1    2  502    0 -0.31353079164E+02  0.19276775797E+02  0.12806889911E+04  0.12812177417E+04  0.00000000000E+00 0. -1.
         22    1    3    3    0    0  0.87162441205E+02  0.31561142031E+02 -0.14649587029E+01  0.92712151022E+02  0.00000000000E+00 0.  1.
         22    1    3    3    0    0  0.33599158737E+02 -0.81477040417E+02 -0.12136783766E+01  0.88141276359E+02  0.00000000000E+00 0.  1.
</event>
<event>
 7    1  0.1293992E-005  0.7620798E+02  0.7818608E-02  0.1446946E+00
          2   -1    0    0  502    0  0.00000000000E+00  0.00000000000E+00  0.18806992817E+04  0.18806992817E+04  0.00000000000E+00 0. -1.
          1   -1    0    0  501    0 -0.00000000000E+00 -0.00000000000E+00 -0.29738362824E+04  0.29738362824E+04  0.00000000000E+00 0. -1.
         25    2    1    2    0    0  0.19211602537E+02  0.52761038948E+02 -0.58880726986E+03  0.60454213466E+03  0.12499751452E+03 0.  0.
          2    1    1    2  501    0  0.32226572283E+02  0.35114046547E+01 -0.23762750860E+04  0.23764961953E+04  0.00000000000E+00 0. -1.
          1    1    1    2  502    0 -0.51438174820E+02 -0.56272443602E+02  0.18719453552E+04  0.18734972342E+04  0.00000000000E+00 0. -1.
         22    1    3    3    0    0 -0.17301806491E+02  0.31533550401E+02 -0.53467071753E+03  0.53587917808E+03  0.00000000000E+00 0.  1.
         22    1    3    3    0    0  0.36513409028E+02  0.21227488547E+02 -0.54136552330E+02  0.68662956585E+02  0.00000000000E+00 0.  1.
</event>
<event>
 7    1  0.6485470E-006  0.1020557E+03  0.7818608E-02  0.1428656E+00
          2   -1    0    0  502    0  0.00000000000E+00  0.00000000000E+00  0.50922168390E+03  0.50922168390E+03  0.00000000000E+00 0. -1.
          1   -1    0    0  501    0 -0.00000000000E+00 -0.00000000000E+00 -0.10119263535E+03  0.10119263535E+03  0.00000000000E+00 0. -1.
         25    2    1    2    0    0 -0.19847091598E+02 -0.83526536361E+02  0.75186654452E+02  0.16926463987E+03  0.12500758369E+03 0.  0.
          2    1    1    2  501    0  0.17872158073E+02 -0.21247141351E+02 -0.42881911704E+02  0.51085354077E+02  0.00000000000E+00 0. -1.
          1    1    1    2  502    0  0.19749335245E+01  0.10477367771E+03  0.37572430580E+03  0.39006432530E+03  0.00000000000E+00 0. -1.
         22    1    3    3    0    0 -0.53318207442E+02  0.68210322512E+01  0.15565219166E+02  0.55961002256E+02  0.00000000000E+00 0. -1.
         22    1    3    3    0    0  0.33471115845E+02 -0.90347568612E+02  0.59621435287E+02  0.11330363761E+03  0.00000000000E+00 0. -1.
</event>
<event>
 7    1  0.6485470E-006  0.2947499E+03  0.7818608E-02  0.1219420E+00
          2   -1    0    0  502    0  0.00000000000E+00  0.00000000000E+00  0.21033614329E+04  0.21033614329E+04  0.00000000000E+00 0. -1.
          1   -1    0    0  501    0 -0.00000000000E+00 -0.00000000000E+00 -0.11436348958E+03  0.11436348958E+03  0.00000000000E+00 0. -1.
         25    2    1    2    0    0 -0.24120300207E+03 -0.14815003572E+03  0.19481228784E+03  0.36565358612E+03  0.12499358488E+03 0.  0.
          2    1    1    2  501    0  0.27192975474E+03  0.20240744057E+03  0.10091823033E+04  0.10645954560E+04  0.00000000000E+00 0. -1.
          1    1    1    2  502    0 -0.30726752667E+02 -0.54257404857E+02  0.78500335216E+03  0.78747588041E+03  0.00000000000E+00 0. -1.
         22    1    3    3    0    0 -0.14232383148E+03 -0.78876676816E+02  0.18217260715E+03  0.24426309985E+03  0.00000000000E+00 0. -1.
         22    1    3    3    0    0 -0.98879170588E+02 -0.69273358900E+02  0.12639680690E+02  0.12139048627E+03  0.00000000000E+00 0. -1.
</event>
<event>
 7    1  0.6485470E-006  0.2762001E+02  0.7818608E-02  0.1656130E+00
          2   -1    0    0  502    0  0.00000000000E+00  0.00000000000E+00  0.83785070123E+02  0.83785070123E+02  0.00000000000E+00 0. -1.
          1   -1    0    0  501    0 -0.00000000000E+00 -0.00000000000E+00 -0.12657663015E+04  0.12657663015E+04  0.00000000000E+00 0. -1.
         25    2    1    2    0    0 -0.18204113180E+02  0.22830185442E+02 -0.49472026462E+02  0.13756385977E+03  0.12499490793E+03 0.  0.
          2    1    1    2  501    0  0.27605963148E+02 -0.15627829848E+01 -0.11686692394E+04  0.11689962885E+04  0.00000000000E+00 0. -1.
          1    1    1    2  502    0 -0.94018499677E+01 -0.21267402457E+02  0.36160034475E+02  0.42991223329E+02  0.00000000000E+00 0. -1.
         22    1    3    3    0    0 -0.52799651760E+02 -0.85112486652E+01 -0.68712722251E+02  0.87072859026E+02  0.00000000000E+00 0. -1.
         22    1    3    3    0    0  0.34595538580E+02  0.31341434107E+02  0.19240695790E+02  0.50491000742E+02  0.00000000000E+00 0. -1.
</event>
<event>
 7    1  0.6485470E-006  0.7816724E+02  0.7818608E-02  0.1393902E+00
          2   -1    0    0  502    0  0.00000000000E+00  0.00000000000E+00  0.72329172390E+03  0.72329172390E+03  0.00000000000E+00 0. -1.
          1   -1    0    0  501    0 -0.00000000000E+00 -0.00000000000E+00 -0.22905905434E+04  0.22905905434E+04  0.00000000000E+00 0. -1.
         25    2    1    2    0    0 -0.12033795695E+02  0.28563968015E+02 -0.29553955975E+03  0.32238041368E+03  0.12499914896E+03 0.  0.
          2    1    1    2  501    0 -0.16612640706E+02  0.44521188229E+02 -0.19791743587E+04  0.19797447457E+04  0.00000000000E+00 0. -1.
          1    1    1    2  502    0  0.28646436400E+02 -0.73085156243E+02  0.70741509897E+03  0.71175710789E+03  0.00000000000E+00 0. -1.
         22    1    3    3    0    0 -0.67134277347E+02  0.30192832960E+02 -0.17336860095E+03  0.18834885227E+03  0.00000000000E+00 0. -1.
         22    1    3    3    0    0  0.55100481652E+02 -0.16288649450E+01 -0.12217095880E+03  0.13403156140E+03  0.00000000000E+00 0. -1.
</event>
<event>
 7    1  0.6485470E-006  0.2083406E+03  0.7818608E-02  0.1220028E+00
          2   -1    0    0  502    0  0.00000000000E+00  0.00000000000E+00  0.16971680848E+04  0.16971680848E+04  0.00000000000E+00 0. -1.
          1   -1    0    0  501    0 -0.00000000000E+00 -0.00000000000E+00 -0.11661984527E+03  0.11661984527E+03  0.00000000000E+00 0. -1.
         25    2    1    2    0    0  0.15402370940E+03 -0.23707148392E+03  0.64507775767E+03  0.71531606088E+03  0.12500224785E+03 0.  0.
          2    1    1    2  501    0 -0.11007226410E+03  0.16123378191E+03  0.40703369749E+02  0.19942166397E+03  0.00000000000E+00 0. -1.
          1    1    1    2  502    0 -0.43951445299E+02  0.75837702007E+02  0.89476711208E+03  0.89905020519E+03  0.00000000000E+00 0. -1.
         22    1    3    3    0    0  0.10298534518E+01 -0.30793828837E+02  0.19247092209E+03  0.19492146199E+03  0.00000000000E+00 0. -1.
         22    1    3    3    0    0  0.15299385595E+03 -0.20627765508E+03  0.45260683558E+03  0.52039459889E+03  0.00000000000E+00 0. -1.
</event>
<event>
 7    1  0.6485470E-006  0.4994790E+02  0.7818608E-02  0.1551147E+00
          2   -1    0    0  502    0  0.00000000000E+00  0.00000000000E+00  0.19655721137E+04  0.19655721137E+04  0.00000000000E+00 0. -1.
          1   -1    0    0  501    0 -0.00000000000E+00 -0.00000000000E+00 -0.17468121336E+02  0.17468121336E+02  0.00000000000E+00 0. -1.
         25    2    1    2    0    0 -0.45154005243E+02 -0.32604685612E+02  0.11297825769E+04  0.11380400009E+04  0.12499769119E+03 0.  0.
          2    1    1    2  501    0  0.21420254556E+02 -0.11104712092E+02 -0.10213551274E+01  0.24149225706E+02  0.00000000000E+00 0. -1.
          1    1    1    2  502    0  0.23733750687E+02  0.43709397704E+02  0.81934277065E+03  0.82085100852E+03  0.00000000000E+00 0. -1.
         22    1    3    3    0    0 -0.35659901182E+02 -0.56456973226E+02  0.10796811760E+04  0.10817441750E+04  0.00000000000E+00 0. -1.
         22    1    3    3    0    0 -0.94941040615E+01  0.23852287614E+02  0.50101400907E+02  0.56295825860E+02  0.00000000000E+00 0. -1.
</event>
<event>
 7    1  0.6485470E-006  0.1038739E+03  0.7818608E-02  0.1291585E+00
          2   -1    0    0  502    0  0.00000000000E+00  0.00000000000E+00  0.42441409528E+03  0.42441409528E+03  0.00000000000E+00 0. -1.
          1   -1    0    0  501    0 -0.00000000000E+00 -0.00000000000E+00 -0.34286039845E+03  0.34286039845E+03  0.00000000000E+00 0. -1.
         25    2    1    2    0    0  0.45827372163E+02  0.16618987407E+03 -0.12172399285E+01  0.21295845512E+03  0.12502239660E+03 0.  0.
          2    1    1    2  501    0 -0.56161690464E+02 -0.80256004912E+02 -0.21925039510E+03  0.24013724732E+03  0.00000000000E+00 0. -1.
          1    1    1    2  502    0  0.10334318301E+02 -0.85933869160E+02  0.30202133185E+03  0.31417879129E+03  0.00000000000E+00 0. -1.
         22    1    3    3    0    0  0.78893844072E+02  0.12495694677E+03 -0.32817081595E+02  0.15137845958E+03  0.00000000000E+00 0.  1.
         22    1    3    3    0    0 -0.33066471909E+02  0.41232927299E+02  0.31599841667E+02  0.61579995546E+02  0.00000000000E+00 0.  1.
</event>
<event>
 7    1  0.1257385E-005  0.7573094E+02  0.7818608E-02  0.1369751E+00
          2   -1    0    0  502    0  0.00000000000E+00  0.00000000000E+00  0.18376441840E+04  0.18376441840E+04  0.00000000000E+00 0. -1.
          1   -1    0    0  501    0 -0.00000000000E+00 -0.00000000000E+00 -0.86808799713E+03  0.86808799713E+03  0.00000000000E+00 0. -1.
         25    2    1    2    0    0 -0.12425602790E+03 -0.18131751058E+02 -0.37517742915E+02  0.18111234998E+03  0.12500312563E+03 0.  0.
          2    1    1    2  501    0  0.57331557576E+02 -0.16630480723E+02 -0.75679189335E+03  0.75914257569E+03  0.00000000000E+00 0. -1.
          1    1    1    2  502    0  0.66924470321E+02  0.34762231782E+02  0.17638658231E+04  0.17654772555E+04  0.00000000000E+00 0. -1.
         22    1    3    3    0    0 -0.10519743221E+03 -0.63237237385E+02 -0.60178317280E+01  0.12288882062E+03  0.00000000000E+00 0. -1.
         22    1    3    3    0    0 -0.19058595690E+02  0.45105486327E+02 -0.31499911187E+02  0.58223529361E+02  0.00000000000E+00 0. -1.
</event>
<event>
 7    1  0.6485470E-006  0.7763371E+02  0.7818608E-02  0.1384062E+00
          2   -1    0    0  502    0  0.00000000000E+00  0.00000000000E+00  0.19535052824E+03  0.19535052824E+03  0.00000000000E+00 0. -1.
          1   -1    0    0  501    0 -0.00000000000E+00 -0.00000000000E+00 -0.47345573787E+03  0.47345573787E+03  0.00000000000E+00 0. -1.
         25    2    1    2    0    0 -0.48174146217E+02  0.58035995881E+02 -0.36149570636E+01  0.14603517046E+03  0.12499711163E+03 0.  0.
          2    1    1    2  501    0  0.66419267925E+00 -0.78649021219E+02 -0.38911788799E+03  0.39698720438E+03  0.00000000000E+00 0. -1.
          1    1    1    2  502    0  0.47509953538E+02  0.20613025338E+02  0.11462763542E+03  0.12578389126E+03  0.00000000000E+00 0. -1.
         22    1    3    3    0    0 -0.90002358842E+02  0.27770386634E+02 -0.57196702920E+01  0.94362776555E+02  0.00000000000E+00 0. -1.
         22    1    3    3    0    0  0.41828212625E+02  0.30265609247E+02  0.21047132284E+01  0.51672393909E+02  0.00000000000E+00 0. -1.
</event>
<event>
 7    1  0.6485470E-006  0.8807648E+02  0.7818608E-02  0.1320651E+00
          2   -1    0    0  502    0  0.00000000000E+00  0.00000000000E+00  0.54035702314E+03  0.54035702314E+03  0.00000000000E+00 0. -1.
          1   -1    0    0  501    0 -0.00000000000E+00 -0.00000000000E+00 -0.12875330946E+04  0.12875330946E+04  0.00000000000E+00 0. -1.
         25    2    1    2    0    0 -0.22059047457E+02  0.60939720349E+01  0.85726064930E+02  0.15329070934E+03  0.12500138116E+03 0.  0.
          2    1    1    2  501    0 -0.77522566978E+02 -0.10887668680E+02 -0.12466012807E+04  0.12490568613E+04  0.00000000000E+00 0. -1.
          1    1    1    2  502    0  0.99581614435E+02  0.47936966447E+01  0.41369914427E+03  0.42554254715E+03  0.00000000000E+00 0. -1.
         22    1    3    3    0    0  0.13276380648E+02  0.57553799155E+01  0.10966039508E+03  0.11061098015E+03  0.00000000000E+00 0. -1.
         22    1    3    3    0    0 -0.35335428104E+02  0.33859211939E+00 -0.23934330148E+02  0.42679729188E+02  0.00000000000E+00 0. -1.
</event>
<event>
 7    1  0.6485470E-006  0.9057486E+02  0.7818608E-02  0.1322556E+00
          2   -1    0    0  502    0  0.00000000000E+00  0.00000000000E+00  0.96983774899E+03  0.96983774899E+03  0.00000000000E+00 0. -1.
          1   -1    0    0  501    0 -0.00000000000E+00 -0.00000000000E+00 -0.18462070542E+04  0.18462070542E+04  0.00000000000E+00 0. -1.
         25    2    1    2    0    0  0.27890150242E+02  0.52617209692E+02 -0.55982293238E+02  0.14935223296E+03  0.12500256436E+03 0.  0.
          2    1    1    2  501    0 -0.68737307845E+02  0.29607488998E+02 -0.17404508063E+04  0.17420592499E+04  0.00000000000E+00 0. -1.
          1    1    1    2  502    0  0.40847157603E+02 -0.82224698690E+02  0.92006379436E+03  0.92463332033E+03  0.00000000000E+00 0. -1.
         22    1    3    3    0    0  0.16004963505E+02  0.81050768263E+02  0.31449501397E+01  0.82675731652E+02  0.00000000000E+00 0. -1.
         22    1    3    3    0    0  0.11885186738E+02 -0.28433558571E+02 -0.59127243378E+02  0.66676501305E+02  0.00000000000E+00 0. -1.
</event>
<event>
 7    1  0.6485470E-006  0.1676569E+03  0.7818608E-02  0.1241657E+00
          2   -1    0    0  502    0  0.00000000000E+00  0.00000000000E+00  0.10782739635E+04  0.10782739635E+04  0.00000000000E+00 0. -1.
          1   -1    0    0  501    0 -0.00000000000E+00 -0.00000000000E+00 -0.83273507871E+03  0.83273507871E+03  0.00000000000E+00 0. -1.
         25    2    1    2    0    0  0.14564335771E+03  0.71636724506E+02  0.51194304180E+03  0.55141153412E+03  0.12500077589E+03 0.  0.
          2    1    1    2  501    0  0.35112741000E+02 -0.79763545007E+02 -0.79558188433E+03  0.80034096632E+03  0.00000000000E+00 0. -1.
          1    1    1    2  502    0 -0.18075609871E+03  0.81268205009E+01  0.52917772732E+03  0.55925654178E+03  0.00000000000E+00 0. -1.
         22    1    3    3    0    0  0.96912771117E+02  0.16684441887E+02  0.13294683200E+03  0.16536419185E+03  0.00000000000E+00 0.  1.
         22    1    3    3    0    0  0.48730586591E+02  0.54952282620E+02  0.37899620980E+03  0.38604734227E+03  0.00000000000E+00 0.  1.
</event>
<event>
 7    1  0.6485470E-006  0.1318030E+03  0.7818608E-02  0.1264925E+00
          2   -1    0    0  502    0  0.00000000000E+00  0.00000000000E+00  0.10951390816E+04  0.10951390816E+04  0.00000000000E+00 0. -1.
          1   -1    0    0  501    0 -0.00000000000E+00 -0.00000000000E+00 -0.96788364314E+03  0.96788364314E+03  0.00000000000E+00 0. -1.
         25    2    1    2    0    0  0.16525494518E+03 -0.13872633591E+03  0.69161094233E+02  0.25877102006E+03  0.12499996274E+03 0.  0.
          2    1    1    2  501    0 -0.65077874456E+02  0.59197725365E+02 -0.86644838845E+03  0.87090315781E+03  0.00000000000E+00 0. -1.
          1    1    1    2  502    0 -0.10017707072E+03  0.79528610547E+02  0.92454273270E+03  0.93334854689E+03  0.00000000000E+00 0. -1.
         22    1    3    3    0    0  0.99865103275E+02 -0.10168141560E+03 -0.18034310130E+02  0.14365718037E+03  0.00000000000E+00 0.  1.
         22    1    3    3    0    0  0.65389841904E+02 -0.37044920308E+02  0.87195404364E+02  0.11511383968E+03  0.00000000000E+00 0.  1.
</event>
<event>
 7    1  0.6485470E-006  0.4369418E+02  0.7818608E-02  0.1550389E+00
          2   -1    0    0  502    0  0.00000000000E+00  0.00000000000E+00  0.26291950740E+04  0.26291950740E+04  0.00000000000E+00 0. -1.
          1   -1    0    0  501    0 -0.00000000000E+00 -0.00000000000E+00 -0.97898231131E+02  0.97898231131E+02  0.00000000000E+00 0. -1.
         25    2    1    2    0    0  0.14713054284E+02 -0.46550177746E+02  0.63536694693E+03  0.64938386755E+03  0.12499942868E+03 0.  0.
          2    1    1    2  501    0  0.19717654759E+02  0.19476949675E+02 -0.88529658622E+02  0.92766577675E+02  0.00000000000E+00 0. -1.
          1    1    1    2  502    0 -0.34430709042E+02  0.27073228071E+02  0.19844595546E+04  0.19849428600E+04  0.00000000000E+00 0. -1.
         22    1    3    3    0    0  0.20483231100E+02  0.20416119296E+02  0.35619124671E+02  0.45881398472E+02  0.00000000000E+00 0. -1.
         22    1    3    3    0    0 -0.57701768167E+01 -0.66966297042E+02  0.59974782226E+03  0.60350246908E+03  0.00000000000E+00 0. -1.
</event>
<event>
 7    1  0.6485470E-006  0.9198148E+02  0.7818608E-02  0.1316262E+00
          2   -1    0    0  502    0  0.00000000000E+00  0.00000000000E+00  0.51723813689E+03  0.51723813689E+03  0.00000000000E+00 0. -1.
          1   -1    0    0  501    0 -0.00000000000E+00 -0.00000000000E+00 -0.60085788258E+03  0.60085788258E+03  0.00000000000E+00 0. -1.
         25    2    1    2    0    0  0.51606860768E+02  0.10550798238E+03 -0.29970120507E+02  0.17412038921E+03  0.12499799754E+03 0.  0.
          2    1    1    2  501    0  0.24542796582E+02 -0.88781689396E+02 -0.49108385874E+03  0.49964776948E+03  0.00000000000E+00 0. -1.
          1    1    1    2  502    0 -0.76149657350E+02 -0.16726292987E+02  0.43743423354E+03  0.44432786078E+03  0.00000000000E+00 0. -1.
         22    1    3    3    0    0 -0.24997510582E+01 -0.17769999055E+02  0.23236205612E+02  0.29358863620E+02  0.00000000000E+00 0. -1.
         22    1    3    3    0    0  0.54106611826E+02  0.12327798144E+03 -0.53206326119E+02  0.14476152559E+03  0.00000000000E+00 0. -1.
</event>
<event>
 7    1  0.6485470E-006  0.1106832E+03  0.7818608E-02  0.1301035E+00
          2   -1    0    0  502    0  0.00000000000E+00  0.00000000000E+00  0.19769276627E+04  0.19769276627E+04  0.00000000000E+00 0. -1.
          1   -1    0    0  501    0 -0.00000000000E+00 -0.00000000000E+00 -0.26947730585E+03  0.26947730585E+03  0.00000000000E+00 0. -1.
         25    2    1    2    0    0 -0.16260791512E+03  0.42255134933E+02  0.53629880257E+03  0.57573205448E+03  0.12499664967E+03 0.  0.
          2    1    1    2  501    0  0.90738469334E+02 -0.61546336709E+02 -0.23669759532E+03  0.26085853065E+03  0.00000000000E+00 0. -1.
          1    1    1    2  502    0  0.71869445783E+02  0.19291201776E+02  0.14078491495E+04  0.14098143834E+04  0.00000000000E+00 0. -1.
         22    1    3    3    0    0 -0.16843569544E+03  0.57324014482E+01  0.47643334756E+03  0.50536341240E+03  0.00000000000E+00 0. -1.
         22    1    3    3    0    0  0.58277803211E+01  0.36522733485E+02  0.59865455010E+02  0.70368642081E+02  0.00000000000E+00 0. -1.
</event>
<event>
 7    1  0.6485470E-006  0.1112088E+03  0.7818608E-02  0.1335337E+00
          2   -1    0    0  502    0  0.00000000000E+00  0.00000000000E+00  0.19271509085E+04  0.19271509085E+04  0.00000000000E+00 0. -1.
          1   -1    0    0  501    0 -0.00000000000E+00 -0.00000000000E+00 -0.26743408703E+03  0.26743408703E+03  0.00000000000E+00 0. -1.
         25    2    1    2    0    0 -0.60272466321E+02  0.15014624426E+02  0.18643917408E+03  0.23288811174E+03  0.12497638903E+03 0.  0.
          2    1    1    2  501    0 -0.54405502542E+02 -0.25225234979E+01 -0.23920818262E+03  0.24533013770E+03  0.00000000000E+00 0. -1.
          1    1    1    2  502    0  0.11467796886E+03 -0.12492100928E+02  0.17124858300E+04  0.17163667460E+04  0.00000000000E+00 0. -1.
         22    1    3    3    0    0  0.37147914335E+02 -0.51807784911E+01  0.32678488083E+02  0.49746272108E+02  0.00000000000E+00 0. -1.
         22    1    3    3    0    0 -0.97420380657E+02  0.20195402917E+02  0.15376068600E+03  0.18314183964E+03  0.00000000000E+00 0. -1.
</event>
<event>
 7    1  0.6485470E-006  0.5223081E+02  0.7818608E-02  0.1545705E+00
          2   -1    0    0  502    0  0.00000000000E+00  0.00000000000E+00  0.56504903800E+02  0.56504903800E+02  0.00000000000E+00 0. -1.
          1   -1    0    0  501    0 -0.00000000000E+00 -0.00000000000E+00 -0.27980235293E+03  0.27980235293E+03  0.00000000000E+00 0. -1.
         25    2    1    2    0    0 -0.30063454085E+02 -0.49735987727E+01 -0.20355228623E+03  0.24080579830E+03  0.12500140523E+03 0.  0.
          2    1    1    2  501    0 -0.23510981886E+02 -0.42695206612E+01 -0.31837135677E+02  0.39807013000E+02  0.00000000000E+00 0. -1.
          1    1    1    2  502    0  0.53574435971E+02  0.92431194338E+01  0.12091972772E+02  0.55694445432E+02  0.00000000000E+00 0. -1.
         22    1    3    3    0    0  0.26419997664E+01 -0.21080874215E+02 -0.20324031266E+03  0.20434776268E+03  0.00000000000E+00 0. -1.
         22    1    3    3    0    0 -0.32705453851E+02  0.16107275442E+02 -0.31197356392E+00  0.36458035620E+02  0.00000000000E+00 0. -1.
</event>
<event>
 7    1  0.6485470E-006  0.2281114E+03  0.7818608E-02  0.1148904E+00
          2   -1    0    0  502    0  0.00000000000E+00  0.00000000000E+00  0.44256953636E+03  0.44256953636E+03  0.00000000000E+00 0. -1.
          1   -1    0    0  501    0 -0.00000000000E+00 -0.00000000000E+00 -0.14591933446E+04  0.14591933446E+04  0.00000000000E+00 0. -1.
         25    2    1    2    0    0  0.21154712399E+02  0.27010343002E+02 -0.14440262241E+03  0.19404668730E+03  0.12499967603E+03 0.  0.
          2    1    1    2  501    0 -0.46342209990E+01 -0.25452272553E+03 -0.12449580353E+04  0.12707178300E+04  0.00000000000E+00 0. -1.
          1    1    1    2  502    0 -0.16520491400E+02  0.22751238252E+03  0.37273684951E+03  0.43699836363E+03  0.00000000000E+00 0. -1.
         22    1    3    3    0    0 -0.39933790357E+02  0.30673648346E+02 -0.17763804471E+02  0.53396002326E+02  0.00000000000E+00 0.  1.
         22    1    3    3    0    0  0.61088502756E+02 -0.36633053436E+01 -0.12663881794E+03  0.14065068498E+03  0.00000000000E+00 0.  1.
</event>
<event>
 7    1  0.6485470E-006  0.6086319E+02  0.7818608E-02  0.1416792E+00
          2   -1    0    0  502    0  0.00000000000E+00  0.00000000000E+00  0.31047758529E+04  0.31047758529E+04  0.00000000000E+00 0. -1.
          1   -1    0    0  501    0 -0.00000000000E+00 -0.00000000000E+00 -0.21982741843E+03  0.21982741843E+03  0.00000000000E+00 0. -1.
         25    2    1    2    0    0  0.25381578319E+02  0.55836436285E+02  0.20423110128E+03  0.24718248668E+03  0.12500762719E+03 0.  0.
          2    1    1    2  501    0 -0.58791764383E+02 -0.17323853467E+02 -0.19338547468E+03  0.20286579129E+03  0.00000000000E+00 0. -1.
          1    1    1    2  502    0  0.33410186064E+02 -0.38512582819E+02  0.28741028078E+04  0.28745549933E+04  0.00000000000E+00 0. -1.
         22    1    3    3    0    0  0.13290200178E+02 -0.44730365356E+01 -0.14378498480E+02  0.20084289760E+02  0.00000000000E+00 0. -1.
         22    1    3    3    0    0  0.12091378141E+02  0.60309472821E+02  0.21860959976E+03  0.22709819692E+03  0.00000000000E+00 0. -1.
</event>
<event>
 7    1  0.6485470E-006  0.4514015E+02  0.7818608E-02  0.1513997E+00
          2   -1    0    0  502    0  0.00000000000E+00  0.00000000000E+00  0.28943417413E+04  0.28943417413E+04  0.00000000000E+00 0. -1.
          1   -1    0    0  501    0 -0.00000000000E+00 -0.00000000000E+00 -0.61430460188E+02  0.61430460188E+02  0.00000000000E+00 0. -1.
         25    2    1    2    0    0  0.84231895665E+01 -0.75686804407E+02  0.30234675885E+03  0.33591245490E+03  0.12499668909E+03 0.  0.
          2    1    1    2  501    0  0.65276748642E+01  0.33453118946E+02 -0.37918721551E+02  0.50985793614E+02  0.00000000000E+00 0. -1.
          1    1    1    2  502    0 -0.14950864431E+02  0.42233685461E+02  0.25684832438E+04  0.25688739530E+04  0.00000000000E+00 0. -1.
         22    1    3    3    0    0 -0.46538385727E+02 -0.70861789052E+02  0.22858096596E+03  0.24379596488E+03  0.00000000000E+00 0.  1.
         22    1    3    3    0    0  0.54961575294E+02 -0.48250153550E+01  0.73765792890E+02  0.92116490015E+02  0.00000000000E+00 0.  1.
</event>
<event>
 7    1  0.6485470E-006  0.2438319E+03  0.7818608E-02  0.1261032E+00
          2   -1    0    0  502    0  0.00000000000E+00  0.00000000000E+00  0.49924780289E+02  0.49924780289E+02  0.00000000000E+00 0. -1.
          1   -1    0    0  501    0 -0.00000000000E+00 -0.00000000000E+00 -0.27366880839E+04  0.27366880839E+04  0.00000000000E+00 0. -1.
         25    2    1    2    0    0  0.13330912068E+03 -0.15766644698E+03 -0.13778591109E+04  0.13988391380E+04  0.12500069814E+03 0.  0.
          2    1    1    2  501    0  0.24247495320E+02 -0.43039490228E+02 -0.92793785218E+03  0.92925184760E+03  0.00000000000E+00 0. -1.
          1    1    1    2  502    0 -0.15755661600E+03  0.20070593720E+03 -0.38096634053E+03  0.45852187853E+03  0.00000000000E+00 0. -1.
         22    1    3    3    0    0  0.14103738123E+03 -0.15710180728E+03 -0.13741043509E+04  0.13902285021E+04  0.00000000000E+00 0.  1.
         22    1    3    3    0    0 -0.77282605571E+01 -0.56463969559E+00 -0.37547599303E+01  0.86106359439E+01  0.00000000000E+00 0.  1.
</event>
<event>
 7    1  0.6485470E-006  0.3198343E+02  0.7818608E-02  0.1589610E+00
          2   -1    0    0  502    0  0.00000000000E+00  0.00000000000E+00  0.30245186516E+03  0.30245186516E+03  0.00000000000E+00 0. -1.
          1   -1    0    0  501    0 -0.00000000000E+00 -0.00000000000E+00 -0.90570562637E+03  0.90570562637E+03  0.00000000000E+00 0. -1.
         25    2    1    2    0    0 -0.55707297693E+02  0.73584667754E+01 -0.65738629603E+02  0.15197818862E+03  0.12497340655E+03 0.  0.
          2    1    1    2  501    0  0.27424324250E+02 -0.16171549301E+02 -0.79568181524E+03  0.79631850643E+03  0.00000000000E+00 0. -1.
          1    1    1    2  502    0  0.28282973443E+02  0.88130825257E+01  0.25816668364E+03  0.25986079649E+03  0.00000000000E+00 0. -1.
         22    1    3    3    0    0  0.30865904704E+02 -0.11764232511E+02 -0.52938985105E+02  0.62399017490E+02  0.00000000000E+00 0.  1.
         22    1    3    3    0    0 -0.86573202397E+02  0.19122699286E+02 -0.12799644498E+02  0.89579171131E+02  0.00000000000E+00 0.  1.
</event>
<event>
 7    1  0.6485470E-006  0.2546556E+02  0.7818608E-02  0.1667689E+00
          2   -1    0    0  502    0  0.00000000000E+00  0.00000000000E+00  0.94867940922E+03  0.94867940922E+03  0.00000000000E+00 0. -1.
          1   -1    0    0  501    0 -0.00000000000E+00 -0.00000000000E+00 -0.57415813317E+02  0.57415813317E+02  0.00000000000E+00 0. -1.
         25    2    1    2    0    0 -0.31235785316E+02  0.22231227612E+02  0.38507180720E+03  0.40665704804E+03  0.12497902324E+03 0.  0.
          2    1    1    2  501    0  0.59261349242E+01 -0.22894760229E+02 -0.43313860682E+02  0.49349565836E+02  0.00000000000E+00 0. -1.
          1    1    1    2  502    0  0.25309650391E+02  0.66353261712E+00  0.54950564938E+03  0.55008860866E+03  0.00000000000E+00 0. -1.
         22    1    3    3    0    0  0.29485364717E+02 -0.23617648997E+02  0.47889008054E+02  0.60996206186E+02  0.00000000000E+00 0. -1.
         22    1    3    3    0    0 -0.60721150033E+02  0.45848876609E+02  0.33718279915E+03  0.34566084185E+03  0.00000000000E+00 0. -1.
</event>
<event>
 7    1  0.6485470E-006  0.6533092E+02  0.7818608E-02  0.1407039E+00
          2   -1    0    0  502    0  0.00000000000E+00  0.00000000000E+00  0.67538461113E+02  0.67538461113E+02  0.00000000000E+00 0. -1.
          1   -1    0    0  501    0 -0.00000000000E+00 -0.00000000000E+00 -0.35477967301E+04  0.35477967301E+04  0.00000000000E+00 0. -1.
         25    2    1    2    0    0  0.65592533354E+02  0.66942111598E+01 -0.29446374886E+03  0.32662510175E+03  0.12501145870E+03 0.  0.
          2    1    1    2  501    0 -0.40792735140E+02 -0.51536525850E+02 -0.32240764048E+04  0.32247463039E+04  0.00000000000E+00 0. -1.
          1    1    1    2  502    0 -0.24799798213E+02  0.44842314691E+02  0.38281884608E+02  0.63963785593E+02  0.00000000000E+00 0. -1.
         22    1    3    3    0    0 -0.24185788436E+01  0.41226401974E+02 -0.29108959011E+02  0.50525213884E+02  0.00000000000E+00 0.  1.
         22    1    3    3    0    0  0.68011112197E+02 -0.34532190814E+02 -0.26535478985E+03  0.27609988787E+03  0.00000000000E+00 0.  1.
</event>
<event>
 7    1  0.6485470E-006  0.4355265E+02  0.7818608E-02  0.1505232E+00
          2   -1    0    0  502    0  0.00000000000E+00  0.00000000000E+00  0.83992076672E+03  0.83992076672E+03  0.00000000000E+00 0. -1.
          1   -1    0    0  501    0 -0.00000000000E+00 -0.00000000000E+00 -0.29707237977E+02  0.29707237977E+02  0.00000000000E+00 0. -1.
         25    2    1    2    0    0  0.21583693952E+02 -0.36822960334E+01  0.41743499939E+03  0.43629433448E+03  0.12498540887E+03 0.  0.
          2    1    1    2  501    0  0.15552013435E+02  0.34112179212E+02 -0.14245161175E+00  0.37490347890E+02  0.00000000000E+00 0. -1.
          1    1    1    2  502    0 -0.37135707387E+02 -0.30429883179E+02  0.39292098096E+03  0.39584332232E+03  0.00000000000E+00 0. -1.
         22    1    3    3    0    0  0.25448585757E+02  0.57548089517E+02  0.16721254074E+03  0.17866014359E+03  0.00000000000E+00 0. -1.
         22    1    3    3    0    0 -0.38648918055E+01 -0.61230385550E+02  0.25022245865E+03  0.25763419089E+03  0.00000000000E+00 0. -1.
</event>
<event>
 7    1  0.6485470E-006  0.5988408E+02  0.7818608E-02  0.1477969E+00
          2   -1    0    0  502    0  0.00000000000E+00  0.00000000000E+00  0.17742309955E+04  0.17742309955E+04  0.00000000000E+00 0. -1.
          1   -1    0    0  501    0 -0.00000000000E+00 -0.00000000000E+00 -0.13651059705E+03  0.13651059705E+03  0.00000000000E+00 0. -1.
         25    2    1    2    0    0  0.30034421681E+02 -0.36147679446E+02  0.25848344206E+03  0.29094320026E+03  0.12500213895E+03 0.  0.
          2    1    1    2  501    0 -0.22548651644E+02 -0.24033533163E+02 -0.11739770986E+03  0.12193553497E+03  0.00000000000E+00 0. -1.
          1    1    1    2  502    0 -0.74857700376E+01  0.60181212609E+02  0.14966346662E+04  0.14978628573E+04  0.00000000000E+00 0. -1.
         22    1    3    3    0    0  0.20781912511E+02  0.46170748680E+02  0.93333055102E+02  0.10618232007E+03  0.00000000000E+00 0.  1.
         22    1    3    3    0    0  0.92525091701E+01 -0.82318428126E+02  0.16515038696E+03  0.18476088019E+03  0.00000000000E+00 0.  1.
</event>
<event>
 7    1  0.6485470E-006  0.3533949E+02  0.7818608E-02  0.1566459E+00
          2   -1    0    0  502    0  0.00000000000E+00  0.00000000000E+00  0.21437046503E+04  0.21437046503E+04  0.00000000000E+00 0. -1.
          1   -1    0    0  501    0 -0.00000000000E+00 -0.00000000000E+00 -0.77687012254E+03  0.77687012254E+03  0.00000000000E+00 0. -1.
         25    2    1    2    0    0  0.30011788778E+01 -0.49344769090E+01 -0.54813969852E+03  0.56224225638E+03  0.12500347848E+03 0.  0.
          2    1    1    2  501    0 -0.66070904905E+01 -0.30228706815E+02 -0.22045241993E+03  0.22261333701E+03  0.00000000000E+00 0. -1.
          1    1    1    2  502    0  0.36059116127E+01  0.35163183724E+02  0.21354266462E+04  0.21357191794E+04  0.00000000000E+00 0. -1.
         22    1    3    3    0    0  0.42966523189E+02  0.10446446956E+02 -0.47815737835E+03  0.48019759354E+03  0.00000000000E+00 0. -1.
         22    1    3    3    0    0 -0.39965344311E+02 -0.15380923865E+02 -0.69982320166E+02  0.82044662841E+02  0.00000000000E+00 0. -1.
</event>
<event>
 7    1  0.6485470E-006  0.4304241E+02  0.7818608E-02  0.1499036E+00
          2   -1    0    0  502    0  0.00000000000E+00  0.00000000000E+00  0.29683097625E+04  0.29683097625E+04  0.00000000000E+00 0. -1.
          1   -1    0    0  501    0 -0.00000000000E+00 -0.00000000000E+00 -0.42274182710E+03  0.42274182710E+03  0.00000000000E+00 0. -1.
         25    2    1    2    0    0 -0.15072508187E+02 -0.80072786008E+02 -0.57978383257E+02  0.16008095597E+03  0.12500235188E+03 0.  0.
          2    1    1    2  501    0  0.96055034461E+01  0.40872865404E+02 -0.31217240876E+03  0.31498328466E+03  0.00000000000E+00 0. -1.
          1    1    1    2  502    0  0.54670047405E+01  0.39199920604E+02  0.29157187274E+04  0.29159873490E+04  0.00000000000E+00 0. -1.
         22    1    3    3    0    0 -0.65099999480E+02 -0.74081573040E+02 -0.42333575913E+02  0.10732297539E+03  0.00000000000E+00 0.  1.
         22    1    3    3    0    0  0.50027491293E+02 -0.59912129676E+01 -0.15644807344E+02  0.52757980579E+02  0.00000000000E+00 0.  1.
</event>
<event>
 7    1  0.6485470E-006  0.7710008E+02  0.7818608E-02  0.1480102E+00
          2   -1    0    0  502    0  0.00000000000E+00  0.00000000000E+00  0.98711449807E+02  0.98711449807E+02  0.00000000000E+00 0. -1.
          1   -1    0    0  501    0 -0.00000000000E+00 -0.00000000000E+00 -0.80885220551E+03  0.80885220551E+03  0.00000000000E+00 0. -1.
         25    2    1    2    0    0  0.61501435952E+02 -0.52800560353E+02 -0.94750962772E+02  0.17655571312E+03  0.12499539628E+03 0.  0.
          2    1    1    2  501    0 -0.71211338288E+02  0.29531816623E+02 -0.66812356803E+03  0.67255652926E+03  0.00000000000E+00 0. -1.
          1    1    1    2  502    0  0.97099023362E+01  0.23268743730E+02  0.52733775100E+02  0.58451412938E+02  0.00000000000E+00 0. -1.
         22    1    3    3    0    0 -0.75315095998E+01  0.26386958335E+02 -0.59876562204E+02  0.65864997597E+02  0.00000000000E+00 0. -1.
         22    1    3    3    0    0  0.69032945552E+02 -0.79187518688E+02 -0.34874400568E+02  0.11069071552E+03  0.00000000000E+00 0. -1.
</event>
<event>
 7    1  0.6485470E-006  0.3170242E+03  0.7818608E-02  0.1287796E+00
          2   -1    0    0  502    0  0.00000000000E+00  0.00000000000E+00  0.75184024337E+03  0.75184024337E+03  0.00000000000E+00 0. -1.
          1   -1    0    0  501    0 -0.00000000000E+00 -0.00000000000E+00 -0.17773318253E+04  0.17773318253E+04  0.00000000000E+00 0. -1.
         25    2    1    2    0    0 -0.89310918828E+02 -0.32092429972E+03  0.33324464160E+03  0.48749414999E+03  0.12501883357E+03 0.  0.
          2    1    1    2  501    0  0.10733809709E+03  0.29771985746E+03 -0.16848132962E+04  0.17142795640E+04  0.00000000000E+00 0. -1.
          1    1    1    2  502    0 -0.18027178260E+02  0.23204442258E+02  0.32607707268E+03  0.32739835464E+03  0.00000000000E+00 0. -1.
         22    1    3    3    0    0 -0.54767198304E+02 -0.61350892018E+02  0.13879873454E+03  0.16133340222E+03  0.00000000000E+00 0.  1.
         22    1    3    3    0    0 -0.34543720524E+02 -0.25957340770E+03  0.19444590705E+03  0.32616074776E+03  0.00000000000E+00 0.  1.
</event>
<event>
 7    1  0.6485470E-006  0.8624651E+02  0.7818608E-02  0.1346534E+00
          2   -1    0    0  502    0  0.00000000000E+00  0.00000000000E+00  0.11397792573E+04  0.11397792573E+04  0.00000000000E+00 0. -1.
          1   -1    0    0  501    0 -0.00000000000E+00 -0.00000000000E+00 -0.93970630198E+03  0.93970630198E+03  0.00000000000E+00 0. -1.
         25    2    1    2    0    0 -0.44786835409E+02  0.83599033405E+02  0.77352319389E+03  0.78927666175E+03  0.12499943312E+03 0.  0.
          2    1    1    2  501    0  0.80579220781E+02 -0.30852090051E+02 -0.92697560535E+03  0.93098261810E+03  0.00000000000E+00 0. -1.
          1    1    1    2  502    0 -0.35792385372E+02 -0.52746943354E+02  0.35352536674E+03  0.35922627940E+03  0.00000000000E+00 0. -1.
         22    1    3    3    0    0  0.42069167914E+02  0.32622629954E+02  0.34466483804E+03  0.34875191964E+03  0.00000000000E+00 0.  1.
         22    1    3    3    0    0 -0.86856003323E+02  0.50976403451E+02  0.42885835586E+03  0.44052474211E+03  0.00000000000E+00 0.  1.
</event>
<event>
 7    1  0.6485470E-006  0.1201474E+03  0.7818608E-02  0.1295039E+00
          2   -1    0    0  502    0  0.00000000000E+00  0.00000000000E+00  0.52204548769E+03  0.52204548769E+03  0.00000000000E+00 0. -1.
          1   -1    0    0  501    0 -0.00000000000E+00 -0.00000000000E+00 -0.10117075319E+03  0.10117075319E+03  0.00000000000E+00 0. -1.
         25    2    1    2    0    0 -0.70200495499E+02 -0.26505894214E+02  0.16099609728E+03  0.21720159354E+03  0.12500446753E+03 0.  0.
          2    1    1    2  501    0  0.13829573294E+03  0.17362330558E+01  0.21813831117E+01  0.13832383268E+03  0.00000000000E+00 0. -1.
          1    1    1    2  502    0 -0.68095237441E+02  0.24769661158E+02  0.25769725411E+03  0.26769081466E+03  0.00000000000E+00 0. -1.
         22    1    3    3    0    0 -0.78432193415E+01  0.47503061926E+02  0.42615103795E+02  0.64296998790E+02  0.00000000000E+00 0.  1.
         22    1    3    3    0    0 -0.62357276157E+02 -0.74008956140E+02  0.11838099348E+03  0.15290459475E+03  0.00000000000E+00 0.  1.
</event>
<event>
 7    1  0.6485470E-006  0.3329175E+03  0.7818608E-02  0.1153818E+00
          2   -1    0    0  502    0  0.00000000000E+00  0.00000000000E+00  0.62410136125E+03  0.62410136125E+03  0.00000000000E+00 0. -1.
          1   -1    0    0  501    0 -0.00000000000E+00 -0.00000000000E+00 -0.11021828290E+04  0.11021828290E+04  0.00000000000E+00 0. -1.
         25    2    1    2    0    0 -0.38590801246E+03 -0.10693893349E+03 -0.57436463427E+03  0.71125282457E+03  0.12499967111E+03 0.  0.
          2    1    1    2  501    0  0.28190374222E+03  0.59051466890E+02 -0.40715858128E+03  0.49873330141E+03  0.00000000000E+00 0. -1.
          1    1    1    2  502    0  0.10400427024E+03  0.47887466602E+02  0.50344174783E+03  0.51629806424E+03  0.00000000000E+00 0. -1.
         22    1    3    3    0    0 -0.17618396365E+02  0.21627770367E+02 -0.24850060667E+02  0.37358986291E+02  0.00000000000E+00 0.  1.
         22    1    3    3    0    0 -0.36828961609E+03 -0.12856670386E+03 -0.54951457361E+03  0.67389383828E+03  0.00000000000E+00 0.  1.
</event>
<event>
 7    1  0.6485470E-006  0.5769462E+02  0.7818608E-02  0.1415578E+00
          2   -1    0    0  502    0  0.00000000000E+00  0.00000000000E+00  0.28844493428E+04  0.28844493428E+04  0.00000000000E+00 0. -1.
          1   -1    0    0  501    0 -0.00000000000E+00 -0.00000000000E+00 -0.18451596618E+03  0.18451596618E+03  0.00000000000E+00 0. -1.
         25    2    1    2    0    0 -0.99179819362E+00 -0.10763907712E+02 -0.89228422023E+01  0.12576429382E+03  0.12498077898E+03 0.  0.
          2    1    1    2  501    0  0.15649527283E+02  0.63040179302E+02 -0.10788902823E+03  0.12593257848E+03  0.00000000000E+00 0. -1.
          1    1    1    2  502    0 -0.14657729089E+02 -0.52276271590E+02  0.28167452470E+04  0.28172684366E+04  0.00000000000E+00 0. -1.
         22    1    3    3    0    0  0.46488325500E+02 -0.15351097129E+02  0.35584930500E+02  0.60523614148E+02  0.00000000000E+00 0. -1.
         22    1    3    3    0    0 -0.47480123693E+02  0.45871894170E+01 -0.44507772702E+02  0.65240679668E+02  0.00000000000E+00 0. -1.
</event>
<event>
 7    1  0.6485470E-006  0.3805165E+02  0.7818608E-02  0.1576931E+00
          2   -1    0    0  502    0  0.00000000000E+00  0.00000000000E+00  0.18775873755E+04  0.18775873755E+04  0.00000000000E+00 0. -1.
          1   -1    0    0  501    0 -0.00000000000E+00 -0.00000000000E+00 -0.47736245570E+03  0.47736245570E+03  0.00000000000E+00 0. -1.
         25    2    1    2    0    0 -0.58557229426E+02  0.15136875440E+02  0.15457440022E+03  0.20778832731E+03  0.12499867858E+03 0.  0.
          2    1    1    2  501    0  0.32125115604E+02 -0.20232025100E+02 -0.44984905289E+03  0.45144825648E+03  0.00000000000E+00 0. -1.
          1    1    1    2  502    0  0.26432113822E+02  0.50951496599E+01  0.16954995725E+04  0.16957132474E+04  0.00000000000E+00 0. -1.
         22    1    3    3    0    0 -0.24282074908E+02  0.67590421565E+02  0.10806647168E+03  0.12975533342E+03  0.00000000000E+00 0. -1.
         22    1    3    3    0    0 -0.34275154519E+02 -0.52453546125E+02  0.46507928540E+02  0.78032993890E+02  0.00000000000E+00 0. -1.
</event>
<event>
 7    1  0.6485470E-006  0.1219706E+03  0.7818608E-02  0.1318463E+00
          2   -1    0    0  502    0  0.00000000000E+00  0.00000000000E+00  0.10723032864E+04  0.10723032864E+04  0.00000000000E+00 0. -1.
          1   -1    0    0  501    0 -0.00000000000E+00 -0.00000000000E+00 -0.27564419101E+03  0.27564419101E+03  0.00000000000E+00 0. -1.
         25    2    1    2    0    0  0.11928131731E+02 -0.11646322726E+03  0.81918064178E+03  0.83689189901E+03  0.12500065252E+03 0.  0.
          2    1    1    2  501    0  0.45638877325E+02  0.11344620027E+03 -0.24897328235E+03  0.27738176365E+03  0.00000000000E+00 0. -1.
          1    1    1    2  502    0 -0.57567009055E+02  0.30170269845E+01  0.22645173596E+03  0.23367381475E+03  0.00000000000E+00 0. -1.
         22    1    3    3    0    0  0.13505798542E+02 -0.68835177563E+02  0.74769566128E+03  0.75097902112E+03  0.00000000000E+00 0. -1.
         22    1    3    3    0    0 -0.15776668118E+01 -0.47628049695E+02  0.71484980499E+02  0.85912877890E+02  0.00000000000E+00 0. -1.
</event>
<event>
 7    1  0.6485470E-006  0.1710837E+03  0.7818608E-02  0.1243024E+00
          2   -1    0    0  502    0  0.00000000000E+00  0.00000000000E+00  0.22691399458E+04  0.22691399458E+04  0.00000000000E+00 0. -1.
          1   -1    0    0  501    0 -0.00000000000E+00 -0.00000000000E+00 -0.13903428667E+04  0.13903428667E+04  0.00000000000E+00 0. -1.
         25    2    1    2    0    0  0.44277983151E+02 -0.12322614161E+03  0.31076382823E+02  0.18366192093E+03  0.12498295028E+03 0.  0.
          2    1    1    2  501    0 -0.68777760859E+02 -0.48627443379E+02 -0.13092096246E+04  0.13119164798E+04  0.00000000000E+00 0. -1.
          1    1    1    2  502    0  0.24499777707E+02  0.17185358499E+03  0.21569303209E+04  0.21639044117E+04  0.00000000000E+00 0. -1.
         22    1    3    3    0    0 -0.12416789639E+02  0.21451596819E+02 -0.17321082924E+01  0.24846486072E+02  0.00000000000E+00 0.  1.
         22    1    3    3    0    0  0.56694772790E+02 -0.14467773843E+03  0.32808491116E+02  0.15881543486E+03  0.00000000000E+00 0.  1.
</event>
<event>
 7    1  0.6485470E-006  0.1863428E+03  0.7818608E-02  0.1309079E+00
          2   -1    0    0  502    0  0.00000000000E+00  0.00000000000E+00  0.19525173900E+04  0.19525173900E+04  0.00000000000E+00 0. -1.
          1   -1    0    0  501    0 -0.00000000000E+00 -0.00000000000E+00 -0.37320455732E+03  0.37320455732E+03  0.00000000000E+00 0. -1.
         25    2    1    2    0    0 -0.84359249759E+02  0.14459423377E+03  0.41626156930E+03  0.46575006727E+03  0.12500182249E+03 0.  0.
          2    1    1    2  501    0 -0.41064865965E+02  0.21513745549E+00 -0.34115377779E+03  0.34361645712E+03  0.00000000000E+00 0. -1.
          1    1    1    2  502    0  0.12542411572E+03 -0.14480937123E+03  0.15042050412E+04  0.15163554230E+04  0.00000000000E+00 0. -1.
         22    1    3    3    0    0 -0.91493641728E+02  0.70094236717E+02  0.33954890405E+03  0.35857739295E+03  0.00000000000E+00 0. -1.
         22    1    3    3    0    0  0.71343919686E+01  0.74499997055E+02  0.76712665257E+02  0.10717267432E+03  0.00000000000E+00 0. -1.
</event>
<event>
 7    1  0.6485470E-006  0.7353673E+02  0.7818608E-02  0.1375709E+00
          2   -1    0    0  502    0  0.00000000000E+00  0.00000000000E+00  0.44240606316E+02  0.44240606316E+02  0.00000000000E+00 0. -1.
          1   -1    0    0  501    0 -0.00000000000E+00 -0.00000000000E+00 -0.19328051912E+04  0.19328051912E+04  0.00000000000E+00 0. -1.
         25    2    1    2    0    0  0.11740817700E+02 -0.13159767243E+02 -0.12032240193E+03  0.17438764224E+03  0.12499017196E+03 0.  0.
          2    1    1    2  501    0 -0.63839208634E+02  0.39832748513E+02 -0.17323847774E+04  0.17340181975E+04  0.00000000000E+00 0. -1.
          1    1    1    2  502    0  0.52098390934E+02 -0.26672981270E+02 -0.35857405590E+02  0.68639957775E+02  0.00000000000E+00 0. -1.
         22    1    3    3    0    0  0.68037565049E+02 -0.15846898204E+02 -0.67613325689E+02  0.97220348957E+02  0.00000000000E+00 0.  1.
         22    1    3    3    0    0 -0.56296747349E+02  0.26871309611E+01 -0.52709076244E+02  0.77167293288E+02  0.00000000000E+00 0.  1.
</event>
<event>
 7    1  0.6485470E-006  0.5186552E+02  0.7818608E-02  0.1495552E+00
          2   -1    0    0  502    0  0.00000000000E+00  0.00000000000E+00  0.12427473442E+04  0.12427473442E+04  0.00000000000E+00 0. -1.
          1   -1    0    0  501    0 -0.00000000000E+00 -0.00000000000E+00 -0.14040956139E+04  0.14040956139E+04  0.00000000000E+00 0. -1.
         25    2    1    2    0    0 -0.22107097867E+02  0.78023384726E+01  0.33044935139E+03  0.35407931222E+03  0.12500314096E+03 0.  0.
          2    1    1    2  501    0 -0.31717547624E+02 -0.11224604909E+02 -0.13912695026E+04  0.13916762639E+04  0.00000000000E+00 0. -1.
          1    1    1    2  502    0  0.53824645491E+02  0.34222664362E+01  0.89947188150E+03  0.90108738199E+03  0.00000000000E+00 0. -1.
         22    1    3    3    0    0  0.69553433400E+01 -0.34675972223E+02  0.27925379973E+03  0.28148443032E+03  0.00000000000E+00 0.  1.
         22    1    3    3    0    0 -0.29062441207E+02  0.42478310696E+02  0.51195551661E+02  0.72594881902E+02  0.00000000000E+00 0.  1.
</event>
<event>
 7    1  0.6485470E-006  0.3886300E+02  0.7818608E-02  0.1560286E+00
          2   -1    0    0  502    0  0.00000000000E+00  0.00000000000E+00  0.26231026827E+04  0.26231026827E+04  0.00000000000E+00 0. -1.
          1   -1    0    0  501    0 -0.00000000000E+00 -0.00000000000E+00 -0.94361206049E+01  0.94361206049E+01  0.00000000000E+00 0. -1.
         25    2    1    2    0    0  0.64638014299E+02 -0.11852426548E+02  0.19867099356E+04  0.19917228293E+04  0.12499963080E+03 0.  0.
          2    1    1    2  501    0 -0.38143754522E+02 -0.55263944899E+00  0.48901389742E+02  0.62020942738E+02  0.00000000000E+00 0. -1.
          1    1    1    2  502    0 -0.26494259777E+02  0.12405065997E+02  0.57805523679E+03  0.57879503129E+03  0.00000000000E+00 0. -1.
         22    1    3    3    0    0 -0.11939206679E+02 -0.51879195160E+02  0.61829200629E+03  0.62057956830E+03  0.00000000000E+00 0. -1.
         22    1    3    3    0    0  0.76577220978E+02  0.40026768612E+02  0.13684179293E+04  0.13711432610E+04  0.00000000000E+00 0. -1.
</event>
<event>
 7    1  0.1000313E-005  0.1093659E+03  0.7818608E-02  0.1344959E+00
          2   -1    0    0  502    0  0.00000000000E+00  0.00000000000E+00  0.15428797142E+04  0.15428797142E+04  0.00000000000E+00 0. -1.
          1   -1    0    0  501    0 -0.00000000000E+00 -0.00000000000E+00 -0.74487918235E+03  0.74487918235E+03  0.00000000000E+00 0. -1.
         25    2    1    2    0    0  0.72400237991E+01  0.79059984625E+02 -0.39548444105E+02  0.15327035491E+03  0.12499929260E+03 0.  0.
          2    1    1    2  501    0  0.48365478843E+02  0.16033035407E+02 -0.64542284404E+03  0.64743101978E+03  0.00000000000E+00 0. -1.
          1    1    1    2  502    0 -0.55605502642E+02 -0.95093020032E+02  0.14829718200E+04  0.14870575218E+04  0.00000000000E+00 0. -1.
         22    1    3    3    0    0 -0.21709837280E+02  0.10533173525E+03 -0.19369332765E+02  0.10927608401E+03  0.00000000000E+00 0. -1.
         22    1    3    3    0    0  0.28949861079E+02 -0.26271750624E+02 -0.20179111339E+02  0.43994270897E+02  0.00000000000E+00 0. -1.
</event>
<event>
 7    1  0.6485470E-006  0.9113650E+02  0.7818608E-02  0.1305820E+00
          2   -1    0    0  502    0  0.00000000000E+00  0.00000000000E+00  0.10045762545E+04  0.10045762545E+04  0.00000000000E+00 0. -1.
          1   -1    0    0  501    0 -0.00000000000E+00 -0.00000000000E+00 -0.59390147697E+03  0.59390147697E+03  0.00000000000E+00 0. -1.
         25    2    1    2    0    0  0.57446924268E+02  0.10852824748E+03 -0.97910015302E+01  0.17549700682E+03  0.12499922433E+03 0.  0.
          2    1    1    2  501    0  0.29593833467E+02 -0.81275099417E+02 -0.49524365973E+03  0.50274021051E+03  0.00000000000E+00 0. -1.
          1    1    1    2  502    0 -0.87040757735E+02 -0.27253148063E+02  0.91570943883E+03  0.92024051418E+03  0.00000000000E+00 0. -1.
         22    1    3    3    0    0  0.80431617544E+01  0.12327406209E+03 -0.38232685276E+01  0.12359532442E+03  0.00000000000E+00 0. -1.
         22    1    3    3    0    0  0.49403762513E+02 -0.14745814610E+02 -0.59677330026E+01  0.51901682402E+02  0.00000000000E+00 0. -1.
</event>
<event>
 7    1  0.6485470E-006  0.9681154E+02  0.7818608E-02  0.1432615E+00
          2   -1    0    0  502    0  0.00000000000E+00  0.00000000000E+00  0.80080771906E+03  0.80080771906E+03  0.00000000000E+00 0. -1.
          1   -1    0    0  501    0 -0.00000000000E+00 -0.00000000000E+00 -0.48545643024E+02  0.48545643024E+02  0.00000000000E+00 0. -1.
         25    2    1    2    0    0 -0.21237808893E+02  0.78355541915E+02  0.16323135469E+03  0.22104210572E+03  0.12499800747E+03 0.  0.
          2    1    1    2  501    0  0.26618986760E+02 -0.10624501308E+03  0.13705605572E+03  0.17544496479E+03  0.00000000000E+00 0. -1.
          1    1    1    2  502    0 -0.53811778663E+01  0.27889471164E+02  0.45197466563E+03  0.45286629158E+03  0.00000000000E+00 0. -1.
         22    1    3    3    0    0  0.17957074496E+02  0.84392979830E+02  0.15933144689E+03  0.18119365755E+03  0.00000000000E+00 0.  1.
         22    1    3    3    0    0 -0.39194883389E+02 -0.60374379151E+01  0.38999077998E+01  0.39848448167E+02  0.00000000000E+00 0.  1.
</event>
<event>
 7    1  0.6485470E-006  0.7662081E+02  0.7818608E-02  0.1484107E+00
          2   -1    0    0  502    0  0.00000000000E+00  0.00000000000E+00  0.10532150649E+04  0.10532150649E+04  0.00000000000E+00 0. -1.
          1   -1    0    0  501    0 -0.00000000000E+00 -0.00000000000E+00 -0.78658589035E+02  0.78658589035E+02  0.00000000000E+00 0. -1.
         25    2    1    2    0    0 -0.74065966888E+02 -0.59817624088E+02  0.67490302592E+03  0.69295006223E+03  0.12498711433E+03 0.  0.
          2    1    1    2  501    0  0.66934983112E+02  0.36205413805E+02 -0.48276317623E+02  0.90120623590E+02  0.00000000000E+00 0. -1.
          1    1    1    2  502    0  0.71309837755E+01  0.23612210283E+02  0.34792976761E+03  0.34880296815E+03  0.00000000000E+00 0. -1.
         22    1    3    3    0    0 -0.58911162880E+02 -0.62949912844E+02  0.19995951369E+03  0.21775450341E+03  0.00000000000E+00 0.  1.
         22    1    3    3    0    0 -0.15154804008E+02  0.31322887566E+01  0.47494351223E+03  0.47519555882E+03  0.00000000000E+00 0.  1.
</event>
<event>
 7    1  0.6485470E-006  0.7934897E+02  0.7818608E-02  0.1376617E+00
          2   -1    0    0  502    0  0.00000000000E+00  0.00000000000E+00  0.23245267981E+03  0.23245267981E+03  0.00000000000E+00 0. -1.
          1   -1    0    0  501    0 -0.00000000000E+00 -0.00000000000E+00 -0.10115099446E+04  0.10115099446E+04  0.00000000000E+00 0. -1.
         25    2    1    2    0    0 -0.82836620170E+02 -0.70160027166E+02  0.16362234420E+03  0.23276932393E+03  0.12499980637E+03 0.  0.
          2    1    1    2  501    0  0.49092942894E+02  0.22103725386E+02 -0.95043908852E+03  0.95196278956E+03  0.00000000000E+00 0. -1.
          1    1    1    2  502    0  0.33743677276E+02  0.48056301780E+02  0.77594795715E+01  0.59230510888E+02  0.00000000000E+00 0. -1.
         22    1    3    3    0    0 -0.79294029713E+02 -0.93935632460E+02  0.16816592763E+03  0.20830560581E+03  0.00000000000E+00 0.  1.
         22    1    3    3    0    0 -0.35425904568E+01  0.23775605294E+02 -0.45435834356E+01  0.24463718129E+02  0.00000000000E+00 0.  1.
</event>
<event>
 7    1  0.6485470E-006  0.4893674E+02  0.7818608E-02  0.1549244E+00
          2   -1    0    0  502    0  0.00000000000E+00  0.00000000000E+00  0.83782352188E+03  0.83782352188E+03  0.00000000000E+00 0. -1.
          1   -1    0    0  501    0 -0.00000000000E+00 -0.00000000000E+00 -0.14015971405E+03  0.14015971405E+03  0.00000000000E+00 0. -1.
         25    2    1    2    0    0  0.35477669859E+01 -0.48412415570E+02  0.15317834760E+03  0.20358036338E+03  0.12500003819E+03 0.  0.
          2    1    1    2  501    0  0.23766850667E+02  0.75226412981E+01 -0.11267774684E+03  0.11540246078E+03  0.00000000000E+00 0. -1.
          1    1    1    2  502    0 -0.27314617653E+02  0.40889774272E+02  0.65716320707E+03  0.65900041177E+03  0.00000000000E+00 0. -1.
         22    1    3    3    0    0 -0.53392493967E+02 -0.15805562649E+02  0.28181537820E+02  0.62408118835E+02  0.00000000000E+00 0.  1.
         22    1    3    3    0    0  0.56940260953E+02 -0.32606852921E+02  0.12499680978E+03  0.14117224454E+03  0.00000000000E+00 0.  1.
</event>
<event>
 7    1  0.6485470E-006  0.7796095E+02  0.7818608E-02  0.1356862E+00
          2   -1    0    0  502    0  0.00000000000E+00  0.00000000000E+00  0.18684362738E+04  0.18684362738E+04  0.00000000000E+00 0. -1.
          1   -1    0    0  501    0 -0.00000000000E+00 -0.00000000000E+00 -0.67206867530E+03  0.67206867530E+03  0.00000000000E+00 0. -1.
         25    2    1    2    0    0 -0.10430015614E+03 -0.76804075810E+02  0.28277431534E+03  0.33520628099E+03  0.12499819506E+03 0.  0.
          2    1    1    2  501    0  0.75251423287E+02  0.19119255392E+02 -0.64284706687E+03  0.64751885997E+03  0.00000000000E+00 0. -1.
          1    1    1    2  502    0  0.29048732858E+02  0.57684820417E+02  0.15564403500E+04  0.15577798081E+04  0.00000000000E+00 0. -1.
         22    1    3    3    0    0 -0.87858913132E+02 -0.11021871555E+03  0.24142287680E+03  0.27955743474E+03  0.00000000000E+00 0. -1.
         22    1    3    3    0    0 -0.16441243013E+02  0.33414639737E+02  0.41351438537E+02  0.55648846257E+02  0.00000000000E+00 0. -1.
</event>
<event>
 7    1  0.6485470E-006  0.5960580E+03  0.7818608E-02  0.1195397E+00
          2   -1    0    0  502    0  0.00000000000E+00  0.00000000000E+00  0.20056406308E+04  0.20056406308E+04  0.00000000000E+00 0. -1.
          1   -1    0    0  501    0 -0.00000000000E+00 -0.00000000000E+00 -0.81063730997E+03  0.81063730997E+03  0.00000000000E+00 0. -1.
         25    2    1    2    0    0  0.19557593748E+03  0.58475231623E+03  0.73891789101E+02  0.63345965300E+03  0.12500366726E+03 0.  0.
          2    1    1    2  501    0 -0.21052069097E+03 -0.54776219110E+03 -0.36833067603E+03  0.69284187679E+03  0.00000000000E+00 0. -1.
          1    1    1    2  502    0  0.14944753492E+02 -0.36990125128E+02  0.14894422078E+04  0.14899764110E+04  0.00000000000E+00 0. -1.
         22    1    3    3    0    0 -0.10185785935E+02  0.11474204367E+03  0.26476636314E+02  0.11819686583E+03  0.00000000000E+00 0.  1.
         22    1    3    3    0    0  0.20576172341E+03  0.47001027256E+03  0.47415152787E+02  0.51526278717E+03  0.00000000000E+00 0.  1.
</event>
<event>
 7    1  0.6485470E-006  0.8538837E+02  0.7818608E-02  0.1361110E+00
          2   -1    0    0  502    0  0.00000000000E+00  0.00000000000E+00  0.20589375747E+04  0.20589375747E+04  0.00000000000E+00 0. -1.
          1   -1    0    0  501    0 -0.00000000000E+00 -0.00000000000E+00 -0.65584631816E+02  0.65584631816E+02  0.00000000000E+00 0. -1.
         25    2    1    2    0    0 -0.22023009712E+02 -0.55040573323E+02  0.76739371831E+02  0.15820417299E+03  0.12500060597E+03 0.  0.
          2    1    1    2  501    0  0.46910030768E+02  0.10620598075E+03  0.11369444819E+03  0.16250135040E+03  0.00000000000E+00 0. -1.
          1    1    1    2  502    0 -0.24887021056E+02 -0.51165407426E+02  0.18029191228E+04  0.18038166831E+04  0.00000000000E+00 0. -1.
         22    1    3    3    0    0 -0.69333279721E+02 -0.51050786150E+02  0.28944095817E+02  0.90835274680E+02  0.00000000000E+00 0. -1.
         22    1    3    3    0    0  0.47310270009E+02 -0.39897871732E+01  0.47795276015E+02  0.67368898309E+02  0.00000000000E+00 0. -1.
</event>
<event>
 7    1  0.6485470E-006  0.1865866E+03  0.7818608E-02  0.1219132E+00
          2   -1    0    0  502    0  0.00000000000E+00  0.00000000000E+00  0.18128282389E+04  0.18128282389E+04  0.00000000000E+00 0. -1.
          1   -1    0    0  501    0 -0.00000000000E+00 -0.00000000000E+00 -0.72291436177E+02  0.72291436177E+02  0.00000000000E+00 0. -1.
         25    2    1    2    0    0  0.13736366326E+03  0.35664377412E+02  0.37137967418E+03  0.41675643833E+03  0.12498937034E+03 0.  0.
          2    1    1    2  501    0 -0.18029333185E+03 -0.12464834991E+03  0.20529340004E+03  0.30031363064E+03  0.00000000000E+00 0. -1.
          1    1    1    2  502    0  0.42929668594E+02  0.88983972500E+02  0.11638637285E+04  0.11680496061E+04  0.00000000000E+00 0. -1.
         22    1    3    3    0    0  0.86660846023E+02  0.64715657033E+02  0.32384324911E+03  0.34142739857E+03  0.00000000000E+00 0. -1.
         22    1    3    3    0    0  0.50702817235E+02 -0.29051279621E+02  0.47536425067E+02  0.75329039761E+02  0.00000000000E+00 0. -1.
</event>
<event>
 7    1  0.6485470E-006  0.7235537E+02  0.7818608E-02  0.1353045E+00
          2   -1    0    0  502    0  0.00000000000E+00  0.00000000000E+00  0.10555226792E+04  0.10555226792E+04  0.00000000000E+00 0. -1.
          1   -1    0    0  501    0 -0.00000000000E+00 -0.00000000000E+00 -0.61975782822E+03  0.61975782822E+03  0.00000000000E+00 0. -1.
         25    2    1    2    0    0  0.32896957587E+02  0.13874827517E+03  0.35911306656E+03  0.40610402818E+03  0.12499997378E+03 0.  0.
          2    1    1    2  501    0 -0.72775926718E+01 -0.71593463115E+02 -0.59215850019E+03  0.59651511018E+03  0.00000000000E+00 0. -1.
          1    1    1    2  502    0 -0.25619364915E+02 -0.67154812058E+02  0.66881028464E+03  0.67266136910E+03  0.00000000000E+00 0. -1.
         22    1    3    3    0    0 -0.19493302754E+02 -0.16481741462E+02  0.41411159967E+02  0.48646899425E+02  0.00000000000E+00 0.  1.
         22    1    3    3    0    0  0.52390260341E+02  0.15523001663E+03  0.31770190660E+03  0.35745712876E+03  0.00000000000E+00 0.  1.
</event>
<event>
 7    1  0.6485470E-006  0.6001443E+02  0.7818608E-02  0.1435591E+00
          2   -1    0    0  502    0  0.00000000000E+00  0.00000000000E+00  0.27133236221E+04  0.27133236221E+04  0.00000000000E+00 0. -1.
          1   -1    0    0  501    0 -0.00000000000E+00 -0.00000000000E+00 -0.18718469679E+03  0.18718469679E+03  0.00000000000E+00 0. -1.
         25    2    1    2    0    0 -0.26810235905E+02  0.10023986033E+03  0.39935025589E+03  0.43112925761E+03  0.12499996615E+03 0.  0.
          2    1    1    2  501    0  0.10834990703E+02 -0.43473247506E+02 -0.16798027625E+03  0.17385250496E+03  0.00000000000E+00 0. -1.
          1    1    1    2  502    0  0.15975245202E+02 -0.56766612826E+02  0.22947689456E+04  0.22955265563E+04  0.00000000000E+00 0. -1.
         22    1    3    3    0    0 -0.18715560724E+02  0.12585706189E+03  0.37034404963E+03  0.39159288469E+03  0.00000000000E+00 0.  1.
         22    1    3    3    0    0 -0.80946751806E+01 -0.25617201562E+02  0.29006206261E+02  0.39536372921E+02  0.00000000000E+00 0.  1.
</event>
<event>
 7    1  0.9906046E-006  0.7260941E+02  0.7818608E-02  0.1419195E+00
          2   -1    0    0  502    0  0.00000000000E+00  0.00000000000E+00  0.29697929610E+04  0.29697929610E+04  0.00000000000E+00 0. -1.
          1   -1    0    0  501    0 -0.00000000000E+00 -0.00000000000E+00 -0.50411696589E+03  0.50411696589E+03  0.00000000000E+00 0. -1.
         25    2    1    2    0    0 -0.89108870139E+02  0.43248792971E+02 -0.23308824940E+03  0.28242886094E+03  0.12500032261E+03 0.  0.
          2    1    1    2  501    0  0.16688917757E+02 -0.38489706974E+02 -0.24412177622E+03  0.24770026069E+03  0.00000000000E+00 0. -1.
          1    1    1    2  502    0  0.72419952381E+02 -0.47590859963E+01  0.29428860208E+04  0.29437808053E+04  0.00000000000E+00 0. -1.
         22    1    3    3    0    0 -0.81414643406E+02  0.84496231380E+02 -0.16547849636E+03  0.20285731447E+03  0.00000000000E+00 0. -1.
         22    1    3    3    0    0 -0.76942267326E+01 -0.41247438410E+02 -0.67609753047E+02  0.79571546469E+02  0.00000000000E+00 0. -1.
</event>
<event>
 7    1  0.6485470E-006  0.9181351E+02  0.7818608E-02  0.1390425E+00
          2   -1    0    0  502    0  0.00000000000E+00  0.00000000000E+00  0.30917916900E+03  0.30917916900E+03  0.00000000000E+00 0. -1.
          1   -1    0    0  501    0 -0.00000000000E+00 -0.00000000000E+00 -0.25140466046E+04  0.25140466046E+04  0.00000000000E+00 0. -1.
         25    2    1    2    0    0  0.54131228612E+02 -0.14295970982E+02 -0.26043221153E+02  0.13941838756E+03  0.12499869090E+03 0.  0.
          2    1    1    2  501    0 -0.92379352203E+02 -0.20622851056E+01 -0.24287178213E+04  0.24304749439E+04  0.00000000000E+00 0. -1.
          1    1    1    2  502    0  0.38248123592E+02  0.16358256088E+02  0.24989360681E+03  0.25333244211E+03  0.00000000000E+00 0. -1.
         22    1    3    3    0    0 -0.65826007826E+00 -0.20215140012E+02 -0.67495172231E+02  0.70460509979E+02  0.00000000000E+00 0. -1.
         22    1    3    3    0    0  0.54789488690E+02  0.59191690298E+01  0.41451951078E+02  0.68957877586E+02  0.00000000000E+00 0. -1.
</event>
<event>
 7    1  0.6485470E-006  0.1801880E+03  0.7818608E-02  0.1322496E+00
          2   -1    0    0  502    0  0.00000000000E+00  0.00000000000E+00  0.25112821695E+04  0.25112821695E+04  0.00000000000E+00 0. -1.
          1   -1    0    0  501    0 -0.00000000000E+00 -0.00000000000E+00 -0.85594975994E+02  0.85594975994E+02  0.00000000000E+00 0. -1.
         25    2    1    2    0    0 -0.20158581035E+01 -0.17702786166E+03  0.46518642702E+03  0.51319149944E+03  0.12499670286E+03 0.  0.
          2    1    1    2  501    0  0.39653711967E+02  0.17751300727E+03  0.73288698633E+02  0.19609823551E+03  0.00000000000E+00 0. -1.
          1    1    1    2  502    0 -0.37637853863E+02 -0.48514560848E+00  0.18872120678E+04  0.18875874105E+04  0.00000000000E+00 0. -1.
         22    1    3    3    0    0 -0.36276161774E+02 -0.16212653396E+03  0.43335483647E+03  0.46410924061E+03  0.00000000000E+00 0.  1.
         22    1    3    3    0    0  0.34260303671E+02 -0.14901327699E+02  0.31831590549E+02  0.49082258828E+02  0.00000000000E+00 0.  1.
</event>
<event>
 7    1  0.6485470E-006  0.3816237E+02  0.7818608E-02  0.1547441E+00
          2   -1    0    0  502    0  0.00000000000E+00  0.00000000000E+00  0.52964934066E+03  0.52964934066E+03  0.00000000000E+00 0. -1.
          1   -1    0    0  501    0 -0.00000000000E+00 -0.00000000000E+00 -0.60200128776E+03  0.60200128776E+03  0.00000000000E+00 0. -1.
         25    2    1    2    0    0  0.17273310182E+02  0.91380862014E+00  0.40228308412E+03  0.42161087835E+03  0.12499940276E+03 0.  0.
          2    1    1    2  501    0  0.31555311450E+02  0.70821337153E+01 -0.58667237408E+03  0.58756307645E+03  0.00000000000E+00 0. -1.
          1    1    1    2  502    0 -0.48828621632E+02 -0.79959423354E+01  0.11203734286E+03  0.12247667361E+03  0.00000000000E+00 0. -1.
         22    1    3    3    0    0 -0.38592216824E+02 -0.40403143005E+02  0.15554035799E+03  0.16527121990E+03  0.00000000000E+00 0.  1.
         22    1    3    3    0    0  0.55865527007E+02  0.41316951625E+02  0.24674272613E+03  0.25633965846E+03  0.00000000000E+00 0.  1.
</event>
<event>
 7    1  0.6485470E-006  0.3966250E+02  0.7818608E-02  0.1572688E+00
          2   -1    0    0  502    0  0.00000000000E+00  0.00000000000E+00  0.71845053525E+03  0.71845053525E+03  0.00000000000E+00 0. -1.
          1   -1    0    0  501    0 -0.00000000000E+00 -0.00000000000E+00 -0.19603306273E+04  0.19603306273E+04  0.00000000000E+00 0. -1.
         25    2    1    2    0    0  0.37210846080E+02  0.67493362162E+01 -0.15226992947E+04  0.15282890522E+04  0.12499633730E+03 0.  0.
          2    1    1    2  501    0 -0.27391177544E+01 -0.26373780082E+02 -0.43388176815E+03  0.43469123269E+03  0.00000000000E+00 0. -1.
          1    1    1    2  502    0 -0.34471728325E+02  0.19624443866E+02  0.71470097079E+03  0.71580087769E+03  0.00000000000E+00 0. -1.
         22    1    3    3    0    0  0.46474939074E+02 -0.28322252221E+02 -0.29039955686E+03  0.29545553398E+03  0.00000000000E+00 0.  1.
         22    1    3    3    0    0 -0.92640929946E+01  0.35071588437E+02 -0.12322997378E+04  0.12328335182E+04  0.00000000000E+00 0.  1.
</event>
<event>
 7    1  0.6485470E-006  0.4566464E+02  0.7818608E-02  0.1491183E+00
          2   -1    0    0  502    0  0.00000000000E+00  0.00000000000E+00  0.34989732180E+03  0.34989732180E+03  0.00000000000E+00 0. -1.
          1   -1    0    0  501    0 -0.00000000000E+00 -0.00000000000E+00 -0.27309062786E+03  0.27309062786E+03  0.00000000000E+00 0. -1.
         25    2    1    2    0    0 -0.47379537687E+01 -0.64275700791E+02 -0.42241410469E+02  0.14684640411E+03  0.12500286286E+03 0.  0.
          2    1    1    2  501    0  0.29534210552E+02  0.26062157647E+02 -0.17459653402E+03  0.17898451147E+03  0.00000000000E+00 0. -1.
          1    1    1    2  502    0 -0.24796256783E+02  0.38213543144E+02  0.29364463842E+03  0.29715703408E+03  0.00000000000E+00 0. -1.
         22    1    3    3    0    0  0.48729401092E+02 -0.46904655325E+02  0.12040164495E+02  0.68699103218E+02  0.00000000000E+00 0. -1.
         22    1    3    3    0    0 -0.53467354860E+02 -0.17371045466E+02 -0.54281574965E+02  0.78147300894E+02  0.00000000000E+00 0. -1.
</event>
<event>
 7    1  0.6485470E-006  0.6558997E+02  0.7818608E-02  0.1392287E+00
          2   -1    0    0  502    0  0.00000000000E+00  0.00000000000E+00  0.33173309944E+03  0.33173309944E+03  0.00000000000E+00 0. -1.
          1   -1    0    0  501    0 -0.00000000000E+00 -0.00000000000E+00 -0.65381512965E+03  0.65381512965E+03  0.00000000000E+00 0. -1.
         25    2    1    2    0    0  0.62504363770E+02  0.25188481366E+01 -0.59842202703E+02  0.15205437948E+03  0.12500521993E+03 0.  0.
          2    1    1    2  501    0 -0.19999684316E+02 -0.53769090120E+02 -0.54245336515E+03  0.54547846501E+03  0.00000000000E+00 0. -1.
          1    1    1    2  502    0 -0.42504679453E+02  0.51250241984E+02  0.28021353765E+03  0.28801538459E+03  0.00000000000E+00 0. -1.
         22    1    3    3    0    0  0.23989964387E+01 -0.78302087097E+01 -0.85497109209E+02  0.85888433654E+02  0.00000000000E+00 0. -1.
         22    1    3    3    0    0  0.60105367331E+02  0.10349056846E+02  0.25654906506E+02  0.66165945829E+02  0.00000000000E+00 0. -1.
</event>
<event>
 7    1  0.6485470E-006  0.4679399E+03  0.7818608E-02  0.1203515E+00
          2   -1    0    0  502    0  0.00000000000E+00  0.00000000000E+00  0.14630478097E+04  0.14630478097E+04  0.00000000000E+00 0. -1.
          1   -1    0    0  501    0 -0.00000000000E+00 -0.00000000000E+00 -0.12544733270E+04  0.12544733270E+04  0.00000000000E+00 0. -1.
         25    2    1    2    0    0  0.42202951263E+03 -0.12447424412E+03 -0.19036301451E+03  0.49544476585E+03  0.12499876695E+03 0.  0.
          2    1    1    2  501    0 -0.46662079902E+03  0.11119733318E+03 -0.84800014419E+03  0.97427104111E+03  0.00000000000E+00 0. -1.
          1    1    1    2  502    0  0.44591286399E+02  0.13276910938E+02  0.12469376414E+04  0.12478053297E+04  0.00000000000E+00 0. -1.
         22    1    3    3    0    0  0.27544675573E+02 -0.33953173419E+02  0.84237401564E+01  0.44525122525E+02  0.00000000000E+00 0.  1.
         22    1    3    3    0    0  0.39448483705E+03 -0.90521070703E+02 -0.19878675467E+03  0.45091964332E+03  0.00000000000E+00 0.  1.
</event>
<event>
 7    1  0.6485470E-006  0.2369119E+03  0.7818608E-02  0.1136875E+00
          2   -1    0    0  502    0  0.00000000000E+00  0.00000000000E+00  0.14209109745E+04  0.14209109745E+04  0.00000000000E+00 0. -1.
          1   -1    0    0  501    0 -0.00000000000E+00 -0.00000000000E+00 -0.16568290372E+04  0.16568290372E+04  0.00000000000E+00 0. -1.
         25    2    1    2    0    0 -0.36484643112E+02 -0.10977357964E+03 -0.15501243352E+03  0.23029209157E+03  0.12499689965E+03 0.  0.
          2    1    1    2  501    0  0.21640009252E+03  0.19000951542E+03 -0.14428610320E+04  0.14713193310E+04  0.00000000000E+00 0. -1.
          1    1    1    2  502    0 -0.17991544941E+03 -0.80235935786E+02  0.13619554029E+04  0.13761285891E+04  0.00000000000E+00 0. -1.
         22    1    3    3    0    0  0.12982289586E+02 -0.60842440868E+02 -0.20472805885E+01  0.62245753361E+02  0.00000000000E+00 0. -1.
         22    1    3    3    0    0 -0.49466932698E+02 -0.48931138768E+02 -0.15296515294E+03  0.16804633821E+03  0.00000000000E+00 0. -1.
</event>
<event>
 7    1  0.6485470E-006  0.3653693E+02  0.7818608E-02  0.1550255E+00
          2   -1    0    0  502    0  0.00000000000E+00  0.00000000000E+00  0.87426596627E+03  0.87426596627E+03  0.00000000000E+00 0. -1.
          1   -1    0    0  501    0 -0.00000000000E+00 -0.00000000000E+00 -0.80805373052E+03  0.80805373052E+03  0.00000000000E+00 0. -1.
         25    2    1    2    0    0  0.51538181278E+02  0.45256847321E+02 -0.73612161278E+02  0.16046319947E+03  0.12500128695E+03 0.  0.
          2    1    1    2  501    0 -0.20623690506E+02 -0.25982949934E+02 -0.69021814933E+03  0.69101486522E+03  0.00000000000E+00 0. -1.
          1    1    1    2  502    0 -0.30914490772E+02 -0.19273897388E+02  0.83004254636E+03  0.83084163210E+03  0.00000000000E+00 0. -1.
         22    1    3    3    0    0 -0.12508650139E+02  0.76248335431E+01  0.29758941758E+02  0.33169248249E+02  0.00000000000E+00 0. -1.
         22    1    3    3    0    0  0.64046831417E+02  0.37632013778E+02 -0.10337110304E+03  0.12729395123E+03  0.00000000000E+00 0. -1.
</event>
<event>
 7    1  0.6485470E-006  0.1263732E+03  0.7818608E-02  0.1370717E+00
          2   -1    0    0  502    0  0.00000000000E+00  0.00000000000E+00  0.33274491363E+03  0.33274491363E+03  0.00000000000E+00 0. -1.
          1   -1    0    0  501    0 -0.00000000000E+00 -0.00000000000E+00 -0.29610661376E+03  0.29610661376E+03  0.00000000000E+00 0. -1.
         25    2    1    2    0    0 -0.11203991166E+03 -0.19335614600E+02  0.91115010176E+02  0.19196385228E+03  0.12498546998E+03 0.  0.
          2    1    1    2  501    0  0.12771461210E+03 -0.12503202100E+02 -0.22699520918E+03  0.26075693125E+03  0.00000000000E+00 0. -1.
          1    1    1    2  502    0 -0.15674700444E+02  0.31838816701E+02  0.17251849887E+03  0.17613074386E+03  0.00000000000E+00 0. -1.
         22    1    3    3    0    0 -0.58990114705E+02 -0.70562171901E+02  0.31768219711E+02  0.97304026226E+02  0.00000000000E+00 0.  1.
         22    1    3    3    0    0 -0.53049796953E+02  0.51226557301E+02  0.59346790465E+02  0.94659826051E+02  0.00000000000E+00 0.  1.
</event>
<event>
 7    1  0.8297463E-006  0.1430414E+03  0.7818608E-02  0.1222494E+00
          2   -1    0    0  502    0  0.00000000000E+00  0.00000000000E+00  0.19621422918E+04  0.19621422918E+04  0.00000000000E+00 0. -1.
          1   -1    0    0  501    0 -0.00000000000E+00 -0.00000000000E+00 -0.13313070782E+04  0.13313070782E+04  0.00000000000E+00 0. -1.
         25    2    1    2    0    0 -0.13625772432E+03 -0.18621608152E+03 -0.42626014896E+03  0.50056479792E+03  0.12499922350E+03 0.  0.
          2    1    1    2  501    0  0.77602307756E+01  0.12416958912E+03 -0.86077186161E+03  0.86971633639E+03  0.00000000000E+00 0. -1.
          1    1    1    2  502    0  0.12849749354E+03  0.62046492407E+02  0.19178672242E+04  0.19231682357E+04  0.00000000000E+00 0. -1.
         22    1    3    3    0    0 -0.89426496516E+02 -0.19456868011E+03 -0.36235328515E+03  0.42089662961E+03  0.00000000000E+00 0. -1.
         22    1    3    3    0    0 -0.46831227803E+02  0.83525985847E+01 -0.63906863812E+02  0.79668168317E+02  0.00000000000E+00 0. -1.
</event>
<event>
 7    1  0.6485470E-006  0.1669530E+03  0.7818608E-02  0.1280809E+00
          2   -1    0    0  502    0  0.00000000000E+00  0.00000000000E+00  0.14978224436E+04  0.14978224436E+04  0.00000000000E+00 0. -1.
          1   -1    0    0  501    0 -0.00000000000E+00 -0.00000000000E+00 -0.66162948134E+02  0.66162948134E+02  0.00000000000E+00 0. -1.
         25    2    1    2    0    0 -0.97614975444E+02 -0.17685125007E+03  0.35991898121E+03  0.43124658381E+03  0.12500757948E+03 0.  0.
          2    1    1    2  501    0  0.94755546719E+02  0.11731434995E+03  0.16305145394E+03  0.22209693147E+03  0.00000000000E+00 0. -1.
          1    1    1    2  502    0  0.28594287242E+01  0.59536900121E+02  0.90868906033E+03  0.91064187647E+03  0.00000000000E+00 0. -1.
         22    1    3    3    0    0 -0.33414746623E+02  0.69813807456E+01  0.10536369113E+03  0.11075555235E+03  0.00000000000E+00 0. -1.
         22    1    3    3    0    0 -0.64200228821E+02 -0.18383263082E+03  0.25455529009E+03  0.32049103146E+03  0.00000000000E+00 0. -1.
</event>
<event>
 7    1  0.9551824E-006  0.7960636E+02  0.7818608E-02  0.1352828E+00
          2   -1    0    0  502    0  0.00000000000E+00  0.00000000000E+00  0.90636118522E+03  0.90636118522E+03  0.00000000000E+00 0. -1.
          1   -1    0    0  501    0 -0.00000000000E+00 -0.00000000000E+00 -0.33947814708E+04  0.33947814708E+04  0.00000000000E+00 0. -1.
         25    2    1    2    0    0 -0.93529221746E+02 -0.87343153485E+00 -0.14433046573E+04  0.14517241428E+04  0.12500469957E+03 0.  0.
          2    1    1    2  501    0  0.35263578919E+02  0.55137186041E+02 -0.19449587912E+04  0.19460596930E+04  0.00000000000E+00 0. -1.
          1    1    1    2  502    0  0.58265642827E+02 -0.54263754506E+02  0.89984316291E+03  0.90335882019E+03  0.00000000000E+00 0. -1.
         22    1    3    3    0    0 -0.11457412632E+03  0.30249034225E+02 -0.10792782808E+04  0.10857641742E+04  0.00000000000E+00 0. -1.
         22    1    3    3    0    0  0.21044904578E+02 -0.31122465759E+02 -0.36402637649E+03  0.36595996866E+03  0.00000000000E+00 0. -1.
</event>
<event>
 7    1  0.6485470E-006  0.5789346E+02  0.7818608E-02  0.1500035E+00
          2   -1    0    0  502    0  0.00000000000E+00  0.00000000000E+00  0.16780618434E+04  0.16780618434E+04  0.00000000000E+00 0. -1.
          1   -1    0    0  501    0 -0.00000000000E+00 -0.00000000000E+00 -0.43890551059E+02  0.43890551059E+02  0.00000000000E+00 0. -1.
         25    2    1    2    0    0  0.40748808542E+02  0.11620169466E+02  0.16112545033E+03  0.20828324389E+03  0.12500002082E+03 0.  0.
          2    1    1    2  501    0 -0.62252747871E+02  0.81705669718E+01  0.28712816962E+02  0.69040485514E+02  0.00000000000E+00 0. -1.
          1    1    1    2  502    0  0.21503939329E+02 -0.19790736437E+02  0.14443330250E+04  0.14446286650E+04  0.00000000000E+00 0. -1.
         22    1    3    3    0    0 -0.30377501761E+02 -0.17947761996E+02  0.69849500551E+01  0.35968101161E+02  0.00000000000E+00 0.  1.
         22    1    3    3    0    0  0.71126310302E+02  0.29567931462E+02  0.15414050027E+03  0.17231514272E+03  0.00000000000E+00 0.  1.
</event>
<event>
 7    1  0.6485470E-006  0.2320041E+03  0.7818608E-02  0.1212713E+00
          2   -1    0    0  502    0  0.00000000000E+00  0.00000000000E+00  0.15852194603E+03  0.15852194603E+03  0.00000000000E+00 0. -1.
          1   -1    0    0  501    0 -0.00000000000E+00 -0.00000000000E+00 -0.32310092072E+04  0.32310092072E+04  0.00000000000E+00 0. -1.
         25    2    1    2    0    0  0.34954418392E+02 -0.17640352638E+03 -0.33157256314E+03  0.39737217077E+03  0.12499704793E+03 0.  0.
          2    1    1    2  501    0  0.65918184461E+02 -0.53720817355E+02 -0.27395741623E+04  0.27408935996E+04  0.00000000000E+00 0. -1.
          1    1    1    2  502    0 -0.10087260285E+03  0.23012434373E+03 -0.13405356656E+01  0.25126538285E+03  0.00000000000E+00 0. -1.
         22    1    3    3    0    0  0.59237634383E+02 -0.16313746519E+03 -0.32574110857E+03  0.36909375460E+03  0.00000000000E+00 0.  1.
         22    1    3    3    0    0 -0.24283215991E+02 -0.13266061186E+02 -0.58314545686E+01  0.28278416162E+02  0.00000000000E+00 0.  1.
</event>
<event>
 7    1  0.6485470E-006  0.1777947E+03  0.7818608E-02  0.1227126E+00
          2   -1    0    0  502    0  0.00000000000E+00  0.00000000000E+00  0.16717938864E+04  0.16717938864E+04  0.00000000000E+00 0. -1.
          1   -1    0    0  501    0 -0.00000000000E+00 -0.00000000000E+00 -0.31510856904E+03  0.31510856904E+03  0.00000000000E+00 0. -1.
         25    2    1    2    0    0  0.12689370444E+02 -0.20107877529E+03  0.90462999675E+03  0.93518610019E+03  0.12499566784E+03 0.  0.
          2    1    1    2  501    0  0.74131326433E+02  0.16159024689E+03 -0.27006217250E+03  0.32332713846E+03  0.00000000000E+00 0. -1.
          1    1    1    2  502    0 -0.86820696877E+02  0.39488528404E+02  0.72211749308E+03  0.72838921676E+03  0.00000000000E+00 0. -1.
         22    1    3    3    0    0 -0.52609954201E+02 -0.76462359857E+02  0.44188110904E+03  0.45152321567E+03  0.00000000000E+00 0.  1.
         22    1    3    3    0    0  0.65299324645E+02 -0.12461641543E+03  0.46274888771E+03  0.48366288453E+03  0.00000000000E+00 0.  1.
</event>
<event>
 7    1  0.6485470E-006  0.7208786E+02  0.7818608E-02  0.1490606E+00
          2   -1    0    0  502    0  0.00000000000E+00  0.00000000000E+00  0.30483698612E+03  0.30483698612E+03  0.00000000000E+00 0. -1.
          1   -1    0    0  501    0 -0.00000000000E+00 -0.00000000000E+00 -0.89324635188E+02  0.89324635188E+02  0.00000000000E+00 0. -1.
         25    2    1    2    0    0 -0.27764383643E+02 -0.47473828163E+02  0.85022949975E+02  0.16086608879E+03  0.12499748453E+03 0.  0.
          2    1    1    2  501    0  0.51025390056E+02  0.56775365296E+02 -0.21460538774E+02  0.79294307862E+02  0.00000000000E+00 0. -1.
          1    1    1    2  502    0 -0.23261006413E+02 -0.93015371333E+01  0.15194993973E+03  0.15400122466E+03  0.00000000000E+00 0. -1.
         22    1    3    3    0    0 -0.44327019646E+02  0.26439695745E+02  0.69368788044E+01  0.52077466042E+02  0.00000000000E+00 0.  1.
         22    1    3    3    0    0  0.16562636003E+02 -0.73913523908E+02  0.78086071171E+02  0.10878862274E+03  0.00000000000E+00 0.  1.
</event>
<event>
 7    1  0.6485470E-006  0.1037170E+03  0.7818608E-02  0.1343554E+00
          2   -1    0    0  502    0  0.00000000000E+00  0.00000000000E+00  0.79024993595E+03  0.79024993595E+03  0.00000000000E+00 0. -1.
          1   -1    0    0  501    0 -0.00000000000E+00 -0.00000000000E+00 -0.11652813503E+04  0.11652813503E+04  0.00000000000E+00 0. -1.
         25    2    1    2    0    0  0.14759952346E+03 -0.19553184438E+02 -0.62758143155E+02  0.20428185317E+03  0.12499817860E+03 0.  0.
          2    1    1    2  501    0 -0.95725749870E+02  0.35879188335E+02 -0.10281953146E+04  0.10332648936E+04  0.00000000000E+00 0. -1.
          1    1    1    2  502    0 -0.51873773588E+02 -0.16326003897E+02  0.71592204338E+03  0.71798453952E+03  0.00000000000E+00 0. -1.
         22    1    3    3    0    0  0.70510032494E+02 -0.99124763313E+01  0.35058663432E+02  0.79366439702E+02  0.00000000000E+00 0.  1.
         22    1    3    3    0    0  0.77089490964E+02 -0.96407081064E+01 -0.97816806587E+02  0.12491541346E+03  0.00000000000E+00 0.  1.
</event>
<event>
 7    1  0.6485470E-006  0.7294613E+02  0.7818608E-02  0.1467816E+00
          2   -1    0    0  502    0  0.00000000000E+00  0.00000000000E+00  0.20967336423E+03  0.20967336423E+03  0.00000000000E+00 0. -1.
          1   -1    0    0  501    0 -0.00000000000E+00 -0.00000000000E+00 -0.12076117476E+04  0.12076117476E+04  0.00000000000E+00 0. -1.
         25    2    1    2    0    0 -0.43436390299E+02 -0.91024964441E+01  0.22237414835E+02  0.13449512246E+03  0.12499943961E+03 0.  0.
          2    1    1    2  501    0  0.72366560786E+02  0.12113202720E+02 -0.11486871382E+04  0.11510281449E+04  0.00000000000E+00 0. -1.
          1    1    1    2  502    0 -0.28930170487E+02 -0.30107062757E+01  0.12851134008E+03  0.13176184442E+03  0.00000000000E+00 0. -1.
         22    1    3    3    0    0 -0.81249276199E+02 -0.10665729215E+01 -0.12877245337E+02  0.82270322159E+02  0.00000000000E+00 0. -1.
         22    1    3    3    0    0  0.37812885900E+02 -0.80359235226E+01  0.35114660172E+02  0.52224800296E+02  0.00000000000E+00 0. -1.
</event>
<event>
 7    1  0.6485470E-006  0.1610076E+03  0.7818608E-02  0.1231734E+00
          2   -1    0    0  502    0  0.00000000000E+00  0.00000000000E+00  0.17010581595E+04  0.17010581595E+04  0.00000000000E+00 0. -1.
          1   -1    0    0  501    0 -0.00000000000E+00 -0.00000000000E+00 -0.81576143497E+03  0.81576143497E+03  0.00000000000E+00 0. -1.
         25    2    1    2    0    0 -0.72696286648E+02 -0.22718343257E+03  0.23521621155E+03  0.35755947410E+03  0.12500019687E+03 0.  0.
          2    1    1    2  501    0 -0.11520027434E+01  0.15912739546E+03 -0.74437431884E+03  0.76119378718E+03  0.00000000000E+00 0. -1.
          1    1    1    2  502    0  0.73848289391E+02  0.68056037114E+02  0.13944548318E+04  0.13980663332E+04  0.00000000000E+00 0. -1.
         22    1    3    3    0    0  0.19108211002E+02 -0.10299573408E+03  0.14441702582E+03  0.17840830226E+03  0.00000000000E+00 0. -1.
         22    1    3    3    0    0 -0.91804497650E+02 -0.12418769849E+03  0.90799185726E+02  0.17915117185E+03  0.00000000000E+00 0. -1.
</event>
<event>
 7    1  0.6485470E-006  0.1049002E+03  0.7818608E-02  0.1349196E+00
          2   -1    0    0  502    0  0.00000000000E+00  0.00000000000E+00  0.36810173008E+04  0.36810173008E+04  0.00000000000E+00 0. -1.
          1   -1    0    0  501    0 -0.00000000000E+00 -0.00000000000E+00 -0.90070099604E+03  0.90070099604E+03  0.00000000000E+00 0. -1.
         25    2    1    2    0    0 -0.48680506853E+02  0.39137278785E+02  0.33090770098E+03  0.35920264344E+03  0.12500045659E+03 0.  0.
          2    1    1    2  501    0 -0.11994863690E+02  0.49804548266E+02 -0.88494383143E+03  0.88642538014E+03  0.00000000000E+00 0. -1.
          1    1    1    2  502    0  0.60675370543E+02 -0.88941827051E+02  0.33343524352E+04  0.33360902732E+04  0.00000000000E+00 0. -1.
         22    1    3    3    0    0 -0.73696121225E+00 -0.59779292318E+00  0.27653181870E+03  0.27653344684E+03  0.00000000000E+00 0.  1.
         22    1    3    3    0    0 -0.47943545641E+02  0.39735071708E+02  0.54375882280E+02  0.82669196597E+02  0.00000000000E+00 0.  1.
</event>
<event>
 7    1  0.6485470E-006  0.1012774E+03  0.7818608E-02  0.1283414E+00
          2   -1    0    0  502    0  0.00000000000E+00  0.00000000000E+00  0.85708846300E+03  0.85708846300E+03  0.00000000000E+00 0. -1.
          1   -1    0    0  501    0 -0.00000000000E+00 -0.00000000000E+00 -0.15297132348E+04  0.15297132348E+04  0.00000000000E+00 0. -1.
         25    2    1    2    0    0 -0.76179426154E+02  0.12103055679E+03 -0.71241452592E+02  0.20283989417E+03  0.12496790569E+03 0.  0.
          2    1    1    2  501    0  0.97285808829E+02 -0.27522644304E+02 -0.13879237517E+04  0.13916013672E+04  0.00000000000E+00 0. -1.
          1    1    1    2  502    0 -0.21106382675E+02 -0.93507912490E+02  0.78654043257E+03  0.79236043639E+03  0.00000000000E+00 0. -1.
         22    1    3    3    0    0 -0.71489664291E+02  0.79588913862E+02 -0.10445886574E+03  0.14952197812E+03  0.00000000000E+00 0. -1.
         22    1    3    3    0    0 -0.46897618631E+01  0.41441642932E+02  0.33217413150E+02  0.53317916047E+02  0.00000000000E+00 0. -1.
</event>
<event>
 7    1  0.6485470E-006  0.3413945E+02  0.7818608E-02  0.1556648E+00
          2   -1    0    0  502    0  0.00000000000E+00  0.00000000000E+00  0.10649419388E+04  0.10649419388E+04  0.00000000000E+00 0. -1.
          1   -1    0    0  501    0 -0.00000000000E+00 -0.00000000000E+00 -0.78660036932E+02  0.78660036932E+02  0.00000000000E+00 0. -1.
         25    2    1    2    0    0 -0.10419590610E+02 -0.23332372986E+02  0.31562207784E+03  0.34043604884E+03  0.12500575920E+03 0.  0.
          2    1    1    2  501    0  0.34462007500E+02 -0.82245167884E+00 -0.61345621494E+02  0.70367546953E+02  0.00000000000E+00 0. -1.
          1    1    1    2  502    0 -0.24042416890E+02  0.24154824665E+02  0.73200544556E+03  0.73279837998E+03  0.00000000000E+00 0. -1.
         22    1    3    3    0    0 -0.55152751204E+02 -0.65595745654E+01  0.26528619719E+03  0.27103804235E+03  0.00000000000E+00 0. -1.
         22    1    3    3    0    0  0.44733160594E+02 -0.16772798421E+02  0.50335880650E+02  0.69398006487E+02  0.00000000000E+00 0. -1.
</event>
<event>
 7    1  0.6485470E-006  0.5399221E+02  0.7818608E-02  0.1452498E+00
          2   -1    0    0  502    0  0.00000000000E+00  0.00000000000E+00  0.10974324875E+03  0.10974324875E+03  0.00000000000E+00 0. -1.
          1   -1    0    0  501    0 -0.00000000000E+00 -0.00000000000E+00 -0.94812246149E+03  0.94812246149E+03  0.00000000000E+00 0. -1.
         25    2    1    2    0    0  0.16360872742E+01  0.13627453003E+02 -0.22752087996E+03  0.25996042744E+03  0.12500115504E+03 0.  0.
          2    1    1    2  501    0 -0.22548532121E+02  0.37691745662E+02 -0.69541858338E+03  0.69680421217E+03  0.00000000000E+00 0. -1.
          1    1    1    2  502    0  0.20912444847E+02 -0.51319198665E+02  0.84560250598E+02  0.10110107063E+03  0.00000000000E+00 0. -1.
         22    1    3    3    0    0 -0.52834870198E+02  0.16065317403E+02 -0.17776549850E+03  0.18614561608E+03  0.00000000000E+00 0.  1.
         22    1    3    3    0    0  0.54470957473E+02 -0.24378644005E+01 -0.49755381463E+02  0.73814811355E+02  0.00000000000E+00 0.  1.
</event>
<event>
 7    1  0.6485470E-006  0.6298761E+02  0.7818608E-02  0.1472773E+00
          2   -1    0    0  502    0  0.00000000000E+00  0.00000000000E+00  0.11213961731E+04  0.11213961731E+04  0.00000000000E+00 0. -1.
          1   -1    0    0  501    0 -0.00000000000E+00 -0.00000000000E+00 -0.72926575668E+02  0.72926575668E+02  0.00000000000E+00 0. -1.
         25    2    1    2    0    0  0.75638755737E+01  0.48828568278E+02  0.16166056719E+03  0.21023968246E+03  0.12500057522E+03 0.  0.
          2    1    1    2  501    0 -0.30688630414E+02  0.10730851978E+02 -0.41981321838E+02  0.53097783420E+02  0.00000000000E+00 0. -1.
          1    1    1    2  502    0  0.23124754840E+02 -0.59559420256E+02  0.92879035207E+03  0.93098528287E+03  0.00000000000E+00 0. -1.
         22    1    3    3    0    0  0.44906953512E+02  0.54003521149E+02  0.35758276025E+02  0.78814142604E+02  0.00000000000E+00 0.  1.
         22    1    3    3    0    0 -0.37343077938E+02 -0.51749528704E+01  0.12590229116E+03  0.13142553986E+03  0.00000000000E+00 0.  1.
</event>
<event>
 7    1  0.6485470E-006  0.2007049E+03  0.7818608E-02  0.1238646E+00
          2   -1    0    0  502    0  0.00000000000E+00  0.00000000000E+00  0.32662240370E+03  0.32662240370E+03  0.00000000000E+00 0. -1.
          1   -1    0    0  501    0 -0.00000000000E+00 -0.00000000000E+00 -0.91672060389E+03  0.91672060389E+03  0.00000000000E+00 0. -1.
         25    2    1    2    0    0 -0.64922702831E+02 -0.12953431144E+03  0.80727924267E+02  0.20769307967E+03  0.12500128962E+03 0.  0.
          2    1    1    2  501    0  0.43157241475E+02  0.20136858239E+03 -0.83239752631E+03  0.85749489518E+03  0.00000000000E+00 0. -1.
          1    1    1    2  502    0  0.21765461356E+02 -0.71834270955E+02  0.16157140185E+03  0.17815503273E+03  0.00000000000E+00 0. -1.
         22    1    3    3    0    0  0.69630709116E+01 -0.11740374167E+03  0.40246631509E+02  0.12430572900E+03  0.00000000000E+00 0. -1.
         22    1    3    3    0    0 -0.71885773742E+02 -0.12130569770E+02  0.40481292758E+02  0.83387350676E+02  0.00000000000E+00 0. -1.
</event>
<event>
 7    1  0.6485470E-006  0.3516445E+02  0.7818608E-02  0.1620356E+00
          2   -1    0    0  502    0  0.00000000000E+00  0.00000000000E+00  0.78197866202E+02  0.78197866202E+02  0.00000000000E+00 0. -1.
          1   -1    0    0  501    0 -0.00000000000E+00 -0.00000000000E+00 -0.16807348040E+03  0.16807348040E+03  0.00000000000E+00 0. -1.
         25    2    1    2    0    0  0.31260132589E+01 -0.54574702167E+02 -0.58236423601E+02  0.14833947375E+03  0.12499979345E+03 0.  0.
          2    1    1    2  501    0 -0.70270886659E+01  0.21290529995E+02 -0.53440127385E+02  0.57952686370E+02  0.00000000000E+00 0. -1.
          1    1    1    2  502    0  0.39010754071E+01  0.33284172172E+02  0.21800936791E+02  0.39979186478E+02  0.00000000000E+00 0. -1.
         22    1    3    3    0    0  0.56920890436E+02 -0.54544310178E+02 -0.51400328376E+02  0.94111972129E+02  0.00000000000E+00 0.  1.
         22    1    3    3    0    0 -0.53794877177E+02 -0.30391989691E-01 -0.68360952243E+01  0.54227501622E+02  0.00000000000E+00 0.  1.
</event>
<event>
 7    1  0.6485470E-006  0.9801376E+02  0.7818608E-02  0.1286669E+00
          2   -1    0    0  502    0  0.00000000000E+00  0.00000000000E+00  0.26172742505E+04  0.26172742505E+04  0.00000000000E+00 0. -1.
          1   -1    0    0  501    0 -0.00000000000E+00 -0.00000000000E+00 -0.62315227767E+03  0.62315227767E+03  0.00000000000E+00 0. -1.
         25    2    1    2    0    0 -0.51481523708E+02 -0.69349415780E+02 -0.35850069130E+03  0.38936705875E+03  0.12499708806E+03 0.  0.
          2    1    1    2  501    0 -0.45483349386E+02  0.84604357649E+02 -0.23899910496E+03  0.25757951117E+03  0.00000000000E+00 0. -1.
          1    1    1    2  502    0  0.96964873094E+02 -0.15254941869E+02  0.25916217690E+04  0.25934799582E+04  0.00000000000E+00 0. -1.
         22    1    3    3    0    0 -0.37232100163E+02 -0.95903620927E+02 -0.33698484599E+03  0.35233864423E+03  0.00000000000E+00 0. -1.
         22    1    3    3    0    0 -0.14249423545E+02  0.26554205146E+02 -0.21515845306E+02  0.37028414516E+02  0.00000000000E+00 0. -1.
</event>
<event>
 7    1  0.6485470E-006  0.5967231E+02  0.7818608E-02  0.1493937E+00
          2   -1    0    0  502    0  0.00000000000E+00  0.00000000000E+00  0.98731979055E+03  0.98731979055E+03  0.00000000000E+00 0. -1.
          1   -1    0    0  501    0 -0.00000000000E+00 -0.00000000000E+00 -0.86189917032E+03  0.86189917032E+03  0.00000000000E+00 0. -1.
         25    2    1    2    0    0  0.29612691437E+01 -0.88080240176E+02  0.17758779449E+03  0.23437034932E+03  0.12500055226E+03 0.  0.
          2    1    1    2  501    0 -0.25128057305E+00  0.29571022512E+02 -0.83214719241E+03  0.83267247964E+03  0.00000000000E+00 0. -1.
          1    1    1    2  502    0 -0.27099885706E+01  0.58509217664E+02  0.77998001815E+03  0.78217613189E+03  0.00000000000E+00 0. -1.
         22    1    3    3    0    0  0.34133829794E+02 -0.56931469830E+02  0.17953428137E+02  0.68765079621E+02  0.00000000000E+00 0. -1.
         22    1    3    3    0    0 -0.31172560650E+02 -0.31148770346E+02  0.15963436636E+03  0.16560526970E+03  0.00000000000E+00 0. -1.
</event>
<event>
 7    1  0.6485470E-006  0.7582037E+02  0.7818608E-02  0.1431333E+00
          2   -1    0    0  502    0  0.00000000000E+00  0.00000000000E+00  0.20664948498E+04  0.20664948498E+04  0.00000000000E+00 0. -1.
          1   -1    0    0  501    0 -0.00000000000E+00 -0.00000000000E+00 -0.53563429613E+02  0.53563429613E+02  0.00000000000E+00 0. -1.
         25    2    1    2    0    0  0.16877357521E+02 -0.41452797274E+02  0.26162330969E+03  0.29338033397E+03  0.12498833782E+03 0.  0.
          2    1    1    2  501    0  0.30908813779E+02 -0.19639649677E+02 -0.27739295516E+02  0.45940604310E+02  0.00000000000E+00 0. -1.
          1    1    1    2  502    0 -0.47786171300E+02  0.61092446952E+02  0.17790474061E+04  0.17807373412E+04  0.00000000000E+00 0. -1.
         22    1    3    3    0    0 -0.29553513708E+02  0.28219025584E+02  0.43219241427E+02  0.59477948914E+02  0.00000000000E+00 0. -1.
         22    1    3    3    0    0  0.46430871229E+02 -0.69671822859E+02  0.21840406826E+03  0.23390238506E+03  0.00000000000E+00 0. -1.
</event>
<event>
 7    1  0.6485470E-006  0.3264873E+02  0.7818608E-02  0.1635963E+00
          2   -1    0    0  502    0  0.00000000000E+00  0.00000000000E+00  0.49274683717E+02  0.49274683717E+02  0.00000000000E+00 0. -1.
          1   -1    0    0  501    0 -0.00000000000E+00 -0.00000000000E+00 -0.88292734032E+03  0.88292734032E+03  0.00000000000E+00 0. -1.
         25    2    1    2    0    0  0.22076137741E+02  0.25351154910E+01 -0.15661350969E+03  0.20161311251E+03  0.12500509211E+03 0.  0.
          2    1    1    2  501    0  0.57665238121E+01 -0.21289367492E+02 -0.69304685835E+03  0.69339774865E+03  0.00000000000E+00 0. -1.
          1    1    1    2  502    0 -0.27842661553E+02  0.18754252001E+02  0.16007711434E+02  0.37191162873E+02  0.00000000000E+00 0. -1.
         22    1    3    3    0    0  0.69967967884E+02  0.13845763251E+02 -0.12244689404E+03  0.14170555229E+03  0.00000000000E+00 0.  1.
         22    1    3    3    0    0 -0.47891830143E+02 -0.11310647760E+02 -0.34166615645E+02  0.59907560223E+02  0.00000000000E+00 0.  1.
</event>
<event>
 7    1  0.6485470E-006  0.1607254E+03  0.7818608E-02  0.1227505E+00
          2   -1    0    0  502    0  0.00000000000E+00  0.00000000000E+00  0.54434778337E+03  0.54434778337E+03  0.00000000000E+00 0. -1.
          1   -1    0    0  501    0 -0.00000000000E+00 -0.00000000000E+00 -0.26260004834E+03  0.26260004834E+03  0.00000000000E+00 0. -1.
         25    2    1    2    0    0  0.61233506136E+01 -0.15262911889E+02 -0.17125124771E+02  0.12723306642E+03  0.12499812555E+03 0.  0.
          2    1    1    2  501    0 -0.93460712876E+02  0.15018818049E+03 -0.13142973033E+03  0.22037506308E+03  0.00000000000E+00 0. -1.
          1    1    1    2  502    0  0.87337362262E+02 -0.13492526860E+03  0.43030259014E+03  0.45933970222E+03  0.00000000000E+00 0. -1.
         22    1    3    3    0    0  0.18122415806E-01  0.54445545094E+02 -0.17715770237E+02  0.57255272457E+02  0.00000000000E+00 0. -1.
         22    1    3    3    0    0  0.61052281978E+01 -0.69708456983E+02  0.59064546601E+00  0.69977793966E+02  0.00000000000E+00 0. -1.
</event>
<event>
 7    1  0.6485470E-006  0.3325300E+02  0.7818608E-02  0.1590901E+00
          2   -1    0    0  502    0  0.00000000000E+00  0.00000000000E+00  0.24632783224E+04  0.24632783224E+04  0.00000000000E+00 0. -1.
          1   -1    0    0  501    0 -0.00000000000E+00 -0.00000000000E+00 -0.11072985668E+03  0.11072985668E+03  0.00000000000E+00 0. -1.
         25    2    1    2    0    0  0.48731129095E+00 -0.17213787586E+02  0.46306686746E+03  0.47995074972E+03  0.12500098584E+03 0.  0.
          2    1    1    2  501    0 -0.28208098109E+02 -0.18704823196E+01 -0.10018958912E+03  0.10410162953E+03  0.00000000000E+00 0. -1.
          1    1    1    2  502    0  0.27720786818E+02  0.19084269906E+02  0.19896711874E+04  0.19899557998E+04  0.00000000000E+00 0. -1.
         22    1    3    3    0    0  0.42472053709E+02 -0.49664522469E+02  0.33519840502E+03  0.34150902019E+03  0.00000000000E+00 0. -1.
         22    1    3    3    0    0 -0.41984742418E+02  0.32450734883E+02  0.12786846244E+03  0.13844172954E+03  0.00000000000E+00 0. -1.
</event>
<event>
 7    1  0.6485470E-006  0.4035124E+02  0.7818608E-02  0.1590306E+00
          2   -1    0    0  502    0  0.00000000000E+00  0.00000000000E+00  0.67118667591E+03  0.67118667591E+03  0.00000000000E+00 0. -1.
          1   -1    0    0  501    0 -0.00000000000E+00 -0.00000000000E+00 -0.42217786710E+02  0.42217786710E+02  0.00000000000E+00 0. -1.
         25    2    1    2    0    0  0.49255704477E+02  0.29702809862E+02  0.19331818222E+03  0.23728710751E+03  0.12499948190E+03 0.  0.
          2    1    1    2  501    0 -0.10466540090E+02 -0.20908045529E+02 -0.12289703597E+02  0.26414610423E+02  0.00000000000E+00 0. -1.
          1    1    1    2  502    0 -0.38789164387E+02 -0.87947643332E+01  0.44794041058E+03  0.44970274469E+03  0.00000000000E+00 0. -1.
         22    1    3    3    0    0  0.31891214863E+02 -0.47477441010E+02  0.65379474670E+02  0.86865601354E+02  0.00000000000E+00 0. -1.
         22    1    3    3    0    0  0.17364489614E+02  0.77180250873E+02  0.12793870755E+03  0.15042150615E+03  0.00000000000E+00 0. -1.
</event>
<event>
 7    1  0.6485470E-006  0.6012607E+02  0.7818608E-02  0.1420991E+00
          2   -1    0    0  502    0  0.00000000000E+00  0.00000000000E+00  0.53045434872E+03  0.53045434872E+03  0.00000000000E+00 0. -1.
          1   -1    0    0  501    0 -0.00000000000E+00 -0.00000000000E+00 -0.45622871204E+03  0.45622871204E+03  0.00000000000E+00 0. -1.
         25    2    1    2    0    0  0.49529969970E+02  0.38379343107E+02  0.10677230405E+03  0.17593173858E+03  0.12500183929E+03 0.  0.
          2    1    1    2  501    0 -0.44509201400E+02  0.22707746553E+02 -0.41773705462E+03  0.42071481738E+03  0.00000000000E+00 0. -1.
          1    1    1    2  502    0 -0.50207685697E+01 -0.61087089660E+02  0.38519038726E+03  0.39003650480E+03  0.00000000000E+00 0. -1.
         22    1    3    3    0    0  0.55125389777E+02  0.54126158366E+02  0.12763878544E+03  0.14919822105E+03  0.00000000000E+00 0.  1.
         22    1    3    3    0    0 -0.55954198074E+01 -0.15746815259E+02 -0.20866481391E+02  0.26733517525E+02  0.00000000000E+00 0.  1.
</event>
<event>
 7    1  0.6485470E-006  0.1141644E+03  0.7818608E-02  0.1327437E+00
          2   -1    0    0  502    0  0.00000000000E+00  0.00000000000E+00  0.11939117821E+04  0.11939117821E+04  0.00000000000E+00 0. -1.
          1   -1    0    0  501    0 -0.00000000000E+00 -0.00000000000E+00 -0.50806136726E+03  0.50806136726E+03  0.00000000000E+00 0. -1.
         25    2    1    2    0    0 -0.65041595967E+02  0.38543965423E+02  0.49511848826E+03  0.51622093949E+03  0.12500277789E+03 0.  0.
          2    1    1    2  501    0  0.11431585652E+03 -0.10162954296E+02 -0.48968970810E+03  0.50295865726E+03  0.00000000000E+00 0. -1.
          1    1    1    2  502    0 -0.49274260553E+02 -0.28381011127E+02  0.68042163469E+03  0.68279355262E+03  0.00000000000E+00 0. -1.
         22    1    3    3    0    0  0.13431170541E+02  0.28328179763E+02  0.26743959368E+02  0.41208269479E+02  0.00000000000E+00 0.  1.
         22    1    3    3    0    0 -0.78472766509E+02  0.10215785660E+02  0.46837452889E+03  0.47501267002E+03  0.00000000000E+00 0.  1.
</event>
<event>
 7    1  0.6485470E-006  0.5961392E+02  0.7818608E-02  0.1432595E+00
          2   -1    0    0  502    0  0.00000000000E+00  0.00000000000E+00  0.14976295741E+04  0.14976295741E+04  0.00000000000E+00 0. -1.
          1   -1    0    0  501    0 -0.00000000000E+00 -0.00000000000E+00 -0.34259829036E+03  0.34259829036E+03  0.00000000000E+00 0. -1.
         25    2    1    2    0    0  0.42928270282E+01  0.15688894952E+02  0.30151300307E+02  0.12961262911E+03  0.12500305167E+03 0.  0.
          2    1    1    2  501    0 -0.15504712142E+02  0.43450389682E+02 -0.29040712915E+03  0.29404869176E+03  0.00000000000E+00 0. -1.
          1    1    1    2  502    0  0.11211885114E+02 -0.59139284634E+02  0.14152871126E+04  0.14165665436E+04  0.00000000000E+00 0. -1.
         22    1    3    3    0    0  0.46363050936E+02 -0.15205944333E+02  0.53520922569E+02  0.72424045646E+02  0.00000000000E+00 0.  1.
         22    1    3    3    0    0 -0.42070223908E+02  0.30894839285E+02 -0.23369622262E+02  0.57188583465E+02  0.00000000000E+00 0.  1.
</event>
<event>
 7    1  0.6485470E-006  0.9147655E+02  0.7818608E-02  0.1349615E+00
          2   -1    0    0  502    0  0.00000000000E+00  0.00000000000E+00  0.41481252578E+02  0.41481252578E+02  0.00000000000E+00 0. -1.
          1   -1    0    0  501    0 -0.00000000000E+00 -0.00000000000E+00 -0.26122466776E+04  0.26122466776E+04  0.00000000000E+00 0. -1.
         25    2    1    2    0    0 -0.51515196144E+02 -0.29884967282E+02 -0.73578112048E+03  0.74869573838E+03  0.12499809882E+03 0.  0.
          2    1    1    2  501    0  0.99796838845E+02 -0.32112919975E+01 -0.18432174393E+04  0.18459198926E+04  0.00000000000E+00 0. -1.
          1    1    1    2  502    0 -0.48281642701E+02  0.33096259280E+02  0.82331348004E+01  0.59112299134E+02  0.00000000000E+00 0. -1.
         22    1    3    3    0    0 -0.73852260804E+02 -0.53241173491E+02 -0.35295509857E+03  0.36450799797E+03  0.00000000000E+00 0. -1.
         22    1    3    3    0    0  0.22337064660E+02  0.23356206209E+02 -0.38282602191E+03  0.38418774041E+03  0.00000000000E+00 0. -1.
</event>
<event>
 7    1  0.6485470E-006  0.7521681E+02  0.7818608E-02  0.1365390E+00
          2   -1    0    0  502    0  0.00000000000E+00  0.00000000000E+00  0.90451051199E+03  0.90451051199E+03  0.00000000000E+00 0. -1.
          1   -1    0    0  501    0 -0.00000000000E+00 -0.00000000000E+00 -0.92795880707E+03  0.92795880707E+03  0.00000000000E+00 0. -1.
         25    2    1    2    0    0  0.39874822409E+01 -0.33783059506E+02  0.19298172539E+03  0.23242719250E+03  0.12499303322E+03 0.  0.
          2    1    1    2  501    0 -0.54673875069E+02 -0.29909186330E+02 -0.90476609017E+03  0.90690984666E+03  0.00000000000E+00 0. -1.
          1    1    1    2  502    0  0.50686392828E+02  0.63692245836E+02  0.68833606970E+03  0.69313227991E+03  0.00000000000E+00 0. -1.
         22    1    3    3    0    0 -0.47189930302E+02 -0.13177806872E+02  0.23785830194E+02  0.54463839691E+02  0.00000000000E+00 0.  1.
         22    1    3    3    0    0  0.51177412543E+02 -0.20605252634E+02  0.16919589519E+03  0.17796335280E+03  0.00000000000E+00 0.  1.
</event>
<event>
 7    1  0.6485470E-006  0.6970517E+02  0.7818608E-02  0.1491660E+00
          2   -1    0    0  502    0  0.00000000000E+00  0.00000000000E+00  0.10552558870E+04  0.10552558870E+04  0.00000000000E+00 0. -1.
          1   -1    0    0  501    0 -0.00000000000E+00 -0.00000000000E+00 -0.41947042299E+03  0.41947042299E+03  0.00000000000E+00 0. -1.
         25    2    1    2    0    0  0.21375392638E+02 -0.72764119651E+02  0.41220005975E+03  0.43736180860E+03  0.12499975137E+03 0.  0.
          2    1    1    2  501    0  0.41443773967E+01  0.69569944295E+02 -0.40363976013E+03  0.40961226662E+03  0.00000000000E+00 0. -1.
          1    1    1    2  502    0 -0.25519770035E+02  0.31941753556E+01  0.62722516439E+03  0.62775223477E+03  0.00000000000E+00 0. -1.
         22    1    3    3    0    0 -0.25816912448E+02 -0.84834244062E+02  0.33099201511E+03  0.34266466990E+03  0.00000000000E+00 0.  1.
         22    1    3    3    0    0  0.47192305086E+02  0.12070124411E+02  0.81208044643E+02  0.94697138697E+02  0.00000000000E+00 0.  1.
</event>
<event>
 7    1  0.6485470E-006  0.8147222E+02  0.7818608E-02  0.1391989E+00
          2   -1    0    0  502    0  0.00000000000E+00  0.00000000000E+00  0.54455722257E+03  0.54455722257E+03  0.00000000000E+00 0. -1.
          1   -1    0    0  501    0 -0.00000000000E+00 -0.00000000000E+00 -0.35126159516E+03  0.35126159516E+03  0.00000000000E+00 0. -1.
         25    2    1    2    0    0  0.41327247034E+02 -0.50538569282E+02 -0.18457422753E+02  0.14222624611E+03  0.12500216117E+03 0.  0.
          2    1    1    2  501    0  0.37824677274E+02  0.26693462038E+02 -0.26536149552E+03  0.26936957963E+03  0.00000000000E+00 0. -1.
          1    1    1    2  502    0 -0.79151924308E+02  0.23845107244E+02  0.47711454568E+03  0.48422299198E+03  0.00000000000E+00 0. -1.
         22    1    3    3    0    0  0.38188379347E+01 -0.73292151660E+02 -0.49464277609E+02  0.88504450609E+02  0.00000000000E+00 0. -1.
         22    1    3    3    0    0  0.37508409099E+02  0.22753582379E+02  0.31006854856E+02  0.53721795505E+02  0.00000000000E+00 0. -1.
</event>
<event>
 7    1  0.6485470E-006  0.9153153E+02  0.7818608E-02  0.1303386E+00
          2   -1    0    0  502    0  0.00000000000E+00  0.00000000000E+00  0.76807325174E+03  0.76807325174E+03  0.00000000000E+00 0. -1.
          1   -1    0    0  501    0 -0.00000000000E+00 -0.00000000000E+00 -0.10965776726E+04  0.10965776726E+04  0.00000000000E+00 0. -1.
         25    2    1    2    0    0  0.66378550043E+02  0.42194429963E+01 -0.54167789027E+03  0.55987898572E+03  0.12500250490E+03 0.  0.
          2    1    1    2  501    0 -0.78977270774E+02 -0.91375384403E+02 -0.53650891200E+03  0.54993516238E+03  0.00000000000E+00 0. -1.
          1    1    1    2  502    0  0.12598720730E+02  0.87155941406E+02  0.74968238137E+03  0.75483677628E+03  0.00000000000E+00 0. -1.
         22    1    3    3    0    0 -0.37065482834E+02  0.85853218461E+01 -0.14215903617E+03  0.14716232308E+03  0.00000000000E+00 0. -1.
         22    1    3    3    0    0  0.10344403288E+03 -0.43658788498E+01 -0.39951885410E+03  0.41271666264E+03  0.00000000000E+00 0. -1.
</event>
<event>
 7    1  0.6485470E-006  0.1074673E+03  0.7818608E-02  0.1380790E+00
          2   -1    0    0  502    0  0.00000000000E+00  0.00000000000E+00  0.57044756719E+02  0.57044756719E+02  0.00000000000E+00 0. -1.
          1   -1    0    0  501    0 -0.00000000000E+00 -0.00000000000E+00 -0.14223861922E+04  0.14223861922E+04  0.00000000000E+00 0. -1.
         25    2    1    2    0    0  0.80446962013E+02 -0.53095387119E+02 -0.10386672729E+03  0.18895917832E+03  0.12500576068E+03 0.  0.
          2    1    1    2  501    0  0.17950612549E+02 -0.33968655076E+02 -0.96991983359E+03  0.97068047143E+03  0.00000000000E+00 0. -1.
          1    1    1    2  502    0 -0.98397574562E+02  0.87064042195E+02 -0.29155487459E+03  0.31979129916E+03  0.00000000000E+00 0. -1.
         22    1    3    3    0    0  0.75078709397E+02 -0.80524093355E+02 -0.11469673874E+03  0.15898516941E+03  0.00000000000E+00 0. -1.
         22    1    3    3    0    0  0.53682526160E+01  0.27428706236E+02  0.10830011450E+02  0.29974008906E+02  0.00000000000E+00 0. -1.
</event>
<event>
 7    1  0.6485470E-006  0.5420178E+02  0.7818608E-02  0.1457576E+00
          2   -1    0    0  502    0  0.00000000000E+00  0.00000000000E+00  0.14559919701E+04  0.14559919701E+04  0.00000000000E+00 0. -1.
          1   -1    0    0  501    0 -0.00000000000E+00 -0.00000000000E+00 -0.48892804810E+02  0.48892804810E+02  0.00000000000E+00 0. -1.
         25    2    1    2    0    0  0.77510749499E+01 -0.94918258029E+02  0.83936202024E+03  0.85394539304E+03  0.12499831362E+03 0.  0.
          2    1    1    2  501    0 -0.79743493679E+01  0.52762465944E+02 -0.23424372201E+02  0.58276661481E+02  0.00000000000E+00 0. -1.
          1    1    1    2  502    0  0.22327441798E+00  0.42155792085E+02  0.59116151722E+03  0.59266272035E+03  0.00000000000E+00 0. -1.
         22    1    3    3    0    0  0.64760826170E+02 -0.38158240412E+02  0.46510792443E+03  0.47114265067E+03  0.00000000000E+00 0. -1.
         22    1    3    3    0    0 -0.57009751221E+02 -0.56760017617E+02  0.37425409581E+03  0.38280274237E+03  0.00000000000E+00 0. -1.
</event>
<event>
 7    1  0.6485470E-006  0.1276726E+03  0.7818608E-02  0.1343062E+00
          2   -1    0    0  502    0  0.00000000000E+00  0.00000000000E+00  0.32072046819E+04  0.32072046819E+04  0.00000000000E+00 0. -1.
          1   -1    0    0  501    0 -0.00000000000E+00 -0.00000000000E+00 -0.44691460093E+02  0.44691460093E+02  0.00000000000E+00 0. -1.
         25    2    1    2    0    0 -0.47679730643E+02 -0.99485133461E+02  0.50464992631E+03  0.53147686449E+03  0.12500184348E+03 0.  0.
          2    1    1    2  501    0 -0.43864819023E+02  0.66517306769E+01 -0.13112400609E+02  0.46263407988E+02  0.00000000000E+00 0. -1.
          1    1    1    2  502    0  0.91544549666E+02  0.92833402784E+02  0.26709756961E+04  0.26741558695E+04  0.00000000000E+00 0. -1.
         22    1    3    3    0    0  0.33216637072E+02 -0.17729400257E+02  0.50511602489E+02  0.63000782518E+02  0.00000000000E+00 0.  1.
         22    1    3    3    0    0 -0.80896367715E+02 -0.81755733204E+02  0.45413832382E+03  0.46847608197E+03  0.00000000000E+00 0.  1.
</event>
<event>
 7    1  0.6485470E-006  0.7319145E+02  0.7818608E-02  0.1353160E+00
          2   -1    0    0  502    0  0.00000000000E+00  0.00000000000E+00  0.15205312751E+04  0.15205312751E+04  0.00000000000E+00 0. -1.
          1   -1    0    0  501    0 -0.00000000000E+00 -0.00000000000E+00 -0.40164214248E+03  0.40164214248E+03  0.00000000000E+00 0. -1.
         25    2    1    2    0    0 -0.57277028297E+02  0.10005879360E+02  0.46364889453E+03  0.48371067745E+03  0.12499978593E+03 0.  0.
          2    1    1    2  501    0  0.35597497719E+02  0.63951596861E+02 -0.38675580336E+03  0.39362042633E+03  0.00000000000E+00 0. -1.
          1    1    1    2  502    0  0.21679530578E+02 -0.73957476221E+02  0.10419960415E+04  0.10448423138E+04  0.00000000000E+00 0. -1.
         22    1    3    3    0    0 -0.30315785271E+02 -0.21041002326E+01  0.14642263508E+02  0.33732328040E+02  0.00000000000E+00 0.  1.
         22    1    3    3    0    0 -0.26961243026E+02  0.12109979592E+02  0.44900663102E+03  0.44997834941E+03  0.00000000000E+00 0.  1.
</event>
<event>
 7    1  0.6485470E-006  0.4224748E+03  0.7818608E-02  0.1187330E+00
          2   -1    0    0  502    0  0.00000000000E+00  0.00000000000E+00  0.10448444827E+03  0.10448444827E+03  0.00000000000E+00 0. -1.
          1   -1    0    0  501    0 -0.00000000000E+00 -0.00000000000E+00 -0.30681965171E+04  0.30681965171E+04  0.00000000000E+00 0. -1.
         25    2    1    2    0    0  0.59174147977E+02  0.46215144710E+03 -0.15175978146E+04  0.15924242913E+04  0.12500582712E+03 0.  0.
          2    1    1    2  501    0  0.10154088604E+01 -0.61511822823E+02 -0.89049471544E+03  0.89261726043E+03  0.00000000000E+00 0. -1.
          1    1    1    2  502    0 -0.60189556837E+02 -0.40063962427E+03 -0.55561953879E+03  0.68763941363E+03  0.00000000000E+00 0. -1.
         22    1    3    3    0    0 -0.19238212478E+02  0.12230315990E+03 -0.55351153247E+03  0.56718884714E+03  0.00000000000E+00 0. -1.
         22    1    3    3    0    0  0.78412360454E+02  0.33984828719E+03 -0.96408628213E+03  0.10252354442E+04  0.00000000000E+00 0. -1.
</event>
<event>
 7    1  0.6485470E-006  0.1169989E+03  0.7818608E-02  0.1335137E+00
          2   -1    0    0  502    0  0.00000000000E+00  0.00000000000E+00  0.18755427015E+04  0.18755427015E+04  0.00000000000E+00 0. -1.
          1   -1    0    0  501    0 -0.00000000000E+00 -0.00000000000E+00 -0.40473871928E+03  0.40473871928E+03  0.00000000000E+00 0. -1.
         25    2    1    2    0    0  0.71503217048E+01  0.83315609371E+02  0.56570617840E+03  0.58536299336E+03  0.12503493853E+03 0.  0.
          2    1    1    2  501    0  0.36101046680E+02 -0.11192772390E+03 -0.38562221459E+03  0.40315703309E+03  0.00000000000E+00 0. -1.
          1    1    1    2  502    0 -0.43251368385E+02  0.28612114532E+02  0.12907200184E+04  0.12917613943E+04  0.00000000000E+00 0. -1.
         22    1    3    3    0    0 -0.20580852475E+02  0.10364914076E+03  0.31367053743E+03  0.33099232909E+03  0.00000000000E+00 0. -1.
         22    1    3    3    0    0  0.27731174180E+02 -0.20333531387E+02  0.25203564097E+03  0.25437066427E+03  0.00000000000E+00 0. -1.
</event>
<event>
 7    1  0.6485470E-006  0.6170135E+02  0.7818608E-02  0.1472873E+00
          2   -1    0    0  502    0  0.00000000000E+00  0.00000000000E+00  0.98431207998E+03  0.98431207998E+03  0.00000000000E+00 0. -1.
          1   -1    0    0  501    0 -0.00000000000E+00 -0.00000000000E+00 -0.93268477384E+02  0.93268477384E+02  0.00000000000E+00 0. -1.
         25    2    1    2    0    0 -0.23002631043E+02 -0.82394182889E+02  0.63414042393E+03  0.65197924406E+03  0.12499974004E+03 0.  0.
          2    1    1    2  501    0  0.19813992122E+02  0.26595135982E+02 -0.78686168356E+02  0.85389745474E+02  0.00000000000E+00 0. -1.
          1    1    1    2  502    0  0.31886389211E+01  0.55799046907E+02  0.33558934701E+03  0.34021156783E+03  0.00000000000E+00 0. -1.
         22    1    3    3    0    0 -0.63063336694E+01 -0.58292053254E+02  0.61308442296E+03  0.61588167938E+03  0.00000000000E+00 0.  1.
         22    1    3    3    0    0 -0.16696297373E+02 -0.24102129635E+02  0.21056000971E+02  0.36097564679E+02  0.00000000000E+00 0.  1.
</event>
<event>
 7    1  0.6485470E-006  0.1245910E+03  0.7818608E-02  0.1260263E+00
          2   -1    0    0  502    0  0.00000000000E+00  0.00000000000E+00  0.33572385904E+04  0.33572385904E+04  0.00000000000E+00 0. -1.
          1   -1    0    0  501    0 -0.00000000000E+00 -0.00000000000E+00 -0.63674143950E+02  0.63674143950E+02  0.00000000000E+00 0. -1.
         25    2    1    2    0    0 -0.89637554800E+02  0.42580653687E+02  0.81044664011E+03  0.82601269768E+03  0.12500086788E+03 0.  0.
          2    1    1    2  501    0  0.44512805264E+02  0.86645360172E+02 -0.10095479117E+02  0.97932257048E+02  0.00000000000E+00 0. -1.
          1    1    1    2  502    0  0.45124749536E+02 -0.12922601386E+03  0.24932132854E+04  0.24969677796E+04  0.00000000000E+00 0. -1.
         22    1    3    3    0    0 -0.78208725617E+02  0.82219104458E+02  0.49265596465E+03  0.50555562049E+03  0.00000000000E+00 0. -1.
         22    1    3    3    0    0 -0.11428829183E+02 -0.39638450771E+02  0.31779067546E+03  0.32045707719E+03  0.00000000000E+00 0. -1.
</event>
<event>
 7    1  0.6485470E-006  0.8657853E+02  0.7818608E-02  0.1443832E+00
          2   -1    0    0  502    0  0.00000000000E+00  0.00000000000E+00  0.52744124656E+03  0.52744124656E+03  0.00000000000E+00 0. -1.
          1   -1    0    0  501    0 -0.00000000000E+00 -0.00000000000E+00 -0.81879614220E+03  0.81879614220E+03  0.00000000000E+00 0. -1.
         25    2    1    2    0    0  0.44416800965E+02  0.77565301080E+02 -0.37143836884E+03  0.40197462300E+03  0.12501162966E+03 0.  0.
          2    1    1    2  501    0  0.20755025100E+02 -0.20540710774E+02 -0.42792804703E+03  0.42892319277E+03  0.00000000000E+00 0. -1.
          1    1    1    2  502    0 -0.65171826065E+02 -0.57024590307E+02  0.50801152022E+03  0.51533957299E+03  0.00000000000E+00 0. -1.
         22    1    3    3    0    0  0.79021161407E+01  0.48594078337E+02 -0.34478151190E+03  0.34827879470E+03  0.00000000000E+00 0. -1.
         22    1    3    3    0    0  0.36514684824E+02  0.28971222743E+02 -0.26656856941E+02  0.53695828302E+02  0.00000000000E+00 0. -1.
</event>
<event>
 7    1  0.6485470E-006  0.4042548E+02  0.7818608E-02  0.1544765E+00
          2   -1    0    0  502    0  0.00000000000E+00  0.00000000000E+00  0.35650306321E+03  0.35650306321E+03  0.00000000000E+00 0. -1.
          1   -1    0    0  501    0 -0.00000000000E+00 -0.00000000000E+00 -0.67915520869E+03  0.67915520869E+03  0.00000000000E+00 0. -1.
         25    2    1    2    0    0 -0.40515956547E+02 -0.52618807232E+02 -0.37761220561E+03  0.40327225157E+03  0.12500899748E+03 0.  0.
          2    1    1    2  501    0  0.69016048582E+01  0.30285512466E+02 -0.28668638479E+03  0.28836422739E+03  0.00000000000E+00 0. -1.
          1    1    1    2  502    0  0.33614351689E+02  0.22333294766E+02  0.34164644492E+03  0.34402179294E+03  0.00000000000E+00 0. -1.
         22    1    3    3    0    0 -0.36806622916E+01 -0.43491525376E+02 -0.35781925492E+03  0.36047146800E+03  0.00000000000E+00 0.  1.
         22    1    3    3    0    0 -0.36835294255E+02 -0.91272818561E+01 -0.19792950698E+02  0.42800783571E+02  0.00000000000E+00 0.  1.
</event>
<event>
 7    1  0.6485470E-006  0.9379195E+02  0.7818608E-02  0.1341828E+00
          2   -1    0    0  502    0  0.00000000000E+00  0.00000000000E+00  0.26525674236E+03  0.26525674236E+03  0.00000000000E+00 0. -1.
          1   -1    0    0  501    0 -0.00000000000E+00 -0.00000000000E+00 -0.13871316929E+04  0.13871316929E+04  0.00000000000E+00 0. -1.
         25    2    1    2    0    0  0.85827678243E+02 -0.12438066723E+03 -0.16852947396E+03  0.25858035426E+03  0.12499870113E+03 0.  0.
          2    1    1    2  501    0 -0.43153967700E+02  0.80737396072E+02 -0.11675208707E+04  0.11711045109E+04  0.00000000000E+00 0. -1.
          1    1    1    2  502    0 -0.42673710542E+02  0.43643271154E+02  0.21417539410E+03  0.22270357008E+03  0.00000000000E+00 0. -1.
         22    1    3    3    0    0 -0.28424875519E+01 -0.63297587667E+02 -0.12928766650E+03  0.14397904378E+03  0.00000000000E+00 0. -1.
         22    1    3    3    0    0  0.88670165795E+02 -0.61083079559E+02 -0.39241807463E+02  0.11460131048E+03  0.00000000000E+00 0. -1.
</event>
<event>
 7    1  0.6485470E-006  0.3430910E+02  0.7818608E-02  0.1631284E+00
          2   -1    0    0  502    0  0.00000000000E+00  0.00000000000E+00  0.11635852427E+04  0.11635852427E+04  0.00000000000E+00 0. -1.
          1   -1    0    0  501    0 -0.00000000000E+00 -0.00000000000E+00 -0.13957496994E+03  0.13957496994E+03  0.00000000000E+00 0. -1.
         25    2    1    2    0    0 -0.14108050705E+02 -0.43421635499E+02  0.31340373369E+03  0.34048819103E+03  0.12500332962E+03 0.  0.
          2    1    1    2  501    0  0.19269992886E+02  0.96758330905E+01 -0.12475926280E+03  0.12660895714E+03  0.00000000000E+00 0. -1.
          1    1    1    2  502    0 -0.51619421810E+01  0.33745802408E+02  0.83536580183E+03  0.83606306443E+03  0.00000000000E+00 0. -1.
         22    1    3    3    0    0 -0.32137731500E+02 -0.48313417368E+02  0.50506569298E+02  0.76928106866E+02  0.00000000000E+00 0.  1.
         22    1    3    3    0    0  0.18029680795E+02  0.48917818694E+01  0.26289716439E+03  0.26356008416E+03  0.00000000000E+00 0.  1.
</event>
<event>
 7    1  0.6485470E-006  0.1366870E+03  0.7818608E-02  0.1380115E+00
          2   -1    0    0  502    0  0.00000000000E+00  0.00000000000E+00  0.24745106874E+03  0.24745106874E+03  0.00000000000E+00 0. -1.
          1   -1    0    0  501    0 -0.00000000000E+00 -0.00000000000E+00 -0.16660027552E+04  0.16660027552E+04  0.00000000000E+00 0. -1.
         25    2    1    2    0    0  0.15686238681E+03 -0.15149579315E+02  0.37229908951E+02  0.20456109875E+03  0.12499543533E+03 0.  0.
          2    1    1    2  501    0 -0.13604160529E+03 -0.69651034803E+01 -0.15775362669E+04  0.15834066138E+04  0.00000000000E+00 0. -1.
          1    1    1    2  502    0 -0.20820781521E+02  0.22114682795E+02  0.12175467148E+03  0.12548611145E+03  0.00000000000E+00 0. -1.
         22    1    3    3    0    0  0.92645417069E+02 -0.64389939482E+02  0.48595509883E+02  0.12284445934E+03  0.00000000000E+00 0. -1.
         22    1    3    3    0    0  0.64216969741E+02  0.49240360167E+02 -0.11365600932E+02  0.81716639411E+02  0.00000000000E+00 0. -1.
</event>
<event>
 7    1  0.6485470E-006  0.1300802E+03  0.7818608E-02  0.1259488E+00
          2   -1    0    0  502    0  0.00000000000E+00  0.00000000000E+00  0.21096479997E+04  0.21096479997E+04  0.00000000000E+00 0. -1.
          1   -1    0    0  501    0 -0.00000000000E+00 -0.00000000000E+00 -0.30716145422E+03  0.30716145422E+03  0.00000000000E+00 0. -1.
         25    2    1    2    0    0  0.13022453638E+03  0.11363343719E+03  0.73840118778E+03  0.76859143642E+03  0.12500197638E+03 0.  0.
          2    1    1    2  501    0 -0.12826851644E+03 -0.19640234993E+02 -0.27592435280E+03  0.30491441358E+03  0.00000000000E+00 0. -1.
          1    1    1    2  502    0 -0.19560199475E+01 -0.93993202194E+02  0.13400097105E+04  0.13433036039E+04  0.00000000000E+00 0. -1.
         22    1    3    3    0    0 -0.66464864429E+01  0.47489530069E+02  0.83600694226E+02  0.96376902437E+02  0.00000000000E+00 0.  1.
         22    1    3    3    0    0  0.13687102283E+03  0.66143907118E+02  0.65480049355E+03  0.67221453398E+03  0.00000000000E+00 0.  1.
</event>
<event>
 7    1  0.6485470E-006  0.6836337E+02  0.7818608E-02  0.1420954E+00
          2   -1    0    0  502    0  0.00000000000E+00  0.00000000000E+00  0.11013276771E+04  0.11013276771E+04  0.00000000000E+00 0. -1.
          1   -1    0    0  501    0 -0.00000000000E+00 -0.00000000000E+00 -0.82085899397E+02  0.82085899397E+02  0.00000000000E+00 0. -1.
         25    2    1    2    0    0  0.65308315143E+02 -0.50002852400E+02  0.54997972725E+03  0.56997240730E+03  0.12500153368E+03 0.  0.
          2    1    1    2  501    0 -0.23666737762E+02  0.64087101808E+02 -0.54774339610E+02  0.87564258543E+02  0.00000000000E+00 0. -1.
          1    1    1    2  502    0 -0.41641577381E+02 -0.14084249409E+02  0.52403639002E+03  0.52587691061E+03  0.00000000000E+00 0. -1.
         22    1    3    3    0    0 -0.78580403818E+01  0.35820516719E+02  0.14749815527E+03  0.15198869702E+03  0.00000000000E+00 0. -1.
         22    1    3    3    0    0  0.73166355525E+02 -0.85823369119E+02  0.40248157198E+03  0.41798371027E+03  0.00000000000E+00 0. -1.
</event>
<event>
 7    1  0.6485470E-006  0.1241190E+03  0.7818608E-02  0.1340144E+00
          2   -1    0    0  502    0  0.00000000000E+00  0.00000000000E+00  0.10495565541E+04  0.10495565541E+04  0.00000000000E+00 0. -1.
          1   -1    0    0  501    0 -0.00000000000E+00 -0.00000000000E+00 -0.47996744402E+03  0.47996744402E+03  0.00000000000E+00 0. -1.
         25    2    1    2    0    0  0.94426318957E+01 -0.15855936294E+03 -0.73511281035E+02  0.21507924583E+03  0.12499975470E+03 0.  0.
          2    1    1    2  501    0  0.24314749174E+02  0.39989989462E+02 -0.33013317714E+03  0.33343413283E+03  0.00000000000E+00 0. -1.
          1    1    1    2  502    0 -0.33757381070E+02  0.11856937348E+03  0.97323356828E+03  0.98101061948E+03  0.00000000000E+00 0. -1.
         22    1    3    3    0    0  0.45316843376E+02 -0.20465801604E+02 -0.49930611595E+02  0.70466526118E+02  0.00000000000E+00 0.  1.
         22    1    3    3    0    0 -0.35874211481E+02 -0.13809356134E+03 -0.23580669440E+02  0.14461271972E+03  0.00000000000E+00 0.  1.
</event>
<event>
 7    1  0.6485470E-006  0.1777219E+03  0.7818608E-02  0.1223823E+00
          2   -1    0    0  502    0  0.00000000000E+00  0.00000000000E+00  0.71479861506E+03  0.71479861506E+03  0.00000000000E+00 0. -1.
          1   -1    0    0  501    0 -0.00000000000E+00 -0.00000000000E+00 -0.10554398689E+04  0.10554398689E+04  0.00000000000E+00 0. -1.
         25    2    1    2    0    0 -0.54726166539E+02 -0.76618866509E+02 -0.46284198127E+02  0.16319493803E+03  0.12499982717E+03 0.  0.
          2    1    1    2  501    0  0.92702776605E+02  0.16777858899E+03 -0.93722925358E+03  0.95663061496E+03  0.00000000000E+00 0. -1.
          1    1    1    2  502    0 -0.37976610066E+02 -0.91159722476E+02  0.64287219790E+03  0.65041293095E+03  0.00000000000E+00 0. -1.
         22    1    3    3    0    0 -0.58289159346E+02  0.15050802452E+02 -0.37754836316E+02  0.71060399781E+02  0.00000000000E+00 0. -1.
         22    1    3    3    0    0  0.35629928074E+01 -0.91669668962E+02 -0.85293618112E+01  0.92134538248E+02  0.00000000000E+00 0. -1.
</event>
<event>
 7    1  0.6485470E-006  0.4865338E+02  0.7818608E-02  0.1527505E+00
          2   -1    0    0  502    0  0.00000000000E+00  0.00000000000E+00  0.90599750318E+03  0.90599750318E+03  0.00000000000E+00 0. -1.
          1   -1    0    0  501    0 -0.00000000000E+00 -0.00000000000E+00 -0.78666638157E+02  0.78666638157E+02  0.00000000000E+00 0. -1.
         25    2    1    2    0    0 -0.75415551241E+02  0.32806379627E+01  0.13876046823E+03  0.20143894954E+03  0.12499965958E+03 0.  0.
          2    1    1    2  501    0  0.46816429121E+02  0.84051623073E+00 -0.35386770937E+02  0.58691635354E+02  0.00000000000E+00 0. -1.
          1    1    1    2  502    0  0.28599122120E+02 -0.41211541934E+01  0.72395716773E+03  0.72453355644E+03  0.00000000000E+00 0. -1.
         22    1    3    3    0    0 -0.14442188661E+02  0.46170349120E+02  0.54259567111E+01  0.48679759217E+02  0.00000000000E+00 0.  1.
         22    1    3    3    0    0 -0.60973362580E+02 -0.42889711157E+02  0.13333451152E+03  0.15275919033E+03  0.00000000000E+00 0.  1.
</event>
<event>
 7    1  0.6714031E-006  0.1430865E+03  0.7818608E-02  0.1316044E+00
          2   -1    0    0  502    0  0.00000000000E+00  0.00000000000E+00  0.36648763688E+04  0.36648763688E+04  0.00000000000E+00 0. -1.
          1   -1    0    0  501    0 -0.00000000000E+00 -0.00000000000E+00 -0.94567205902E+03  0.94567205902E+03  0.00000000000E+00 0. -1.
         25    2    1    2    0    0  0.81765437142E+02  0.46602233940E+02 -0.37342830724E+03  0.40488458563E+03  0.12500188844E+03 0.  0.
          2    1    1    2  501    0  0.35932383807E+02  0.35080382623E+02 -0.55397332755E+03  0.55624474568E+03  0.00000000000E+00 0. -1.
          1    1    1    2  502    0 -0.11769782095E+03 -0.81682616563E+02  0.36466059446E+04  0.36494190965E+04  0.00000000000E+00 0. -1.
         22    1    3    3    0    0  0.34921194145E+02  0.71535716083E+02 -0.10779385757E+03  0.13400135897E+03  0.00000000000E+00 0. -1.
         22    1    3    3    0    0  0.46844242997E+02 -0.24933482143E+02 -0.26563444967E+03  0.27088322666E+03  0.00000000000E+00 0. -1.
</event>
<event>
 7    1  0.6485470E-006  0.1181577E+03  0.7818608E-02  0.1261687E+00
          2   -1    0    0  502    0  0.00000000000E+00  0.00000000000E+00  0.20403946755E+04  0.20403946755E+04  0.00000000000E+00 0. -1.
          1   -1    0    0  501    0 -0.00000000000E+00 -0.00000000000E+00 -0.12434097195E+04  0.12434097195E+04  0.00000000000E+00 0. -1.
         25    2    1    2    0    0  0.57581738480E+02  0.19992329845E+03  0.15425665830E+03  0.28757338517E+03  0.12497341060E+03 0.  0.
          2    1    1    2  501    0  0.31392654847E+01 -0.10124037704E+03 -0.11727214267E+04  0.11770875131E+04  0.00000000000E+00 0. -1.
          1    1    1    2  502    0 -0.60721003964E+02 -0.98682921409E+02  0.18154497244E+04  0.18191434966E+04  0.00000000000E+00 0. -1.
         22    1    3    3    0    0 -0.26560738010E+01  0.15146299134E+03  0.53678841768E+02  0.16071562005E+03  0.00000000000E+00 0.  1.
         22    1    3    3    0    0  0.60237812281E+02  0.48460307116E+02  0.10057781653E+03  0.12685776512E+03  0.00000000000E+00 0.  1.
</event>
<event>
 7    1  0.6485470E-006  0.2908808E+02  0.7818608E-02  0.1637152E+00
          2   -1    0    0  502    0  0.00000000000E+00  0.00000000000E+00  0.10113871344E+04  0.10113871344E+04  0.00000000000E+00 0. -1.
          1   -1    0    0  501    0 -0.00000000000E+00 -0.00000000000E+00 -0.18712676905E+03  0.18712676905E+03  0.00000000000E+00 0. -1.
         25    2    1    2    0    0  0.18728635606E+02  0.15212930310E+02  0.15470504295E+02  0.12824374614E+03  0.12499970752E+03 0.  0.
          2    1    1    2  501    0 -0.20286701967E+02  0.13893177023E+02 -0.12935574166E+03  0.13167185935E+03  0.00000000000E+00 0. -1.
          1    1    1    2  502    0  0.15580663603E+01 -0.29106107333E+02  0.93814560268E+03  0.93859829793E+03  0.00000000000E+00 0. -1.
         22    1    3    3    0    0  0.69312938749E+02  0.15168791302E+02 -0.99221604299E+01  0.71643736468E+02  0.00000000000E+00 0.  1.
         22    1    3    3    0    0 -0.50584303143E+02  0.44139007795E-01  0.25392664725E+02  0.56600009669E+02  0.00000000000E+00 0.  1.
</event>
<event>
 7    1  0.6485470E-006  0.5219830E+02  0.7818608E-02  0.1498676E+00
          2   -1    0    0  502    0  0.00000000000E+00  0.00000000000E+00  0.59892393089E+03  0.59892393089E+03  0.00000000000E+00 0. -1.
          1   -1    0    0  501    0 -0.00000000000E+00 -0.00000000000E+00 -0.30983861038E+03  0.30983861038E+03  0.00000000000E+00 0. -1.
         25    2    1    2    0    0 -0.29648698200E+00  0.31182443220E+02  0.29805940144E+03  0.32470899397E+03  0.12499636517E+03 0.  0.
          2    1    1    2  501    0 -0.30311434691E+02 -0.42741917731E+02 -0.29325322913E+03  0.29789781973E+03  0.00000000000E+00 0. -1.
          1    1    1    2  502    0  0.30607921673E+02  0.11559474510E+02  0.28427914820E+03  0.28615572757E+03  0.00000000000E+00 0. -1.
         22    1    3    3    0    0 -0.27569119897E+02  0.71013739351E+02  0.22117536018E+03  0.23392637196E+03  0.00000000000E+00 0. -1.
         22    1    3    3    0    0  0.27272632915E+02 -0.39831296131E+02  0.76884041264E+02  0.90782622008E+02  0.00000000000E+00 0. -1.
</event>
<event>
 7    1  0.6485470E-006  0.8922485E+02  0.7818608E-02  0.1440651E+00
          2   -1    0    0  502    0  0.00000000000E+00  0.00000000000E+00  0.83050340231E+03  0.83050340231E+03  0.00000000000E+00 0. -1.
          1   -1    0    0  501    0 -0.00000000000E+00 -0.00000000000E+00 -0.21928080070E+03  0.21928080070E+03  0.00000000000E+00 0. -1.
         25    2    1    2    0    0 -0.51844687467E+02  0.10402210794E+03  0.38263436555E+02  0.17492170069E+03  0.12500016094E+03 0.  0.
          2    1    1    2  501    0  0.18389896707E+02 -0.22441889838E+02 -0.14684198224E+03  0.14968097564E+03  0.00000000000E+00 0. -1.
          1    1    1    2  502    0  0.33454790760E+02 -0.81580218102E+02  0.71980114729E+03  0.72518152669E+03  0.00000000000E+00 0. -1.
         22    1    3    3    0    0 -0.45253931963E+02 -0.17448836204E+02  0.17206980500E+02  0.51463194819E+02  0.00000000000E+00 0.  1.
         22    1    3    3    0    0 -0.65907555035E+01  0.12147094414E+03  0.21056456055E+02  0.12345850587E+03  0.00000000000E+00 0.  1.
</event>
<event>
 7    1  0.6485470E-006  0.6086995E+02  0.7818608E-02  0.1511716E+00
          2   -1    0    0  502    0  0.00000000000E+00  0.00000000000E+00  0.11123448651E+04  0.11123448651E+04  0.00000000000E+00 0. -1.
          1   -1    0    0  501    0 -0.00000000000E+00 -0.00000000000E+00 -0.18069713147E+02  0.18069713147E+02  0.00000000000E+00 0. -1.
         25    2    1    2    0    0 -0.23673593437E+02  0.38916540497E+02  0.40599233099E+03  0.42723567938E+03  0.12500246704E+03 0.  0.
          2    1    1    2  501    0 -0.25653092608E+02  0.88917303327E+00  0.21764868763E+02  0.33653845268E+02  0.00000000000E+00 0. -1.
          1    1    1    2  502    0  0.49326686045E+02 -0.39805713530E+02  0.66651795220E+03  0.66952505359E+03  0.00000000000E+00 0. -1.
         22    1    3    3    0    0  0.16847439787E+02  0.16056741740E+02  0.36344580317E+03  0.36419020720E+03  0.00000000000E+00 0.  1.
         22    1    3    3    0    0 -0.40521033224E+02  0.22859798757E+02  0.42546527822E+02  0.63045472180E+02  0.00000000000E+00 0.  1.
</event>
<event>
 7    1  0.6485470E-006  0.7185381E+02  0.7818608E-02  0.1417901E+00
          2   -1    0    0  502    0  0.00000000000E+00  0.00000000000E+00  0.82976572906E+03  0.82976572906E+03  0.00000000000E+00 0. -1.
          1   -1    0    0  501    0 -0.00000000000E+00 -0.00000000000E+00 -0.87809269327E+03  0.87809269327E+03  0.00000000000E+00 0. -1.
         25    2    1    2    0    0 -0.32800736230E+02 -0.10800407323E+02  0.43230374871E+02  0.13669758293E+03  0.12499930709E+03 0.  0.
          2    1    1    2  501    0 -0.24397609680E+02 -0.35187231597E+02 -0.82898494075E+03  0.83009000513E+03  0.00000000000E+00 0. -1.
          1    1    1    2  502    0  0.57198345910E+02  0.45987638920E+02  0.73742760167E+03  0.74107083427E+03  0.00000000000E+00 0. -1.
         22    1    3    3    0    0 -0.41504277859E+00 -0.64489806628E+02  0.85800412861E+01  0.65059392311E+02  0.00000000000E+00 0.  1.
         22    1    3    3    0    0 -0.32385693452E+02  0.53689399305E+02  0.34650333585E+02  0.71638190622E+02  0.00000000000E+00 0.  1.
</event>
<event>
 7    1  0.6485470E-006  0.1089644E+03  0.7818608E-02  0.1415486E+00
          2   -1    0    0  502    0  0.00000000000E+00  0.00000000000E+00  0.40223945450E+03  0.40223945450E+03  0.00000000000E+00 0. -1.
          1   -1    0    0  501    0 -0.00000000000E+00 -0.00000000000E+00 -0.12169737112E+04  0.12169737112E+04  0.00000000000E+00 0. -1.
         25    2    1    2    0    0 -0.86472220690E+02 -0.35806227092E+01 -0.73136819737E+02  0.16871349478E+03  0.12499993244E+03 0.  0.
          2    1    1    2  501    0 -0.23381628048E+02  0.16758639138E+02 -0.10872195150E+04  0.10876000304E+04  0.00000000000E+00 0. -1.
          1    1    1    2  502    0  0.10985384874E+03 -0.13178016428E+02  0.34562207804E+03  0.36289964044E+03  0.00000000000E+00 0. -1.
         22    1    3    3    0    0 -0.48056588865E+02 -0.32931311299E+01  0.31293041826E+02  0.57441578258E+02  0.00000000000E+00 0.  1.
         22    1    3    3    0    0 -0.38415631825E+02 -0.28749157927E+00 -0.10442986156E+03  0.11127191652E+03  0.00000000000E+00 0.  1.
</event>
<event>
 7    1  0.6485470E-006  0.8175098E+02  0.7818608E-02  0.1405730E+00
          2   -1    0    0  502    0  0.00000000000E+00  0.00000000000E+00  0.35345456713E+03  0.35345456713E+03  0.00000000000E+00 0. -1.
          1   -1    0    0  501    0 -0.00000000000E+00 -0.00000000000E+00 -0.21673732780E+03  0.21673732780E+03  0.00000000000E+00 0. -1.
         25    2    1    2    0    0  0.50448377174E+02  0.13947879015E+02 -0.33436347364E+02  0.13958002806E+03  0.12500005128E+03 0.  0.
          2    1    1    2  501    0 -0.90833778933E+02 -0.49598925149E+01 -0.11265200953E+03  0.14479589490E+03  0.00000000000E+00 0. -1.
          1    1    1    2  502    0  0.40385401759E+02 -0.89879864997E+01  0.28280559622E+03  0.28581597197E+03  0.00000000000E+00 0. -1.
         22    1    3    3    0    0  0.51867610686E+02 -0.42015022662E+02  0.11577409474E+02  0.67746199729E+02  0.00000000000E+00 0. -1.
         22    1    3    3    0    0 -0.14192335124E+01  0.55962901677E+02 -0.45013756839E+02  0.71833828330E+02  0.00000000000E+00 0. -1.
</event>
<event>
 7    1  0.6485470E-006  0.6805869E+02  0.7818608E-02  0.1376881E+00
          2   -1    0    0  502    0  0.00000000000E+00  0.00000000000E+00  0.28992855570E+04  0.28992855570E+04  0.00000000000E+00 0. -1.
          1   -1    0    0  501    0 -0.00000000000E+00 -0.00000000000E+00 -0.11111483434E+02  0.11111483434E+02  0.00000000000E+00 0. -1.
         25    2    1    2    0    0 -0.58091480380E+02  0.35791031386E+01  0.77582545622E+03  0.78798268269E+03  0.12499655843E+03 0.  0.
          2    1    1    2  501    0  0.40034935686E+02  0.62040612657E+02  0.30593182617E+03  0.31471592899E+03  0.00000000000E+00 0. -1.
          1    1    1    2  502    0  0.18056544695E+02 -0.65619715796E+02  0.18064167912E+04  0.18076984287E+04  0.00000000000E+00 0. -1.
         22    1    3    3    0    0  0.18877938740E+02 -0.56426898085E+01  0.19590659040E+02  0.27785075867E+02  0.00000000000E+00 0. -1.
         22    1    3    3    0    0 -0.76969419120E+02  0.92217929471E+01  0.75623479718E+03  0.76019760682E+03  0.00000000000E+00 0. -1.
</event>
<event>
 7    1  0.6485470E-006  0.7677132E+02  0.7818608E-02  0.1495648E+00
          2   -1    0    0  502    0  0.00000000000E+00  0.00000000000E+00  0.41146133515E+03  0.41146133515E+03  0.00000000000E+00 0. -1.
          1   -1    0    0  501    0 -0.00000000000E+00 -0.00000000000E+00 -0.24301289118E+03  0.24301289118E+03  0.00000000000E+00 0. -1.
         25    2    1    2    0    0 -0.74847254524E+02  0.50441270996E+02  0.34013426332E+02  0.15788224184E+03  0.12499382300E+03 0.  0.
          2    1    1    2  501    0  0.52527105995E+02 -0.54658310274E+02 -0.17270676736E+03  0.18861138682E+03  0.00000000000E+00 0. -1.
          1    1    1    2  502    0  0.22320148529E+02  0.42170392783E+01  0.30714178500E+03  0.30798059767E+03  0.00000000000E+00 0. -1.
         22    1    3    3    0    0 -0.95769830574E+02  0.12367372368E+02 -0.87017779543E+01  0.96956347327E+02  0.00000000000E+00 0. -1.
         22    1    3    3    0    0  0.20922576050E+02  0.38073898627E+02  0.42715204286E+02  0.60925894515E+02  0.00000000000E+00 0. -1.
</event>
<event>
 7    1  0.6485470E-006  0.6339266E+02  0.7818608E-02  0.1474421E+00
          2   -1    0    0  502    0  0.00000000000E+00  0.00000000000E+00  0.14574860090E+04  0.14574860090E+04  0.00000000000E+00 0. -1.
          1   -1    0    0  501    0 -0.00000000000E+00 -0.00000000000E+00 -0.13709473633E+04  0.13709473633E+04  0.00000000000E+00 0. -1.
         25    2    1    2    0    0 -0.63719694733E+02 -0.21703372165E+02  0.15343494692E+03  0.20903707245E+03  0.12499191519E+03 0.  0.
          2    1    1    2  501    0  0.62582926295E+02 -0.10202057416E+02 -0.13421980409E+04  0.13436950121E+04  0.00000000000E+00 0. -1.
          1    1    1    2  502    0  0.11367684380E+01  0.31905429580E+02  0.12753017396E+04  0.12757012878E+04  0.00000000000E+00 0. -1.
         22    1    3    3    0    0  0.22393485266E+02  0.32461721267E+02  0.33301999742E+02  0.51616419062E+02  0.00000000000E+00 0. -1.
         22    1    3    3    0    0 -0.86113179999E+02 -0.54165093431E+02  0.12013294718E+03  0.15742065339E+03  0.00000000000E+00 0. -1.
</event>
<event>
 7    1  0.6485470E-006  0.9149757E+02  0.7818608E-02  0.1476801E+00
          2   -1    0    0  502    0  0.00000000000E+00  0.00000000000E+00  0.54443715658E+03  0.54443715658E+03  0.00000000000E+00 0. -1.
          1   -1    0    0  501    0 -0.00000000000E+00 -0.00000000000E+00 -0.56364159084E+03  0.56364159084E+03  0.00000000000E+00 0. -1.
         25    2    1    2    0    0 -0.16892010058E+02  0.82753161396E+02 -0.38574217767E+03  0.41419292264E+03  0.12500129524E+03 0.  0.
          2    1    1    2  501    0  0.19893953023E+02  0.87875193341E+01 -0.15897277865E+03  0.16045352665E+03  0.00000000000E+00 0. -1.
          1    1    1    2  502    0 -0.30019429657E+01 -0.91540680730E+02  0.52551052205E+03  0.53343229812E+03  0.00000000000E+00 0. -1.
         22    1    3    3    0    0  0.26380065316E+01  0.60431967191E+02 -0.53875013691E+02  0.81003079184E+02  0.00000000000E+00 0.  1.
         22    1    3    3    0    0 -0.19530016589E+02  0.22321194204E+02 -0.33186716398E+03  0.33318984346E+03  0.00000000000E+00 0.  1.
</event>
<event>
 7    1  0.6485470E-006  0.1635042E+03  0.7818608E-02  0.1213646E+00
          2   -1    0    0  502    0  0.00000000000E+00  0.00000000000E+00  0.11662691514E+04  0.11662691514E+04  0.00000000000E+00 0. -1.
          1   -1    0    0  501    0 -0.00000000000E+00 -0.00000000000E+00 -0.46817551786E+03  0.46817551786E+03  0.00000000000E+00 0. -1.
         25    2    1    2    0    0  0.48580033912E+02 -0.95808998108E+02 -0.36709187327E+03  0.40239398420E+03  0.12500036517E+03 0.  0.
          2    1    1    2  501    0 -0.10347554037E+03 -0.59719014641E+02 -0.31079426277E+02  0.12344828433E+03  0.00000000000E+00 0. -1.
          1    1    1    2  502    0  0.54895506463E+02  0.15552801275E+03  0.10962649331E+04  0.11086024008E+04  0.00000000000E+00 0. -1.
         22    1    3    3    0    0 -0.13582838391E+02  0.25249622554E+02 -0.68059227103E+02  0.73851847179E+02  0.00000000000E+00 0. -1.
         22    1    3    3    0    0  0.62162872303E+02 -0.12105862066E+03 -0.29903264617E+03  0.32854213703E+03  0.00000000000E+00 0. -1.
</event>
<event>
 7    1  0.6485470E-006  0.1335913E+03  0.7818608E-02  0.1307120E+00
          2   -1    0    0  502    0  0.00000000000E+00  0.00000000000E+00  0.25846712334E+03  0.25846712334E+03  0.00000000000E+00 0. -1.
          1   -1    0    0  501    0 -0.00000000000E+00 -0.00000000000E+00 -0.61085754485E+03  0.61085754485E+03  0.00000000000E+00 0. -1.
         25    2    1    2    0    0  0.11305855287E+03  0.31104968017E+02  0.35849023137E+02  0.17509897376E+03  0.12499897095E+03 0.  0.
          2    1    1    2  501    0 -0.10295336686E+03 -0.88534175014E+02 -0.52673485874E+03  0.54395524384E+03  0.00000000000E+00 0. -1.
          1    1    1    2  502    0 -0.10105186010E+02  0.57429206997E+02  0.13849541409E+03  0.15027045060E+03  0.00000000000E+00 0. -1.
         22    1    3    3    0    0  0.16485834518E+02  0.61737749756E+02 -0.85732356767E+01  0.64473505059E+02  0.00000000000E+00 0.  1.
         22    1    3    3    0    0  0.96572718351E+02 -0.30632781738E+02  0.44422258813E+02  0.11062546870E+03  0.00000000000E+00 0.  1.
</event>
<event>
 7    1  0.6485470E-006  0.7283830E+02  0.7818608E-02  0.1433445E+00
          2   -1    0    0  502    0  0.00000000000E+00  0.00000000000E+00  0.28868271240E+04  0.28868271240E+04  0.00000000000E+00 0. -1.
          1   -1    0    0  501    0 -0.00000000000E+00 -0.00000000000E+00 -0.54398692508E+02  0.54398692508E+02  0.00000000000E+00 0. -1.
         25    2    1    2    0    0  0.52383873870E+02 -0.62437536544E+02  0.10579551581E+03  0.18292656127E+03  0.12500767752E+03 0.  0.
          2    1    1    2  501    0 -0.36504888050E+02 -0.86535621050E+01  0.75847906069E+01  0.38275580168E+02  0.00000000000E+00 0. -1.
          1    1    1    2  502    0 -0.15878985819E+02  0.71091098649E+02  0.27190481251E+04  0.27200236751E+04  0.00000000000E+00 0. -1.
         22    1    3    3    0    0  0.61204205521E+02 -0.87839917223E+02  0.11241015479E+03  0.15523481803E+03  0.00000000000E+00 0.  1.
         22    1    3    3    0    0 -0.88203316515E+01  0.25402380678E+02 -0.66146389714E+01  0.27691743233E+02  0.00000000000E+00 0.  1.
</event>
<event>
 7    1  0.6485470E-006  0.4522018E+02  0.7818608E-02  0.1484855E+00
          2   -1    0    0  502    0  0.00000000000E+00  0.00000000000E+00  0.11180716781E+03  0.11180716781E+03  0.00000000000E+00 0. -1.
          1   -1    0    0  501    0 -0.00000000000E+00 -0.00000000000E+00 -0.89555801591E+03  0.89555801591E+03  0.00000000000E+00 0. -1.
         25    2    1    2    0    0  0.31758768757E+02  0.34732237369E+02 -0.16503486675E+03  0.21230929223E+03  0.12499512237E+03 0.  0.
          2    1    1    2  501    0  0.85434619606E+01 -0.44937025892E+02 -0.70119818864E+03  0.70268857027E+03  0.00000000000E+00 0. -1.
          1    1    1    2  502    0 -0.40302230717E+02  0.10204788523E+02  0.82482207296E+02  0.92367321223E+02  0.00000000000E+00 0. -1.
         22    1    3    3    0    0 -0.22115456767E+02 -0.14693518642E+02 -0.12728894691E+03  0.13002872345E+03  0.00000000000E+00 0.  1.
         22    1    3    3    0    0  0.53874225524E+02  0.49425756011E+02 -0.37745919845E+02  0.82280568775E+02  0.00000000000E+00 0.  1.
</event>
<event>
 7    1  0.6485470E-006  0.9167098E+02  0.7818608E-02  0.1351530E+00
          2   -1    0    0  502    0  0.00000000000E+00  0.00000000000E+00  0.50879034843E+03  0.50879034843E+03  0.00000000000E+00 0. -1.
          1   -1    0    0  501    0 -0.00000000000E+00 -0.00000000000E+00 -0.27526565519E+03  0.27526565519E+03  0.00000000000E+00 0. -1.
         25    2    1    2    0    0 -0.42163341164E+02  0.11130781939E+03  0.11080297694E+03  0.20510971756E+03  0.12500207415E+03 0.  0.
          2    1    1    2  501    0  0.68149811991E+02 -0.60052628320E+02 -0.21655691353E+03  0.23483528662E+03  0.00000000000E+00 0. -1.
          1    1    1    2  502    0 -0.25986470826E+02 -0.51255191071E+02  0.33927862982E+03  0.34411099944E+03  0.00000000000E+00 0. -1.
         22    1    3    3    0    0  0.43180031119E+02  0.37019657603E+02  0.20904071193E+02  0.60596619781E+02  0.00000000000E+00 0. -1.
         22    1    3    3    0    0 -0.85343372284E+02  0.74288161789E+02  0.89898905751E+02  0.14451309778E+03  0.00000000000E+00 0. -1.
</event>
<event>
 7    1  0.6485470E-006  0.1621998E+03  0.7818608E-02  0.1339373E+00
          2   -1    0    0  502    0  0.00000000000E+00  0.00000000000E+00  0.18995942427E+04  0.18995942427E+04  0.00000000000E+00 0. -1.
          1   -1    0    0  501    0 -0.00000000000E+00 -0.00000000000E+00 -0.11192196742E+03  0.11192196742E+03  0.00000000000E+00 0. -1.
         25    2    1    2    0    0 -0.27823842742E+02  0.14378225866E+03  0.76856039141E+02  0.20730671018E+03  0.12498686812E+03 0.  0.
          2    1    1    2  501    0  0.41077984324E+02 -0.17731144004E+03  0.13164488069E+03  0.22462662838E+03  0.00000000000E+00 0. -1.
          1    1    1    2  502    0 -0.13254141582E+02  0.33529181383E+02  0.15791713555E+04  0.15795828716E+04  0.00000000000E+00 0. -1.
         22    1    3    3    0    0 -0.23404438512E+02  0.16676528295E+03  0.73191029008E+02  0.18361741221E+03  0.00000000000E+00 0. -1.
         22    1    3    3    0    0 -0.44194042299E+01 -0.22983024285E+02  0.36650101324E+01  0.23689297970E+02  0.00000000000E+00 0. -1.
</event>
<event>
 7    1  0.7223675E-006  0.1826809E+03  0.7818608E-02  0.1186341E+00
          2   -1    0    0  502    0  0.00000000000E+00  0.00000000000E+00  0.18433991283E+04  0.18433991283E+04  0.00000000000E+00 0. -1.
          1   -1    0    0  501    0 -0.00000000000E+00 -0.00000000000E+00 -0.11326786238E+04  0.11326786238E+04  0.00000000000E+00 0. -1.
         25    2    1    2    0    0  0.65848809133E+02 -0.10108532779E+03 -0.33825139105E+03  0.38025645377E+03  0.12500663153E+03 0.  0.
          2    1    1    2  501    0 -0.12352106651E+03 -0.73716924399E+02 -0.76203058179E+03  0.77548839217E+03  0.00000000000E+00 0. -1.
          1    1    1    2  502    0  0.57672257379E+02  0.17480225219E+03  0.18110024773E+04  0.18203329062E+04  0.00000000000E+00 0. -1.
         22    1    3    3    0    0  0.32746375340E+02 -0.81299940296E+02 -0.78511638120E+02  0.11766937881E+03  0.00000000000E+00 0.  1.
         22    1    3    3    0    0  0.33102433792E+02 -0.19785387497E+02 -0.25973975293E+03  0.26258707495E+03  0.00000000000E+00 0.  1.
</event>
<event>
 7    1  0.7702280E-006  0.4988892E+02  0.7818608E-02  0.1452216E+00
          2   -1    0    0  502    0  0.00000000000E+00  0.00000000000E+00  0.21323969215E+04  0.21323969215E+04  0.00000000000E+00 0. -1.
          1   -1    0    0  501    0 -0.00000000000E+00 -0.00000000000E+00 -0.88823928304E+03  0.88823928304E+03  0.00000000000E+00 0. -1.
         25    2    1    2    0    0 -0.17549109331E+02 -0.48557588212E+02 -0.13737155550E+03  0.19277105537E+03  0.12499569958E+03 0.  0.
          2    1    1    2  501    0  0.48907732953E+02  0.12703996832E+02 -0.72201533893E+03  0.72378139485E+03  0.00000000000E+00 0. -1.
          1    1    1    2  502    0 -0.31358623622E+02  0.35853591381E+02  0.21035445329E+04  0.21040837543E+04  0.00000000000E+00 0. -1.
         22    1    3    3    0    0 -0.36186739876E+01 -0.70307721577E+01 -0.14758360731E+03  0.14779528986E+03  0.00000000000E+00 0. -1.
         22    1    3    3    0    0 -0.13930435343E+02 -0.41526816055E+02  0.10212051807E+02  0.44975765503E+02  0.00000000000E+00 0. -1.
</event>
<event>
 7    1  0.6485470E-006  0.2993102E+03  0.7818608E-02  0.1292093E+00
          2   -1    0    0  502    0  0.00000000000E+00  0.00000000000E+00  0.20027985640E+04  0.20027985640E+04  0.00000000000E+00 0. -1.
          1   -1    0    0  501    0 -0.00000000000E+00 -0.00000000000E+00 -0.18264060545E+03  0.18264060545E+03  0.00000000000E+00 0. -1.
         25    2    1    2    0    0 -0.21805319863E+03 -0.16818655129E+03  0.67340052213E+03  0.73819053297E+03  0.12499234497E+03 0.  0.
          2    1    1    2  501    0  0.24526727785E+03  0.18056168297E+03  0.44960346957E+01  0.30459608217E+03  0.00000000000E+00 0. -1.
          1    1    1    2  502    0 -0.27214079221E+02 -0.12375131688E+02  0.11422614017E+04  0.11426525543E+04  0.00000000000E+00 0. -1.
         22    1    3    3    0    0 -0.10890801362E+03 -0.12112401453E+03  0.24967517933E+03  0.29811017678E+03  0.00000000000E+00 0. -1.
         22    1    3    3    0    0 -0.10914518501E+03 -0.47062536755E+02  0.42372534280E+03  0.44008035619E+03  0.00000000000E+00 0. -1.
</event>
<event>
 7    1  0.6485470E-006  0.1613117E+03  0.7818608E-02  0.1261143E+00
          2   -1    0    0  502    0  0.00000000000E+00  0.00000000000E+00  0.23598125383E+04  0.23598125383E+04  0.00000000000E+00 0. -1.
          1   -1    0    0  501    0 -0.00000000000E+00 -0.00000000000E+00 -0.16141012689E+04  0.16141012689E+04  0.00000000000E+00 0. -1.
         25    2    1    2    0    0 -0.50641337163E+02  0.11628198490E+03  0.62029282055E+03  0.64534834544E+03  0.12500103479E+03 0.  0.
          2    1    1    2  501    0  0.12412831145E+03 -0.10350516248E+03 -0.15966867361E+04  0.16048456903E+04  0.00000000000E+00 0. -1.
          1    1    1    2  502    0 -0.73486974284E+02 -0.12776822420E+02  0.17221051850E+04  0.17237197715E+04  0.00000000000E+00 0. -1.
         22    1    3    3    0    0 -0.41199292237E+02  0.38455463471E+01  0.54574302204E+02  0.68487402992E+02  0.00000000000E+00 0.  1.
         22    1    3    3    0    0 -0.94420449258E+01  0.11243643855E+03  0.56571851835E+03  0.57686094245E+03  0.00000000000E+00 0.  1.
</event>
<event>
 7    1  0.6485470E-006  0.2487396E+02  0.7818608E-02  0.1673132E+00
          2   -1    0    0  502    0  0.00000000000E+00  0.00000000000E+00  0.27613496326E+04  0.27613496326E+04  0.00000000000E+00 0. -1.
          1   -1    0    0  501    0 -0.00000000000E+00 -0.00000000000E+00 -0.24610900336E+02  0.24610900336E+02  0.00000000000E+00 0. -1.
         25    2    1    2    0    0 -0.14981716323E+02  0.76430286771E+00  0.13497441977E+04  0.13556059456E+04  0.12503217406E+03 0.  0.
          2    1    1    2  501    0  0.28671768902E+01 -0.23321437980E+02 -0.15162061942E+02  0.27964232425E+02  0.00000000000E+00 0. -1.
          1    1    1    2  502    0  0.12114539433E+02  0.22557135112E+02  0.14021565965E+04  0.14023903549E+04  0.00000000000E+00 0. -1.
         22    1    3    3    0    0 -0.49152929864E+01  0.44426673621E+02  0.11512412480E+04  0.11521086322E+04  0.00000000000E+00 0. -1.
         22    1    3    3    0    0 -0.10066423337E+02 -0.43662370753E+02  0.19850294972E+03  0.20349731337E+03  0.00000000000E+00 0. -1.
</event>
<event>
 7    1  0.6485470E-006  0.9139484E+02  0.7818608E-02  0.1412435E+00
          2   -1    0    0  502    0  0.00000000000E+00  0.00000000000E+00  0.16950734244E+03  0.16950734244E+03  0.00000000000E+00 0. -1.
          1   -1    0    0  501    0 -0.00000000000E+00 -0.00000000000E+00 -0.15448513369E+04  0.15448513369E+04  0.00000000000E+00 0. -1.
         25    2    1    2    0    0  0.52533068941E+02  0.10084268760E+03 -0.86849495097E+01  0.16920293498E+03  0.12500093552E+03 0.  0.
          2    1    1    2  501    0 -0.30730263251E+02 -0.16999355489E+02 -0.14346187790E+04  0.14350485596E+04  0.00000000000E+00 0. -1.
          1    1    1    2  502    0 -0.21802805690E+02 -0.83843332115E+02  0.67959734113E+02  0.11010718477E+03  0.00000000000E+00 0. -1.
         22    1    3    3    0    0  0.22119013748E+02  0.12576375623E+03  0.43796760292E+01  0.12776914617E+03  0.00000000000E+00 0.  1.
         22    1    3    3    0    0  0.30414055193E+02 -0.24921068626E+02 -0.13064625539E+02  0.41433788811E+02  0.00000000000E+00 0.  1.
</event>
<event>
 7    1  0.6485470E-006  0.9149955E+02  0.7818608E-02  0.1345288E+00
          2   -1    0    0  502    0  0.00000000000E+00  0.00000000000E+00  0.10040863314E+04  0.10040863314E+04  0.00000000000E+00 0. -1.
          1   -1    0    0  501    0 -0.00000000000E+00 -0.00000000000E+00 -0.24736878443E+04  0.24736878443E+04  0.00000000000E+00 0. -1.
         25    2    1    2    0    0 -0.63081274323E+02  0.38831679554E+02  0.30469937861E+03  0.33756747448E+03  0.12499176771E+03 0.  0.
          2    1    1    2  501    0  0.29094652142E+02  0.53308130187E+02 -0.24533455071E+04  0.24540970707E+04  0.00000000000E+00 0. -1.
          1    1    1    2  502    0  0.33986622181E+02 -0.92139809740E+02  0.67904461556E+03  0.68610963041E+03  0.00000000000E+00 0. -1.
         22    1    3    3    0    0 -0.64830992607E+02  0.79788936661E+02  0.19467073245E+03  0.22015000815E+03  0.00000000000E+00 0. -1.
         22    1    3    3    0    0  0.17497182842E+01 -0.40957257107E+02  0.11002864616E+03  0.11741746633E+03  0.00000000000E+00 0. -1.
</event>
<event>
 7    1  0.6485470E-006  0.1214425E+03  0.7818608E-02  0.1366843E+00
          2   -1    0    0  502    0  0.00000000000E+00  0.00000000000E+00  0.16201969194E+04  0.16201969194E+04  0.00000000000E+00 0. -1.
          1   -1    0    0  501    0 -0.00000000000E+00 -0.00000000000E+00 -0.24733330472E+03  0.24733330472E+03  0.00000000000E+00 0. -1.
         25    2    1    2    0    0  0.97264893277E+02 -0.60409851199E+02  0.14071032093E+03  0.22030587791E+03  0.12500190335E+03 0.  0.
          2    1    1    2  501    0 -0.11914154171E+03  0.29174379948E+02 -0.18913298394E+03  0.22542656680E+03  0.00000000000E+00 0. -1.
          1    1    1    2  502    0  0.21876648429E+02  0.31235471251E+02  0.14212862777E+04  0.14217977794E+04  0.00000000000E+00 0. -1.
         22    1    3    3    0    0  0.11640896922E+03 -0.34635486339E+02  0.14359573113E+03  0.18807019707E+03  0.00000000000E+00 0.  1.
         22    1    3    3    0    0 -0.19144075938E+02 -0.25774364860E+02 -0.28854101963E+01  0.32235680843E+02  0.00000000000E+00 0.  1.
</event>
<event>
 7    1  0.6485470E-006  0.8556532E+02  0.7818608E-02  0.1411155E+00
          2   -1    0    0  502    0  0.00000000000E+00  0.00000000000E+00  0.16641311534E+04  0.16641311534E+04  0.00000000000E+00 0. -1.
          1   -1    0    0  501    0 -0.00000000000E+00 -0.00000000000E+00 -0.59219884541E+03  0.59219884541E+03  0.00000000000E+00 0. -1.
         25    2    1    2    0    0 -0.61556848337E+01 -0.75174664188E+02  0.32814852178E+01  0.14603080939E+03  0.12500042622E+03 0.  0.
          2    1    1    2  501    0  0.44033415778E+02  0.74341375945E+02 -0.51701280406E+03  0.52418300378E+03  0.00000000000E+00 0. -1.
          1    1    1    2  502    0 -0.37877730944E+02  0.83328824353E+00  0.15856636269E+04  0.15861161857E+04  0.00000000000E+00 0. -1.
         22    1    3    3    0    0  0.25167144274E+01 -0.82358750985E+02 -0.46758050103E+02  0.94739711656E+02  0.00000000000E+00 0. -1.
         22    1    3    3    0    0 -0.86723992610E+01  0.71840867969E+01  0.50039535321E+02  0.51291097738E+02  0.00000000000E+00 0. -1.
</event>
<event>
 7    1  0.6485470E-006  0.6574621E+02  0.7818608E-02  0.1381030E+00
          2   -1    0    0  502    0  0.00000000000E+00  0.00000000000E+00  0.20368133148E+03  0.20368133148E+03  0.00000000000E+00 0. -1.
          1   -1    0    0  501    0 -0.00000000000E+00 -0.00000000000E+00 -0.11313458235E+04  0.11313458235E+04  0.00000000000E+00 0. -1.
         25    2    1    2    0    0 -0.29107793948E+02 -0.72937683149E+02 -0.18419702800E+03  0.23605216770E+03  0.12499964584E+03 0.  0.
          2    1    1    2  501    0  0.60886444808E+02  0.14878780803E+02 -0.91394923336E+03  0.91609592207E+03  0.00000000000E+00 0. -1.
          1    1    1    2  502    0 -0.31778650860E+02  0.58058902346E+02  0.17048176937E+03  0.18287906518E+03  0.00000000000E+00 0. -1.
         22    1    3    3    0    0  0.63169301897E+01 -0.20227783238E+02  0.15658586456E+02  0.26348778938E+02  0.00000000000E+00 0. -1.
         22    1    3    3    0    0 -0.35424724138E+02 -0.52709899911E+02 -0.19985561446E+03  0.20970338876E+03  0.00000000000E+00 0. -1.
</event>
<event>
 7    1  0.6485470E-006  0.3690435E+02  0.7818608E-02  0.1627250E+00
          2   -1    0    0  502    0  0.00000000000E+00  0.00000000000E+00  0.14908561021E+04  0.14908561021E+04  0.00000000000E+00 0. -1.
          1   -1    0    0  501    0 -0.00000000000E+00 -0.00000000000E+00 -0.43775384886E+02  0.43775384886E+02  0.00000000000E+00 0. -1.
         25    2    1    2    0    0 -0.16127213070E+02  0.12198625592E+02  0.18507206221E+03  0.22424432629E+03  0.12499982478E+03 0.  0.
          2    1    1    2  501    0  0.20550741899E+02 -0.32236904184E+02 -0.89491518383E+01  0.39263702100E+02  0.00000000000E+00 0. -1.
          1    1    1    2  502    0 -0.44235288289E+01  0.20038278592E+02  0.12709578069E+04  0.12711234586E+04  0.00000000000E+00 0. -1.
         22    1    3    3    0    0  0.78266640948E+01 -0.44300542384E+02  0.14282125202E+03  0.14973878841E+03  0.00000000000E+00 0. -1.
         22    1    3    3    0    0 -0.23953877165E+02  0.56499167976E+02  0.42250810189E+02  0.74505537880E+02  0.00000000000E+00 0. -1.
</event>
<event>
 7    1  0.6485470E-006  0.5700763E+02  0.7818608E-02  0.1449943E+00
          2   -1    0    0  502    0  0.00000000000E+00  0.00000000000E+00  0.19822145763E+03  0.19822145763E+03  0.00000000000E+00 0. -1.
          1   -1    0    0  501    0 -0.00000000000E+00 -0.00000000000E+00 -0.37830906571E+03  0.37830906571E+03  0.00000000000E+00 0. -1.
         25    2    1    2    0    0 -0.92864616833E+01 -0.93255763554E+02  0.19838450541E+01  0.15624279800E+03  0.12500000191E+03 0.  0.
          2    1    1    2  501    0 -0.92263826283E+01  0.55125083097E+02 -0.29469676562E+03  0.29995013684E+03  0.00000000000E+00 0. -1.
          1    1    1    2  502    0  0.18512844312E+02  0.38130680457E+02  0.11262531249E+03  0.12033758851E+03  0.00000000000E+00 0. -1.
         22    1    3    3    0    0 -0.16532270844E+02  0.92950165585E+01  0.41873753678E+02  0.45968734583E+02  0.00000000000E+00 0. -1.
         22    1    3    3    0    0  0.72458091607E+01 -0.10255078011E+03 -0.39889908624E+02  0.11027406342E+03  0.00000000000E+00 0. -1.
</event>
<event>
 7    1  0.6485470E-006  0.5308380E+02  0.7818608E-02  0.1533666E+00
          2   -1    0    0  502    0  0.00000000000E+00  0.00000000000E+00  0.60638884050E+03  0.60638884050E+03  0.00000000000E+00 0. -1.
          1   -1    0    0  501    0 -0.00000000000E+00 -0.00000000000E+00 -0.72233051262E+03  0.72233051262E+03  0.00000000000E+00 0. -1.
         25    2    1    2    0    0 -0.72175384252E+02 -0.12105721966E+02 -0.27847969018E+03  0.31389365351E+03  0.12498981269E+03 0.  0.
          2    1    1    2  501    0  0.23672069579E+02 -0.92877830373E+01 -0.42456920173E+03  0.42533003286E+03  0.00000000000E+00 0. -1.
          1    1    1    2  502    0  0.48503314673E+02  0.21393505003E+02  0.58710721979E+03  0.58949566675E+03  0.00000000000E+00 0. -1.
         22    1    3    3    0    0 -0.16383778325E+02  0.50218391685E+01  0.98170868630E+01  0.19748981121E+02  0.00000000000E+00 0.  1.
         22    1    3    3    0    0 -0.55791605927E+02 -0.17127561135E+02 -0.28829677704E+03  0.29414467239E+03  0.00000000000E+00 0.  1.
</event>
<event>
 7    1  0.6485470E-006  0.1113445E+03  0.7818608E-02  0.1358955E+00
          2   -1    0    0  502    0  0.00000000000E+00  0.00000000000E+00  0.89393244072E+03  0.89393244072E+03  0.00000000000E+00 0. -1.
          1   -1    0    0  501    0 -0.00000000000E+00 -0.00000000000E+00 -0.60530228059E+03  0.60530228059E+03  0.00000000000E+00 0. -1.
         25    2    1    2    0    0  0.51947677349E+02 -0.73868675797E+02 -0.31746667991E+03  0.35293811421E+03  0.12500030863E+03 0.  0.
          2    1    1    2  501    0 -0.92001693579E+02  0.93097735428E+02 -0.25363584408E+03  0.28541661018E+03  0.00000000000E+00 0. -1.
          1    1    1    2  502    0  0.40054016230E+02 -0.19229059631E+02  0.85973268413E+03  0.86087999693E+03  0.00000000000E+00 0. -1.
         22    1    3    3    0    0 -0.34274293237E+01 -0.78122259662E+02 -0.26586948627E+03  0.27713068841E+03  0.00000000000E+00 0. -1.
         22    1    3    3    0    0  0.55375106672E+02  0.42535838650E+01 -0.51597193641E+02  0.75807425799E+02  0.00000000000E+00 0. -1.
</event>
<event>
 7    1  0.6485470E-006  0.5885244E+02  0.7818608E-02  0.1410434E+00
          2   -1    0    0  502    0  0.00000000000E+00  0.00000000000E+00  0.72256473421E+02  0.72256473421E+02  0.00000000000E+00 0. -1.
          1   -1    0    0  501    0 -0.00000000000E+00 -0.00000000000E+00 -0.81954907280E+03  0.81954907280E+03  0.00000000000E+00 0. -1.
         25    2    1    2    0    0 -0.23988486534E+02  0.57339338108E+01 -0.11994513672E+03  0.17497621444E+03  0.12498605647E+03 0.  0.
          2    1    1    2  501    0 -0.18747280901E+01  0.55362254299E+02 -0.64563748633E+03  0.64800945792E+03  0.00000000000E+00 0. -1.
          1    1    1    2  502    0  0.25863214624E+02 -0.61096188110E+02  0.18290023673E+02  0.68819873861E+02  0.00000000000E+00 0. -1.
         22    1    3    3    0    0 -0.25092466433E+02 -0.49938435547E+02 -0.10228811569E+03  0.11656044710E+03  0.00000000000E+00 0. -1.
         22    1    3    3    0    0  0.11039798992E+01  0.55672369358E+02 -0.17657021028E+02  0.58415767333E+02  0.00000000000E+00 0. -1.
</event>
<event>
 7    1  0.6485470E-006  0.1156993E+03  0.7818608E-02  0.1298475E+00
          2   -1    0    0  502    0  0.00000000000E+00  0.00000000000E+00  0.82255427203E+03  0.82255427203E+03  0.00000000000E+00 0. -1.
          1   -1    0    0  501    0 -0.00000000000E+00 -0.00000000000E+00 -0.35399247142E+03  0.35399247142E+03  0.00000000000E+00 0. -1.
         25    2    1    2    0    0 -0.11791237187E+03 -0.64679702273E+02 -0.39285776487E+02  0.18775949049E+03  0.12499385068E+03 0.  0.
          2    1    1    2  501    0  0.55041058168E+02  0.10155580225E+03 -0.22468416082E+03  0.25263822193E+03  0.00000000000E+00 0. -1.
          1    1    1    2  502    0  0.62871313698E+02 -0.36876099979E+02  0.73253173792E+03  0.73614903103E+03  0.00000000000E+00 0. -1.
         22    1    3    3    0    0 -0.56803500104E+02  0.32501746436E+02 -0.31682351557E+02  0.72710195610E+02  0.00000000000E+00 0.  1.
         22    1    3    3    0    0 -0.61108871762E+02 -0.97181448709E+02 -0.76034249303E+01  0.11504929488E+03  0.00000000000E+00 0.  1.
</event>
<event>
 7    1  0.6485470E-006  0.3485999E+02  0.7818608E-02  0.1563189E+00
          2   -1    0    0  502    0  0.00000000000E+00  0.00000000000E+00  0.29841819762E+02  0.29841819762E+02  0.00000000000E+00 0. -1.
          1   -1    0    0  501    0 -0.00000000000E+00 -0.00000000000E+00 -0.15642232251E+04  0.15642232251E+04  0.00000000000E+00 0. -1.
         25    2    1    2    0    0 -0.29546610190E+02  0.15754397404E+02 -0.15567633383E+03  0.20243857713E+03  0.12500021355E+03 0.  0.
          2    1    1    2  501    0 -0.59081867114E+01 -0.31470852081E+02 -0.13249760982E+04  0.13253629624E+04  0.00000000000E+00 0. -1.
          1    1    1    2  502    0  0.35454796901E+02  0.15716454676E+02 -0.53728973332E+02  0.66263505387E+02  0.00000000000E+00 0. -1.
         22    1    3    3    0    0  0.37174176154E+02  0.40393983498E+02 -0.45510432215E+02  0.71307732512E+02  0.00000000000E+00 0. -1.
         22    1    3    3    0    0 -0.66720786344E+02 -0.24639586094E+02 -0.11016590161E+03  0.13113084462E+03  0.00000000000E+00 0. -1.
</event>
<event>
 7    1  0.6485470E-006  0.1163660E+03  0.7818608E-02  0.1321862E+00
          2   -1    0    0  502    0  0.00000000000E+00  0.00000000000E+00  0.14498520477E+04  0.14498520477E+04  0.00000000000E+00 0. -1.
          1   -1    0    0  501    0 -0.00000000000E+00 -0.00000000000E+00 -0.32965420141E+03  0.32965420141E+03  0.00000000000E+00 0. -1.
         25    2    1    2    0    0 -0.33025712924E+02  0.93633771604E+02  0.10084309550E+03  0.18880029718E+03  0.12497296270E+03 0.  0.
          2    1    1    2  501    0  0.54065444551E+02  0.22643176960E+02 -0.27995931800E+03  0.28602972833E+03  0.00000000000E+00 0. -1.
          1    1    1    2  502    0 -0.21039731627E+02 -0.11627694856E+03  0.12993140688E+04  0.13046762236E+04  0.00000000000E+00 0. -1.
         22    1    3    3    0    0 -0.68274790772E+02  0.26771078434E+02  0.83724083409E+02  0.11130076297E+03  0.00000000000E+00 0.  1.
         22    1    3    3    0    0  0.35249077847E+02  0.66862693170E+02  0.17119012087E+02  0.77499534204E+02  0.00000000000E+00 0.  1.
</event>
<event>
 7    1  0.6485470E-006  0.1096332E+03  0.7818608E-02  0.1384522E+00
          2   -1    0    0  502    0  0.00000000000E+00  0.00000000000E+00  0.16881927598E+03  0.16881927598E+03  0.00000000000E+00 0. -1.
          1   -1    0    0  501    0 -0.00000000000E+00 -0.00000000000E+00 -0.45061802683E+03  0.45061802683E+03  0.00000000000E+00 0. -1.
         25    2    1    2    0    0  0.47148386932E+02 -0.71938991631E+02 -0.75783145094E+02  0.16960587775E+03  0.12499951912E+03 0.  0.
          2    1    1    2  501    0 -0.40400766968E+02  0.10784693058E+03 -0.31473143319E+03  0.33514035484E+03  0.00000000000E+00 0. -1.
          1    1    1    2  502    0 -0.67476199646E+01 -0.35907938953E+02  0.10871582743E+03  0.11469107022E+03  0.00000000000E+00 0. -1.
         22    1    3    3    0    0  0.15998654001E+02 -0.30746002082E+02 -0.10478975349E+03  0.11037284997E+03  0.00000000000E+00 0.  1.
         22    1    3    3    0    0  0.31149732931E+02 -0.41192989550E+02  0.29006608393E+02  0.59233027782E+02  0.00000000000E+00 0.  1.
</event>
<event>
 7    1  0.6485470E-006  0.6866652E+02  0.7818608E-02  0.1377944E+00
          2   -1    0    0  502    0  0.00000000000E+00  0.00000000000E+00  0.32644132351E+02  0.32644132351E+02  0.00000000000E+00 0. -1.
          1   -1    0    0  501    0 -0.00000000000E+00 -0.00000000000E+00 -0.12189665271E+04  0.12189665271E+04  0.00000000000E+00 0. -1.
         25    2    1    2    0    0 -0.11567813392E+02 -0.54748352599E+00 -0.25998786082E+03  0.28870264306E+03  0.12498565634E+03 0.  0.
          2    1    1    2  501    0 -0.55817486003E+02 -0.39993744332E+02 -0.85178242772E+03  0.85454572464E+03  0.00000000000E+00 0. -1.
          1    1    1    2  502    0  0.67385299395E+02  0.40541227858E+02 -0.74552106179E+02  0.10836229172E+03  0.00000000000E+00 0. -1.
         22    1    3    3    0    0 -0.22358645502E+02 -0.14434506090E+02  0.14701690423E+01  0.26653806328E+02  0.00000000000E+00 0.  1.
         22    1    3    3    0    0  0.10790832110E+02  0.13887022564E+02 -0.26145802986E+03  0.26204883673E+03  0.00000000000E+00 0.  1.
</event>
<event>
 7    1  0.6485470E-006  0.3225392E+02  0.7818608E-02  0.1653239E+00
          2   -1    0    0  502    0  0.00000000000E+00  0.00000000000E+00  0.59556510921E+03  0.59556510921E+03  0.00000000000E+00 0. -1.
          1   -1    0    0  501    0 -0.00000000000E+00 -0.00000000000E+00 -0.92961993401E+02  0.92961993401E+02  0.00000000000E+00 0. -1.
         25    2    1    2    0    0  0.15517443166E+02  0.51039662500E+01  0.23015306642E+03  0.26241127708E+03  0.12498961094E+03 0.  0.
          2    1    1    2  501    0 -0.31750067458E+02  0.69822349467E+01 -0.73084814253E+02  0.79988802109E+02  0.00000000000E+00 0. -1.
          1    1    1    2  502    0  0.16232624292E+02 -0.12086201197E+02  0.34553486364E+03  0.34612702342E+03  0.00000000000E+00 0. -1.
         22    1    3    3    0    0 -0.41536386734E+02  0.17966210539E+02  0.31017452523E+02  0.54864729153E+02  0.00000000000E+00 0. -1.
         22    1    3    3    0    0  0.57053829900E+02 -0.12862244289E+02  0.19913561390E+03  0.20754654793E+03  0.00000000000E+00 0. -1.
</event>
<event>
 7    1  0.6485470E-006  0.1688819E+03  0.7818608E-02  0.1354476E+00
          2   -1    0    0  502    0  0.00000000000E+00  0.00000000000E+00  0.83354429843E+03  0.83354429843E+03  0.00000000000E+00 0. -1.
          1   -1    0    0  501    0 -0.00000000000E+00 -0.00000000000E+00 -0.20482813493E+04  0.20482813493E+04  0.00000000000E+00 0. -1.
         25    2    1    2    0    0 -0.11927566806E+03  0.72524039841E+02  0.93223093255E+02  0.20928292446E+03  0.12498950360E+03 0.  0.
          2    1    1    2  501    0  0.14189142874E+03 -0.92872699948E+02 -0.19862974573E+04  0.19935235401E+04  0.00000000000E+00 0. -1.
          1    1    1    2  502    0 -0.22615760686E+02  0.20348660107E+02  0.67833731322E+03  0.67901918316E+03  0.00000000000E+00 0. -1.
         22    1    3    3    0    0 -0.11772584564E+03  0.10098672523E+03  0.92855601691E+02  0.18077570680E+03  0.00000000000E+00 0. -1.
         22    1    3    3    0    0 -0.15498224183E+01 -0.28462685384E+02  0.36749156407E+00  0.28507217662E+02  0.00000000000E+00 0. -1.
</event>
<event>
 7    1  0.6485470E-006  0.2525373E+03  0.7818608E-02  0.1301177E+00
          2   -1    0    0  502    0  0.00000000000E+00  0.00000000000E+00  0.12234195350E+03  0.12234195350E+03  0.00000000000E+00 0. -1.
          1   -1    0    0  501    0 -0.00000000000E+00 -0.00000000000E+00 -0.13056628078E+04  0.13056628078E+04  0.00000000000E+00 0. -1.
         25    2    1    2    0    0  0.59518261357E+02 -0.22387745262E+03 -0.13629425395E+03  0.29641953000E+03  0.12499950750E+03 0.  0.
          2    1    1    2  501    0 -0.86918421997E+02  0.24148861621E+03 -0.10642360869E+04  0.10947465518E+04  0.00000000000E+00 0. -1.
          1    1    1    2  502    0  0.27400160640E+02 -0.17611163587E+02  0.17209486552E+02  0.36838679582E+02  0.00000000000E+00 0. -1.
         22    1    3    3    0    0  0.34294814672E+02 -0.18732611933E+03 -0.15757130484E+03  0.24717589973E+03  0.00000000000E+00 0. -1.
         22    1    3    3    0    0  0.25223446685E+02 -0.36551333289E+02  0.21277050885E+02  0.49243630270E+02  0.00000000000E+00 0. -1.
</event>
<event>
 7    1  0.6485470E-006  0.1130954E+03  0.7818608E-02  0.1262786E+00
          2   -1    0    0  502    0  0.00000000000E+00  0.00000000000E+00  0.22732612116E+04  0.22732612116E+04  0.00000000000E+00 0. -1.
          1   -1    0    0  501    0 -0.00000000000E+00 -0.00000000000E+00 -0.57112733740E+03  0.57112733740E+03  0.00000000000E+00 0. -1.
         25    2    1    2    0    0  0.77177370952E+02 -0.28699164111E+02  0.77623652058E+03  0.79053675708E+03  0.12500095924E+03 0.  0.
          2    1    1    2  501    0 -0.58745350538E+02 -0.96641420978E+02 -0.55557657853E+03  0.56697082382E+03  0.00000000000E+00 0. -1.
          1    1    1    2  502    0 -0.18432020414E+02  0.12534058509E+03  0.14814739322E+04  0.14868809681E+04  0.00000000000E+00 0. -1.
         22    1    3    3    0    0  0.43055093338E+02 -0.37305176736E+02  0.11473370159E+03  0.12809855406E+03  0.00000000000E+00 0. -1.
         22    1    3    3    0    0  0.34122277614E+02  0.86060126246E+01  0.66150281899E+03  0.66243820302E+03  0.00000000000E+00 0. -1.
</event>
<event>
 7    1  0.6485470E-006  0.5183608E+02  0.7818608E-02  0.1507245E+00
          2   -1    0    0  502    0  0.00000000000E+00  0.00000000000E+00  0.86968853439E+03  0.86968853439E+03  0.00000000000E+00 0. -1.
          1   -1    0    0  501    0 -0.00000000000E+00 -0.00000000000E+00 -0.16653355553E+04  0.16653355553E+04  0.00000000000E+00 0. -1.
         25    2    1    2    0    0 -0.24317076371E+02 -0.66019458492E+02 -0.90780756491E+02  0.16975145393E+03  0.12499808502E+03 0.  0.
          2    1    1    2  501    0  0.35906925376E+02  0.37192068586E+02 -0.15343432701E+04  0.15352139355E+04  0.00000000000E+00 0. -1.
          1    1    1    2  502    0 -0.11589849005E+02  0.28827389906E+02  0.82947700566E+03  0.83005870029E+03  0.00000000000E+00 0. -1.
         22    1    3    3    0    0  0.12038819135E+02 -0.80906044263E+02 -0.10020491565E+03  0.12935125158E+03  0.00000000000E+00 0. -1.
         22    1    3    3    0    0 -0.36355895506E+02  0.14886585772E+02  0.94241591588E+01  0.40400202349E+02  0.00000000000E+00 0. -1.
</event>
<event>
 7    1  0.6485470E-006  0.5211078E+02  0.7818608E-02  0.1442537E+00
          2   -1    0    0  502    0  0.00000000000E+00  0.00000000000E+00  0.19208948339E+03  0.19208948339E+03  0.00000000000E+00 0. -1.
          1   -1    0    0  501    0 -0.00000000000E+00 -0.00000000000E+00 -0.60889709604E+03  0.60889709604E+03  0.00000000000E+00 0. -1.
         25    2    1    2    0    0 -0.29884416734E+02 -0.12164162401E+02 -0.11524131493E+03  0.17304953988E+03  0.12499814948E+03 0.  0.
          2    1    1    2  501    0 -0.94681065196E+01  0.48061230861E+02 -0.45906701664E+03  0.46167310158E+03  0.00000000000E+00 0. -1.
          1    1    1    2  502    0  0.39352523254E+02 -0.35897068460E+02  0.15750071892E+03  0.16626393797E+03  0.00000000000E+00 0. -1.
         22    1    3    3    0    0  0.24563750189E+02 -0.10653801977E+02  0.15834698412E+02  0.31106574767E+02  0.00000000000E+00 0.  1.
         22    1    3    3    0    0 -0.54448166924E+02 -0.15103604246E+01 -0.13107601335E+03  0.14194296511E+03  0.00000000000E+00 0.  1.
</event>
<event>
 7    1  0.6485470E-006  0.9918860E+02  0.7818608E-02  0.1465792E+00
          2   -1    0    0  502    0  0.00000000000E+00  0.00000000000E+00  0.36161529804E+03  0.36161529804E+03  0.00000000000E+00 0. -1.
          1   -1    0    0  501    0 -0.00000000000E+00 -0.00000000000E+00 -0.12418248585E+03  0.12418248585E+03  0.00000000000E+00 0. -1.
         25    2    1    2    0    0  0.40191948108E+02 -0.10263666905E+03  0.19372284374E+03  0.25554503359E+03  0.12500018190E+03 0.  0.
          2    1    1    2  501    0 -0.50965774657E+02  0.83794610156E+02 -0.66130071123E+02  0.11828877032E+03  0.00000000000E+00 0. -1.
          1    1    1    2  502    0  0.10773826549E+02  0.18842058894E+02  0.10984003957E+03  0.11196397998E+03  0.00000000000E+00 0. -1.
         22    1    3    3    0    0 -0.35922700134E+02 -0.30822756182E+01  0.19669415652E+02  0.41070996092E+02  0.00000000000E+00 0. -1.
         22    1    3    3    0    0  0.76114648242E+02 -0.99554393432E+02  0.17405342809E+03  0.21447403750E+03  0.00000000000E+00 0. -1.
</event>
<event>
 7    1  0.6485470E-006  0.2449657E+03  0.7818608E-02  0.1229990E+00
          2   -1    0    0  502    0  0.00000000000E+00  0.00000000000E+00  0.11661523699E+04  0.11661523699E+04  0.00000000000E+00 0. -1.
          1   -1    0    0  501    0 -0.00000000000E+00 -0.00000000000E+00 -0.34143852036E+03  0.34143852036E+03  0.00000000000E+00 0. -1.
         25    2    1    2    0    0 -0.10431418341E+03 -0.26238055235E+03  0.43637622681E+03  0.53457704138E+03  0.12499359477E+03 0.  0.
          2    1    1    2  501    0  0.13312509966E+03  0.20166548372E+03 -0.24030462415E+03  0.34078962993E+03  0.00000000000E+00 0. -1.
          1    1    1    2  502    0 -0.28810916251E+02  0.60715068631E+02  0.62864224689E+03  0.63222421895E+03  0.00000000000E+00 0. -1.
         22    1    3    3    0    0 -0.79492591233E+02 -0.53292747041E+02  0.16936632828E+03  0.19453570907E+03  0.00000000000E+00 0.  1.
         22    1    3    3    0    0 -0.24821592178E+02 -0.20908780531E+03  0.26700989853E+03  0.34004133231E+03  0.00000000000E+00 0.  1.
</event>
<event>
 7    1  0.6485470E-006  0.8577486E+02  0.7818608E-02  0.1362498E+00
          2   -1    0    0  502    0  0.00000000000E+00  0.00000000000E+00  0.91549032481E+03  0.91549032481E+03  0.00000000000E+00 0. -1.
          1   -1    0    0  501    0 -0.00000000000E+00 -0.00000000000E+00 -0.53443173448E+03  0.53443173448E+03  0.00000000000E+00 0. -1.
         25    2    1    2    0    0 -0.77009115220E+01 -0.49861397999E+02 -0.17342086422E+03  0.21964594889E+03  0.12499633461E+03 0.  0.
          2    1    1    2  501    0  0.53688515410E+02  0.81791663643E+02 -0.32991232126E+03  0.34411404018E+03  0.00000000000E+00 0. -1.
          1    1    1    2  502    0 -0.45987603888E+02 -0.31930265643E+02  0.88439177581E+03  0.88616207022E+03  0.00000000000E+00 0. -1.
         22    1    3    3    0    0 -0.57506243910E+02 -0.58529515686E+02 -0.87484271758E+02  0.11994236157E+03  0.00000000000E+00 0. -1.
         22    1    3    3    0    0  0.49805332388E+02  0.86681176862E+01 -0.85936592465E+02  0.99703587313E+02  0.00000000000E+00 0. -1.
</event>
<event>
 7    1  0.6485470E-006  0.4195702E+03  0.7818608E-02  0.1212826E+00
          2   -1    0    0  502    0  0.00000000000E+00  0.00000000000E+00  0.41987765054E+03  0.41987765054E+03  0.00000000000E+00 0. -1.
          1   -1    0    0  501    0 -0.00000000000E+00 -0.00000000000E+00 -0.10335678216E+04  0.10335678216E+04  0.00000000000E+00 0. -1.
         25    2    1    2    0    0 -0.40154244502E+03 -0.18423395635E+03 -0.29408540064E+03  0.54524064087E+03  0.12499059071E+03 0.  0.
          2    1    1    2  501    0  0.35666378312E+03  0.19807491551E+03 -0.54341708542E+03  0.67951810504E+03  0.00000000000E+00 0. -1.
          1    1    1    2  502    0  0.44878661898E+02 -0.13840959160E+02  0.22381231497E+03  0.22868672628E+03  0.00000000000E+00 0. -1.
         22    1    3    3    0    0 -0.37284495416E+02 -0.62046430396E+02 -0.26717835883E+02  0.77160455400E+02  0.00000000000E+00 0. -1.
         22    1    3    3    0    0 -0.36425794960E+03 -0.12218752595E+03 -0.26736756476E+03  0.46808018547E+03  0.00000000000E+00 0. -1.
</event>
<event>
 7    1  0.6485470E-006  0.3435904E+02  0.7818608E-02  0.1611488E+00
          2   -1    0    0  502    0  0.00000000000E+00  0.00000000000E+00  0.37391489355E+03  0.37391489355E+03  0.00000000000E+00 0. -1.
          1   -1    0    0  501    0 -0.00000000000E+00 -0.00000000000E+00 -0.23602737181E+04  0.23602737181E+04  0.00000000000E+00 0. -1.
         25    2    1    2    0    0  0.24367377435E+01  0.10265516803E+02 -0.72776026981E+03  0.73849244354E+03  0.12499904133E+03 0.  0.
          2    1    1    2  501    0 -0.17582765417E+01  0.24113146840E+02 -0.16262552790E+04  0.16264349872E+04  0.00000000000E+00 0. -1.
          1    1    1    2  502    0 -0.67846120181E+00 -0.34378663643E+02  0.36765672422E+03  0.36926118086E+03  0.00000000000E+00 0. -1.
         22    1    3    3    0    0 -0.22668392381E+02 -0.26372680654E+02 -0.63175426225E+03  0.63271069389E+03  0.00000000000E+00 0.  1.
         22    1    3    3    0    0  0.25105130125E+02  0.36638197457E+02 -0.96006007563E+02  0.10578174965E+03  0.00000000000E+00 0.  1.
</event>
<event>
 7    1  0.6485470E-006  0.6616544E+02  0.7818608E-02  0.1408787E+00
          2   -1    0    0  502    0  0.00000000000E+00  0.00000000000E+00  0.43184041973E+03  0.43184041973E+03  0.00000000000E+00 0. -1.
          1   -1    0    0  501    0 -0.00000000000E+00 -0.00000000000E+00 -0.87200605441E+03  0.87200605441E+03  0.00000000000E+00 0. -1.
         25    2    1    2    0    0  0.20592233546E+02  0.30412577148E+01  0.16755186670E+03  0.21007613048E+03  0.12500025293E+03 0.  0.
          2    1    1    2  501    0 -0.51134448637E+02 -0.42514018721E+02 -0.84686425392E+03  0.84947115207E+03  0.00000000000E+00 0. -1.
          1    1    1    2  502    0  0.30542215090E+02  0.39472761006E+02  0.23914675254E+03  0.24429919160E+03  0.00000000000E+00 0. -1.
         22    1    3    3    0    0 -0.30346688934E+02  0.61825126655E+01 -0.38768786751E+01  0.31211779513E+02  0.00000000000E+00 0. -1.
         22    1    3    3    0    0  0.50938922481E+02 -0.31412549507E+01  0.17142874538E+03  0.17886435097E+03  0.00000000000E+00 0. -1.
</event>
<event>
 7    1  0.6485470E-006  0.8755225E+02  0.7818608E-02  0.1465839E+00
          2   -1    0    0  502    0  0.00000000000E+00  0.00000000000E+00  0.67448226451E+03  0.67448226451E+03  0.00000000000E+00 0. -1.
          1   -1    0    0  501    0 -0.00000000000E+00 -0.00000000000E+00 -0.24342735412E+03  0.24342735412E+03  0.00000000000E+00 0. -1.
         25    2    1    2    0    0  0.18858658751E+02 -0.60912127845E+02  0.49002009790E+03  0.50971694919E+03  0.12500294246E+03 0.  0.
          2    1    1    2  501    0 -0.21036280861E+02  0.85396726307E+02 -0.22435934562E+03  0.24098182907E+03  0.00000000000E+00 0. -1.
          1    1    1    2  502    0  0.21776221103E+01 -0.24484598462E+02  0.16539415811E+03  0.16721084037E+03  0.00000000000E+00 0. -1.
         22    1    3    3    0    0 -0.11497417647E+02 -0.45856594036E+02  0.46549184128E+03  0.46788638805E+03  0.00000000000E+00 0.  1.
         22    1    3    3    0    0  0.30356076398E+02 -0.15055533809E+02  0.24528256620E+02  0.41830561141E+02  0.00000000000E+00 0.  1.
</event>
<event>
 7    1  0.1037717E-005  0.1229509E+03  0.7818608E-02  0.1306889E+00
          2   -1    0    0  502    0  0.00000000000E+00  0.00000000000E+00  0.15550917361E+04  0.15550917361E+04  0.00000000000E+00 0. -1.
          1   -1    0    0  501    0 -0.00000000000E+00 -0.00000000000E+00 -0.15662316265E+04  0.15662316265E+04  0.00000000000E+00 0. -1.
         25    2    1    2    0    0  0.18269531996E+03 -0.10276515337E+02 -0.70670584102E+03  0.74063549607E+03  0.12499842242E+03 0.  0.
          2    1    1    2  501    0 -0.62158048137E+02 -0.12942028987E+02 -0.83891032842E+03  0.84130949013E+03  0.00000000000E+00 0. -1.
          1    1    1    2  502    0 -0.12053727182E+03  0.23218544323E+02  0.15344762790E+04  0.15393783764E+04  0.00000000000E+00 0. -1.
         22    1    3    3    0    0  0.15581264567E+03  0.42380683817E+01 -0.68658107769E+03  0.70405192850E+03  0.00000000000E+00 0. -1.
         22    1    3    3    0    0  0.26882674291E+02 -0.14514583719E+02 -0.20124763326E+02  0.36583567575E+02  0.00000000000E+00 0. -1.
</event>
<event>
 7    1  0.6485470E-006  0.7999732E+02  0.7818608E-02  0.1347570E+00
          2   -1    0    0  502    0  0.00000000000E+00  0.00000000000E+00  0.14341350850E+04  0.14341350850E+04  0.00000000000E+00 0. -1.
          1   -1    0    0  501    0 -0.00000000000E+00 -0.00000000000E+00 -0.20945771057E+03  0.20945771057E+03  0.00000000000E+00 0. -1.
         25    2    1    2    0    0 -0.55966874433E+01 -0.13513945289E+03  0.50268847566E+02  0.19090878717E+03  0.12500085338E+03 0.  0.
          2    1    1    2  501    0  0.27468567132E+02  0.70629846223E+02 -0.12786209611E+03  0.14863314899E+03  0.00000000000E+00 0. -1.
          1    1    1    2  502    0 -0.21871879689E+02  0.64509606666E+02  0.13022706229E+04  0.13040508594E+04  0.00000000000E+00 0. -1.
         22    1    3    3    0    0  0.13999961353E+02 -0.80609088827E+02 -0.34034059640E+02  0.88612309162E+02  0.00000000000E+00 0.  1.
         22    1    3    3    0    0 -0.19596648797E+02 -0.54530364062E+02  0.84302907207E+02  0.10229647801E+03  0.00000000000E+00 0.  1.
</event>
<event>
 7    1  0.6485470E-006  0.1203419E+03  0.7818608E-02  0.1287336E+00
          2   -1    0    0  502    0  0.00000000000E+00  0.00000000000E+00  0.49458709716E+03  0.49458709716E+03  0.00000000000E+00 0. -1.
          1   -1    0    0  501    0 -0.00000000000E+00 -0.00000000000E+00 -0.10880786902E+04  0.10880786902E+04  0.00000000000E+00 0. -1.
         25    2    1    2    0    0 -0.76123922928E+02  0.89520767963E+02 -0.17204766027E+02  0.17241688236E+03  0.12499103092E+03 0.  0.
          2    1    1    2  501    0  0.52661581460E+01 -0.12150934093E+03 -0.98587449232E+03  0.99334826067E+03  0.00000000000E+00 0. -1.
          1    1    1    2  502    0  0.70857764782E+02  0.31988572966E+02  0.40958766534E+03  0.41690064431E+03  0.00000000000E+00 0. -1.
         22    1    3    3    0    0 -0.35360654512E+02  0.50507952924E+02 -0.71293012370E+02  0.94255624813E+02  0.00000000000E+00 0.  1.
         22    1    3    3    0    0 -0.40763268416E+02  0.39012815040E+02  0.54088246343E+02  0.78161257549E+02  0.00000000000E+00 0.  1.
</event>
<event>
 7    1  0.6485470E-006  0.1308165E+03  0.7818608E-02  0.1316400E+00
          2   -1    0    0  502    0  0.00000000000E+00  0.00000000000E+00  0.26697975672E+03  0.26697975672E+03  0.00000000000E+00 0. -1.
          1   -1    0    0  501    0 -0.00000000000E+00 -0.00000000000E+00 -0.16529836114E+03  0.16529836114E+03  0.00000000000E+00 0. -1.
         25    2    1    2    0    0  0.12309680732E+02 -0.15094077493E+03  0.33349834584E+02  0.19917792774E+03  0.12499995862E+03 0.  0.
          2    1    1    2  501    0 -0.46040578261E+02  0.29631783538E+02 -0.39347883424E+02  0.67424278804E+02  0.00000000000E+00 0. -1.
          1    1    1    2  502    0  0.33730897529E+02  0.12130899139E+03  0.10767944442E+03  0.16567591132E+03  0.00000000000E+00 0. -1.
         22    1    3    3    0    0  0.57351077075E+02 -0.91087077974E+02 -0.16927935686E+02  0.10896126294E+03  0.00000000000E+00 0.  1.
         22    1    3    3    0    0 -0.45041396343E+02 -0.59853696957E+02  0.50277770271E+02  0.90216664798E+02  0.00000000000E+00 0.  1.
</event>
<event>
 7    1  0.6485470E-006  0.9726912E+02  0.7818608E-02  0.1303033E+00
          2   -1    0    0  502    0  0.00000000000E+00  0.00000000000E+00  0.17758965362E+03  0.17758965362E+03  0.00000000000E+00 0. -1.
          1   -1    0    0  501    0 -0.00000000000E+00 -0.00000000000E+00 -0.93139320930E+03  0.93139320930E+03  0.00000000000E+00 0. -1.
         25    2    1    2    0    0 -0.96958168995E+02  0.14327646639E+03 -0.26235676637E+03  0.33821255968E+03  0.12501052080E+03 0.  0.
          2    1    1    2  501    0  0.43618022382E+02 -0.79508757881E+02 -0.61511042646E+03  0.62175960885E+03  0.00000000000E+00 0. -1.
          1    1    1    2  502    0  0.53340146613E+02 -0.63767708507E+02  0.12366363715E+03  0.14901069439E+03  0.00000000000E+00 0. -1.
         22    1    3    3    0    0  0.25624009844E+02  0.25033704326E+01 -0.43658193592E+02  0.50684263946E+02  0.00000000000E+00 0. -1.
         22    1    3    3    0    0 -0.12258217884E+03  0.14077309596E+03 -0.21869857278E+03  0.28752829573E+03  0.00000000000E+00 0. -1.
</event>
<event>
 7    1  0.6485470E-006  0.3418197E+03  0.7818608E-02  0.1196962E+00
          2   -1    0    0  502    0  0.00000000000E+00  0.00000000000E+00  0.10034440710E+04  0.10034440710E+04  0.00000000000E+00 0. -1.
          1   -1    0    0  501    0 -0.00000000000E+00 -0.00000000000E+00 -0.11536699859E+04  0.11536699859E+04  0.00000000000E+00 0. -1.
         25    2    1    2    0    0  0.29628198040E+03  0.21034691058E+03  0.29406187407E+03  0.48386460192E+03  0.12499492995E+03 0.  0.
          2    1    1    2  501    0  0.52062410614E+01 -0.68189812430E+02 -0.10123276093E+04  0.10146349807E+04  0.00000000000E+00 0. -1.
          1    1    1    2  502    0 -0.30148822146E+03 -0.14215709815E+03  0.56803982038E+03  0.65861447431E+03  0.00000000000E+00 0. -1.
         22    1    3    3    0    0  0.23583048853E+03  0.11334364274E+03  0.24839642039E+03  0.36078190411E+03  0.00000000000E+00 0.  1.
         22    1    3    3    0    0  0.60451491868E+02  0.97003267844E+02  0.45665453681E+02  0.12308269781E+03  0.00000000000E+00 0.  1.
</event>
<event>
 7    1  0.6485470E-006  0.5839213E+02  0.7818608E-02  0.1491320E+00
          2   -1    0    0  502    0  0.00000000000E+00  0.00000000000E+00  0.11447314248E+04  0.11447314248E+04  0.00000000000E+00 0. -1.
          1   -1    0    0  501    0 -0.00000000000E+00 -0.00000000000E+00 -0.20420139369E+03  0.20420139369E+03  0.00000000000E+00 0. -1.
         25    2    1    2    0    0  0.55499549949E+02 -0.68326933775E+02  0.18953400731E+03  0.24351068445E+03  0.12500217434E+03 0.  0.
          2    1    1    2  501    0 -0.17336014178E+02  0.25426789861E+02 -0.17498101736E+03  0.17766658511E+03  0.00000000000E+00 0. -1.
          1    1    1    2  502    0 -0.38163535771E+02  0.42900143914E+02  0.92597704112E+03  0.92775554888E+03  0.00000000000E+00 0. -1.
         22    1    3    3    0    0  0.26399587061E+02 -0.63137939203E+02  0.20059699308E+03  0.21194926562E+03  0.00000000000E+00 0. -1.
         22    1    3    3    0    0  0.29099962889E+02 -0.51889945721E+01 -0.11062985765E+02  0.31561418835E+02  0.00000000000E+00 0. -1.
</event>
<event>
 7    1  0.6485470E-006  0.7965336E+02  0.7818608E-02  0.1334811E+00
          2   -1    0    0  502    0  0.00000000000E+00  0.00000000000E+00  0.79764943630E+03  0.79764943630E+03  0.00000000000E+00 0. -1.
          1   -1    0    0  501    0 -0.00000000000E+00 -0.00000000000E+00 -0.92106407216E+03  0.92106407216E+03  0.00000000000E+00 0. -1.
         25    2    1    2    0    0 -0.38438104543E+02 -0.22506074003E+01  0.38833599718E+03  0.40977100510E+03  0.12499950718E+03 0.  0.
          2    1    1    2  501    0  0.30840230869E+02 -0.73760898682E+02 -0.90490785788E+03  0.90843272798E+03  0.00000000000E+00 0. -1.
          1    1    1    2  502    0  0.75978736739E+01  0.76011506082E+02  0.39315722483E+03  0.40050977539E+03  0.00000000000E+00 0. -1.
         22    1    3    3    0    0  0.28709110198E+02  0.55652599699E+01  0.20350165515E+02  0.35627438350E+02  0.00000000000E+00 0. -1.
         22    1    3    3    0    0 -0.67147214741E+02 -0.78158673702E+01  0.36798583167E+03  0.37414356675E+03  0.00000000000E+00 0. -1.
</event>
<event>
 7    1  0.6485470E-006  0.1508220E+03  0.7818608E-02  0.1201257E+00
          2   -1    0    0  502    0  0.00000000000E+00  0.00000000000E+00  0.26707120501E+04  0.26707120501E+04  0.00000000000E+00 0. -1.
          1   -1    0    0  501    0 -0.00000000000E+00 -0.00000000000E+00 -0.12311521177E+03  0.12311521177E+03  0.00000000000E+00 0. -1.
         25    2    1    2    0    0 -0.35500443143E+02  0.14605390092E+03  0.20042053420E+04  0.20137163453E+04  0.12498977229E+03 0.  0.
          2    1    1    2  501    0  0.14530421308E+03 -0.46942147154E+02 -0.56071382363E+02  0.16266800373E+03  0.00000000000E+00 0. -1.
          1    1    1    2  502    0 -0.10980376994E+03 -0.99111753763E+02  0.59946287870E+03  0.61744291280E+03  0.00000000000E+00 0. -1.
         22    1    3    3    0    0 -0.57972467595E+02  0.50720175496E+02  0.13525098831E+04  0.13547015639E+04  0.00000000000E+00 0.  1.
         22    1    3    3    0    0  0.22472024452E+02  0.95333725421E+02  0.65169545886E+03  0.65901478146E+03  0.00000000000E+00 0.  1.
</event>
<event>
 7    1  0.6485470E-006  0.2333224E+03  0.7818608E-02  0.1166646E+00
          2   -1    0    0  502    0  0.00000000000E+00  0.00000000000E+00  0.83035756385E+03  0.83035756385E+03  0.00000000000E+00 0. -1.
          1   -1    0    0  501    0 -0.00000000000E+00 -0.00000000000E+00 -0.16560818316E+03  0.16560818316E+03  0.00000000000E+00 0. -1.
         25    2    1    2    0    0  0.13992645030E+03  0.34069933360E+02  0.26014828943E+03  0.32255609866E+03  0.12500052975E+03 0.  0.
          2    1    1    2  501    0 -0.27836379447E+03 -0.59322812796E+02  0.46158592378E+02  0.28833351147E+03  0.00000000000E+00 0. -1.
          1    1    1    2  502    0  0.13843734417E+03  0.25252879435E+02  0.35844249888E+03  0.38507613687E+03  0.00000000000E+00 0. -1.
         22    1    3    3    0    0  0.37207708576E+02 -0.41964261920E+02  0.12249945760E+03  0.13472761398E+03  0.00000000000E+00 0.  1.
         22    1    3    3    0    0  0.10271874173E+03  0.76034195281E+02  0.13764883183E+03  0.18782848468E+03  0.00000000000E+00 0.  1.
</event>
<event>
 7    1  0.6485470E-006  0.2558688E+03  0.7818608E-02  0.1206712E+00
          2   -1    0    0  502    0  0.00000000000E+00  0.00000000000E+00  0.95327817717E+03  0.95327817717E+03  0.00000000000E+00 0. -1.
          1   -1    0    0  501    0 -0.00000000000E+00 -0.00000000000E+00 -0.26511228912E+03  0.26511228912E+03  0.00000000000E+00 0. -1.
         25    2    1    2    0    0 -0.20211497842E+03  0.72192055933E+02  0.23589501660E+03  0.34253797554E+03  0.12499459344E+03 0.  0.
          2    1    1    2  501    0 -0.38490633720E+02  0.72641916846E+02 -0.17237762797E+03  0.19097754735E+03  0.00000000000E+00 0. -1.
          1    1    1    2  502    0  0.24060561214E+03 -0.14483397278E+03  0.62464849942E+03  0.68487494339E+03  0.00000000000E+00 0. -1.
         22    1    3    3    0    0 -0.16492256072E+03  0.45191809243E+02  0.24184606187E+03  0.29619464597E+03  0.00000000000E+00 0.  1.
         22    1    3    3    0    0 -0.37192417706E+02  0.27000246691E+02 -0.59510452728E+01  0.46343329574E+02  0.00000000000E+00 0.  1.
</event>
<event>
 7    1  0.6485470E-006  0.3917830E+02  0.7818608E-02  0.1520122E+00
          2   -1    0    0  502    0  0.00000000000E+00  0.00000000000E+00  0.66922608563E+03  0.66922608563E+03  0.00000000000E+00 0. -1.
          1   -1    0    0  501    0 -0.00000000000E+00 -0.00000000000E+00 -0.29659189814E+02  0.29659189814E+02  0.00000000000E+00 0. -1.
         25    2    1    2    0    0 -0.89942832758E+01 -0.64412750284E+01  0.27280099896E+03  0.30027915959E+03  0.12499920598E+03 0.  0.
          2    1    1    2  501    0 -0.12680371943E+02  0.39077891557E+02  0.13603672057E+02  0.43277399813E+02  0.00000000000E+00 0. -1.
          1    1    1    2  502    0  0.21674655219E+02 -0.32636616529E+02  0.35316222480E+03  0.35532871604E+03  0.00000000000E+00 0. -1.
         22    1    3    3    0    0  0.51774542066E+02 -0.26486491273E+02  0.95846028182E+02  0.11210976115E+03  0.00000000000E+00 0.  1.
         22    1    3    3    0    0 -0.60768825342E+02  0.20045216244E+02  0.17695497077E+03  0.18816939844E+03  0.00000000000E+00 0.  1.
</event>
<event>
 7    1  0.6485470E-006  0.1462951E+03  0.7818608E-02  0.1315111E+00
          2   -1    0    0  502    0  0.00000000000E+00  0.00000000000E+00  0.26185136675E+04  0.26185136675E+04  0.00000000000E+00 0. -1.
          1   -1    0    0  501    0 -0.00000000000E+00 -0.00000000000E+00 -0.42786813851E+03  0.42786813851E+03  0.00000000000E+00 0. -1.
         25    2    1    2    0    0 -0.10628381620E+03 -0.53446551240E+02 -0.91193298868E+02  0.19517619893E+03  0.12499898977E+03 0.  0.
          2    1    1    2  501    0  0.16619928757E+01 -0.49501705818E+02 -0.28041272836E+03  0.28475336579E+03  0.00000000000E+00 0. -1.
          1    1    1    2  502    0  0.10462182333E+03  0.10294825706E+03  0.25622515562E+04  0.25664522413E+04  0.00000000000E+00 0. -1.
         22    1    3    3    0    0 -0.71919990391E+02 -0.45053799854E+02 -0.12176521449E+03  0.14842202451E+03  0.00000000000E+00 0.  1.
         22    1    3    3    0    0 -0.34363825812E+02 -0.83927513859E+01  0.30571915625E+02  0.46754174415E+02  0.00000000000E+00 0.  1.
</event>
<event>
 7    1  0.6485470E-006  0.2053233E+03  0.7818608E-02  0.1258395E+00
          2   -1    0    0  502    0  0.00000000000E+00  0.00000000000E+00  0.11133972394E+04  0.11133972394E+04  0.00000000000E+00 0. -1.
          1   -1    0    0  501    0 -0.00000000000E+00 -0.00000000000E+00 -0.32938374610E+03  0.32938374610E+03  0.00000000000E+00 0. -1.
         25    2    1    2    0    0 -0.13739035543E+03  0.18998643270E+03 -0.75176600136E+02  0.27613349532E+03  0.12500892631E+03 0.  0.
          2    1    1    2  501    0  0.13835634268E+03 -0.12978830161E+03 -0.93890654544E+02  0.21166703996E+03  0.00000000000E+00 0. -1.
          1    1    1    2  502    0 -0.96598725488E+00 -0.60198131085E+02  0.95308074797E+03  0.95498045020E+03  0.00000000000E+00 0. -1.
         22    1    3    3    0    0  0.46723405332E+01 -0.15108834764E+02 -0.81718592620E+01  0.17801318428E+02  0.00000000000E+00 0. -1.
         22    1    3    3    0    0 -0.14206269596E+03  0.20509526746E+03 -0.67004740874E+02  0.25833217689E+03  0.00000000000E+00 0. -1.
</event>
<event>
 7    1  0.6485470E-006  0.6156121E+02  0.7818608E-02  0.1484642E+00
          2   -1    0    0  502    0  0.00000000000E+00  0.00000000000E+00  0.28949806824E+03  0.28949806824E+03  0.00000000000E+00 0. -1.
          1   -1    0    0  501    0 -0.00000000000E+00 -0.00000000000E+00 -0.79869645738E+03  0.79869645738E+03  0.00000000000E+00 0. -1.
         25    2    1    2    0    0  0.96232396542E+01 -0.89149503485E+02 -0.44076102446E+02  0.16002493386E+03  0.12500014374E+03 0.  0.
          2    1    1    2  501    0  0.43101241600E+01  0.30279088850E+02 -0.69235063683E+03  0.69302583264E+03  0.00000000000E+00 0. -1.
          1    1    1    2  502    0 -0.13933363814E+02  0.58870414636E+02  0.22722835014E+03  0.23514375912E+03  0.00000000000E+00 0. -1.
         22    1    3    3    0    0  0.10880751399E+02 -0.93678684223E+02 -0.80076622326E+02  0.12371884283E+03  0.00000000000E+00 0.  1.
         22    1    3    3    0    0 -0.12575117452E+01  0.45291807374E+01  0.36000519880E+02  0.36306091025E+02  0.00000000000E+00 0.  1.
</event>
<event>
 7    1  0.6485470E-006  0.9472990E+02  0.7818608E-02  0.1382165E+00
          2   -1    0    0  502    0  0.00000000000E+00  0.00000000000E+00  0.21959810705E+03  0.21959810705E+03  0.00000000000E+00 0. -1.
          1   -1    0    0  501    0 -0.00000000000E+00 -0.00000000000E+00 -0.54513074509E+03  0.54513074509E+03  0.00000000000E+00 0. -1.
         25    2    1    2    0    0  0.10884689260E+03  0.38015619574E+02  0.59433453723E+02  0.18013864277E+03  0.12499904735E+03 0.  0.
          2    1    1    2  501    0 -0.19445540786E+02 -0.38465108547E+02 -0.46355625666E+03  0.46555568595E+03  0.00000000000E+00 0. -1.
          1    1    1    2  502    0 -0.89401351814E+02  0.44948897337E+00  0.78590164902E+02  0.11903452342E+03  0.00000000000E+00 0. -1.
         22    1    3    3    0    0  0.90550248721E+02  0.55563449076E+02 -0.95279811840E+01  0.10666502164E+03  0.00000000000E+00 0.  1.
         22    1    3    3    0    0  0.18296643879E+02 -0.17547829502E+02  0.68961434907E+02  0.73473621130E+02  0.00000000000E+00 0.  1.
</event>
<event>
 7    1  0.6485470E-006  0.3084621E+02  0.7818608E-02  0.1594711E+00
          2   -1    0    0  502    0  0.00000000000E+00  0.00000000000E+00  0.54780599565E+02  0.54780599565E+02  0.00000000000E+00 0. -1.
          1   -1    0    0  501    0 -0.00000000000E+00 -0.00000000000E+00 -0.59557057369E+03  0.59557057369E+03  0.00000000000E+00 0. -1.
         25    2    1    2    0    0  0.12164501446E+02  0.17351270371E+02 -0.86344541338E+02  0.15338875207E+03  0.12499475095E+03 0.  0.
          2    1    1    2  501    0 -0.30603377523E+02  0.60321346808E+01 -0.46448928705E+03  0.46553544564E+03  0.00000000000E+00 0. -1.
          1    1    1    2  502    0  0.18438876077E+02 -0.23383405052E+02  0.10043854268E+02  0.31426975536E+02  0.00000000000E+00 0. -1.
         22    1    3    3    0    0  0.14408499707E+02 -0.40497766028E+02  0.69982945247E+01  0.43550545844E+02  0.00000000000E+00 0.  1.
         22    1    3    3    0    0 -0.22439982611E+01  0.57849036399E+02 -0.93342835863E+02  0.10983820623E+03  0.00000000000E+00 0.  1.
</event>
<event>
 7    1  0.6485470E-006  0.2197392E+03  0.7818608E-02  0.1289569E+00
          2   -1    0    0  502    0  0.00000000000E+00  0.00000000000E+00  0.26069746612E+03  0.26069746612E+03  0.00000000000E+00 0. -1.
          1   -1    0    0  501    0 -0.00000000000E+00 -0.00000000000E+00 -0.20288290695E+04  0.20288290695E+04  0.00000000000E+00 0. -1.
         25    2    1    2    0    0  0.13654686388E+03 -0.20684100265E+03 -0.66113791005E+02  0.28535024785E+03  0.12500193668E+03 0.  0.
          2    1    1    2  501    0 -0.11747224646E+02  0.40004716275E+02 -0.17809048539E+04  0.17813928464E+04  0.00000000000E+00 0. -1.
          1    1    1    2  502    0 -0.12479963924E+03  0.16683628638E+03  0.78887041555E+02  0.22278344133E+03  0.00000000000E+00 0. -1.
         22    1    3    3    0    0  0.10112082366E+03 -0.20318412054E+03 -0.21076346945E+02  0.22793292921E+03  0.00000000000E+00 0. -1.
         22    1    3    3    0    0  0.35426040218E+02 -0.36568821086E+01 -0.45037444060E+02  0.57417318639E+02  0.00000000000E+00 0. -1.
</event>
<event>
 7    1  0.6485470E-006  0.8835083E+02  0.7818608E-02  0.1327002E+00
          2   -1    0    0  502    0  0.00000000000E+00  0.00000000000E+00  0.11172276483E+04  0.11172276483E+04  0.00000000000E+00 0. -1.
          1   -1    0    0  501    0 -0.00000000000E+00 -0.00000000000E+00 -0.38511240606E+03  0.38511240606E+03  0.00000000000E+00 0. -1.
         25    2    1    2    0    0  0.13319564352E+03 -0.64732974226E+02  0.54118797480E+03  0.57483886523E+03  0.12499543795E+03 0.  0.
          2    1    1    2  501    0 -0.87623551730E+02  0.67345814164E+01 -0.36055365359E+03  0.37110938889E+03  0.00000000000E+00 0. -1.
          1    1    1    2  502    0 -0.45572091787E+02  0.57998392809E+02  0.55148092106E+03  0.55639180027E+03  0.00000000000E+00 0. -1.
         22    1    3    3    0    0  0.80704792041E+02  0.27839604574E+02  0.28246666073E+03  0.29508595606E+03  0.00000000000E+00 0.  1.
         22    1    3    3    0    0  0.52490851476E+02 -0.92572578799E+02  0.25872131407E+03  0.27975290917E+03  0.00000000000E+00 0.  1.
</event>
<event>
 7    1  0.6485470E-006  0.7670456E+02  0.7818608E-02  0.1440611E+00
          2   -1    0    0  502    0  0.00000000000E+00  0.00000000000E+00  0.35193419566E+03  0.35193419566E+03  0.00000000000E+00 0. -1.
          1   -1    0    0  501    0 -0.00000000000E+00 -0.00000000000E+00 -0.12998901597E+04  0.12998901597E+04  0.00000000000E+00 0. -1.
         25    2    1    2    0    0  0.41770127083E+02 -0.83411857590E+02 -0.55597026141E+03  0.57743403867E+03  0.12499942379E+03 0.  0.
          2    1    1    2  501    0 -0.32961850750E+02  0.72989111741E+01 -0.72849061972E+03  0.72927247358E+03  0.00000000000E+00 0. -1.
          1    1    1    2  502    0 -0.88082763332E+01  0.76112946416E+02  0.33650491713E+03  0.34511784306E+03  0.00000000000E+00 0. -1.
         22    1    3    3    0    0  0.72137932346E+02 -0.11854983435E+02 -0.34342680336E+03  0.35112161879E+03  0.00000000000E+00 0. -1.
         22    1    3    3    0    0 -0.30367805263E+02 -0.71556874155E+02 -0.21254345804E+03  0.22631241988E+03  0.00000000000E+00 0. -1.
</event>
<event>
 7    1  0.6485470E-006  0.4809507E+02  0.7818608E-02  0.1475699E+00
          2   -1    0    0  502    0  0.00000000000E+00  0.00000000000E+00  0.30478131574E+02  0.30478131574E+02  0.00000000000E+00 0. -1.
          1   -1    0    0  501    0 -0.00000000000E+00 -0.00000000000E+00 -0.13295354502E+04  0.13295354502E+04  0.00000000000E+00 0. -1.
         25    2    1    2    0    0  0.96698370213E+01  0.63623614001E+02 -0.62516725824E+03  0.64077929832E+03  0.12499015311E+03 0.  0.
          2    1    1    2  501    0 -0.36082295259E+02 -0.31355529291E+02 -0.67580241998E+03  0.67749096828E+03  0.00000000000E+00 0. -1.
          1    1    1    2  502    0  0.26412458238E+02 -0.32268084710E+02  0.19123596114E+01  0.41743315157E+02  0.00000000000E+00 0. -1.
         22    1    3    3    0    0 -0.10338706178E+02  0.23247057038E+02 -0.16232789748E+02  0.30179760923E+02  0.00000000000E+00 0.  1.
         22    1    3    3    0    0  0.20008543200E+02  0.40376556963E+02 -0.60893446849E+03  0.61059953740E+03  0.00000000000E+00 0.  1.
</event>
<event>
 7    1  0.6485470E-006  0.1038024E+03  0.7818608E-02  0.1326497E+00
          2   -1    0    0  502    0  0.00000000000E+00  0.00000000000E+00  0.96961946678E+03  0.96961946678E+03  0.00000000000E+00 0. -1.
          1   -1    0    0  501    0 -0.00000000000E+00 -0.00000000000E+00 -0.86327999645E+03  0.86327999645E+03  0.00000000000E+00 0. -1.
         25    2    1    2    0    0 -0.90150135267E+02  0.11787911136E+03  0.86745669939E+02  0.21253949101E+03  0.12500276877E+03 0.  0.
          2    1    1    2  501    0  0.30138248388E+02 -0.98505885087E+02 -0.79584607440E+03  0.80248532544E+03  0.00000000000E+00 0. -1.
          1    1    1    2  502    0  0.60011886879E+02 -0.19373226275E+02  0.81543987479E+03  0.81787464679E+03  0.00000000000E+00 0. -1.
         22    1    3    3    0    0 -0.42551605396E+02 -0.94330820700E+01 -0.11206733294E+02  0.45002366940E+02  0.00000000000E+00 0.  1.
         22    1    3    3    0    0 -0.47598529872E+02  0.12731219343E+03  0.97952403234E+02  0.16753712407E+03  0.00000000000E+00 0.  1.
</event>
<event>
 7    1  0.6485470E-006  0.6838522E+02  0.7818608E-02  0.1474835E+00
          2   -1    0    0  502    0  0.00000000000E+00  0.00000000000E+00  0.21883508444E+03  0.21883508444E+03  0.00000000000E+00 0. -1.
          1   -1    0    0  501    0 -0.00000000000E+00 -0.00000000000E+00 -0.54648102706E+03  0.54648102706E+03  0.00000000000E+00 0. -1.
         25    2    1    2    0    0 -0.82412392217E+02 -0.67604096223E+01 -0.19063132609E+03  0.24249358152E+03  0.12500131624E+03 0.  0.
          2    1    1    2  501    0  0.16615114943E+02  0.24385605437E+02 -0.32321219421E+03  0.32455637766E+03  0.00000000000E+00 0. -1.
          1    1    1    2  502    0  0.65797277274E+02 -0.17625195815E+02  0.18619757767E+03  0.19826615232E+03  0.00000000000E+00 0. -1.
         22    1    3    3    0    0  0.64633533801E+01 -0.47454439672E+02 -0.37517423596E+02  0.60837947490E+02  0.00000000000E+00 0. -1.
         22    1    3    3    0    0 -0.88875745597E+02  0.40694030050E+02 -0.15311390249E+03  0.18165563403E+03  0.00000000000E+00 0. -1.
</event>
<event>
 7    1  0.6485470E-006  0.5278694E+02  0.7818608E-02  0.1477880E+00
          2   -1    0    0  502    0  0.00000000000E+00  0.00000000000E+00  0.37525475972E+03  0.37525475972E+03  0.00000000000E+00 0. -1.
          1   -1    0    0  501    0 -0.00000000000E+00 -0.00000000000E+00 -0.23471984954E+04  0.23471984954E+04  0.00000000000E+00 0. -1.
         25    2    1    2    0    0 -0.34293166775E+02 -0.69780000651E+02 -0.43701090342E+03  0.46113782498E+03  0.12499717655E+03 0.  0.
          2    1    1    2  501    0  0.33283970785E+02  0.17078060512E+02 -0.18960260801E+04  0.18963951010E+04  0.00000000000E+00 0. -1.
          1    1    1    2  502    0  0.10091959895E+01  0.52701940138E+02  0.36109324783E+03  0.36492032911E+03  0.00000000000E+00 0. -1.
         22    1    3    3    0    0 -0.57567461325E+02 -0.78851330751E+02 -0.41930155324E+03  0.43051752289E+03  0.00000000000E+00 0. -1.
         22    1    3    3    0    0  0.23274294550E+02  0.90713301006E+01 -0.17709350178E+02  0.30620302094E+02  0.00000000000E+00 0. -1.
</event>
<event>
 7    1  0.6485470E-006  0.4031142E+02  0.7818608E-02  0.1533369E+00
          2   -1    0    0  502    0  0.00000000000E+00  0.00000000000E+00  0.12337962144E+04  0.12337962144E+04  0.00000000000E+00 0. -1.
          1   -1    0    0  501    0 -0.00000000000E+00 -0.00000000000E+00 -0.54308789695E+02  0.54308789695E+02  0.00000000000E+00 0. -1.
         25    2    1    2    0    0  0.44797739829E+02 -0.33627688477E+02  0.57976481052E+03  0.59572516991E+03  0.12499433438E+03 0.  0.
          2    1    1    2  501    0 -0.40234349322E+02  0.38806141328E+00 -0.37066641145E+02  0.54707306119E+02  0.00000000000E+00 0. -1.
          1    1    1    2  502    0 -0.45633905067E+01  0.33239627064E+02  0.63678925536E+03  0.63767252809E+03  0.00000000000E+00 0. -1.
         22    1    3    3    0    0 -0.13205629732E+02 -0.14311581892E+02  0.46740300354E+03  0.46780848406E+03  0.00000000000E+00 0. -1.
         22    1    3    3    0    0  0.58003369561E+02 -0.19316106585E+02  0.11236180697E+03  0.12791668586E+03  0.00000000000E+00 0. -1.
</event>
<event>
 7    1  0.6485470E-006  0.1087848E+03  0.7818608E-02  0.1414794E+00
          2   -1    0    0  502    0  0.00000000000E+00  0.00000000000E+00  0.19211072619E+04  0.19211072619E+04  0.00000000000E+00 0. -1.
          1   -1    0    0  501    0 -0.00000000000E+00 -0.00000000000E+00 -0.19407034096E+03  0.19407034096E+03  0.00000000000E+00 0. -1.
         25    2    1    2    0    0 -0.10346361175E+03  0.72668184637E+02  0.74385758641E+03  0.76481068877E+03  0.12500358710E+03 0.  0.
          2    1    1    2  501    0  0.99121559851E+02 -0.44025853225E+02 -0.16737735283E+03  0.19944557559E+03  0.00000000000E+00 0. -1.
          1    1    1    2  502    0  0.43420518973E+01 -0.28642331412E+02  0.11505566874E+04  0.11509213385E+04  0.00000000000E+00 0. -1.
         22    1    3    3    0    0 -0.63319805602E+02  0.97759112263E+02  0.64212225551E+03  0.65260036227E+03  0.00000000000E+00 0. -1.
         22    1    3    3    0    0 -0.40143806147E+02 -0.25090927626E+02  0.10173533090E+03  0.11221032651E+03  0.00000000000E+00 0. -1.
</event>
<event>
 7    1  0.6485470E-006  0.1078202E+03  0.7818608E-02  0.1372674E+00
          2   -1    0    0  502    0  0.00000000000E+00  0.00000000000E+00  0.13012477178E+03  0.13012477178E+03  0.00000000000E+00 0. -1.
          1   -1    0    0  501    0 -0.00000000000E+00 -0.00000000000E+00 -0.71984333470E+03  0.71984333470E+03  0.00000000000E+00 0. -1.
         25    2    1    2    0    0 -0.13138621112E+03 -0.43899918024E+02 -0.23171673327E+03  0.29750106496E+03  0.12499879959E+03 0.  0.
          2    1    1    2  501    0  0.40203543910E+02 -0.76658361754E+01 -0.42575136951E+03  0.42771406176E+03  0.00000000000E+00 0. -1.
          1    1    1    2  502    0  0.91182667211E+02  0.51565754200E+02  0.67749539871E+02  0.12475297976E+03  0.00000000000E+00 0. -1.
         22    1    3    3    0    0 -0.67817136794E+02 -0.41728972856E+02 -0.28518048959E+02  0.84579845915E+02  0.00000000000E+00 0. -1.
         22    1    3    3    0    0 -0.63569074328E+02 -0.21709451684E+01 -0.20319868431E+03  0.21292121905E+03  0.00000000000E+00 0. -1.
</event>
<event>
 7    1  0.6485470E-006  0.7755674E+02  0.7818608E-02  0.1379578E+00
          2   -1    0    0  502    0  0.00000000000E+00  0.00000000000E+00  0.65490916775E+02  0.65490916775E+02  0.00000000000E+00 0. -1.
          1   -1    0    0  501    0 -0.00000000000E+00 -0.00000000000E+00 -0.12138226958E+04  0.12138226958E+04  0.00000000000E+00 0. -1.
         25    2    1    2    0    0 -0.26853922324E+00 -0.54757096577E+02 -0.25565753867E+03  0.28979960122E+03  0.12499848020E+03 0.  0.
          2    1    1    2  501    0  0.53165286561E+02 -0.80134091186E+01 -0.90492281547E+03  0.90651865087E+03  0.00000000000E+00 0. -1.
          1    1    1    2  502    0 -0.52896747338E+02  0.62770505695E+02  0.12248575139E+02  0.82995360455E+02  0.00000000000E+00 0. -1.
         22    1    3    3    0    0  0.31507382378E+02 -0.70049166483E+02 -0.23853882304E+03  0.25060002188E+03  0.00000000000E+00 0.  1.
         22    1    3    3    0    0 -0.31775921601E+02  0.15292069906E+02 -0.17118715625E+02  0.39199579338E+02  0.00000000000E+00 0.  1.
</event>
<event>
 7    1  0.6485470E-006  0.7557626E+02  0.7818608E-02  0.1407080E+00
          2   -1    0    0  502    0  0.00000000000E+00  0.00000000000E+00  0.14108120273E+04  0.14108120273E+04  0.00000000000E+00 0. -1.
          1   -1    0    0  501    0 -0.00000000000E+00 -0.00000000000E+00 -0.89903683582E+03  0.89903683582E+03  0.00000000000E+00 0. -1.
         25    2    1    2    0    0 -0.68959186246E+02 -0.14374702389E+02  0.69923188269E+03  0.71380168347E+03  0.12500246441E+03 0.  0.
          2    1    1    2  501    0  0.51719569049E+02  0.55163418095E+02 -0.88945003154E+03  0.89265854341E+03  0.00000000000E+00 0. -1.
          1    1    1    2  502    0  0.17239617197E+02 -0.40788715706E+02  0.70199334033E+03  0.70338863625E+03  0.00000000000E+00 0. -1.
         22    1    3    3    0    0 -0.52963472419E+02 -0.68745093338E+02  0.41608024673E+03  0.42503386805E+03  0.00000000000E+00 0.  1.
         22    1    3    3    0    0 -0.15995713827E+02  0.54370390949E+02  0.28315163596E+03  0.28876781542E+03  0.00000000000E+00 0.  1.
</event>
<event>
 7    1  0.6485470E-006  0.1255571E+03  0.7818608E-02  0.1284652E+00
          2   -1    0    0  502    0  0.00000000000E+00  0.00000000000E+00  0.45159522258E+03  0.45159522258E+03  0.00000000000E+00 0. -1.
          1   -1    0    0  501    0 -0.00000000000E+00 -0.00000000000E+00 -0.47533184780E+03  0.47533184780E+03  0.00000000000E+00 0. -1.
         25    2    1    2    0    0 -0.44154887673E+01  0.16805812204E+03  0.20021539260E+03  0.28978352294E+03  0.12500103123E+03 0.  0.
          2    1    1    2  501    0  0.55686884239E+02 -0.11138543115E+03 -0.41399016356E+03  0.43231423626E+03  0.00000000000E+00 0. -1.
          1    1    1    2  502    0 -0.51271395471E+02 -0.56672690891E+02  0.19003814574E+03  0.20482931119E+03  0.00000000000E+00 0. -1.
         22    1    3    3    0    0 -0.10342042809E+02  0.16565350539E+03  0.10949873294E+03  0.19884168128E+03  0.00000000000E+00 0.  1.
         22    1    3    3    0    0  0.59265540415E+01  0.24046166434E+01  0.90716659660E+02  0.90941841657E+02  0.00000000000E+00 0.  1.
</event>
<event>
 7    1  0.6485470E-006  0.2630648E+03  0.7818608E-02  0.1291242E+00
          2   -1    0    0  502    0  0.00000000000E+00  0.00000000000E+00  0.11943003375E+04  0.11943003375E+04  0.00000000000E+00 0. -1.
          1   -1    0    0  501    0 -0.00000000000E+00 -0.00000000000E+00 -0.80186868983E+03  0.80186868983E+03  0.00000000000E+00 0. -1.
         25    2    1    2    0    0 -0.16406685266E+03 -0.24266149662E+03  0.24992306634E+02  0.31945705645E+03  0.12500264573E+03 0.  0.
          2    1    1    2  501    0  0.11950206508E+02  0.32136144310E+02 -0.63766750153E+03  0.63858858565E+03  0.00000000000E+00 0. -1.
          1    1    1    2  502    0  0.15211664615E+03  0.21052535231E+03  0.10051068426E+04  0.10381233853E+04  0.00000000000E+00 0. -1.
         22    1    3    3    0    0  0.17466963268E+02 -0.30618341194E+02  0.19463009133E+02  0.40266441956E+02  0.00000000000E+00 0.  1.
         22    1    3    3    0    0 -0.18153381593E+03 -0.21204315543E+03  0.55292975008E+01  0.27919061449E+03  0.00000000000E+00 0.  1.
</event>
<event>
 7    1  0.6485470E-006  0.3296818E+03  0.7818608E-02  0.1221140E+00
          2   -1    0    0  502    0  0.00000000000E+00  0.00000000000E+00  0.11931250581E+04  0.11931250581E+04  0.00000000000E+00 0. -1.
          1   -1    0    0  501    0 -0.00000000000E+00 -0.00000000000E+00 -0.12142620805E+04  0.12142620805E+04  0.00000000000E+00 0. -1.
         25    2    1    2    0    0 -0.20358192364E+03  0.22687918227E+03 -0.41462083259E+03  0.52958026126E+03  0.12500022127E+03 0.  0.
          2    1    1    2  501    0  0.22108373423E+02  0.50087200510E+02 -0.71695891140E+03  0.71904630481E+03  0.00000000000E+00 0. -1.
          1    1    1    2  502    0  0.18147355021E+03 -0.27696638278E+03  0.11104427216E+04  0.11587605726E+04  0.00000000000E+00 0. -1.
         22    1    3    3    0    0 -0.20183831614E+03  0.14848522645E+03 -0.32760961028E+03  0.41244954247E+03  0.00000000000E+00 0. -1.
         22    1    3    3    0    0 -0.17436074966E+01  0.78393955813E+02 -0.87011222307E+02  0.11713071878E+03  0.00000000000E+00 0. -1.
</event>
<event>
 7    1  0.6485470E-006  0.1295678E+03  0.7818608E-02  0.1316589E+00
          2   -1    0    0  502    0  0.00000000000E+00  0.00000000000E+00  0.87884599776E+03  0.87884599776E+03  0.00000000000E+00 0. -1.
          1   -1    0    0  501    0 -0.00000000000E+00 -0.00000000000E+00 -0.69836281134E+03  0.69836281134E+03  0.00000000000E+00 0. -1.
         25    2    1    2    0    0  0.13175257984E+03 -0.10467031808E+03 -0.38055004556E+03  0.43446420831E+03  0.12500477327E+03 0.  0.
          2    1    1    2  501    0 -0.84815489884E+02  0.75647256686E+02 -0.27881356898E+03  0.30108666695E+03  0.00000000000E+00 0. -1.
          1    1    1    2  502    0 -0.46937089952E+02  0.29023061391E+02  0.83984680097E+03  0.84165793384E+03  0.00000000000E+00 0. -1.
         22    1    3    3    0    0  0.69999260118E+02 -0.90377826724E+01 -0.54681641581E+02  0.89284152338E+02  0.00000000000E+00 0.  1.
         22    1    3    3    0    0  0.61753319718E+02 -0.95632535404E+02 -0.32586840398E+03  0.34518005597E+03  0.00000000000E+00 0.  1.
</event>
<event>
 7    1  0.6485470E-006  0.2201551E+03  0.7818608E-02  0.1168966E+00
          2   -1    0    0  502    0  0.00000000000E+00  0.00000000000E+00  0.61859894106E+03  0.61859894106E+03  0.00000000000E+00 0. -1.
          1   -1    0    0  501    0 -0.00000000000E+00 -0.00000000000E+00 -0.23277189517E+04  0.23277189517E+04  0.00000000000E+00 0. -1.
         25    2    1    2    0    0 -0.20212493398E+03  0.10462722292E+02 -0.37776253493E+02  0.24086551118E+03  0.12500076662E+03 0.  0.
          2    1    1    2  501    0  0.17979009871E+03  0.13302870119E+03 -0.21723456434E+04  0.21838284523E+04  0.00000000000E+00 0. -1.
          1    1    1    2  502    0  0.22334835270E+02 -0.14349142348E+03  0.50100188627E+03  0.52162392921E+03  0.00000000000E+00 0. -1.
         22    1    3    3    0    0 -0.17851910545E+03 -0.38867969441E+02 -0.22482332542E+02  0.18407945387E+03  0.00000000000E+00 0.  1.
         22    1    3    3    0    0 -0.23605828530E+02  0.49330691733E+02 -0.15293920951E+02  0.56786057316E+02  0.00000000000E+00 0.  1.
</event>
<event>
 7    1  0.6485470E-006  0.6036242E+02  0.7818608E-02  0.1460223E+00
          2   -1    0    0  502    0  0.00000000000E+00  0.00000000000E+00  0.17718762267E+04  0.17718762267E+04  0.00000000000E+00 0. -1.
          1   -1    0    0  501    0 -0.00000000000E+00 -0.00000000000E+00 -0.83161421461E+01  0.83161421461E+01  0.00000000000E+00 0. -1.
         25    2    1    2    0    0  0.46380443083E+02  0.28645903827E+02  0.11071299704E+04  0.11154958438E+04  0.12498989079E+03 0.  0.
          2    1    1    2  501    0 -0.25517383787E+02 -0.59362363315E+02  0.33908243065E+03  0.34518389567E+03  0.00000000000E+00 0. -1.
          1    1    1    2  502    0 -0.20863059296E+02  0.30716459488E+02  0.31734768346E+03  0.31951262937E+03  0.00000000000E+00 0. -1.
         22    1    3    3    0    0  0.71743034969E+02 -0.15682237832E+02  0.41210984341E+03  0.41860186178E+03  0.00000000000E+00 0. -1.
         22    1    3    3    0    0 -0.25362591886E+02  0.44328141659E+02  0.69502012698E+03  0.69689398198E+03  0.00000000000E+00 0. -1.
</event>
<event>
 7    1  0.6485470E-006  0.7821325E+02  0.7818608E-02  0.1487228E+00
          2   -1    0    0  502    0  0.00000000000E+00  0.00000000000E+00  0.10379151223E+04  0.10379151223E+04  0.00000000000E+00 0. -1.
          1   -1    0    0  501    0 -0.00000000000E+00 -0.00000000000E+00 -0.73318805728E+03  0.73318805728E+03  0.00000000000E+00 0. -1.
         25    2    1    2    0    0  0.38089907984E+02 -0.79508229024E+02  0.93886291390E+02  0.17947802736E+03  0.12500130807E+03 0.  0.
          2    1    1    2  501    0  0.12388496897E+02  0.20134454994E+02 -0.68850421652E+03  0.68890995588E+03  0.00000000000E+00 0. -1.
          1    1    1    2  502    0 -0.50478404882E+02  0.59373774030E+02  0.89934499019E+03  0.90271519638E+03  0.00000000000E+00 0. -1.
         22    1    3    3    0    0  0.50752082711E+02 -0.52712453756E+02 -0.77743920642E+01  0.73585445928E+02  0.00000000000E+00 0.  1.
         22    1    3    3    0    0 -0.12662174727E+02 -0.26795775268E+02  0.10166068345E+03  0.10589258143E+03  0.00000000000E+00 0.  1.
</event>
<event>
 7    1  0.6485470E-006  0.7916196E+02  0.7818608E-02  0.1408337E+00
          2   -1    0    0  502    0  0.00000000000E+00  0.00000000000E+00  0.35894791397E+03  0.35894791397E+03  0.00000000000E+00 0. -1.
          1   -1    0    0  501    0 -0.00000000000E+00 -0.00000000000E+00 -0.25679500734E+04  0.25679500734E+04  0.00000000000E+00 0. -1.
         25    2    1    2    0    0 -0.92047394318E+02  0.60971578919E+02  0.58184918021E+02  0.17663738667E+03  0.12500010179E+03 0.  0.
          2    1    1    2  501    0  0.41706851964E+02 -0.36043276009E+01 -0.25025151285E+04  0.25028652423E+04  0.00000000000E+00 0. -1.
          1    1    1    2  502    0  0.50340542354E+02 -0.57367251318E+02  0.23532805107E+03  0.24739535838E+03  0.00000000000E+00 0. -1.
         22    1    3    3    0    0 -0.11429521185E+03  0.19137408972E+02  0.24355441325E+02  0.11841800284E+03  0.00000000000E+00 0.  1.
         22    1    3    3    0    0  0.22247817534E+02  0.41834169947E+02  0.33829476696E+02  0.58219383831E+02  0.00000000000E+00 0.  1.
</event>
<event>
 7    1  0.6485470E-006  0.1366289E+03  0.7818608E-02  0.1385788E+00
          2   -1    0    0  502    0  0.00000000000E+00  0.00000000000E+00  0.28803322468E+03  0.28803322468E+03  0.00000000000E+00 0. -1.
          1   -1    0    0  501    0 -0.00000000000E+00 -0.00000000000E+00 -0.16265929728E+03  0.16265929728E+03  0.00000000000E+00 0. -1.
         25    2    1    2    0    0  0.13898141252E+03  0.59800532023E+02  0.68167176631E+02  0.20775905297E+03  0.12500049385E+03 0.  0.
          2    1    1    2  501    0 -0.11183764941E+03 -0.70062002598E+02 -0.42850307758E+02  0.13875335278E+03  0.00000000000E+00 0. -1.
          1    1    1    2  502    0 -0.27143763108E+02  0.10261470575E+02  0.10005705852E+03  0.10418011621E+03  0.00000000000E+00 0. -1.
         22    1    3    3    0    0  0.44860057697E+02 -0.37493309435E+02  0.59214391769E+01  0.58764244834E+02  0.00000000000E+00 0.  1.
         22    1    3    3    0    0  0.94121354822E+02  0.97293841458E+02  0.62245737454E+02  0.14899480813E+03  0.00000000000E+00 0.  1.
</event>
<event>
 7    1  0.6485470E-006  0.6457449E+02  0.7818608E-02  0.1399208E+00
          2   -1    0    0  502    0  0.00000000000E+00  0.00000000000E+00  0.16929083356E+04  0.16929083356E+04  0.00000000000E+00 0. -1.
          1   -1    0    0  501    0 -0.00000000000E+00 -0.00000000000E+00 -0.32573462866E+03  0.32573462866E+03  0.00000000000E+00 0. -1.
         25    2    1    2    0    0  0.74242268806E+00 -0.75856955086E+02  0.46797714964E+03  0.49028877004E+03  0.12500254646E+03 0.  0.
          2    1    1    2  501    0 -0.46434857441E+02  0.44984852809E+02 -0.31062235402E+03  0.31727918271E+03  0.00000000000E+00 0. -1.
          1    1    1    2  502    0  0.45692434753E+02  0.30872102276E+02  0.12098189113E+04  0.12110750115E+04  0.00000000000E+00 0. -1.
         22    1    3    3    0    0  0.33559793285E+02 -0.99989523293E+02  0.33450843019E+03  0.35074214797E+03  0.00000000000E+00 0. -1.
         22    1    3    3    0    0 -0.32817370597E+02  0.24132568207E+02  0.13346871945E+03  0.13954662207E+03  0.00000000000E+00 0. -1.
</event>
<event>
 7    1  0.6485470E-006  0.5886106E+02  0.7818608E-02  0.1470135E+00
          2   -1    0    0  502    0  0.00000000000E+00  0.00000000000E+00  0.14619991070E+03  0.14619991070E+03  0.00000000000E+00 0. -1.
          1   -1    0    0  501    0 -0.00000000000E+00 -0.00000000000E+00 -0.55990198222E+03  0.55990198222E+03  0.00000000000E+00 0. -1.
         25    2    1    2    0    0 -0.23701555545E+02 -0.25704993379E+02 -0.27326994378E+03  0.30252940165E+03  0.12500026508E+03 0.  0.
          2    1    1    2  501    0 -0.33870339700E+02  0.10471403275E+02 -0.26401730769E+03  0.26638691589E+03  0.00000000000E+00 0. -1.
          1    1    1    2  502    0  0.57571895244E+02  0.15233590104E+02  0.12358517994E+03  0.13718557537E+03  0.00000000000E+00 0. -1.
         22    1    3    3    0    0 -0.26982024337E+02  0.48282974726E+02 -0.12909107401E+03  0.14044137808E+03  0.00000000000E+00 0. -1.
         22    1    3    3    0    0  0.32804687925E+01 -0.73987968105E+02 -0.14417886976E+03  0.16208802357E+03  0.00000000000E+00 0. -1.
</event>
<event>
 7    1  0.6485470E-006  0.9002684E+02  0.7818608E-02  0.1322943E+00
          2   -1    0    0  502    0  0.00000000000E+00  0.00000000000E+00  0.70022761255E+03  0.70022761255E+03  0.00000000000E+00 0. -1.
          1   -1    0    0  501    0 -0.00000000000E+00 -0.00000000000E+00 -0.78474341843E+03  0.78474341843E+03  0.00000000000E+00 0. -1.
         25    2    1    2    0    0 -0.11090101705E+03  0.99280399952E+02 -0.25037775118E+03  0.31696941307E+03  0.12499982855E+03 0.  0.
          2    1    1    2  501    0  0.78346843726E+02 -0.31670623460E+02 -0.49536956067E+03  0.50252587789E+03  0.00000000000E+00 0. -1.
          1    1    1    2  502    0  0.32554173322E+02 -0.67609776492E+02  0.66123150597E+03  0.66547574003E+03  0.00000000000E+00 0. -1.
         22    1    3    3    0    0  0.10804902519E+02  0.66762510489E+02 -0.74351974243E+02  0.10050967515E+03  0.00000000000E+00 0.  1.
         22    1    3    3    0    0 -0.12170591957E+03  0.32517889463E+02 -0.17602577694E+03  0.21645973792E+03  0.00000000000E+00 0.  1.
</event>
<event>
 7    1  0.6485470E-006  0.5889473E+02  0.7818608E-02  0.1445438E+00
          2   -1    0    0  502    0  0.00000000000E+00  0.00000000000E+00  0.16705425995E+03  0.16705425995E+03  0.00000000000E+00 0. -1.
          1   -1    0    0  501    0 -0.00000000000E+00 -0.00000000000E+00 -0.19058914958E+03  0.19058914958E+03  0.00000000000E+00 0. -1.
         25    2    1    2    0    0  0.10138280400E+02  0.66082088208E+02  0.64148873376E+02  0.15559544467E+03  0.12500094933E+03 0.  0.
          2    1    1    2  501    0 -0.39978243261E+02 -0.14179136492E+02 -0.12466084423E+03  0.13168004379E+03  0.00000000000E+00 0. -1.
          1    1    1    2  502    0  0.29839962861E+02 -0.51902951716E+02  0.36977081227E+02  0.70367921075E+02  0.00000000000E+00 0. -1.
         22    1    3    3    0    0 -0.82766191322E+01  0.99416460403E+02  0.29299393676E+02  0.10397398469E+03  0.00000000000E+00 0.  1.
         22    1    3    3    0    0  0.18414899533E+02 -0.33334372195E+02  0.34849479699E+02  0.51621459973E+02  0.00000000000E+00 0.  1.
</event>
<event>
 7    1  0.6485470E-006  0.2332581E+03  0.7818608E-02  0.1271796E+00
          2   -1    0    0  502    0  0.00000000000E+00  0.00000000000E+00  0.32960566547E+04  0.32960566547E+04  0.00000000000E+00 0. -1.
          1   -1    0    0  501    0 -0.00000000000E+00 -0.00000000000E+00 -0.10659412247E+03  0.10659412247E+03  0.00000000000E+00 0. -1.
         25    2    1    2    0    0 -0.54284092415E+02  0.19194272584E+03  0.76300459174E+03  0.79849238242E+03  0.12500122030E+03 0.  0.
          2    1    1    2  501    0 -0.23835357386E+02  0.39933794779E+02 -0.76360601104E+02  0.89407905848E+02  0.00000000000E+00 0. -1.
          1    1    1    2  502    0  0.78119449801E+02 -0.23187652062E+03  0.25028185416E+04  0.25147504889E+04  0.00000000000E+00 0. -1.
         22    1    3    3    0    0 -0.71048036798E+02  0.85695632584E+02  0.53408266278E+03  0.54556013019E+03  0.00000000000E+00 0. -1.
         22    1    3    3    0    0  0.16763944383E+02  0.10624709326E+03  0.22892192896E+03  0.25293225222E+03  0.00000000000E+00 0. -1.
</event>
<event>
 7    1  0.6485470E-006  0.5996765E+02  0.7818608E-02  0.1482976E+00
          2   -1    0    0  502    0  0.00000000000E+00  0.00000000000E+00  0.67409129947E+02  0.67409129947E+02  0.00000000000E+00 0. -1.
          1   -1    0    0  501    0 -0.00000000000E+00 -0.00000000000E+00 -0.11681741297E+04  0.11681741297E+04  0.00000000000E+00 0. -1.
         25    2    1    2    0    0 -0.51805989326E+01 -0.34383598149E+02 -0.33772265004E+02  0.13405193858E+03  0.12498114229E+03 0.  0.
          2    1    1    2  501    0 -0.15620129584E+02  0.58392842687E+02 -0.10680384467E+04  0.10697475572E+04  0.00000000000E+00 0. -1.
          1    1    1    2  502    0  0.20800728516E+02 -0.24009244538E+02  0.10457119677E+01  0.31783763836E+02  0.00000000000E+00 0. -1.
         22    1    3    3    0    0 -0.51852208511E+01 -0.20607420342E+02 -0.81578338155E+02  0.84300519242E+02  0.00000000000E+00 0. -1.
         22    1    3    3    0    0  0.46219185092E-02 -0.13776177808E+02  0.47806073152E+02  0.49751419342E+02  0.00000000000E+00 0. -1.
</event>
<event>
 7    1  0.6485470E-006  0.7312042E+02  0.7818608E-02  0.1373765E+00
          2   -1    0    0  502    0  0.00000000000E+00  0.00000000000E+00  0.11401748169E+04  0.11401748169E+04  0.00000000000E+00 0. -1.
          1   -1    0    0  501    0 -0.00000000000E+00 -0.00000000000E+00 -0.14899356121E+03  0.14899356121E+03  0.00000000000E+00 0. -1.
         25    2    1    2    0    0 -0.58582868148E+01 -0.29593548977E+02  0.20113724301E+03  0.23872939942E+03  0.12500175181E+03 0.  0.
          2    1    1    2  501    0  0.64906070425E+02  0.39114708602E+02 -0.11810280583E+03  0.14032473464E+03  0.00000000000E+00 0. -1.
          1    1    1    2  502    0 -0.59047783610E+02 -0.95211596246E+01  0.90814681854E+03  0.91011424407E+03  0.00000000000E+00 0. -1.
         22    1    3    3    0    0  0.23400732166E+02 -0.70713598874E+02  0.91123979831E+02  0.11769276542E+03  0.00000000000E+00 0.  1.
         22    1    3    3    0    0 -0.29259018980E+02  0.41120049897E+02  0.11001326318E+03  0.12103663401E+03  0.00000000000E+00 0.  1.
</event>
<event>
 7    1  0.6485470E-006  0.7574730E+02  0.7818608E-02  0.1415914E+00
          2   -1    0    0  502    0  0.00000000000E+00  0.00000000000E+00  0.19440377062E+04  0.19440377062E+04  0.00000000000E+00 0. -1.
          1   -1    0    0  501    0 -0.00000000000E+00 -0.00000000000E+00 -0.53812443309E+03  0.53812443309E+03  0.00000000000E+00 0. -1.
         25    2    1    2    0    0 -0.48755869827E+01  0.10743512429E+03 -0.98475358280E+02  0.19206385395E+03  0.12500020210E+03 0.  0.
          2    1    1    2  501    0  0.22480673522E+02 -0.70135662455E+02 -0.38917637181E+03  0.39608413274E+03  0.00000000000E+00 0. -1.
          1    1    1    2  502    0 -0.17605086539E+02 -0.37299461836E+02  0.18935650032E+04  0.18940141526E+04  0.00000000000E+00 0. -1.
         22    1    3    3    0    0 -0.50075815843E+02  0.10846083011E+03 -0.75834079921E+02  0.14149963491E+03  0.00000000000E+00 0. -1.
         22    1    3    3    0    0  0.45200228860E+02 -0.10257058204E+01 -0.22641278359E+02  0.50564219041E+02  0.00000000000E+00 0. -1.
</event>
<event>
 7    1  0.6485470E-006  0.4477510E+02  0.7818608E-02  0.1539880E+00
          2   -1    0    0  502    0  0.00000000000E+00  0.00000000000E+00  0.11651149890E+04  0.11651149890E+04  0.00000000000E+00 0. -1.
          1   -1    0    0  501    0 -0.00000000000E+00 -0.00000000000E+00 -0.19924621576E+04  0.19924621576E+04  0.00000000000E+00 0. -1.
         25    2    1    2    0    0 -0.44566471325E+02 -0.53947060828E+02  0.16393310310E+03  0.21771069650E+03  0.12500971700E+03 0.  0.
          2    1    1    2  501    0  0.25341048198E+02  0.13992466189E+02 -0.19649622341E+04  0.19651754475E+04  0.00000000000E+00 0. -1.
          1    1    1    2  502    0  0.19225423127E+02  0.39954594639E+02  0.97368196242E+03  0.97469100256E+03  0.00000000000E+00 0. -1.
         22    1    3    3    0    0 -0.64438578322E+02  0.19307079277E+02  0.73156704444E+02  0.99383082521E+02  0.00000000000E+00 0.  1.
         22    1    3    3    0    0  0.19872106996E+02 -0.73254140104E+02  0.90776398652E+02  0.11832761398E+03  0.00000000000E+00 0.  1.
</event>
<event>
 7    1  0.6485470E-006  0.5478980E+02  0.7818608E-02  0.1435594E+00
          2   -1    0    0  502    0  0.00000000000E+00  0.00000000000E+00  0.17338364947E+03  0.17338364947E+03  0.00000000000E+00 0. -1.
          1   -1    0    0  501    0 -0.00000000000E+00 -0.00000000000E+00 -0.41018334409E+03  0.41018334409E+03  0.00000000000E+00 0. -1.
         25    2    1    2    0    0 -0.67634044419E+01  0.13791243283E+01  0.61550469846E+02  0.13950474323E+03  0.12500186968E+03 0.  0.
          2    1    1    2  501    0  0.51322747524E+02 -0.21940254822E+02 -0.36054393344E+03  0.36483876868E+03  0.00000000000E+00 0. -1.
          1    1    1    2  502    0 -0.44559343082E+02  0.20561130493E+02  0.62193768980E+02  0.79223481639E+02  0.00000000000E+00 0. -1.
         22    1    3    3    0    0  0.31629677176E+02  0.42229049377E+02 -0.44035325977E+01  0.52944501026E+02  0.00000000000E+00 0. -1.
         22    1    3    3    0    0 -0.38393081618E+02 -0.40849925049E+02  0.65954002444E+02  0.86560242207E+02  0.00000000000E+00 0. -1.
</event>
<event>
 7    1  0.6485470E-006  0.4385560E+02  0.7818608E-02  0.1589927E+00
          2   -1    0    0  502    0  0.00000000000E+00  0.00000000000E+00  0.17051310847E+03  0.17051310847E+03  0.00000000000E+00 0. -1.
          1   -1    0    0  501    0 -0.00000000000E+00 -0.00000000000E+00 -0.16781696857E+04  0.16781696857E+04  0.00000000000E+00 0. -1.
         25    2    1    2    0    0 -0.13014082596E+02 -0.20890489411E+02 -0.37192567380E+03  0.39313933495E+03  0.12499620379E+03 0.  0.
          2    1    1    2  501    0  0.13624771549E+02  0.42444863387E+02 -0.12945248444E+04  0.12952921577E+04  0.00000000000E+00 0. -1.
          1    1    1    2  502    0 -0.61068895308E+00 -0.21554373977E+02  0.15879394096E+03  0.16025130160E+03  0.00000000000E+00 0. -1.
         22    1    3    3    0    0 -0.95289653089E+01 -0.61280630998E+02 -0.96256465949E+02  0.11450512719E+03  0.00000000000E+00 0. -1.
         22    1    3    3    0    0 -0.34851172868E+01  0.40390141587E+02 -0.27566920785E+03  0.27863420776E+03  0.00000000000E+00 0. -1.
</event>
<event>
 7    1  0.6485470E-006  0.8867749E+02  0.7818608E-02  0.1309687E+00
          2   -1    0    0  502    0  0.00000000000E+00  0.00000000000E+00  0.11499245743E+04  0.11499245743E+04  0.00000000000E+00 0. -1.
          1   -1    0    0  501    0 -0.00000000000E+00 -0.00000000000E+00 -0.46803960901E+02  0.46803960901E+02  0.00000000000E+00 0. -1.
         25    2    1    2    0    0 -0.66243383729E+02 -0.49336522990E+02  0.45111181406E+03  0.47534001833E+03  0.12499594335E+03 0.  0.
          2    1    1    2  501    0 -0.28869753374E+02  0.80816148014E+02  0.29315346385E+02  0.90686834620E+02  0.00000000000E+00 0. -1.
          1    1    1    2  502    0  0.95113137103E+02 -0.31479625025E+02  0.62269345299E+03  0.63070168229E+03  0.00000000000E+00 0. -1.
         22    1    3    3    0    0 -0.13019939468E+02  0.20389989253E+02  0.29722726594E+03  0.29821019114E+03  0.00000000000E+00 0.  1.
         22    1    3    3    0    0 -0.53223444261E+02 -0.69726512242E+02  0.15388454812E+03  0.17712982719E+03  0.00000000000E+00 0.  1.
</event>
<event>
 7    1  0.6485470E-006  0.1679427E+03  0.7818608E-02  0.1267365E+00
          2   -1    0    0  502    0  0.00000000000E+00  0.00000000000E+00  0.15331604650E+03  0.15331604650E+03  0.00000000000E+00 0. -1.
          1   -1    0    0  501    0 -0.00000000000E+00 -0.00000000000E+00 -0.11062852611E+04  0.11062852611E+04  0.00000000000E+00 0. -1.
         25    2    1    2    0    0  0.14451463029E+03  0.16288294325E+03 -0.28600107734E+03  0.38057413614E+03  0.12499890117E+03 0.  0.
          2    1    1    2  501    0 -0.61979174287E+02 -0.26540851411E+02 -0.71059482478E+03  0.71378627042E+03  0.00000000000E+00 0. -1.
          1    1    1    2  502    0 -0.82535456001E+02 -0.13634209184E+03  0.43626687538E+02  0.16524090102E+03  0.00000000000E+00 0. -1.
         22    1    3    3    0    0  0.11618893454E+03  0.51341484755E+02 -0.99212034872E+02  0.16117954098E+03  0.00000000000E+00 0.  1.
         22    1    3    3    0    0  0.28325695751E+02  0.11154145849E+03 -0.18678904247E+03  0.21939459517E+03  0.00000000000E+00 0.  1.
</event>
<event>
 7    1  0.6485470E-006  0.6681264E+02  0.7818608E-02  0.1479305E+00
          2   -1    0    0  502    0  0.00000000000E+00  0.00000000000E+00  0.40221861160E+03  0.40221861160E+03  0.00000000000E+00 0. -1.
          1   -1    0    0  501    0 -0.00000000000E+00 -0.00000000000E+00 -0.26818684369E+03  0.26818684369E+03  0.00000000000E+00 0. -1.
         25    2    1    2    0    0  0.20736391852E+02  0.58606697218E+02  0.98496661408E+01  0.13995315553E+03  0.12500050766E+03 0.  0.
          2    1    1    2  501    0  0.27062953021E+02 -0.11123560445E+02 -0.19858454847E+03  0.20072857274E+03  0.00000000000E+00 0. -1.
          1    1    1    2  502    0 -0.47799344873E+02 -0.47483136773E+02  0.32276665024E+03  0.32972372701E+03  0.00000000000E+00 0. -1.
         22    1    3    3    0    0 -0.43542263840E+02  0.31661631826E+02 -0.27955831332E+02  0.60662312647E+02  0.00000000000E+00 0.  1.
         22    1    3    3    0    0  0.64278655692E+02  0.26945065392E+02  0.37805497473E+02  0.79290842887E+02  0.00000000000E+00 0.  1.
</event>
<event>
 7    1  0.6485470E-006  0.7476263E+02  0.7818608E-02  0.1382618E+00
          2   -1    0    0  502    0  0.00000000000E+00  0.00000000000E+00  0.64244090315E+02  0.64244090315E+02  0.00000000000E+00 0. -1.
          1   -1    0    0  501    0 -0.00000000000E+00 -0.00000000000E+00 -0.14418942218E+04  0.14418942218E+04  0.00000000000E+00 0. -1.
         25    2    1    2    0    0  0.79651507244E+02  0.98150619372E+02 -0.22845801401E+03  0.28947275191E+03  0.12499401283E+03 0.  0.
          2    1    1    2  501    0 -0.40009775643E+02 -0.60878856045E+02 -0.11590761733E+04  0.11613632476E+04  0.00000000000E+00 0. -1.
          1    1    1    2  502    0 -0.39641731601E+02 -0.37271763327E+02  0.98840558170E+01  0.55302312657E+02  0.00000000000E+00 0. -1.
         22    1    3    3    0    0  0.37042423510E+02  0.95610001684E+01  0.26279061057E+01  0.38346574218E+02  0.00000000000E+00 0. -1.
         22    1    3    3    0    0  0.42609083734E+02  0.88589619203E+02 -0.23108592011E+03  0.25112617769E+03  0.00000000000E+00 0. -1.
</event>
<event>
 7    1  0.6485470E-006  0.1528770E+03  0.7818608E-02  0.1260524E+00
          2   -1    0    0  502    0  0.00000000000E+00  0.00000000000E+00  0.78829034185E+03  0.78829034185E+03  0.00000000000E+00 0. -1.
          1   -1    0    0  501    0 -0.00000000000E+00 -0.00000000000E+00 -0.19844633581E+04  0.19844633581E+04  0.00000000000E+00 0. -1.
         25    2    1    2    0    0  0.80857360084E+02 -0.52287904460E+02 -0.20999088772E+03  0.26266602892E+03  0.12500132876E+03 0.  0.
          2    1    1    2  501    0  0.13842220831E+01 -0.79172127764E+02 -0.17393353962E+04  0.17411369166E+04  0.00000000000E+00 0. -1.
          1    1    1    2  502    0 -0.82241582167E+02  0.13146003222E+03  0.75315326775E+03  0.76895075436E+03  0.00000000000E+00 0. -1.
         22    1    3    3    0    0  0.71944627219E+02  0.27086413641E+02 -0.87955229708E+02  0.11681534840E+03  0.00000000000E+00 0.  1.
         22    1    3    3    0    0  0.89127328647E+01 -0.79374318101E+02 -0.12203565801E+03  0.14585068052E+03  0.00000000000E+00 0.  1.
</event>
<event>
 7    1  0.6485470E-006  0.1519282E+03  0.7818608E-02  0.1354307E+00
          2   -1    0    0  502    0  0.00000000000E+00  0.00000000000E+00  0.90389379638E+03  0.90389379638E+03  0.00000000000E+00 0. -1.
          1   -1    0    0  501    0 -0.00000000000E+00 -0.00000000000E+00 -0.38711400002E+03  0.38711400002E+03  0.00000000000E+00 0. -1.
         25    2    1    2    0    0  0.14188623549E+03  0.75231593839E+02  0.60461571896E+02  0.21230245781E+03  0.12500094152E+03 0.  0.
          2    1    1    2  501    0 -0.14535258660E+03 -0.41543525634E+02 -0.29242885951E+03  0.32919276546E+03  0.00000000000E+00 0. -1.
          1    1    1    2  502    0  0.34663511084E+01 -0.33688068205E+02  0.74874708398E+03  0.74951257314E+03  0.00000000000E+00 0. -1.
         22    1    3    3    0    0  0.40786526248E+02  0.20073746732E+02 -0.39180190482E+02  0.60013193194E+02  0.00000000000E+00 0. -1.
         22    1    3    3    0    0  0.10109970924E+03  0.55157847107E+02  0.99641762377E+02  0.15228926461E+03  0.00000000000E+00 0. -1.
</event>
<event>
 7    1  0.6485470E-006  0.1333439E+03  0.7818608E-02  0.1307493E+00
          2   -1    0    0  502    0  0.00000000000E+00  0.00000000000E+00  0.11729884648E+04  0.11729884648E+04  0.00000000000E+00 0. -1.
          1   -1    0    0  501    0 -0.00000000000E+00 -0.00000000000E+00 -0.11264288764E+03  0.11264288764E+03  0.00000000000E+00 0. -1.
         25    2    1    2    0    0 -0.29966611625E+02  0.10167648376E+03  0.57657164423E+03  0.59941285654E+03  0.12499922597E+03 0.  0.
          2    1    1    2  501    0 -0.37653608619E+02  0.44406534586E+02 -0.80547797002E+02  0.99386529056E+02  0.00000000000E+00 0. -1.
          1    1    1    2  502    0  0.67620220245E+02 -0.14608301835E+03  0.56432172991E+03  0.58683196682E+03  0.00000000000E+00 0. -1.
         22    1    3    3    0    0 -0.45256098381E+02 -0.12309188528E+02  0.21225136323E+03  0.21737127629E+03  0.00000000000E+00 0. -1.
         22    1    3    3    0    0  0.15289486755E+02  0.11398567229E+03  0.36432028100E+03  0.38204158025E+03  0.00000000000E+00 0. -1.
</event>
<event>
 7    1  0.6485470E-006  0.7761539E+02  0.7818608E-02  0.1461464E+00
          2   -1    0    0  502    0  0.00000000000E+00  0.00000000000E+00  0.13684595077E+04  0.13684595077E+04  0.00000000000E+00 0. -1.
          1   -1    0    0  501    0 -0.00000000000E+00 -0.00000000000E+00 -0.55840649947E+03  0.55840649947E+03  0.00000000000E+00 0. -1.
         25    2    1    2    0    0 -0.43948501460E+02 -0.84614125244E+02 -0.12845126672E+02  0.15773686512E+03  0.12499960147E+03 0.  0.
          2    1    1    2  501    0  0.27153775606E+02  0.90399380211E+01 -0.47152511554E+03  0.47239282657E+03  0.00000000000E+00 0. -1.
          1    1    1    2  502    0  0.16794725854E+02  0.75574187223E+02  0.12944232505E+04  0.12967363155E+04  0.00000000000E+00 0. -1.
         22    1    3    3    0    0 -0.46659342181E+02 -0.60956324559E+02  0.49268667308E+02  0.91214962013E+02  0.00000000000E+00 0. -1.
         22    1    3    3    0    0  0.27108407215E+01 -0.23657800684E+02 -0.62113793980E+02  0.66521903109E+02  0.00000000000E+00 0. -1.
</event>
<event>
 7    1  0.6485470E-006  0.2875217E+02  0.7818608E-02  0.1634438E+00
          2   -1    0    0  502    0  0.00000000000E+00  0.00000000000E+00  0.77342359237E+03  0.77342359237E+03  0.00000000000E+00 0. -1.
          1   -1    0    0  501    0 -0.00000000000E+00 -0.00000000000E+00 -0.32453935936E+02  0.32453935936E+02  0.00000000000E+00 0. -1.
         25    2    1    2    0    0 -0.31193183582E+02 -0.41567476264E+02  0.18838546877E+03  0.23198008415E+03  0.12499921925E+03 0.  0.
          2    1    1    2  501    0  0.14555280635E+02  0.22552574565E+02  0.70145880794E+01  0.27743093912E+02  0.00000000000E+00 0. -1.
          1    1    1    2  502    0  0.16637902947E+02  0.19014901700E+02  0.54556959959E+03  0.54615435025E+03  0.00000000000E+00 0. -1.
         22    1    3    3    0    0  0.24043015055E+02 -0.56110178500E+02  0.40003963643E+02  0.72984490211E+02  0.00000000000E+00 0. -1.
         22    1    3    3    0    0 -0.55236198637E+02  0.14542702236E+02  0.14838150513E+03  0.15899559394E+03  0.00000000000E+00 0. -1.
</event>
<event>
 7    1  0.6485470E-006  0.3382768E+02  0.7818608E-02  0.1591304E+00
          2   -1    0    0  502    0  0.00000000000E+00  0.00000000000E+00  0.22544203093E+03  0.22544203093E+03  0.00000000000E+00 0. -1.
          1   -1    0    0  501    0 -0.00000000000E+00 -0.00000000000E+00 -0.71602185775E+03  0.71602185775E+03  0.00000000000E+00 0. -1.
         25    2    1    2    0    0  0.35443242319E+02 -0.27405049992E+02  0.45843591886E+01  0.13286188915E+03  0.12499602013E+03 0.  0.
          2    1    1    2  501    0 -0.16652759536E+01  0.27671584298E+02 -0.64976393488E+03  0.65035502673E+03  0.00000000000E+00 0. -1.
          1    1    1    2  502    0 -0.33777966366E+02 -0.26653430581E+00  0.15459974886E+03  0.15824697280E+03  0.00000000000E+00 0. -1.
         22    1    3    3    0    0  0.72205656942E+02 -0.31855369217E+02 -0.27794524314E+02  0.83671721771E+02  0.00000000000E+00 0. -1.
         22    1    3    3    0    0 -0.36762414623E+02  0.44503192245E+01  0.32378883502E+02  0.49190167381E+02  0.00000000000E+00 0. -1.
</event>
<event>
 7    1  0.6485470E-006  0.9414050E+02  0.7818608E-02  0.1441114E+00
          2   -1    0    0  502    0  0.00000000000E+00  0.00000000000E+00  0.71043161540E+03  0.71043161540E+03  0.00000000000E+00 0. -1.
          1   -1    0    0  501    0 -0.00000000000E+00 -0.00000000000E+00 -0.10752492742E+03  0.10752492742E+03  0.00000000000E+00 0. -1.
         25    2    1    2    0    0 -0.11532553080E+03 -0.16380636218E+02  0.18130444413E+03  0.24912937254E+03  0.12500335796E+03 0.  0.
          2    1    1    2  501    0  0.88532979412E+02  0.22139405289E+02 -0.44770760377E+02  0.10164970583E+03  0.00000000000E+00 0. -1.
          1    1    1    2  502    0  0.26792551385E+02 -0.57587690714E+01  0.46637300422E+03  0.46717746446E+03  0.00000000000E+00 0. -1.
         22    1    3    3    0    0 -0.11417509273E+03 -0.56658456048E+02  0.15640004443E+03  0.20176002166E+03  0.00000000000E+00 0. -1.
         22    1    3    3    0    0 -0.11504380647E+01  0.40277819831E+02  0.24904399705E+02  0.47369350879E+02  0.00000000000E+00 0. -1.
</event>
<event>
 7    1  0.6485470E-006  0.7004872E+02  0.7818608E-02  0.1373120E+00
          2   -1    0    0  502    0  0.00000000000E+00  0.00000000000E+00  0.20960476704E+03  0.20960476704E+03  0.00000000000E+00 0. -1.
          1   -1    0    0  501    0 -0.00000000000E+00 -0.00000000000E+00 -0.38537020923E+04  0.38537020923E+04  0.00000000000E+00 0. -1.
         25    2    1    2    0    0  0.75687644508E+02  0.10825223261E+03 -0.53194189574E+03  0.56216888007E+03  0.12499801551E+03 0.  0.
          2    1    1    2  501    0 -0.34903839415E+02 -0.52165955663E+02 -0.33001572975E+04  0.33007541188E+04  0.00000000000E+00 0. -1.
          1    1    1    2  502    0 -0.40783805093E+02 -0.56086276943E+02  0.18800186789E+03  0.20038386050E+03  0.00000000000E+00 0. -1.
         22    1    3    3    0    0  0.20054182767E+02 -0.18222115925E+02 -0.25468464251E+02  0.37186804468E+02  0.00000000000E+00 0. -1.
         22    1    3    3    0    0  0.55633461741E+02  0.12647434853E+03 -0.50647343148E+03  0.52498207560E+03  0.00000000000E+00 0. -1.
</event>
<event>
 7    1  0.6485470E-006  0.6118368E+02  0.7818608E-02  0.1427162E+00
          2   -1    0    0  502    0  0.00000000000E+00  0.00000000000E+00  0.67162256912E+03  0.67162256912E+03  0.00000000000E+00 0. -1.
          1   -1    0    0  501    0 -0.00000000000E+00 -0.00000000000E+00 -0.74061723610E+02  0.74061723610E+02  0.00000000000E+00 0. -1.
         25    2    1    2    0    0  0.29348548428E+02 -0.86757116719E+02  0.92375590628E+02  0.18040470958E+03  0.12499789957E+03 0.  0.
          2    1    1    2  501    0  0.13945499703E+02  0.44716595467E+02 -0.88878965666E+01  0.47676467754E+02  0.00000000000E+00 0. -1.
          1    1    1    2  502    0 -0.43294048131E+02  0.42040521252E+02  0.51407315145E+03  0.51760311540E+03  0.00000000000E+00 0. -1.
         22    1    3    3    0    0 -0.23465715486E+02 -0.17970275767E+02 -0.22016424878E+02  0.36855034647E+02  0.00000000000E+00 0.  1.
         22    1    3    3    0    0  0.52814263915E+02 -0.68786840951E+02  0.11439201551E+03  0.14354967493E+03  0.00000000000E+00 0.  1.
</event>
<event>
 7    1  0.6485470E-006  0.1134243E+03  0.7818608E-02  0.1255668E+00
          2   -1    0    0  502    0  0.00000000000E+00  0.00000000000E+00  0.68390705091E+02  0.68390705091E+02  0.00000000000E+00 0. -1.
          1   -1    0    0  501    0 -0.00000000000E+00 -0.00000000000E+00 -0.11388306829E+04  0.11388306829E+04  0.00000000000E+00 0. -1.
         25    2    1    2    0    0 -0.10856003861E+01 -0.25429505643E+02 -0.77378367712E+02  0.14919907176E+03  0.12500045175E+03 0.  0.
          2    1    1    2  501    0  0.10393349210E+03  0.69671972612E+02 -0.91013459716E+03  0.91869545525E+03  0.00000000000E+00 0. -1.
          1    1    1    2  502    0 -0.10284789172E+03 -0.44242466969E+02 -0.82927012908E+02  0.13932686096E+03  0.00000000000E+00 0. -1.
         22    1    3    3    0    0  0.37692930293E+01  0.39137986787E+02  0.98797312555E+01  0.40541320518E+02  0.00000000000E+00 0. -1.
         22    1    3    3    0    0 -0.48548934153E+01 -0.64567492430E+02 -0.87258098968E+02  0.10865775124E+03  0.00000000000E+00 0. -1.
</event>
<event>
 7    1  0.6485470E-006  0.8325028E+02  0.7818608E-02  0.1468130E+00
          2   -1    0    0  502    0  0.00000000000E+00  0.00000000000E+00  0.26525669533E+03  0.26525669533E+03  0.00000000000E+00 0. -1.
          1   -1    0    0  501    0 -0.00000000000E+00 -0.00000000000E+00 -0.12274289916E+04  0.12274289916E+04  0.00000000000E+00 0. -1.
         25    2    1    2    0    0 -0.11615939290E+01  0.62105937618E+02  0.35484521997E+02  0.14402544009E+03  0.12500271718E+03 0.  0.
          2    1    1    2  501    0 -0.22200440587E+01  0.25331828125E+02 -0.11621037769E+04  0.11623819589E+04  0.00000000000E+00 0. -1.
          1    1    1    2  502    0  0.33816379877E+01 -0.87437765743E+02  0.16444695863E+03  0.18627828793E+03  0.00000000000E+00 0. -1.
         22    1    3    3    0    0 -0.17020035495E+01  0.95078290351E+02  0.50635638424E+02  0.10773460907E+03  0.00000000000E+00 0. -1.
         22    1    3    3    0    0  0.54040962044E+00 -0.32972352733E+02 -0.15151116427E+02  0.36290831022E+02  0.00000000000E+00 0. -1.
</event>
<event>
 7    1  0.6485470E-006  0.3496485E+02  0.7818608E-02  0.1589147E+00
          2   -1    0    0  502    0  0.00000000000E+00  0.00000000000E+00  0.19135967069E+04  0.19135967069E+04  0.00000000000E+00 0. -1.
          1   -1    0    0  501    0 -0.00000000000E+00 -0.00000000000E+00 -0.76887006191E+02  0.76887006191E+02  0.00000000000E+00 0. -1.
         25    2    1    2    0    0 -0.56288418955E+02 -0.21572076164E+02  0.12884655764E+03  0.18935612371E+03  0.12498226111E+03 0.  0.
          2    1    1    2  501    0  0.21894154608E+02  0.16097219125E+02 -0.42485200893E+02  0.50432794533E+02  0.00000000000E+00 0. -1.
          1    1    1    2  502    0  0.34394264348E+02  0.54748570388E+01  0.17503483440E+04  0.17506947949E+04  0.00000000000E+00 0. -1.
         22    1    3    3    0    0 -0.27966237517E+02 -0.31706323948E+02 -0.13097300325E+02  0.44259921995E+02  0.00000000000E+00 0. -1.
         22    1    3    3    0    0 -0.28322181438E+02  0.10134247784E+02  0.14194385796E+03  0.14509620171E+03  0.00000000000E+00 0. -1.
</event>
<event>
 7    1  0.6485470E-006  0.7220447E+02  0.7818608E-02  0.1387923E+00
          2   -1    0    0  502    0  0.00000000000E+00  0.00000000000E+00  0.31479147095E+04  0.31479147095E+04  0.00000000000E+00 0. -1.
          1   -1    0    0  501    0 -0.00000000000E+00 -0.00000000000E+00 -0.14079916096E+03  0.14079916096E+03  0.00000000000E+00 0. -1.
         25    2    1    2    0    0  0.88444081490E+01  0.18460911820E+02  0.61134990744E+02  0.14064662444E+03  0.12499982820E+03 0.  0.
          2    1    1    2  501    0  0.42981360480E+02  0.32643853798E+02 -0.93369093969E+02  0.10784621573E+03  0.00000000000E+00 0. -1.
          1    1    1    2  502    0 -0.51825768629E+02 -0.51104765618E+02  0.30393496517E+04  0.30402210303E+04  0.00000000000E+00 0. -1.
         22    1    3    3    0    0  0.10330133949E+01  0.65534857033E+02  0.32424414290E+01  0.65623151627E+02  0.00000000000E+00 0. -1.
         22    1    3    3    0    0  0.78113947541E+01 -0.47073945213E+02  0.57892549315E+02  0.75023472808E+02  0.00000000000E+00 0. -1.
</event>
<event>
 7    1  0.6485470E-006  0.8442212E+02  0.7818608E-02  0.1345123E+00
          2   -1    0    0  502    0  0.00000000000E+00  0.00000000000E+00  0.16661599919E+04  0.16661599919E+04  0.00000000000E+00 0. -1.
          1   -1    0    0  501    0 -0.00000000000E+00 -0.00000000000E+00 -0.70255454421E+02  0.70255454421E+02  0.00000000000E+00 0. -1.
         25    2    1    2    0    0 -0.99839115938E+02  0.12322587950E+02  0.29939902542E+03  0.33967955662E+03  0.12499091775E+03 0.  0.
          2    1    1    2  501    0  0.70923794765E+02  0.46912482306E+02 -0.12607357361E+02  0.85964592244E+02  0.00000000000E+00 0. -1.
          1    1    1    2  502    0  0.28915321173E+02 -0.59235070256E+02  0.13091128694E+04  0.13107712975E+04  0.00000000000E+00 0. -1.
         22    1    3    3    0    0 -0.10563789776E+03 -0.36121838332E+02  0.21018874253E+03  0.23799886582E+03  0.00000000000E+00 0.  1.
         22    1    3    3    0    0  0.57987818200E+01  0.48444426281E+02  0.89210282891E+02  0.10168069080E+03  0.00000000000E+00 0.  1.
</event>
<event>
 7    1  0.6485470E-006  0.9846753E+02  0.7818608E-02  0.1390529E+00
          2   -1    0    0  502    0  0.00000000000E+00  0.00000000000E+00  0.16670940284E+04  0.16670940284E+04  0.00000000000E+00 0. -1.
          1   -1    0    0  501    0 -0.00000000000E+00 -0.00000000000E+00 -0.79872109088E+02  0.79872109088E+02  0.00000000000E+00 0. -1.
         25    2    1    2    0    0  0.52114124541E+02 -0.11824987357E+03  0.43472979390E+03  0.47044085512E+03  0.12500275951E+03 0.  0.
          2    1    1    2  501    0 -0.22331635254E+02  0.93450533870E+02 -0.24290494139E+02  0.99104653368E+02  0.00000000000E+00 0. -1.
          1    1    1    2  502    0 -0.29782489287E+02  0.24799339699E+02  0.11767826196E+04  0.11774206291E+04  0.00000000000E+00 0. -1.
         22    1    3    3    0    0  0.80324176974E+02 -0.12677431181E+03  0.37202453809E+03  0.40115577583E+03  0.00000000000E+00 0.  1.
         22    1    3    3    0    0 -0.28210052434E+02  0.85244382436E+01  0.62705255810E+02  0.69285079287E+02  0.00000000000E+00 0.  1.
</event>
<event>
 7    1  0.6485470E-006  0.2219778E+03  0.7818608E-02  0.1199277E+00
          2   -1    0    0  502    0  0.00000000000E+00  0.00000000000E+00  0.73277249347E+03  0.73277249347E+03  0.00000000000E+00 0. -1.
          1   -1    0    0  501    0 -0.00000000000E+00 -0.00000000000E+00 -0.38199290974E+03  0.38199290974E+03  0.00000000000E+00 0. -1.
         25    2    1    2    0    0  0.15467666276E+03 -0.75483731497E+02  0.99033710719E+02  0.23463822063E+03  0.12499901999E+03 0.  0.
          2    1    1    2  501    0 -0.15897193876E+03  0.17808119942E+03 -0.26303311053E+03  0.35520614878E+03  0.00000000000E+00 0. -1.
          1    1    1    2  502    0  0.42952760060E+01 -0.10259746792E+03  0.51477898354E+03  0.52492103379E+03  0.00000000000E+00 0. -1.
         22    1    3    3    0    0  0.75982100806E+02 -0.23726060421E+02 -0.20747415356E+02  0.82259715718E+02  0.00000000000E+00 0. -1.
         22    1    3    3    0    0  0.78694561952E+02 -0.51757671076E+02  0.11978112607E+03  0.15237850491E+03  0.00000000000E+00 0. -1.
</event>
<event>
 7    1  0.6485470E-006  0.7272299E+02  0.7818608E-02  0.1368248E+00
          2   -1    0    0  502    0  0.00000000000E+00  0.00000000000E+00  0.17845654265E+04  0.17845654265E+04  0.00000000000E+00 0. -1.
          1   -1    0    0  501    0 -0.00000000000E+00 -0.00000000000E+00 -0.57709506438E+02  0.57709506438E+02  0.00000000000E+00 0. -1.
         25    2    1    2    0    0 -0.33661491103E+02 -0.28615478690E+02  0.32838127961E+03  0.35413630963E+03  0.12500527746E+03 0.  0.
          2    1    1    2  501    0 -0.65555726299E+01  0.77035058855E+02 -0.10266369033E+02  0.77992141645E+02  0.00000000000E+00 0. -1.
          1    1    1    2  502    0  0.40217063733E+02 -0.48419580165E+02  0.14087410095E+04  0.14101464817E+04  0.00000000000E+00 0. -1.
         22    1    3    3    0    0 -0.65670121158E+02 -0.81658315593E+01  0.29866848676E+03  0.30591193275E+03  0.00000000000E+00 0.  1.
         22    1    3    3    0    0  0.32008630055E+02 -0.20449647131E+02  0.29712792858E+02  0.48224376877E+02  0.00000000000E+00 0.  1.
</event>
<event>
 7    1  0.7813429E-006  0.1333348E+03  0.7818608E-02  0.1375366E+00
          2   -1    0    0  502    0  0.00000000000E+00  0.00000000000E+00  0.78081050983E+03  0.78081050983E+03  0.00000000000E+00 0. -1.
          1   -1    0    0  501    0 -0.00000000000E+00 -0.00000000000E+00 -0.11313689654E+04  0.11313689654E+04  0.00000000000E+00 0. -1.
         25    2    1    2    0    0  0.14351598039E+03 -0.19996412959E+02 -0.36546209441E+03  0.41253612041E+03  0.12500725994E+03 0.  0.
          2    1    1    2  501    0 -0.18663830004E+02 -0.26448863258E+02 -0.73615315221E+03  0.73686453601E+03  0.00000000000E+00 0. -1.
          1    1    1    2  502    0 -0.12485215039E+03  0.46445276217E+02  0.75105679102E+03  0.76277881884E+03  0.00000000000E+00 0. -1.
         22    1    3    3    0    0 -0.48246943444E+00  0.13604473385E+02  0.43229945421E+01  0.14282953288E+02  0.00000000000E+00 0.  1.
         22    1    3    3    0    0  0.14399844983E+03 -0.33600886344E+02 -0.36978508895E+03  0.39825316712E+03  0.00000000000E+00 0.  1.
</event>
<event>
 7    1  0.6485470E-006  0.9797247E+02  0.7818608E-02  0.1298759E+00
          2   -1    0    0  502    0  0.00000000000E+00  0.00000000000E+00  0.39836964197E+04  0.39836964197E+04  0.00000000000E+00 0. -1.
          1   -1    0    0  501    0 -0.00000000000E+00 -0.00000000000E+00 -0.17321768049E+02  0.17321768049E+02  0.00000000000E+00 0. -1.
         25    2    1    2    0    0  0.89688476248E+02 -0.10852813184E+02  0.29434732372E+04  0.29475109989E+04  0.12499833612E+03 0.  0.
          2    1    1    2  501    0 -0.19849256864E+02  0.95940671336E+02  0.19406961282E+03  0.21739737817E+03  0.00000000000E+00 0. -1.
          1    1    1    2  502    0 -0.69839219385E+02 -0.85087858152E+02  0.82883180166E+03  0.83610981073E+03  0.00000000000E+00 0. -1.
         22    1    3    3    0    0  0.35378915522E+02  0.38128620841E+02  0.45501415436E+03  0.45797744493E+03  0.00000000000E+00 0. -1.
         22    1    3    3    0    0  0.54309560726E+02 -0.48981434025E+02  0.24884590828E+04  0.24895335539E+04  0.00000000000E+00 0. -1.
</event>
<event>
 7    1  0.6485470E-006  0.1550674E+03  0.7818608E-02  0.1223931E+00
          2   -1    0    0  502    0  0.00000000000E+00  0.00000000000E+00  0.67483570632E+03  0.67483570632E+03  0.00000000000E+00 0. -1.
          1   -1    0    0  501    0 -0.00000000000E+00 -0.00000000000E+00 -0.29173036788E+03  0.29173036788E+03  0.00000000000E+00 0. -1.
         25    2    1    2    0    0 -0.12983124146E+03 -0.36384231112E+02  0.21666457827E+03  0.28416312480E+03  0.12500071395E+03 0.  0.
          2    1    1    2  501    0  0.26312995065E+02 -0.10994924298E+03 -0.22503764442E+03  0.25183953452E+03  0.00000000000E+00 0. -1.
          1    1    1    2  502    0  0.10351824640E+03  0.14633347409E+03  0.39147840458E+03  0.43056341488E+03  0.00000000000E+00 0. -1.
         22    1    3    3    0    0 -0.10556447016E+03 -0.20117931712E+02  0.56607822855E+02  0.12146206875E+03  0.00000000000E+00 0. -1.
         22    1    3    3    0    0 -0.24266771300E+02 -0.16266299399E+02  0.16005675542E+03  0.16270105605E+03  0.00000000000E+00 0. -1.
</event>
<event>
 7    1  0.6485470E-006  0.2065997E+03  0.7818608E-02  0.1264344E+00
          2   -1    0    0  502    0  0.00000000000E+00  0.00000000000E+00  0.18275657247E+04  0.18275657247E+04  0.00000000000E+00 0. -1.
          1   -1    0    0  501    0 -0.00000000000E+00 -0.00000000000E+00 -0.16752458045E+03  0.16752458045E+03  0.00000000000E+00 0. -1.
         25    2    1    2    0    0 -0.30916407647E+02  0.22806163239E+03  0.61700180659E+03  0.67028681785E+03  0.12500102568E+03 0.  0.
          2    1    1    2  501    0  0.73386258817E+02 -0.19088434504E+03 -0.65568733486E+02  0.21475948169E+03  0.00000000000E+00 0. -1.
          1    1    1    2  502    0 -0.42469851170E+02 -0.37177287352E+02  0.11086080712E+04  0.11100440056E+04  0.00000000000E+00 0. -1.
         22    1    3    3    0    0  0.18670372877E+02  0.10479486523E+03  0.14459027316E+03  0.17954635528E+03  0.00000000000E+00 0.  1.
         22    1    3    3    0    0 -0.49586780523E+02  0.12326676717E+03  0.47241153343E+03  0.49074046258E+03  0.00000000000E+00 0.  1.
</event>
<event>
 7    1  0.6485470E-006  0.4645629E+02  0.7818608E-02  0.1565287E+00
          2   -1    0    0  502    0  0.00000000000E+00  0.00000000000E+00  0.16789307112E+04  0.16789307112E+04  0.00000000000E+00 0. -1.
          1   -1    0    0  501    0 -0.00000000000E+00 -0.00000000000E+00 -0.10961500111E+03  0.10961500111E+03  0.00000000000E+00 0. -1.
         25    2    1    2    0    0 -0.16332731940E+02 -0.38355394130E+02  0.14541331030E+03  0.19623182502E+03  0.12499601572E+03 0.  0.
          2    1    1    2  501    0  0.22372831678E+02 -0.78564109368E+01 -0.82168786138E+02  0.85521787900E+02  0.00000000000E+00 0. -1.
          1    1    1    2  502    0 -0.60400997384E+01  0.46211805066E+02  0.15060711859E+04  0.15067920994E+04  0.00000000000E+00 0. -1.
         22    1    3    3    0    0 -0.22523073325E+02 -0.83336645357E+02  0.97359616036E+02  0.13011986830E+03  0.00000000000E+00 0.  1.
         22    1    3    3    0    0  0.61903413854E+01  0.44981251227E+02  0.48053694266E+02  0.66111956718E+02  0.00000000000E+00 0.  1.
</event>
<event>
 7    1  0.6485470E-006  0.8240817E+02  0.7818608E-02  0.1370339E+00
          2   -1    0    0  502    0  0.00000000000E+00  0.00000000000E+00  0.31984015534E+03  0.31984015534E+03  0.00000000000E+00 0. -1.
          1   -1    0    0  501    0 -0.00000000000E+00 -0.00000000000E+00 -0.50632019790E+03  0.50632019790E+03  0.00000000000E+00 0. -1.
         25    2    1    2    0    0  0.56119706633E+02  0.46868054479E+02  0.23102958891E+02  0.14664722836E+03  0.12500250746E+03 0.  0.
          2    1    1    2  501    0 -0.14612752281E+02 -0.82327815553E+02 -0.43736229783E+03  0.44528325963E+03  0.00000000000E+00 0. -1.
          1    1    1    2  502    0 -0.41506954352E+02  0.35459761074E+02  0.22777929639E+03  0.23422986525E+03  0.00000000000E+00 0. -1.
         22    1    3    3    0    0 -0.29854928759E+02  0.14593107010E+02 -0.26290953752E+02  0.42373220230E+02  0.00000000000E+00 0.  1.
         22    1    3    3    0    0  0.85974635392E+02  0.32274947468E+02  0.49393912644E+02  0.10427400813E+03  0.00000000000E+00 0.  1.
</event>
<event>
 7    1  0.6485470E-006  0.2957479E+03  0.7818608E-02  0.1115061E+00
          2   -1    0    0  502    0  0.00000000000E+00  0.00000000000E+00  0.13680747267E+04  0.13680747267E+04  0.00000000000E+00 0. -1.
          1   -1    0    0  501    0 -0.00000000000E+00 -0.00000000000E+00 -0.13031422481E+04  0.13031422481E+04  0.00000000000E+00 0. -1.
         25    2    1    2    0    0  0.12035883022E+03 -0.33581791761E+03  0.42415091863E+03  0.56814451958E+03  0.12499708617E+03 0.  0.
          2    1    1    2  501    0 -0.19909025517E+03  0.55529124845E+02 -0.11977421361E+04  0.12154450371E+04  0.00000000000E+00 0. -1.
          1    1    1    2  502    0  0.78731424949E+02  0.28028879277E+03  0.83852369606E+03  0.88762741817E+03  0.00000000000E+00 0. -1.
         22    1    3    3    0    0  0.11068690658E+03 -0.19377758075E+03  0.18522069465E+03  0.29001387522E+03  0.00000000000E+00 0.  1.
         22    1    3    3    0    0  0.96719236399E+01 -0.14204033686E+03  0.23893022398E+03  0.27813064436E+03  0.00000000000E+00 0.  1.
</event>
<event>
 7    1  0.6485470E-006  0.9366857E+02  0.7818608E-02  0.1307243E+00
          2   -1    0    0  502    0  0.00000000000E+00  0.00000000000E+00  0.79035031640E+03  0.79035031640E+03  0.00000000000E+00 0. -1.
          1   -1    0    0  501    0 -0.00000000000E+00 -0.00000000000E+00 -0.46528639649E+02  0.46528639649E+02  0.00000000000E+00 0. -1.
         25    2    1    2    0    0  0.15224462612E+02  0.43237392227E+01  0.40065492566E+03  0.42000056617E+03  0.12500250853E+03 0.  0.
          2    1    1    2  501    0 -0.10766195654E+02 -0.97886147946E+02  0.52718588205E+02  0.11169985887E+03  0.00000000000E+00 0. -1.
          1    1    1    2  502    0 -0.44582669580E+01  0.93562408724E+02  0.29044816289E+03  0.30517853102E+03  0.00000000000E+00 0. -1.
         22    1    3    3    0    0  0.39332717821E+02  0.47681210732E+02  0.31508099926E+03  0.32108658745E+03  0.00000000000E+00 0.  1.
         22    1    3    3    0    0 -0.24108255209E+02 -0.43357471509E+02  0.85573926406E+02  0.98913978716E+02  0.00000000000E+00 0.  1.
</event>
<event>
 7    1  0.6485470E-006  0.1949129E+03  0.7818608E-02  0.1232152E+00
          2   -1    0    0  502    0  0.00000000000E+00  0.00000000000E+00  0.24152097092E+04  0.24152097092E+04  0.00000000000E+00 0. -1.
          1   -1    0    0  501    0 -0.00000000000E+00 -0.00000000000E+00 -0.88813003780E+03  0.88813003780E+03  0.00000000000E+00 0. -1.
         25    2    1    2    0    0  0.29882465183E+02 -0.19518484445E+03 -0.95318159018E+02  0.25239249751E+03  0.12500534441E+03 0.  0.
          2    1    1    2  501    0  0.52548759330E+02  0.18990504260E+03 -0.69993742054E+03  0.72714351402E+03  0.00000000000E+00 0. -1.
          1    1    1    2  502    0 -0.82431224513E+02  0.52798018580E+01  0.23223352510E+04  0.23238037355E+04  0.00000000000E+00 0. -1.
         22    1    3    3    0    0  0.58844216965E+01 -0.11613318338E+03 -0.11907113858E+03  0.16643160380E+03  0.00000000000E+00 0.  1.
         22    1    3    3    0    0  0.23998043487E+02 -0.79051661071E+02  0.23752979562E+02  0.85960893710E+02  0.00000000000E+00 0.  1.
</event>
<event>
 7    1  0.6485470E-006  0.1096726E+03  0.7818608E-02  0.1368009E+00
          2   -1    0    0  502    0  0.00000000000E+00  0.00000000000E+00  0.12975667563E+03  0.12975667563E+03  0.00000000000E+00 0. -1.
          1   -1    0    0  501    0 -0.00000000000E+00 -0.00000000000E+00 -0.13019190833E+04  0.13019190833E+04  0.00000000000E+00 0. -1.
         25    2    1    2    0    0  0.32390787000E+02 -0.65739237494E+02 -0.82767773821E+02  0.16687680775E+03  0.12500621645E+03 0.  0.
          2    1    1    2  501    0 -0.31465068026E+02  0.10754897686E+03 -0.11692757510E+04  0.11746329702E+04  0.00000000000E+00 0. -1.
          1    1    1    2  502    0 -0.92571897416E+00 -0.41809739370E+02  0.79881117088E+02  0.90165980996E+02  0.00000000000E+00 0. -1.
         22    1    3    3    0    0 -0.38486964981E+02 -0.28601641396E+02  0.48775116752E+01  0.48198448980E+02  0.00000000000E+00 0. -1.
         22    1    3    3    0    0  0.70877751981E+02 -0.37137596098E+02 -0.87645285496E+02  0.11867835877E+03  0.00000000000E+00 0. -1.
</event>
<event>
 7    1  0.6485470E-006  0.1648648E+03  0.7818608E-02  0.1367265E+00
          2   -1    0    0  502    0  0.00000000000E+00  0.00000000000E+00  0.32609452097E+03  0.32609452097E+03  0.00000000000E+00 0. -1.
          1   -1    0    0  501    0 -0.00000000000E+00 -0.00000000000E+00 -0.15381640466E+04  0.15381640466E+04  0.00000000000E+00 0. -1.
         25    2    1    2    0    0 -0.11348269734E+03  0.97548588743E+02 -0.23940036638E+03  0.30876122564E+03  0.12500763687E+03 0.  0.
          2    1    1    2  501    0 -0.26770134939E+02 -0.81809761541E+01 -0.12401855379E+04  0.12405014054E+04  0.00000000000E+00 0. -1.
          1    1    1    2  502    0  0.14025283228E+03 -0.89367612589E+02  0.26751637866E+03  0.31499593648E+03  0.00000000000E+00 0. -1.
         22    1    3    3    0    0  0.16046307467E+01  0.74551351375E+02 -0.12041400504E+03  0.14163336980E+03  0.00000000000E+00 0. -1.
         22    1    3    3    0    0 -0.11508732809E+03  0.22997237368E+02 -0.11898636134E+03  0.16712785584E+03  0.00000000000E+00 0. -1.
</event>
<event>
 7    1  0.6485470E-006  0.1029445E+03  0.7818608E-02  0.1457221E+00
          2   -1    0    0  502    0  0.00000000000E+00  0.00000000000E+00  0.76936745283E+03  0.76936745283E+03  0.00000000000E+00 0. -1.
          1   -1    0    0  501    0 -0.00000000000E+00 -0.00000000000E+00 -0.72496717052E+03  0.72496717052E+03  0.00000000000E+00 0. -1.
         25    2    1    2    0    0 -0.27663759797E+02 -0.11180987606E+03  0.10706011628E+02  0.17031122478E+03  0.12499825043E+03 0.  0.
          2    1    1    2  501    0 -0.13223811517E+02  0.17898230013E+02 -0.64110687421E+03  0.64149297735E+03  0.00000000000E+00 0. -1.
          1    1    1    2  502    0  0.40887571315E+02  0.93911646043E+02  0.67480114489E+03  0.68253042122E+03  0.00000000000E+00 0. -1.
         22    1    3    3    0    0 -0.58156915222E+02 -0.10356634095E+03 -0.26302198957E+02  0.12165533049E+03  0.00000000000E+00 0. -1.
         22    1    3    3    0    0  0.30493155424E+02 -0.82435351061E+01  0.37008210585E+02  0.48655894294E+02  0.00000000000E+00 0. -1.
</event>
<event>
 7    1  0.6485470E-006  0.8619337E+02  0.7818608E-02  0.1329269E+00
          2   -1    0    0  502    0  0.00000000000E+00  0.00000000000E+00  0.10556825993E+04  0.10556825993E+04  0.00000000000E+00 0. -1.
          1   -1    0    0  501    0 -0.00000000000E+00 -0.00000000000E+00 -0.11098526860E+03  0.11098526860E+03  0.00000000000E+00 0. -1.
         25    2    1    2    0    0 -0.11352857514E+03  0.21300140590E+02  0.30260068573E+03  0.34718073084E+03  0.12499940599E+03 0.  0.
          2    1    1    2  501    0  0.54638019201E+02 -0.66289881085E+02 -0.65495531779E+02  0.10802465533E+03  0.00000000000E+00 0. -1.
          1    1    1    2  502    0  0.58890555943E+02  0.44989740495E+02  0.70759217675E+03  0.71146248174E+03  0.00000000000E+00 0. -1.
         22    1    3    3    0    0 -0.13008876135E+03 -0.50738612812E+01  0.27973466613E+03  0.30854548017E+03  0.00000000000E+00 0.  1.
         22    1    3    3    0    0  0.16560186206E+02  0.26374001871E+02  0.22866019603E+02  0.38635250670E+02  0.00000000000E+00 0.  1.
</event>
<event>
 7    1  0.6485470E-006  0.6196580E+02  0.7818608E-02  0.1421308E+00
          2   -1    0    0  502    0  0.00000000000E+00  0.00000000000E+00  0.47117559453E+03  0.47117559453E+03  0.00000000000E+00 0. -1.
          1   -1    0    0  501    0 -0.00000000000E+00 -0.00000000000E+00 -0.46628803908E+02  0.46628803908E+02  0.00000000000E+00 0. -1.
         25    2    1    2    0    0  0.19588146998E+01 -0.55158677841E+02  0.16322992134E+03  0.21287416453E+03  0.12500034403E+03 0.  0.
          2    1    1    2  501    0 -0.47714241537E+02  0.79121344710E+01  0.15990797847E+02  0.50940713905E+02  0.00000000000E+00 0. -1.
          1    1    1    2  502    0  0.45755426838E+02  0.47246543370E+02  0.24532607143E+03  0.25398952000E+03  0.00000000000E+00 0. -1.
         22    1    3    3    0    0 -0.25973018254E+02 -0.10857849945E+01 -0.11069720177E+02  0.28254474178E+02  0.00000000000E+00 0. -1.
         22    1    3    3    0    0  0.27931832953E+02 -0.54072892847E+02  0.17429964151E+03  0.18461969035E+03  0.00000000000E+00 0. -1.
</event>
<event>
 7    1  0.6485470E-006  0.1661653E+03  0.7818608E-02  0.1241492E+00
          2   -1    0    0  502    0  0.00000000000E+00  0.00000000000E+00  0.10865559374E+04  0.10865559374E+04  0.00000000000E+00 0. -1.
          1   -1    0    0  501    0 -0.00000000000E+00 -0.00000000000E+00 -0.29395396194E+04  0.29395396194E+04  0.00000000000E+00 0. -1.
         25    2    1    2    0    0  0.96463757875E+02 -0.55156099311E+02  0.19493623985E+03  0.25685013309E+03  0.12499760553E+03 0.  0.
          2    1    1    2  501    0 -0.16688069604E+03  0.22465526582E+01 -0.29039268946E+04  0.29087188972E+04  0.00000000000E+00 0. -1.
          1    1    1    2  502    0  0.70416938164E+02  0.52909546653E+02  0.85600697275E+03  0.86052652644E+03  0.00000000000E+00 0. -1.
         22    1    3    3    0    0  0.11865447346E+03 -0.27249924780E+02  0.18191353339E+03  0.21889261317E+03  0.00000000000E+00 0. -1.
         22    1    3    3    0    0 -0.22190715581E+02 -0.27906174531E+02  0.13022706466E+02  0.37957519923E+02  0.00000000000E+00 0. -1.
</event>
<event>
 7    1  0.6485470E-006  0.3850075E+02  0.7818608E-02  0.1525835E+00
          2   -1    0    0  502    0  0.00000000000E+00  0.00000000000E+00  0.26508349476E+04  0.26508349476E+04  0.00000000000E+00 0. -1.
          1   -1    0    0  501    0 -0.00000000000E+00 -0.00000000000E+00 -0.29377265887E+03  0.29377265887E+03  0.00000000000E+00 0. -1.
         25    2    1    2    0    0 -0.33958790766E+02  0.99832981402E+01  0.66241702298E+02  0.14580262633E+03  0.12497030451E+03 0.  0.
          2    1    1    2  501    0  0.58909674892E+01 -0.36447287005E+02 -0.25250346942E+03  0.25518838198E+03  0.00000000000E+00 0. -1.
          1    1    1    2  502    0  0.28067823276E+02  0.26463988865E+02  0.25433240558E+04  0.25436165981E+04  0.00000000000E+00 0. -1.
         22    1    3    3    0    0 -0.18627513935E+02 -0.15753576980E+02 -0.33623178517E+02  0.41541275819E+02  0.00000000000E+00 0. -1.
         22    1    3    3    0    0 -0.15331276831E+02  0.25736875120E+02  0.99864880815E+02  0.10426135051E+03  0.00000000000E+00 0. -1.
</event>
<event>
 7    1  0.6485470E-006  0.3539334E+02  0.7818608E-02  0.1627711E+00
          2   -1    0    0  502    0  0.00000000000E+00  0.00000000000E+00  0.11154764401E+04  0.11154764401E+04  0.00000000000E+00 0. -1.
          1   -1    0    0  501    0 -0.00000000000E+00 -0.00000000000E+00 -0.10460168596E+04  0.10460168596E+04  0.00000000000E+00 0. -1.
         25    2    1    2    0    0 -0.13865175222E+02  0.54240415800E+02 -0.27219117340E+03  0.30470799558E+03  0.12499864759E+03 0.  0.
          2    1    1    2  501    0  0.92310837285E+00 -0.21319542053E+02 -0.75713231990E+03  0.75743298373E+03  0.00000000000E+00 0. -1.
          1    1    1    2  502    0  0.12942066849E+02 -0.32920873747E+02  0.10987830738E+04  0.10993523204E+04  0.00000000000E+00 0. -1.
         22    1    3    3    0    0  0.46776014617E+02  0.34904557743E+02 -0.20058085255E+03  0.20889950240E+03  0.00000000000E+00 0. -1.
         22    1    3    3    0    0 -0.60641189838E+02  0.19335858056E+02 -0.71610320858E+02  0.95808493178E+02  0.00000000000E+00 0. -1.
</event>
<event>
 7    1  0.6485470E-006  0.5905153E+02  0.7818608E-02  0.1435712E+00
          2   -1    0    0  502    0  0.00000000000E+00  0.00000000000E+00  0.99267088622E+02  0.99267088622E+02  0.00000000000E+00 0. -1.
          1   -1    0    0  501    0 -0.00000000000E+00 -0.00000000000E+00 -0.33335308291E+03  0.33335308291E+03  0.00000000000E+00 0. -1.
         25    2    1    2    0    0 -0.71726146710E+02 -0.52515223307E+02 -0.34206181339E+02  0.15715403261E+03  0.12499935329E+03 0.  0.
          2    1    1    2  501    0  0.26246112760E+02  0.51457590400E+02 -0.21872560167E+03  0.22622473532E+03  0.00000000000E+00 0. -1.
          1    1    1    2  502    0  0.45480033950E+02  0.10576329072E+01  0.18845788729E+02  0.49241403598E+02  0.00000000000E+00 0. -1.
         22    1    3    3    0    0 -0.12821322299E+02 -0.47047951844E+02  0.39420989197E+02  0.62704947712E+02  0.00000000000E+00 0. -1.
         22    1    3    3    0    0 -0.58904824411E+02 -0.54672714627E+01 -0.73627170537E+02  0.94449084894E+02  0.00000000000E+00 0. -1.
</event>
<event>
 7    1  0.6485470E-006  0.1493149E+03  0.7818608E-02  0.1378118E+00
          2   -1    0    0  502    0  0.00000000000E+00  0.00000000000E+00  0.62253039473E+03  0.62253039473E+03  0.00000000000E+00 0. -1.
          1   -1    0    0  501    0 -0.00000000000E+00 -0.00000000000E+00 -0.15607390403E+03  0.15607390403E+03  0.00000000000E+00 0. -1.
         25    2    1    2    0    0  0.72694262993E+02  0.15394760884E+03  0.11665778094E+03  0.24128502666E+03  0.12500041639E+03 0.  0.
          2    1    1    2  501    0 -0.54910998493E+02 -0.13198184671E+03 -0.38460703628E+02  0.14803260229E+03  0.00000000000E+00 0. -1.
          1    1    1    2  502    0 -0.17783264499E+02 -0.21965762132E+02  0.38825941339E+03  0.38928666981E+03  0.00000000000E+00 0. -1.
         22    1    3    3    0    0  0.10039072322E+03  0.13152563551E+03  0.63371293494E+02  0.17718129400E+03  0.00000000000E+00 0. -1.
         22    1    3    3    0    0 -0.27696460228E+02  0.22421973338E+02  0.53286487442E+02  0.64103732663E+02  0.00000000000E+00 0. -1.
</event>
<event>
 7    1  0.6485470E-006  0.1675709E+03  0.7818608E-02  0.1351071E+00
          2   -1    0    0  502    0  0.00000000000E+00  0.00000000000E+00  0.52512324891E+02  0.52512324891E+02  0.00000000000E+00 0. -1.
          1   -1    0    0  501    0 -0.00000000000E+00 -0.00000000000E+00 -0.22660353177E+04  0.22660353177E+04  0.00000000000E+00 0. -1.
         25    2    1    2    0    0  0.19620191448E+03 -0.36034715216E+01 -0.15407813319E+04  0.15582501001E+04  0.12501234043E+03 0.  0.
          2    1    1    2  501    0 -0.31559737877E+02  0.22642723157E+00 -0.55962233514E+03  0.56051157554E+03  0.00000000000E+00 0. -1.
          1    1    1    2  502    0 -0.16464217660E+03  0.33770442901E+01 -0.11311932569E+03  0.19978596694E+03  0.00000000000E+00 0. -1.
         22    1    3    3    0    0  0.30465582366E+02  0.16186166648E+02 -0.71160208025E+03  0.71243783190E+03  0.00000000000E+00 0. -1.
         22    1    3    3    0    0  0.16573633211E+03 -0.19789638169E+02 -0.82917925170E+03  0.84581226818E+03  0.00000000000E+00 0. -1.
</event>
<event>
 7    1  0.6485470E-006  0.4367264E+02  0.7818608E-02  0.1571977E+00
          2   -1    0    0  502    0  0.00000000000E+00  0.00000000000E+00  0.45939774255E+03  0.45939774255E+03  0.00000000000E+00 0. -1.
          1   -1    0    0  501    0 -0.00000000000E+00 -0.00000000000E+00 -0.99077407739E+02  0.99077407739E+02  0.00000000000E+00 0. -1.
         25    2    1    2    0    0  0.55478067721E+02 -0.31013865997E+02  0.71339119054E+02  0.15733091581E+03  0.12499628506E+03 0.  0.
          2    1    1    2  501    0 -0.13850838541E+02  0.19829559867E+02 -0.52052213725E+02  0.57397649137E+02  0.00000000000E+00 0. -1.
          1    1    1    2  502    0 -0.41627229180E+02  0.11184306131E+02  0.34103342949E+03  0.34374658535E+03  0.00000000000E+00 0. -1.
         22    1    3    3    0    0  0.51666761443E+02 -0.51059526581E+02 -0.10132441570E+02  0.73343001471E+02  0.00000000000E+00 0.  1.
         22    1    3    3    0    0  0.38113062776E+01  0.20045660583E+02  0.81471560624E+02  0.83987914335E+02  0.00000000000E+00 0.  1.
</event>
<event>
 7    1  0.6485470E-006  0.6769482E+02  0.7818608E-02  0.1376158E+00
          2   -1    0    0  502    0  0.00000000000E+00  0.00000000000E+00  0.85932247756E+03  0.85932247756E+03  0.00000000000E+00 0. -1.
          1   -1    0    0  501    0 -0.00000000000E+00 -0.00000000000E+00 -0.28093962516E+02  0.28093962516E+02  0.00000000000E+00 0. -1.
         25    2    1    2    0    0  0.67292295249E-01 -0.83999881305E+01  0.21692272829E+03  0.25049975896E+03  0.12499637939E+03 0.  0.
          2    1    1    2  501    0 -0.56584423013E+02 -0.37159005451E+02  0.12407936538E+03  0.14134453483E+03  0.00000000000E+00 0. -1.
          1    1    1    2  502    0  0.56517130718E+02  0.45558993581E+02  0.49022642138E+03  0.49557214629E+03  0.00000000000E+00 0. -1.
         22    1    3    3    0    0  0.51142973885E+02 -0.40162776527E+02  0.10759170588E+03  0.12571645704E+03  0.00000000000E+00 0.  1.
         22    1    3    3    0    0 -0.51075681590E+02  0.31762788397E+02  0.10933102241E+03  0.12478330192E+03  0.00000000000E+00 0.  1.
</event>
<event>
 7    1  0.6485470E-006  0.5224341E+02  0.7818608E-02  0.1557065E+00
          2   -1    0    0  502    0  0.00000000000E+00  0.00000000000E+00  0.19920999769E+03  0.19920999769E+03  0.00000000000E+00 0. -1.
          1   -1    0    0  501    0 -0.00000000000E+00 -0.00000000000E+00 -0.88240441948E+03  0.88240441948E+03  0.00000000000E+00 0. -1.
         25    2    1    2    0    0  0.27990398954E+02  0.13260263813E+02 -0.12233342574E+03  0.17762067422E+03  0.12499735927E+03 0.  0.
          2    1    1    2  501    0  0.17294122607E+02  0.13938246142E+02 -0.72818787860E+03  0.72852655952E+03  0.00000000000E+00 0. -1.
          1    1    1    2  502    0 -0.45284521561E+02 -0.27198509955E+02  0.16732688255E+03  0.17546718343E+03  0.00000000000E+00 0. -1.
         22    1    3    3    0    0 -0.36293433615E+02 -0.31573343060E+02 -0.63283169662E+02  0.79491187424E+02  0.00000000000E+00 0.  1.
         22    1    3    3    0    0  0.64283832569E+02  0.44833606873E+02 -0.59050256080E+02  0.98129486792E+02  0.00000000000E+00 0.  1.
</event>
<event>
 7    1  0.6485470E-006  0.4441033E+02  0.7818608E-02  0.1578933E+00
          2   -1    0    0  502    0  0.00000000000E+00  0.00000000000E+00  0.21206263984E+02  0.21206263984E+02  0.00000000000E+00 0. -1.
          1   -1    0    0  501    0 -0.00000000000E+00 -0.00000000000E+00 -0.17988761424E+04  0.17988761424E+04  0.00000000000E+00 0. -1.
         25    2    1    2    0    0 -0.16143861903E+02 -0.56867759002E+02 -0.81956441253E+03  0.83114748303E+03  0.12500298386E+03 0.  0.
          2    1    1    2  501    0  0.24645857847E+02  0.35733356350E+02 -0.96434023549E+03  0.96531672567E+03  0.00000000000E+00 0. -1.
          1    1    1    2  502    0 -0.85019959437E+01  0.21134402653E+02  0.62347695939E+01  0.23618197696E+02  0.00000000000E+00 0. -1.
         22    1    3    3    0    0  0.27251700978E+02 -0.31202820975E+02 -0.82085861954E+02  0.91947593637E+02  0.00000000000E+00 0.  1.
         22    1    3    3    0    0 -0.43395562881E+02 -0.25664938028E+02 -0.73747855057E+03  0.73919988939E+03  0.00000000000E+00 0.  1.
</event>
<event>
 7    1  0.6485470E-006  0.2075417E+03  0.7818608E-02  0.1239221E+00
          2   -1    0    0  502    0  0.00000000000E+00  0.00000000000E+00  0.14620401273E+04  0.14620401273E+04  0.00000000000E+00 0. -1.
          1   -1    0    0  501    0 -0.00000000000E+00 -0.00000000000E+00 -0.10673799603E+04  0.10673799603E+04  0.00000000000E+00 0. -1.
         25    2    1    2    0    0 -0.11408438410E+02  0.26084600507E+03  0.97078109133E+03  0.10130210546E+04  0.12499975544E+03 0.  0.
          2    1    1    2  501    0 -0.33454896803E+02 -0.20432283824E+03 -0.10331582414E+04  0.10536996745E+04  0.00000000000E+00 0. -1.
          1    1    1    2  502    0  0.44863335213E+02 -0.56523166831E+02  0.45703731703E+03  0.46269935854E+03  0.00000000000E+00 0. -1.
         22    1    3    3    0    0  0.27883004802E+02  0.50779633349E+02  0.38780649984E+03  0.39210956943E+03  0.00000000000E+00 0. -1.
         22    1    3    3    0    0 -0.39291443212E+02  0.21006637172E+03  0.58297459149E+03  0.62091148512E+03  0.00000000000E+00 0. -1.
</event>
<event>
 7    1  0.6485470E-006  0.1435491E+03  0.7818608E-02  0.1262456E+00
          2   -1    0    0  502    0  0.00000000000E+00  0.00000000000E+00  0.89634218770E+02  0.89634218770E+02  0.00000000000E+00 0. -1.
          1   -1    0    0  501    0 -0.00000000000E+00 -0.00000000000E+00 -0.15168111712E+04  0.15168111712E+04  0.00000000000E+00 0. -1.
         25    2    1    2    0    0  0.34943953961E+02 -0.92542886340E+02 -0.52847472842E+03  0.55199276712E+03  0.12500084260E+03 0.  0.
          2    1    1    2  501    0 -0.98668242469E+02  0.14532878113E+03 -0.94394115300E+03  0.96014622689E+03  0.00000000000E+00 0. -1.
          1    1    1    2  502    0  0.63724288508E+02 -0.52785894793E+02  0.45238928939E+02  0.94306396000E+02  0.00000000000E+00 0. -1.
         22    1    3    3    0    0  0.15124041528E+02  0.23300905712E+02 -0.34833373298E+02  0.44553706181E+02  0.00000000000E+00 0. -1.
         22    1    3    3    0    0  0.19819912434E+02 -0.11584379205E+03 -0.49364135512E+03  0.50743906094E+03  0.00000000000E+00 0. -1.
</event>
<event>
 7    1  0.6485470E-006  0.1058248E+03  0.7818608E-02  0.1383054E+00
          2   -1    0    0  502    0  0.00000000000E+00  0.00000000000E+00  0.76976244568E+03  0.76976244568E+03  0.00000000000E+00 0. -1.
          1   -1    0    0  501    0 -0.00000000000E+00 -0.00000000000E+00 -0.58373894352E+03  0.58373894352E+03  0.00000000000E+00 0. -1.
         25    2    1    2    0    0  0.78307747237E+02  0.15350121281E+02  0.29853549478E+03  0.33334058628E+03  0.12499910126E+03 0.  0.
          2    1    1    2  501    0  0.34510488610E+02  0.16621406566E+02 -0.55809435158E+03  0.55940732051E+03  0.00000000000E+00 0. -1.
          1    1    1    2  502    0 -0.11281823585E+03 -0.31971527847E+02  0.44558235896E+03  0.46075348240E+03  0.00000000000E+00 0. -1.
         22    1    3    3    0    0  0.69831329066E+00 -0.28958915943E+02  0.90097099744E+01  0.30336138975E+02  0.00000000000E+00 0. -1.
         22    1    3    3    0    0  0.77609433946E+02  0.44309037224E+02  0.28952578481E+03  0.30300444730E+03  0.00000000000E+00 0. -1.
</event>
<event>
 7    1  0.6485470E-006  0.6228586E+02  0.7818608E-02  0.1393997E+00
          2   -1    0    0  502    0  0.00000000000E+00  0.00000000000E+00  0.14812498543E+04  0.14812498543E+04  0.00000000000E+00 0. -1.
          1   -1    0    0  501    0 -0.00000000000E+00 -0.00000000000E+00 -0.14915855735E+03  0.14915855735E+03  0.00000000000E+00 0. -1.
         25    2    1    2    0    0 -0.38984627166E+02  0.23605119914E+01  0.14118690518E+03  0.19257292374E+03  0.12500086237E+03 0.  0.
          2    1    1    2  501    0  0.16571339759E+02  0.57240382215E+02 -0.11545421274E+03  0.12992592466E+03  0.00000000000E+00 0. -1.
          1    1    1    2  502    0  0.22413287406E+02 -0.59600894206E+02  0.13063586045E+04  0.13079095632E+04  0.00000000000E+00 0. -1.
         22    1    3    3    0    0 -0.51324950571E+02  0.51998515924E+02  0.51715721736E+02  0.89513195027E+02  0.00000000000E+00 0.  1.
         22    1    3    3    0    0  0.12340323405E+02 -0.49638003932E+02  0.89471183442E+02  0.10305972871E+03  0.00000000000E+00 0.  1.
</event>
<event>
 7    1  0.6485470E-006  0.1158494E+03  0.7818608E-02  0.1312428E+00
          2   -1    0    0  502    0  0.00000000000E+00  0.00000000000E+00  0.14726909974E+03  0.14726909974E+03  0.00000000000E+00 0. -1.
          1   -1    0    0  501    0 -0.00000000000E+00 -0.00000000000E+00 -0.24224064034E+03  0.24224064034E+03  0.00000000000E+00 0. -1.
         25    2    1    2    0    0 -0.41179853853E+02  0.67638873486E+02 -0.44056821334E+02  0.15439619678E+03  0.12500553789E+03 0.  0.
          2    1    1    2  501    0 -0.40647379597E+01  0.63949290581E+02 -0.69726354171E+02  0.94698460000E+02  0.00000000000E+00 0. -1.
          1    1    1    2  502    0  0.45244591813E+02 -0.13158816407E+03  0.18811634908E+02  0.14041508330E+03  0.00000000000E+00 0. -1.
         22    1    3    3    0    0 -0.25328646664E+02  0.10462888610E+03 -0.34354001217E+02  0.11299974136E+03  0.00000000000E+00 0.  1.
         22    1    3    3    0    0 -0.15851207189E+02 -0.36990012616E+02 -0.97028201167E+01  0.41396455415E+02  0.00000000000E+00 0.  1.
</event>
<event>
 7    1  0.6485470E-006  0.3799997E+03  0.7818608E-02  0.1054725E+00
          2   -1    0    0  502    0  0.00000000000E+00  0.00000000000E+00  0.67754524709E+03  0.67754524709E+03  0.00000000000E+00 0. -1.
          1   -1    0    0  501    0 -0.00000000000E+00 -0.00000000000E+00 -0.39908987651E+04  0.39908987651E+04  0.00000000000E+00 0. -1.
         25    2    1    2    0    0  0.25761112060E+03 -0.20348673899E+03 -0.17296080644E+04  0.17649191325E+04  0.12500058137E+03 0.  0.
          2    1    1    2  501    0 -0.26767788893E+02  0.50533293411E+03 -0.21571080745E+04  0.22156699063E+04  0.00000000000E+00 0. -1.
          1    1    1    2  502    0 -0.23084333171E+03 -0.30184619512E+03  0.57336262090E+03  0.68785497334E+03  0.00000000000E+00 0. -1.
         22    1    3    3    0    0  0.15881905538E+03 -0.87223758976E+02 -0.65751071255E+03  0.68202039090E+03  0.00000000000E+00 0.  1.
         22    1    3    3    0    0  0.98792065223E+02 -0.11626298001E+03 -0.10720973518E+04  0.10828987416E+04  0.00000000000E+00 0.  1.
</event>
<event>
 7    1  0.6485470E-006  0.2953947E+03  0.7818608E-02  0.1230644E+00
          2   -1    0    0  502    0  0.00000000000E+00  0.00000000000E+00  0.93147588241E+03  0.93147588241E+03  0.00000000000E+00 0. -1.
          1   -1    0    0  501    0 -0.00000000000E+00 -0.00000000000E+00 -0.46902224686E+03  0.46902224686E+03  0.00000000000E+00 0. -1.
         25    2    1    2    0    0  0.55208621763E+02 -0.27534095207E+03 -0.17241791856E+03  0.35243992237E+03  0.12500131374E+03 0.  0.
          2    1    1    2  501    0 -0.50831773878E+02 -0.21918868375E+02 -0.17595022719E+03  0.18445267272E+03  0.00000000000E+00 0. -1.
          1    1    1    2  502    0 -0.43768478848E+01  0.29725982044E+03  0.81082178129E+03  0.86360553418E+03  0.00000000000E+00 0. -1.
         22    1    3    3    0    0  0.70597432177E+01 -0.66508795151E+02 -0.11084371589E+03  0.12945883191E+03  0.00000000000E+00 0. -1.
         22    1    3    3    0    0  0.48148878545E+02 -0.20883215692E+03 -0.61574202663E+02  0.22298109046E+03  0.00000000000E+00 0. -1.
</event>
<event>
 7    1  0.6485470E-006  0.9638198E+02  0.7818608E-02  0.1299860E+00
          2   -1    0    0  502    0  0.00000000000E+00  0.00000000000E+00  0.43439989983E+03  0.43439989983E+03  0.00000000000E+00 0. -1.
          1   -1    0    0  501    0 -0.00000000000E+00 -0.00000000000E+00 -0.81527969636E+03  0.81527969636E+03  0.00000000000E+00 0. -1.
         25    2    1    2    0    0  0.21022719424E+00 -0.55807112296E+02 -0.23663114189E+02  0.13892296547E+03  0.12500067754E+03 0.  0.
          2    1    1    2  501    0  0.86077161278E+02  0.51701785845E+02 -0.72553160670E+03  0.73244690229E+03  0.00000000000E+00 0. -1.
          1    1    1    2  502    0 -0.86287388472E+02  0.41053264511E+01  0.36831492436E+03  0.37830972843E+03  0.00000000000E+00 0. -1.
         22    1    3    3    0    0  0.60833683277E+01  0.38131684759E+02 -0.22707708726E+02  0.44795901468E+02  0.00000000000E+00 0. -1.
         22    1    3    3    0    0 -0.58731411335E+01 -0.93938797055E+02 -0.95540546331E+00  0.94127064007E+02  0.00000000000E+00 0. -1.
</event>
<event>
 7    1  0.6485470E-006  0.6470663E+02  0.7818608E-02  0.1532597E+00
          2   -1    0    0  502    0  0.00000000000E+00  0.00000000000E+00  0.59128932599E+03  0.59128932599E+03  0.00000000000E+00 0. -1.
          1   -1    0    0  501    0 -0.00000000000E+00 -0.00000000000E+00 -0.16920982456E+03  0.16920982456E+03  0.00000000000E+00 0. -1.
         25    2    1    2    0    0  0.12070303420E+02 -0.83982213589E+02  0.15461122565E+03  0.21616334616E+03  0.12499302661E+03 0.  0.
          2    1    1    2  501    0 -0.76393695750E+01  0.63446463625E+02 -0.13076707876E+03  0.14554670247E+03  0.00000000000E+00 0. -1.
          1    1    1    2  502    0 -0.44309338448E+01  0.20535749964E+02  0.39823535454E+03  0.39878910192E+03  0.00000000000E+00 0. -1.
         22    1    3    3    0    0 -0.21014356137E+02 -0.74546346483E+02  0.23981996040E+02  0.81079572470E+02  0.00000000000E+00 0. -1.
         22    1    3    3    0    0  0.33084659557E+02 -0.94358671058E+01  0.13062922961E+03  0.13508377369E+03  0.00000000000E+00 0. -1.
</event>
<event>
 7    1  0.6485470E-006  0.1471139E+03  0.7818608E-02  0.1229548E+00
          2   -1    0    0  502    0  0.00000000000E+00  0.00000000000E+00  0.22952938372E+03  0.22952938372E+03  0.00000000000E+00 0. -1.
          1   -1    0    0  501    0 -0.00000000000E+00 -0.00000000000E+00 -0.62221776873E+03  0.62221776873E+03  0.00000000000E+00 0. -1.
         25    2    1    2    0    0  0.30721422917E+02 -0.89715304048E+02 -0.77196149523E+02  0.17486158289E+03  0.12499874425E+03 0.  0.
          2    1    1    2  501    0  0.58353842751E+02  0.15829409238E+03 -0.46221856634E+03  0.49204491027E+03  0.00000000000E+00 0. -1.
          1    1    1    2  502    0 -0.89075265668E+02 -0.68578788335E+02  0.14672633086E+03  0.18484065930E+03  0.00000000000E+00 0. -1.
         22    1    3    3    0    0  0.69101029208E+01  0.31914437720E+02 -0.11742378940E+02  0.34701070884E+02  0.00000000000E+00 0.  1.
         22    1    3    3    0    0  0.23811319996E+02 -0.12162974177E+03 -0.65453770583E+02  0.14016051201E+03  0.00000000000E+00 0.  1.
</event>
<event>
 7    1  0.6485470E-006  0.4958118E+02  0.7818608E-02  0.1474890E+00
          2   -1    0    0  502    0  0.00000000000E+00  0.00000000000E+00  0.21132727029E+04  0.21132727029E+04  0.00000000000E+00 0. -1.
          1   -1    0    0  501    0 -0.00000000000E+00 -0.00000000000E+00 -0.18596440153E+02  0.18596440153E+02  0.00000000000E+00 0. -1.
         25    2    1    2    0    0  0.24380958387E+02  0.13078579727E+02  0.75838947463E+03  0.76912786489E+03  0.12505037758E+03 0.  0.
          2    1    1    2  501    0 -0.93843901437E+01 -0.50896703481E+02  0.38967655262E+02  0.64784406767E+02  0.00000000000E+00 0. -1.
          1    1    1    2  502    0 -0.14996568243E+02  0.37818123754E+02  0.12973191328E+04  0.12979568714E+04  0.00000000000E+00 0. -1.
         22    1    3    3    0    0 -0.23660143959E+02 -0.45209473712E+02  0.24963088298E+03  0.25479261501E+03  0.00000000000E+00 0. -1.
         22    1    3    3    0    0  0.48041102345E+02  0.58288053439E+02  0.50875859165E+03  0.51433524988E+03  0.00000000000E+00 0. -1.
</event>
<event>
 7    1  0.6485470E-006  0.1800694E+03  0.7818608E-02  0.1382700E+00
          2   -1    0    0  502    0  0.00000000000E+00  0.00000000000E+00  0.38111934974E+03  0.38111934974E+03  0.00000000000E+00 0. -1.
          1   -1    0    0  501    0 -0.00000000000E+00 -0.00000000000E+00 -0.62283105740E+03  0.62283105740E+03  0.00000000000E+00 0. -1.
         25    2    1    2    0    0 -0.15499560342E+03 -0.39866430806E+02 -0.14759508193E+03  0.25103498659E+03  0.12498514671E+03 0.  0.
          2    1    1    2  501    0 -0.21799440032E+02 -0.58702504539E+01 -0.39786145763E+03  0.39850146159E+03  0.00000000000E+00 0. -1.
          1    1    1    2  502    0  0.17679504345E+03  0.45736681260E+02  0.30374483189E+03  0.35441395896E+03  0.00000000000E+00 0. -1.
         22    1    3    3    0    0 -0.33015589674E+02 -0.69953136825E+02 -0.52974935427E+02  0.93754009497E+02  0.00000000000E+00 0.  1.
         22    1    3    3    0    0 -0.12198001374E+03  0.30086706019E+02 -0.94620146502E+02  0.15728097709E+03  0.00000000000E+00 0.  1.
</event>
<event>
 7    1  0.6485470E-006  0.1052588E+03  0.7818608E-02  0.1311055E+00
          2   -1    0    0  502    0  0.00000000000E+00  0.00000000000E+00  0.93389237942E+02  0.93389237942E+02  0.00000000000E+00 0. -1.
          1   -1    0    0  501    0 -0.00000000000E+00 -0.00000000000E+00 -0.12649770156E+04  0.12649770156E+04  0.00000000000E+00 0. -1.
         25    2    1    2    0    0  0.38976687229E+02  0.38204283643E+02 -0.14165835890E+03  0.19664803137E+03  0.12499843262E+03 0.  0.
          2    1    1    2  501    0  0.26519950550E+02  0.66300529903E+02 -0.10357875006E+04  0.10382460279E+04  0.00000000000E+00 0. -1.
          1    1    1    2  502    0 -0.65496637779E+02 -0.10450481355E+03  0.58580819312E+01  0.12347219419E+03  0.00000000000E+00 0. -1.
         22    1    3    3    0    0  0.30899308986E+02  0.49784970652E+02 -0.16178149633E+03  0.17206557806E+03  0.00000000000E+00 0. -1.
         22    1    3    3    0    0  0.80773782428E+01 -0.11580687009E+02  0.20123137425E+02  0.24582453310E+02  0.00000000000E+00 0. -1.
</event>
<event>
 7    1  0.6485470E-006  0.8810982E+02  0.7818608E-02  0.1377813E+00
          2   -1    0    0  502    0  0.00000000000E+00  0.00000000000E+00  0.16102981512E+04  0.16102981512E+04  0.00000000000E+00 0. -1.
          1   -1    0    0  501    0 -0.00000000000E+00 -0.00000000000E+00 -0.51653543902E+02  0.51653543902E+02  0.00000000000E+00 0. -1.
         25    2    1    2    0    0  0.37318161143E+02 -0.40198158957E+02  0.47975381675E+03  0.49879673386E+03  0.12500367950E+03 0.  0.
          2    1    1    2  501    0 -0.28786690525E+02  0.87447964804E+02  0.93508871199E+01  0.92537879756E+02  0.00000000000E+00 0. -1.
          1    1    1    2  502    0 -0.85314706179E+01 -0.47249805847E+02  0.10695399034E+04  0.10706170815E+04  0.00000000000E+00 0. -1.
         22    1    3    3    0    0 -0.34413304111E+02 -0.33733410298E+02  0.31935305192E+03  0.32296840440E+03  0.00000000000E+00 0.  1.
         22    1    3    3    0    0  0.71731465254E+02 -0.64647486586E+01  0.16040076483E+03  0.17582832946E+03  0.00000000000E+00 0.  1.
</event>
<event>
 7    1  0.6485470E-006  0.1622564E+03  0.7818608E-02  0.1225639E+00
          2   -1    0    0  502    0  0.00000000000E+00  0.00000000000E+00  0.10414686483E+04  0.10414686483E+04  0.00000000000E+00 0. -1.
          1   -1    0    0  501    0 -0.00000000000E+00 -0.00000000000E+00 -0.13573961503E+04  0.13573961503E+04  0.00000000000E+00 0. -1.
         25    2    1    2    0    0 -0.63862398978E+02 -0.23555356709E+02 -0.86176645405E+02  0.16639257729E+03  0.12500725872E+03 0.  0.
          2    1    1    2  501    0 -0.10385315256E+03  0.21910616643E+02 -0.12217712828E+04  0.12263729530E+04  0.00000000000E+00 0. -1.
          1    1    1    2  502    0  0.16771555154E+03  0.16447400663E+01  0.99202042624E+03  0.10060992682E+04  0.00000000000E+00 0. -1.
         22    1    3    3    0    0  0.25538756995E+02  0.28963116986E+02 -0.21699156552E+02  0.44293833086E+02  0.00000000000E+00 0. -1.
         22    1    3    3    0    0 -0.89401155973E+02 -0.52518473695E+02 -0.64477488852E+02  0.12209874421E+03  0.00000000000E+00 0. -1.
</event>
<event>
 7    1  0.6485470E-006  0.1907476E+03  0.7818608E-02  0.1301304E+00
          2   -1    0    0  502    0  0.00000000000E+00  0.00000000000E+00  0.40075239651E+03  0.40075239651E+03  0.00000000000E+00 0. -1.
          1   -1    0    0  501    0 -0.00000000000E+00 -0.00000000000E+00 -0.27356826551E+04  0.27356826551E+04  0.00000000000E+00 0. -1.
         25    2    1    2    0    0  0.12424157739E+03 -0.18693014182E+03 -0.91303879438E+03  0.94849708772E+03  0.12501215102E+03 0.  0.
          2    1    1    2  501    0 -0.95039162781E+02  0.15526812348E+03 -0.17990956294E+04  0.18082825323E+04  0.00000000000E+00 0. -1.
          1    1    1    2  502    0 -0.29202414606E+02  0.31662018340E+02  0.37720416527E+03  0.37965543157E+03  0.00000000000E+00 0. -1.
         22    1    3    3    0    0  0.68321523967E+02 -0.18730159043E+03 -0.66564986782E+03  0.69486650728E+03  0.00000000000E+00 0.  1.
         22    1    3    3    0    0  0.55920053421E+02  0.37144861643E+00 -0.24738892657E+03  0.25363058044E+03  0.00000000000E+00 0.  1.
</event>
<event>
 7    1  0.6485470E-006  0.2072117E+03  0.7818608E-02  0.1263641E+00
          2   -1    0    0  502    0  0.00000000000E+00  0.00000000000E+00  0.21091753545E+04  0.21091753545E+04  0.00000000000E+00 0. -1.
          1   -1    0    0  501    0 -0.00000000000E+00 -0.00000000000E+00 -0.55101742229E+02  0.55101742229E+02  0.00000000000E+00 0. -1.
         25    2    1    2    0    0  0.11670108901E+03 -0.12251329111E+03  0.14716421762E+04  0.14866016544E+04  0.12500053363E+03 0.  0.
          2    1    1    2  501    0 -0.11720342478E+03  0.17917498384E+03  0.20637332357E+03  0.29737226887E+03  0.00000000000E+00 0. -1.
          1    1    1    2  502    0  0.50233576541E+00 -0.56661692728E+02  0.37605811250E+03  0.38030317346E+03  0.00000000000E+00 0. -1.
         22    1    3    3    0    0  0.98836317864E+02 -0.14823675060E+03  0.11986105095E+04  0.12117796440E+04  0.00000000000E+00 0.  1.
         22    1    3    3    0    0  0.17864771147E+02  0.25723459490E+02  0.27303166669E+03  0.27482201046E+03  0.00000000000E+00 0.  1.
</event>
<event>
 7    1  0.6485470E-006  0.2146940E+03  0.7818608E-02  0.1240705E+00
          2   -1    0    0  502    0  0.00000000000E+00  0.00000000000E+00  0.76365068801E+03  0.76365068801E+03  0.00000000000E+00 0. -1.
          1   -1    0    0  501    0 -0.00000000000E+00 -0.00000000000E+00 -0.27961151723E+04  0.27961151723E+04  0.00000000000E+00 0. -1.
         25    2    1    2    0    0 -0.15124443771E+03 -0.12340220358E+03  0.45952850263E+03  0.51467643359E+03  0.12498961067E+03 0.  0.
          2    1    1    2  501    0 -0.66961284730E+02 -0.15430585901E+02 -0.27075427102E+04  0.27084145629E+04  0.00000000000E+00 0. -1.
          1    1    1    2  502    0  0.21820572244E+03  0.13883278948E+03  0.21554972330E+03  0.33667486386E+03  0.00000000000E+00 0. -1.
         22    1    3    3    0    0 -0.16593358623E+03 -0.99504596253E+02  0.33347503615E+03  0.38553951736E+03  0.00000000000E+00 0.  1.
         22    1    3    3    0    0  0.14689148521E+02 -0.23897607329E+02  0.12605346648E+03  0.12913691622E+03  0.00000000000E+00 0.  1.
</event>
<event>
 7    1  0.6485470E-006  0.1152639E+03  0.7818608E-02  0.1277852E+00
          2   -1    0    0  502    0  0.00000000000E+00  0.00000000000E+00  0.22837011131E+04  0.22837011131E+04  0.00000000000E+00 0. -1.
          1   -1    0    0  501    0 -0.00000000000E+00 -0.00000000000E+00 -0.15555087013E+03  0.15555087013E+03  0.00000000000E+00 0. -1.
         25    2    1    2    0    0 -0.97920659734E+02  0.91755002546E+02  0.92048110002E+03  0.93857173809E+03  0.12499606374E+03 0.  0.
          2    1    1    2  501    0  0.85335958156E+02  0.24565761956E+02 -0.13025760009E+03  0.15764753343E+03  0.00000000000E+00 0. -1.
          1    1    1    2  502    0  0.12584701578E+02 -0.11632076450E+03  0.13379267431E+04  0.13430327118E+04  0.00000000000E+00 0. -1.
         22    1    3    3    0    0 -0.96621018497E+02  0.33911250176E+02  0.33660451015E+03  0.35183545921E+03  0.00000000000E+00 0.  1.
         22    1    3    3    0    0 -0.12996412370E+01  0.57843752370E+02  0.58387658987E+03  0.58673627888E+03  0.00000000000E+00 0.  1.
</event>
<event>
 7    1  0.6485470E-006  0.4004444E+02  0.7818608E-02  0.1556702E+00
          2   -1    0    0  502    0  0.00000000000E+00  0.00000000000E+00  0.26389789954E+03  0.26389789954E+03  0.00000000000E+00 0. -1.
          1   -1    0    0  501    0 -0.00000000000E+00 -0.00000000000E+00 -0.94939912169E+02  0.94939912169E+02  0.00000000000E+00 0. -1.
         25    2    1    2    0    0 -0.12370845233E+02  0.32206345896E+01  0.13057189708E+03  0.18120815767E+03  0.12499586314E+03 0.  0.
          2    1    1    2  501    0  0.41153923784E+02  0.67333930916E+00 -0.61278826040E+02  0.73818651773E+02  0.00000000000E+00 0. -1.
          1    1    1    2  502    0 -0.28783078552E+02 -0.38939738987E+01  0.99664916336E+02  0.10381100227E+03  0.00000000000E+00 0. -1.
         22    1    3    3    0    0 -0.66279268819E+02  0.93567961806E+01  0.95430763887E+02  0.11656552580E+03  0.00000000000E+00 0. -1.
         22    1    3    3    0    0  0.53908423586E+02 -0.61361615910E+01  0.35141133190E+02  0.64642631865E+02  0.00000000000E+00 0. -1.
</event>
<event>
 7    1  0.6485470E-006  0.4793808E+02  0.7818608E-02  0.1501083E+00
          2   -1    0    0  502    0  0.00000000000E+00  0.00000000000E+00  0.53396024484E+03  0.53396024484E+03  0.00000000000E+00 0. -1.
          1   -1    0    0  501    0 -0.00000000000E+00 -0.00000000000E+00 -0.36074392151E+03  0.36074392151E+03  0.00000000000E+00 0. -1.
         25    2    1    2    0    0  0.80256812067E+02  0.14987554866E+02 -0.49781141748E+02  0.15737765375E+03  0.12499512447E+03 0.  0.
          2    1    1    2  501    0 -0.45708643045E+02 -0.91307606763E+01 -0.25440497944E+03  0.25863979663E+03  0.00000000000E+00 0. -1.
          1    1    1    2  502    0 -0.34548169022E+02 -0.58567941893E+01  0.47740244451E+03  0.47868671597E+03  0.00000000000E+00 0. -1.
         22    1    3    3    0    0 -0.22994250510E+02  0.19713296815E+02 -0.44569971293E+02  0.53887215264E+02  0.00000000000E+00 0.  1.
         22    1    3    3    0    0  0.10325106258E+03 -0.47257419497E+01 -0.52111704557E+01  0.10349043848E+03  0.00000000000E+00 0.  1.
</event>
<event>
 7    1  0.6485470E-006  0.1006968E+03  0.7818608E-02  0.1375363E+00
          2   -1    0    0  502    0  0.00000000000E+00  0.00000000000E+00  0.75859228660E+02  0.75859228660E+02  0.00000000000E+00 0. -1.
          1   -1    0    0  501    0 -0.00000000000E+00 -0.00000000000E+00 -0.17044169292E+04  0.17044169292E+04  0.00000000000E+00 0. -1.
         25    2    1    2    0    0 -0.80905298739E+02  0.10401101509E+03 -0.95078523255E+03  0.96797802123E+03  0.12499973012E+03 0.  0.
          2    1    1    2  501    0  0.63600389398E+02 -0.64794990213E+02 -0.73511763473E+03  0.74070327201E+03  0.00000000000E+00 0. -1.
          1    1    1    2  502    0  0.17304909342E+02 -0.39216024880E+02  0.57345166722E+02  0.71594864628E+02  0.00000000000E+00 0. -1.
         22    1    3    3    0    0  0.20326681045E+02  0.50325902088E+02 -0.16049859707E+03  0.16942747725E+03  0.00000000000E+00 0.  1.
         22    1    3    3    0    0 -0.10123197978E+03  0.53685113004E+02 -0.79028663548E+03  0.79855054399E+03  0.00000000000E+00 0.  1.
</event>
<event>
 7    1  0.6485470E-006  0.7553113E+02  0.7818608E-02  0.1492036E+00
          2   -1    0    0  502    0  0.00000000000E+00  0.00000000000E+00  0.73365866829E+03  0.73365866829E+03  0.00000000000E+00 0. -1.
          1   -1    0    0  501    0 -0.00000000000E+00 -0.00000000000E+00 -0.68746943407E+02  0.68746943407E+02  0.00000000000E+00 0. -1.
         25    2    1    2    0    0  0.29051764565E+02 -0.78621130979E+02  0.28612415864E+03  0.32329182978E+03  0.12500114311E+03 0.  0.
          2    1    1    2  501    0 -0.44330388059E+02  0.60538348373E+02 -0.21557654012E+02  0.78069247311E+02  0.00000000000E+00 0. -1.
          1    1    1    2  502    0  0.15278623494E+02  0.18082782606E+02  0.40034522025E+03  0.40104453460E+03  0.00000000000E+00 0. -1.
         22    1    3    3    0    0 -0.77555399399E+01 -0.18362762874E+02 -0.74993695257E+01  0.21297417764E+02  0.00000000000E+00 0.  1.
         22    1    3    3    0    0  0.36807304505E+02 -0.60258368104E+02  0.29362352817E+03  0.30199441201E+03  0.00000000000E+00 0.  1.
</event>
<event>
 7    1  0.6485470E-006  0.7352055E+02  0.7818608E-02  0.1393806E+00
          2   -1    0    0  502    0  0.00000000000E+00  0.00000000000E+00  0.13710701224E+04  0.13710701224E+04  0.00000000000E+00 0. -1.
          1   -1    0    0  501    0 -0.00000000000E+00 -0.00000000000E+00 -0.19042863780E+03  0.19042863780E+03  0.00000000000E+00 0. -1.
         25    2    1    2    0    0 -0.17412388392E+02 -0.21760504506E+02 -0.13424065900E+03  0.18553260321E+03  0.12500032600E+03 0.  0.
          2    1    1    2  501    0  0.22971464732E+01 -0.50509550478E+02 -0.78564545804E+01  0.51168500564E+02  0.00000000000E+00 0. -1.
          1    1    1    2  502    0  0.15115241919E+02  0.72270054984E+02  0.13227385982E+04  0.13247976564E+04  0.00000000000E+00 0. -1.
         22    1    3    3    0    0  0.50133314607E+02  0.13354336750E+02 -0.57206659027E+02  0.77228811855E+02  0.00000000000E+00 0.  1.
         22    1    3    3    0    0 -0.67545702998E+02 -0.35114841256E+02 -0.77033999971E+02  0.10830379135E+03  0.00000000000E+00 0.  1.
</event>
<event>
 7    1  0.6485470E-006  0.1637290E+03  0.7818608E-02  0.1275385E+00
          2   -1    0    0  502    0  0.00000000000E+00  0.00000000000E+00  0.62024659325E+03  0.62024659325E+03  0.00000000000E+00 0. -1.
          1   -1    0    0  501    0 -0.00000000000E+00 -0.00000000000E+00 -0.60656503390E+03  0.60656503390E+03  0.00000000000E+00 0. -1.
         25    2    1    2    0    0  0.42001264566E+02 -0.96059900904E+02  0.11536521762E+03  0.19980692774E+03  0.12498825605E+03 0.  0.
          2    1    1    2  501    0 -0.59172453458E+02  0.15772251449E+03 -0.54944615947E+03  0.57469022349E+03  0.00000000000E+00 0. -1.
          1    1    1    2  502    0  0.17171188892E+02 -0.61662613583E+02  0.44776250120E+03  0.45231447592E+03  0.00000000000E+00 0. -1.
         22    1    3    3    0    0  0.77863103906E+01  0.14942860233E+02 -0.16840192039E+02  0.23822421568E+02  0.00000000000E+00 0. -1.
         22    1    3    3    0    0  0.34214954175E+02 -0.11100276114E+03  0.13220540966E+03  0.17598450617E+03  0.00000000000E+00 0. -1.
</event>
<event>
 7    1  0.6485470E-006  0.8523321E+02  0.7818608E-02  0.1384914E+00
          2   -1    0    0  502    0  0.00000000000E+00  0.00000000000E+00  0.37617774155E+03  0.37617774155E+03  0.00000000000E+00 0. -1.
          1   -1    0    0  501    0 -0.00000000000E+00 -0.00000000000E+00 -0.63368214255E+03  0.63368214255E+03  0.00000000000E+00 0. -1.
         25    2    1    2    0    0 -0.10946156816E+03  0.30828500881E+02 -0.76164199472E+02  0.18533840576E+03  0.12496842801E+03 0.  0.
          2    1    1    2  501    0  0.66948131147E+02 -0.50506882862E+02 -0.49769791139E+03  0.50471398681E+03  0.00000000000E+00 0. -1.
          1    1    1    2  502    0  0.42513437015E+02  0.19678381981E+02  0.31635770987E+03  0.31980749152E+03  0.00000000000E+00 0. -1.
         22    1    3    3    0    0 -0.97475405145E+02 -0.30734714366E+02 -0.27182890171E+02  0.10575909792E+03  0.00000000000E+00 0.  1.
         22    1    3    3    0    0 -0.11986163017E+02  0.61563215247E+02 -0.48981309301E+02  0.79579307840E+02  0.00000000000E+00 0.  1.
</event>
<event>
 7    1  0.6485470E-006  0.6844695E+02  0.7818608E-02  0.1438044E+00
          2   -1    0    0  502    0  0.00000000000E+00  0.00000000000E+00  0.58455841354E+02  0.58455841354E+02  0.00000000000E+00 0. -1.
          1   -1    0    0  501    0 -0.00000000000E+00 -0.00000000000E+00 -0.27530106581E+04  0.27530106581E+04  0.00000000000E+00 0. -1.
         25    2    1    2    0    0  0.93090804880E+02 -0.50003451443E+02 -0.18092913970E+03  0.24398102975E+03  0.12500058471E+03 0.  0.
          2    1    1    2  501    0 -0.62552620588E+02  0.26449045179E+02 -0.25260531392E+04  0.25269659365E+04  0.00000000000E+00 0. -1.
          1    1    1    2  502    0 -0.30538184292E+02  0.23554406264E+02  0.12427462138E+02  0.40519533184E+02  0.00000000000E+00 0. -1.
         22    1    3    3    0    0  0.84681692924E+02  0.84430225580E+00 -0.39482565332E+02  0.93437545601E+02  0.00000000000E+00 0. -1.
         22    1    3    3    0    0  0.84091119553E+01 -0.50847753699E+02 -0.14144657437E+03  0.15054348415E+03  0.00000000000E+00 0. -1.
</event>
<event>
 7    1  0.6485470E-006  0.1680293E+03  0.7818608E-02  0.1318389E+00
          2   -1    0    0  502    0  0.00000000000E+00  0.00000000000E+00  0.27586652494E+03  0.27586652494E+03  0.00000000000E+00 0. -1.
          1   -1    0    0  501    0 -0.00000000000E+00 -0.00000000000E+00 -0.15789030241E+04  0.15789030241E+04  0.00000000000E+00 0. -1.
         25    2    1    2    0    0  0.57660385262E+02 -0.12653910381E+03 -0.45536176071E+02  0.19244519037E+03  0.12499897258E+03 0.  0.
          2    1    1    2  501    0 -0.41246495107E+02  0.16506022664E+03 -0.14527280152E+04  0.14626567738E+04  0.00000000000E+00 0. -1.
          1    1    1    2  502    0 -0.16413890155E+02 -0.38521122836E+02  0.19522769209E+03  0.19966758489E+03  0.00000000000E+00 0. -1.
         22    1    3    3    0    0  0.48905060241E+02  0.72038301258E+01  0.39071944934E+01  0.49586956496E+02  0.00000000000E+00 0.  1.
         22    1    3    3    0    0  0.87553250208E+01 -0.13374293393E+03 -0.49443370564E+02  0.14285823388E+03  0.00000000000E+00 0.  1.
</event>
<event>
 7    1  0.6485470E-006  0.6328725E+02  0.7818608E-02  0.1537313E+00
          2   -1    0    0  502    0  0.00000000000E+00  0.00000000000E+00  0.51787870509E+02  0.51787870509E+02  0.00000000000E+00 0. -1.
          1   -1    0    0  501    0 -0.00000000000E+00 -0.00000000000E+00 -0.80129344983E+03  0.80129344983E+03  0.00000000000E+00 0. -1.
         25    2    1    2    0    0  0.16499476866E+02 -0.50905796246E+02 -0.39125566059E+03  0.41419757220E+03  0.12496000976E+03 0.  0.
          2    1    1    2  501    0  0.20792274926E+02 -0.11827562280E+01 -0.37264353028E+03  0.37322502364E+03  0.00000000000E+00 0. -1.
          1    1    1    2  502    0 -0.37291751792E+02  0.52088552474E+02  0.14393611552E+02  0.65658724508E+02  0.00000000000E+00 0. -1.
         22    1    3    3    0    0 -0.15344772742E+02 -0.11590179364E+02 -0.34533894959E+03  0.34587394295E+03  0.00000000000E+00 0.  1.
         22    1    3    3    0    0  0.31844249608E+02 -0.39315616881E+02 -0.45916711003E+02  0.68323629245E+02  0.00000000000E+00 0.  1.
</event>
<event>
 7    1  0.6485470E-006  0.3631228E+02  0.7818608E-02  0.1540339E+00
          2   -1    0    0  502    0  0.00000000000E+00  0.00000000000E+00  0.17699537396E+04  0.17699537396E+04  0.00000000000E+00 0. -1.
          1   -1    0    0  501    0 -0.00000000000E+00 -0.00000000000E+00 -0.10978717589E+04  0.10978717589E+04  0.00000000000E+00 0. -1.
         25    2    1    2    0    0 -0.55380727157E+01  0.67577325128E+02  0.57011333649E+03  0.58758249350E+03  0.12500642024E+03 0.  0.
          2    1    1    2  501    0  0.14698162304E+02 -0.33188762005E+02 -0.10885687936E+04  0.10891737916E+04  0.00000000000E+00 0. -1.
          1    1    1    2  502    0 -0.91600895882E+01 -0.34388563123E+02  0.11905374378E+04  0.11910692134E+04  0.00000000000E+00 0. -1.
         22    1    3    3    0    0  0.41291336914E+02  0.61377829119E+02  0.17982692032E+03  0.19444776595E+03  0.00000000000E+00 0.  1.
         22    1    3    3    0    0 -0.46829409629E+02  0.61994960085E+01  0.39028641618E+03  0.39313472756E+03  0.00000000000E+00 0.  1.
</event>
<event>
 7    1  0.6485470E-006  0.4552121E+02  0.7818608E-02  0.1557781E+00
          2   -1    0    0  502    0  0.00000000000E+00  0.00000000000E+00  0.13640370479E+03  0.13640370479E+03  0.00000000000E+00 0. -1.
          1   -1    0    0  501    0 -0.00000000000E+00 -0.00000000000E+00 -0.11008020471E+03  0.11008020471E+03  0.00000000000E+00 0. -1.
         25    2    1    2    0    0  0.46535829624E+02  0.28345466170E+02  0.70304212326E+02  0.15341683141E+03  0.12499997199E+03 0.  0.
          2    1    1    2  501    0 -0.24079182327E+02  0.80083561713E+01 -0.43468546267E+02  0.50333441216E+02  0.00000000000E+00 0. -1.
          1    1    1    2  502    0 -0.22456647297E+02 -0.36353822342E+02 -0.51216598190E+00  0.42733636876E+02  0.00000000000E+00 0. -1.
         22    1    3    3    0    0  0.58460863032E+02  0.17237409083E+02 -0.18055077860E+02  0.63567181901E+02  0.00000000000E+00 0.  1.
         22    1    3    3    0    0 -0.11925033409E+02  0.11108057088E+02  0.88359290186E+02  0.89849649505E+02  0.00000000000E+00 0.  1.
</event>
<event>
 7    1  0.6485470E-006  0.3942807E+02  0.7818608E-02  0.1514290E+00
          2   -1    0    0  502    0  0.00000000000E+00  0.00000000000E+00  0.20743172830E+04  0.20743172830E+04  0.00000000000E+00 0. -1.
          1   -1    0    0  501    0 -0.00000000000E+00 -0.00000000000E+00 -0.48076254093E+02  0.48076254093E+02  0.00000000000E+00 0. -1.
         25    2    1    2    0    0  0.19724800597E+01 -0.94471491986E+01  0.99273365683E+02  0.15991821426E+03  0.12500197923E+03 0.  0.
          2    1    1    2  501    0 -0.38454200445E+02 -0.61635036810E+01  0.40575474574E+01  0.39155816948E+02  0.00000000000E+00 0. -1.
          1    1    1    2  502    0  0.36481720386E+02  0.15610652880E+02  0.19229101157E+04  0.19233195059E+04  0.00000000000E+00 0. -1.
         22    1    3    3    0    0 -0.55251069564E+01 -0.53034723299E+02  0.23416226354E+01  0.53373138177E+02  0.00000000000E+00 0.  1.
         22    1    3    3    0    0  0.74975870161E+01  0.43587574100E+02  0.96931743047E+02  0.10654507608E+03  0.00000000000E+00 0.  1.
</event>
<event>
 7    1  0.6485470E-006  0.7972097E+02  0.7818608E-02  0.1362302E+00
          2   -1    0    0  502    0  0.00000000000E+00  0.00000000000E+00  0.16046462628E+04  0.16046462628E+04  0.00000000000E+00 0. -1.
          1   -1    0    0  501    0 -0.00000000000E+00 -0.00000000000E+00 -0.31923030882E+03  0.31923030882E+03  0.00000000000E+00 0. -1.
         25    2    1    2    0    0 -0.30894908810E+02  0.46513664812E+02  0.48802338515E+03  0.50686306208E+03  0.12500129137E+03 0.  0.
          2    1    1    2  501    0  0.79451087336E+02 -0.10698692608E+02 -0.30378456069E+03  0.31418465370E+03  0.00000000000E+00 0. -1.
          1    1    1    2  502    0 -0.48556178527E+02 -0.35814972203E+02  0.11011771295E+04  0.11028288558E+04  0.00000000000E+00 0. -1.
         22    1    3    3    0    0 -0.60835297262E+02  0.42868660030E+02  0.45903767852E+03  0.46503144593E+03  0.00000000000E+00 0. -1.
         22    1    3    3    0    0  0.29940388452E+02  0.36450047821E+01  0.28985706627E+02  0.41831616143E+02  0.00000000000E+00 0. -1.
</event>
<event>
 7    1  0.6485470E-006  0.1805308E+03  0.7818608E-02  0.1247587E+00
          2   -1    0    0  502    0  0.00000000000E+00  0.00000000000E+00  0.13138198422E+04  0.13138198422E+04  0.00000000000E+00 0. -1.
          1   -1    0    0  501    0 -0.00000000000E+00 -0.00000000000E+00 -0.99207131933E+03  0.99207131933E+03  0.00000000000E+00 0. -1.
         25    2    1    2    0    0 -0.92006782818E+02  0.21814486262E+03 -0.96972590593E+02  0.28474925632E+03  0.12500410585E+03 0.  0.
          2    1    1    2  501    0 -0.14872270314E+02 -0.74775656762E+02 -0.79281868207E+03  0.79647601716E+03  0.00000000000E+00 0. -1.
          1    1    1    2  502    0  0.10687905313E+03 -0.14336920585E+03  0.12115397956E+04  0.12246658881E+04  0.00000000000E+00 0. -1.
         22    1    3    3    0    0 -0.45259133879E+02  0.18697217116E+03 -0.25836444531E+02  0.19409921137E+03  0.00000000000E+00 0.  1.
         22    1    3    3    0    0 -0.46747648940E+02  0.31172691458E+02 -0.71136146062E+02  0.90650044957E+02  0.00000000000E+00 0.  1.
</event>
<event>
 7    1  0.6485470E-006  0.1378288E+03  0.7818608E-02  0.1370386E+00
          2   -1    0    0  502    0  0.00000000000E+00  0.00000000000E+00  0.32336688691E+03  0.32336688691E+03  0.00000000000E+00 0. -1.
          1   -1    0    0  501    0 -0.00000000000E+00 -0.00000000000E+00 -0.20831177222E+04  0.20831177222E+04  0.00000000000E+00 0. -1.
         25    2    1    2    0    0  0.58566708452E+02 -0.10019928680E+03 -0.68978706970E+02  0.18399618028E+03  0.12500630356E+03 0.  0.
          2    1    1    2  501    0 -0.78910115885E+01 -0.31659193193E+02 -0.19377188315E+04  0.19379935094E+04  0.00000000000E+00 0. -1.
          1    1    1    2  502    0 -0.50675696863E+02  0.13185847999E+03  0.24694670314E+03  0.28449491945E+03  0.00000000000E+00 0. -1.
         22    1    3    3    0    0  0.26522978408E+02 -0.15484875015E+02  0.34692221218E+02  0.46333572611E+02  0.00000000000E+00 0.  1.
         22    1    3    3    0    0  0.32043730043E+02 -0.84714411786E+02 -0.10367092819E+03  0.13766260767E+03  0.00000000000E+00 0.  1.
</event>
<event>
 7    1  0.6485470E-006  0.1266059E+03  0.7818608E-02  0.1291302E+00
          2   -1    0    0  502    0  0.00000000000E+00  0.00000000000E+00  0.81223502023E+03  0.81223502023E+03  0.00000000000E+00 0. -1.
          1   -1    0    0  501    0 -0.00000000000E+00 -0.00000000000E+00 -0.59910121014E+03  0.59910121014E+03  0.00000000000E+00 0. -1.
         25    2    1    2    0    0  0.18916835453E+03  0.41132284749E+02  0.15570964507E+03  0.27811308121E+03  0.12499944468E+03 0.  0.
          2    1    1    2  501    0 -0.11798758503E+03 -0.39461261509E+02 -0.52852168280E+03  0.54296724631E+03  0.00000000000E+00 0. -1.
          1    1    1    2  502    0 -0.71180769503E+02 -0.16710232403E+01  0.58594584782E+03  0.59025590285E+03  0.00000000000E+00 0. -1.
         22    1    3    3    0    0  0.20551008678E+03  0.47739171506E+02  0.13315176510E+03  0.24948510339E+03  0.00000000000E+00 0.  1.
         22    1    3    3    0    0 -0.16341732252E+02 -0.66068867568E+01  0.22557879966E+02  0.28627977822E+02  0.00000000000E+00 0.  1.
</event>
<event>
 7    1  0.6485470E-006  0.8608767E+02  0.7818608E-02  0.1357115E+00
          2   -1    0    0  502    0  0.00000000000E+00  0.00000000000E+00  0.60297387804E+03  0.60297387804E+03  0.00000000000E+00 0. -1.
          1   -1    0    0  501    0 -0.00000000000E+00 -0.00000000000E+00 -0.27960885490E+03  0.27960885490E+03  0.00000000000E+00 0. -1.
         25    2    1    2    0    0  0.57225623342E+02 -0.34224245552E+02 -0.33772866349E+02  0.14564242341E+03  0.12500015218E+03 0.  0.
          2    1    1    2  501    0 -0.31207425447E+02 -0.49320261904E+02 -0.18180328216E+03  0.19094194154E+03  0.00000000000E+00 0. -1.
          1    1    1    2  502    0 -0.26018197895E+02  0.83544507457E+02  0.53894117165E+03  0.54599836799E+03  0.00000000000E+00 0. -1.
         22    1    3    3    0    0  0.16459191870E+02  0.31829373168E+02 -0.54570558292E+02  0.65283687285E+02  0.00000000000E+00 0. -1.
         22    1    3    3    0    0  0.40766431472E+02 -0.66053618721E+02  0.20797691942E+02  0.80358736122E+02  0.00000000000E+00 0. -1.
</event>
<event>
 7    1  0.6485470E-006  0.5598650E+02  0.7818608E-02  0.1445467E+00
          2   -1    0    0  502    0  0.00000000000E+00  0.00000000000E+00  0.77427795065E+03  0.77427795065E+03  0.00000000000E+00 0. -1.
          1   -1    0    0  501    0 -0.00000000000E+00 -0.00000000000E+00 -0.27989741348E+03  0.27989741348E+03  0.00000000000E+00 0. -1.
         25    2    1    2    0    0  0.30278856515E+02  0.63404009393E+02  0.77629479535E+01  0.14360606585E+03  0.12500224489E+03 0.  0.
          2    1    1    2  501    0 -0.43689960857E+02 -0.90237939602E+01 -0.20848962295E+03  0.21320920340E+03  0.00000000000E+00 0. -1.
          1    1    1    2  502    0  0.13411104342E+02 -0.54380215432E+02  0.69510721216E+03  0.69736009489E+03  0.00000000000E+00 0. -1.
         22    1    3    3    0    0 -0.28353035222E+02  0.75912746580E+02 -0.85235920507E+01  0.81481846574E+02  0.00000000000E+00 0.  1.
         22    1    3    3    0    0  0.58631891738E+02 -0.12508737188E+02  0.16286540004E+02  0.62124219271E+02  0.00000000000E+00 0.  1.
</event>
<event>
 7    1  0.6485470E-006  0.8485572E+02  0.7818608E-02  0.1426858E+00
          2   -1    0    0  502    0  0.00000000000E+00  0.00000000000E+00  0.65116391783E+03  0.65116391783E+03  0.00000000000E+00 0. -1.
          1   -1    0    0  501    0 -0.00000000000E+00 -0.00000000000E+00 -0.52521117900E+02  0.52521117900E+02  0.00000000000E+00 0. -1.
         25    2    1    2    0    0 -0.33741487643E+02  0.45623930950E+02  0.27256484695E+03  0.30518381231E+03  0.12500212974E+03 0.  0.
          2    1    1    2  501    0  0.56225092804E+02 -0.70930887549E+02  0.22799761033E+02  0.93339600238E+02  0.00000000000E+00 0. -1.
          1    1    1    2  502    0 -0.22483605161E+02  0.25306956600E+02  0.30327819195E+03  0.30516162319E+03  0.00000000000E+00 0. -1.
         22    1    3    3    0    0 -0.87013530115E+00 -0.25299180140E+02  0.18926166015E+03  0.19094706506E+03  0.00000000000E+00 0. -1.
         22    1    3    3    0    0 -0.32871352342E+02  0.70923111089E+02  0.83303186794E+02  0.11423674725E+03  0.00000000000E+00 0. -1.
</event>
<event>
 7    1  0.6485470E-006  0.1183046E+03  0.7818608E-02  0.1326416E+00
          2   -1    0    0  502    0  0.00000000000E+00  0.00000000000E+00  0.20889920073E+03  0.20889920073E+03  0.00000000000E+00 0. -1.
          1   -1    0    0  501    0 -0.00000000000E+00 -0.00000000000E+00 -0.17892711314E+04  0.17892711314E+04  0.00000000000E+00 0. -1.
         25    2    1    2    0    0  0.20340057825E+02 -0.15089904910E+03  0.51499304779E+02  0.20361922739E+03  0.12499748157E+03 0.  0.
          2    1    1    2  501    0 -0.52272959434E+02  0.10566394833E+03 -0.17015061668E+04  0.17055851101E+04  0.00000000000E+00 0. -1.
          1    1    1    2  502    0  0.31932901609E+02  0.45235100766E+02  0.69634931304E+02  0.88965994651E+02  0.00000000000E+00 0. -1.
         22    1    3    3    0    0 -0.31041155327E+00 -0.12803165125E+03  0.88370745945E+02  0.15556859843E+03  0.00000000000E+00 0. -1.
         22    1    3    3    0    0  0.20650469379E+02 -0.22867397844E+02 -0.36871441166E+02  0.48050628959E+02  0.00000000000E+00 0. -1.
</event>
<event>
 7    1  0.6485470E-006  0.1217203E+03  0.7818608E-02  0.1255881E+00
          2   -1    0    0  502    0  0.00000000000E+00  0.00000000000E+00  0.16692853617E+04  0.16692853617E+04  0.00000000000E+00 0. -1.
          1   -1    0    0  501    0 -0.00000000000E+00 -0.00000000000E+00 -0.10340581824E+03  0.10340581824E+03  0.00000000000E+00 0. -1.
         25    2    1    2    0    0 -0.49192181318E+02 -0.68690559910E+02  0.60300514164E+03  0.62159351654E+03  0.12500014093E+03 0.  0.
          2    1    1    2  501    0 -0.99856081133E+02  0.29456313589E+02 -0.57646180796E+02  0.11900417434E+03  0.00000000000E+00 0. -1.
          1    1    1    2  502    0  0.14904826245E+03  0.39234246321E+02  0.10205205826E+04  0.10320934890E+04  0.00000000000E+00 0. -1.
         22    1    3    3    0    0 -0.82023053961E+02 -0.12123050084E+02  0.27931362149E+03  0.29136034197E+03  0.00000000000E+00 0. -1.
         22    1    3    3    0    0  0.32830872643E+02 -0.56567509826E+02  0.32369152015E+03  0.33023317456E+03  0.00000000000E+00 0. -1.
</event>
<event>
 7    1  0.6485470E-006  0.5736568E+02  0.7818608E-02  0.1443685E+00
          2   -1    0    0  502    0  0.00000000000E+00  0.00000000000E+00  0.21916939914E+04  0.21916939914E+04  0.00000000000E+00 0. -1.
          1   -1    0    0  501    0 -0.00000000000E+00 -0.00000000000E+00 -0.41889291894E+03  0.41889291894E+03  0.00000000000E+00 0. -1.
         25    2    1    2    0    0 -0.13951457196E+01  0.54751870980E+02  0.60956147077E+03  0.62465139804E+03  0.12499787443E+03 0.  0.
          2    1    1    2  501    0 -0.40449087483E+02 -0.40766973810E+02 -0.40903256889E+03  0.41304444947E+03  0.00000000000E+00 0. -1.
          1    1    1    2  502    0  0.41844233203E+02 -0.13984897170E+02  0.15722721706E+04  0.15728910629E+04  0.00000000000E+00 0. -1.
         22    1    3    3    0    0 -0.35255870525E+02  0.90838568136E+01  0.48130464900E+02  0.60349271020E+02  0.00000000000E+00 0. -1.
         22    1    3    3    0    0  0.33860724805E+02  0.45668014166E+02  0.56143100587E+03  0.56430212702E+03  0.00000000000E+00 0. -1.
</event>
<event>
 7    1  0.6485470E-006  0.1524562E+03  0.7818608E-02  0.1309629E+00
          2   -1    0    0  502    0  0.00000000000E+00  0.00000000000E+00  0.19406086675E+04  0.19406086675E+04  0.00000000000E+00 0. -1.
          1   -1    0    0  501    0 -0.00000000000E+00 -0.00000000000E+00 -0.33459794096E+03  0.33459794096E+03  0.00000000000E+00 0. -1.
         25    2    1    2    0    0  0.10007296923E+03  0.67236952497E+02  0.10287225819E+04  0.10432786124E+04  0.12499882306E+03 0.  0.
          2    1    1    2  501    0 -0.98542086351E+02 -0.11715625621E+03 -0.30867809227E+03  0.34455521444E+03  0.00000000000E+00 0. -1.
          1    1    1    2  502    0 -0.15308828815E+01  0.49919303712E+02  0.88596623691E+03  0.88737278155E+03  0.00000000000E+00 0. -1.
         22    1    3    3    0    0  0.11720321726E+03  0.31561286391E+02  0.56609317010E+03  0.57895957214E+03  0.00000000000E+00 0. -1.
         22    1    3    3    0    0 -0.17130248031E+02  0.35675666106E+02  0.46262941176E+03  0.46431904029E+03  0.00000000000E+00 0. -1.
</event>
<event>
 7    1  0.6485470E-006  0.4882781E+02  0.7818608E-02  0.1580942E+00
          2   -1    0    0  502    0  0.00000000000E+00  0.00000000000E+00  0.26596456007E+04  0.26596456007E+04  0.00000000000E+00 0. -1.
          1   -1    0    0  501    0 -0.00000000000E+00 -0.00000000000E+00 -0.90576489120E+02  0.90576489120E+02  0.00000000000E+00 0. -1.
         25    2    1    2    0    0 -0.63704865773E+02 -0.17472316728E+02  0.25375498161E+03  0.29048189039E+03  0.12499818469E+03 0.  0.
          2    1    1    2  501    0  0.15244087523E+02  0.13652515336E+02 -0.70510675802E+02  0.73420220522E+02  0.00000000000E+00 0. -1.
          1    1    1    2  502    0  0.48460778250E+02  0.38198013922E+01  0.23858248057E+04  0.23863199789E+04  0.00000000000E+00 0. -1.
         22    1    3    3    0    0 -0.46331362285E+02  0.50106250509E+02  0.94063307841E+02  0.11621160593E+03  0.00000000000E+00 0.  1.
         22    1    3    3    0    0 -0.17373503488E+02 -0.67578567238E+02  0.15969167377E+03  0.17427028446E+03  0.00000000000E+00 0.  1.
</event>
<event>
 7    1  0.6485470E-006  0.1560909E+03  0.7818608E-02  0.1199059E+00
          2   -1    0    0  502    0  0.00000000000E+00  0.00000000000E+00  0.13273754531E+04  0.13273754531E+04  0.00000000000E+00 0. -1.
          1   -1    0    0  501    0 -0.00000000000E+00 -0.00000000000E+00 -0.26537891222E+04  0.26537891222E+04  0.00000000000E+00 0. -1.
         25    2    1    2    0    0 -0.38086102554E+02 -0.17993220706E+03  0.83073713842E+02  0.23738419689E+03  0.12499545856E+03 0.  0.
          2    1    1    2  501    0 -0.96825065387E+02  0.12313692288E+03 -0.25696498721E+04  0.25744199853E+04  0.00000000000E+00 0. -1.
          1    1    1    2  502    0  0.13491116794E+03  0.56795284173E+02  0.11601624892E+04  0.11693603931E+04  0.00000000000E+00 0. -1.
         22    1    3    3    0    0 -0.60954225569E+02 -0.33721511494E+02  0.49994875610E+02  0.85744069996E+02  0.00000000000E+00 0. -1.
         22    1    3    3    0    0  0.22868123015E+02 -0.14621069556E+03  0.33078838232E+02  0.15164012690E+03  0.00000000000E+00 0. -1.
</event>
<event>
 7    1  0.6485470E-006  0.1063873E+03  0.7818608E-02  0.1374585E+00
          2   -1    0    0  502    0  0.00000000000E+00  0.00000000000E+00  0.10222346839E+04  0.10222346839E+04  0.00000000000E+00 0. -1.
          1   -1    0    0  501    0 -0.00000000000E+00 -0.00000000000E+00 -0.85015911664E+03  0.85015911664E+03  0.00000000000E+00 0. -1.
         25    2    1    2    0    0  0.69757245976E+02  0.11696134767E+02 -0.54179662749E+02  0.15350755985E+03  0.12500504846E+03 0.  0.
          2    1    1    2  501    0  0.37609025463E+02 -0.15899577551E+02 -0.74278537555E+03  0.74390681506E+03  0.00000000000E+00 0. -1.
          1    1    1    2  502    0 -0.10736627144E+03  0.42034427846E+01  0.96904060552E+03  0.97497942559E+03  0.00000000000E+00 0. -1.
         22    1    3    3    0    0 -0.12346694918E+02 -0.42334824073E+02 -0.76277544571E+01  0.44753333314E+02  0.00000000000E+00 0. -1.
         22    1    3    3    0    0  0.82103940894E+02  0.54030958840E+02 -0.46551908292E+02  0.10875422653E+03  0.00000000000E+00 0. -1.
</event>
<event>
 7    1  0.6485470E-006  0.4501060E+02  0.7818608E-02  0.1491134E+00
          2   -1    0    0  502    0  0.00000000000E+00  0.00000000000E+00  0.20966016677E+03  0.20966016677E+03  0.00000000000E+00 0. -1.
          1   -1    0    0  501    0 -0.00000000000E+00 -0.00000000000E+00 -0.32830822408E+04  0.32830822408E+04  0.00000000000E+00 0. -1.
         25    2    1    2    0    0  0.21110243190E+02 -0.17249715494E+02 -0.21231308338E+03  0.24788057490E+03  0.12499895595E+03 0.  0.
          2    1    1    2  501    0  0.80545113130E+01  0.44589122559E+02 -0.30507332469E+04  0.30510697155E+04  0.00000000000E+00 0. -1.
          1    1    1    2  502    0 -0.29164754504E+02 -0.27339407064E+02  0.18962425630E+03  0.19379211713E+03  0.00000000000E+00 0. -1.
         22    1    3    3    0    0 -0.12936831189E+02 -0.36411821569E+02 -0.74852798379E+01  0.39360027508E+02  0.00000000000E+00 0.  1.
         22    1    3    3    0    0  0.34047074379E+02  0.19162106075E+02 -0.20482780354E+03  0.20852054739E+03  0.00000000000E+00 0.  1.
</event>
<event>
 7    1  0.6485470E-006  0.6050442E+02  0.7818608E-02  0.1481943E+00
          2   -1    0    0  502    0  0.00000000000E+00  0.00000000000E+00  0.11037444030E+04  0.11037444030E+04  0.00000000000E+00 0. -1.
          1   -1    0    0  501    0 -0.00000000000E+00 -0.00000000000E+00 -0.19508719354E+03  0.19508719354E+03  0.00000000000E+00 0. -1.
         25    2    1    2    0    0 -0.41515663614E+02 -0.61355211743E+02  0.87882437008E+03  0.89075553590E+03  0.12500055582E+03 0.  0.
          2    1    1    2  501    0  0.98463470483E+01  0.59659777864E+02 -0.18308369730E+03  0.19281047654E+03  0.00000000000E+00 0. -1.
          1    1    1    2  502    0  0.31669316565E+02  0.16954338786E+01  0.21291653665E+03  0.21526558408E+03  0.00000000000E+00 0. -1.
         22    1    3    3    0    0 -0.81440245050E+02 -0.35401142859E+02  0.70338490487E+03  0.70896832005E+03  0.00000000000E+00 0.  1.
         22    1    3    3    0    0  0.39924581437E+02 -0.25954068883E+02  0.17543946521E+03  0.18178721585E+03  0.00000000000E+00 0.  1.
</event>
<event>
 7    1  0.6485470E-006  0.1508216E+03  0.7818608E-02  0.1299758E+00
          2   -1    0    0  502    0  0.00000000000E+00  0.00000000000E+00  0.10794243855E+04  0.10794243855E+04  0.00000000000E+00 0. -1.
          1   -1    0    0  501    0 -0.00000000000E+00 -0.00000000000E+00 -0.85746971260E+03  0.85746971260E+03  0.00000000000E+00 0. -1.
         25    2    1    2    0    0  0.95511986845E+02 -0.12142651056E+03 -0.50827555758E+03  0.54574434835E+03  0.12500365688E+03 0.  0.
          2    1    1    2  501    0 -0.13039000446E+03  0.78568771892E+02 -0.31215699503E+03  0.34729899903E+03  0.00000000000E+00 0. -1.
          1    1    1    2  502    0  0.34878017614E+02  0.42857738670E+02  0.10423872255E+04  0.10438507508E+04  0.00000000000E+00 0. -1.
         22    1    3    3    0    0  0.21130667964E+02 -0.68703139932E+02 -0.78635344866E+02  0.10653705471E+03  0.00000000000E+00 0.  1.
         22    1    3    3    0    0  0.74381318881E+02 -0.52723370629E+02 -0.42964021271E+03  0.43920729364E+03  0.00000000000E+00 0.  1.
</event>
<event>
 7    1  0.6485470E-006  0.2817560E+03  0.7818608E-02  0.1104605E+00
          2   -1    0    0  502    0  0.00000000000E+00  0.00000000000E+00  0.11142331053E+04  0.11142331053E+04  0.00000000000E+00 0. -1.
          1   -1    0    0  501    0 -0.00000000000E+00 -0.00000000000E+00 -0.85783409885E+03  0.85783409885E+03  0.00000000000E+00 0. -1.
         25    2    1    2    0    0 -0.31294614774E+02 -0.30054276843E+03  0.21437395752E+03  0.39100464437E+03  0.12499251851E+03 0.  0.
          2    1    1    2  501    0 -0.19915951556E+03  0.20928067549E+03 -0.72209667678E+03  0.77774451100E+03  0.00000000000E+00 0. -1.
          1    1    1    2  502    0  0.23045413034E+03  0.91262092940E+02  0.76412172572E+03  0.80331804879E+03  0.00000000000E+00 0. -1.
         22    1    3    3    0    0 -0.73323744960E+02 -0.18599373404E+03  0.99063401640E+02  0.22312238395E+03  0.00000000000E+00 0. -1.
         22    1    3    3    0    0  0.42029130187E+02 -0.11454903439E+03  0.11531055588E+03  0.16788226041E+03  0.00000000000E+00 0. -1.
</event>
<event>
 7    1  0.6485470E-006  0.3581159E+02  0.7818608E-02  0.1608350E+00
          2   -1    0    0  502    0  0.00000000000E+00  0.00000000000E+00  0.13250308074E+04  0.13250308074E+04  0.00000000000E+00 0. -1.
          1   -1    0    0  501    0 -0.00000000000E+00 -0.00000000000E+00 -0.12423842085E+04  0.12423842085E+04  0.00000000000E+00 0. -1.
         25    2    1    2    0    0  0.50529457274E+01 -0.11959952229E+02 -0.37648793693E+02  0.13119065955E+03  0.12499993908E+03 0.  0.
          2    1    1    2  501    0 -0.21994535215E+02  0.28437107573E+02 -0.11575761681E+04  0.11581342814E+04  0.00000000000E+00 0. -1.
          1    1    1    2  502    0  0.16941589488E+02 -0.16477155343E+02  0.12778715607E+04  0.12780900750E+04  0.00000000000E+00 0. -1.
         22    1    3    3    0    0  0.10036402391E+02 -0.48770801243E+02 -0.67260464666E+02  0.83685665044E+02  0.00000000000E+00 0.  1.
         22    1    3    3    0    0 -0.49834566636E+01  0.36810849014E+02  0.29611670973E+02  0.47504994508E+02  0.00000000000E+00 0.  1.
</event>
<event>
 7    1  0.6485470E-006  0.2419585E+03  0.7818608E-02  0.1264432E+00
          2   -1    0    0  502    0  0.00000000000E+00  0.00000000000E+00  0.34347676555E+03  0.34347676555E+03  0.00000000000E+00 0. -1.
          1   -1    0    0  501    0 -0.00000000000E+00 -0.00000000000E+00 -0.18281428978E+04  0.18281428978E+04  0.00000000000E+00 0. -1.
         25    2    1    2    0    0 -0.14543551283E+03  0.13580883003E+03 -0.10995172955E+04  0.11243479764E+04  0.12499824876E+03 0.  0.
          2    1    1    2  501    0 -0.18666740043E+02  0.44388043925E+02 -0.67037326092E+03  0.67210047953E+03  0.00000000000E+00 0. -1.
          1    1    1    2  502    0  0.16410225288E+03 -0.18019687395E+03  0.28522442414E+03  0.37517120746E+03  0.00000000000E+00 0. -1.
         22    1    3    3    0    0 -0.42612042488E+02  0.49681834626E+01 -0.50978367946E+03  0.51158564176E+03  0.00000000000E+00 0.  1.
         22    1    3    3    0    0 -0.10282347035E+03  0.13084064656E+03 -0.58973361603E+03  0.61276233462E+03  0.00000000000E+00 0.  1.
</event>
<event>
 7    1  0.6485470E-006  0.3186009E+02  0.7818608E-02  0.1642254E+00
          2   -1    0    0  502    0  0.00000000000E+00  0.00000000000E+00  0.63701416000E+03  0.63701416000E+03  0.00000000000E+00 0. -1.
          1   -1    0    0  501    0 -0.00000000000E+00 -0.00000000000E+00 -0.16033398754E+04  0.16033398754E+04  0.00000000000E+00 0. -1.
         25    2    1    2    0    0 -0.85193695848E+00 -0.20320936805E+02  0.20669922577E+03  0.24240227800E+03  0.12498251148E+03 0.  0.
          2    1    1    2  501    0  0.22542639819E+02  0.22531368502E+02 -0.15850399013E+04  0.15853603130E+04  0.00000000000E+00 0. -1.
          1    1    1    2  502    0 -0.21690702861E+02 -0.22104316971E+01  0.41201496016E+03  0.41259144441E+03  0.00000000000E+00 0. -1.
         22    1    3    3    0    0 -0.46252159173E+02 -0.35981288865E+02  0.45467863804E+02  0.74170358065E+02  0.00000000000E+00 0. -1.
         22    1    3    3    0    0  0.45400222215E+02  0.15660352060E+02  0.16123136197E+03  0.16823191994E+03  0.00000000000E+00 0. -1.
</event>
<event>
 7    1  0.6485470E-006  0.1885668E+03  0.7818608E-02  0.1359302E+00
          2   -1    0    0  502    0  0.00000000000E+00  0.00000000000E+00  0.91265899286E+03  0.91265899286E+03  0.00000000000E+00 0. -1.
          1   -1    0    0  501    0 -0.00000000000E+00 -0.00000000000E+00 -0.74385493769E+02  0.74385493769E+02  0.00000000000E+00 0. -1.
         25    2    1    2    0    0 -0.16881834198E+03 -0.93956770721E+01  0.66694564530E+03  0.69930567644E+03  0.12499609590E+03 0.  0.
          2    1    1    2  501    0  0.19229698549E+03  0.20930219536E+02  0.11350905554E+03  0.22427775281E+03  0.00000000000E+00 0. -1.
          1    1    1    2  502    0 -0.23478643509E+02 -0.11534542463E+02  0.57818798256E+02  0.63461057371E+02  0.00000000000E+00 0. -1.
         22    1    3    3    0    0 -0.49389369204E+01  0.38663864925E+02  0.14385485584E+03  0.14904196422E+03  0.00000000000E+00 0.  1.
         22    1    3    3    0    0 -0.16387940506E+03 -0.48059541997E+02  0.52309078945E+03  0.55026371222E+03  0.00000000000E+00 0.  1.
</event>
<event>
 7    1  0.6485470E-006  0.8415110E+02  0.7818608E-02  0.1382537E+00
          2   -1    0    0  502    0  0.00000000000E+00  0.00000000000E+00  0.44370901627E+03  0.44370901627E+03  0.00000000000E+00 0. -1.
          1   -1    0    0  501    0 -0.00000000000E+00 -0.00000000000E+00 -0.15783762081E+03  0.15783762081E+03  0.00000000000E+00 0. -1.
         25    2    1    2    0    0  0.91352040941E+02  0.19501384247E+01  0.27111722036E+03  0.31221582545E+03  0.12500070424E+03 0.  0.
          2    1    1    2  501    0 -0.70914547012E+02 -0.45793476082E+02 -0.11968173889E+03  0.14645693583E+03  0.00000000000E+00 0. -1.
          1    1    1    2  502    0 -0.20437493929E+02  0.43843337658E+02  0.13443591399E+03  0.14287387580E+03  0.00000000000E+00 0. -1.
         22    1    3    3    0    0 -0.10935011056E+02 -0.40413924401E+02  0.99943937321E+02  0.10835889608E+03  0.00000000000E+00 0. -1.
         22    1    3    3    0    0  0.10228705200E+03  0.42364062826E+02  0.17117328304E+03  0.20385692937E+03  0.00000000000E+00 0. -1.
</event>
<event>
 7    1  0.6485470E-006  0.1015786E+03  0.7818608E-02  0.1388005E+00
          2   -1    0    0  502    0  0.00000000000E+00  0.00000000000E+00  0.84191498461E+03  0.84191498461E+03  0.00000000000E+00 0. -1.
          1   -1    0    0  501    0 -0.00000000000E+00 -0.00000000000E+00 -0.10109535946E+04  0.10109535946E+04  0.00000000000E+00 0. -1.
         25    2    1    2    0    0  0.10164782917E+02  0.11940677120E+03  0.97289307441E+02  0.19862858526E+03  0.12500722267E+03 0.  0.
          2    1    1    2  501    0  0.22217690480E+02 -0.98881657586E+02 -0.95707688410E+03  0.96242785187E+03  0.00000000000E+00 0. -1.
          1    1    1    2  502    0 -0.32382473397E+02 -0.20525113618E+02  0.69074896670E+03  0.69181214204E+03  0.00000000000E+00 0. -1.
         22    1    3    3    0    0 -0.22545798669E+02  0.12616872721E+03  0.10339421501E+03  0.16467308360E+03  0.00000000000E+00 0. -1.
         22    1    3    3    0    0  0.32710581586E+02 -0.67619560039E+01 -0.61049075736E+01  0.33955501663E+02  0.00000000000E+00 0. -1.
</event>
<event>
 7    1  0.6485470E-006  0.1445752E+03  0.7818608E-02  0.1227060E+00
          2   -1    0    0  502    0  0.00000000000E+00  0.00000000000E+00  0.19521872722E+04  0.19521872722E+04  0.00000000000E+00 0. -1.
          1   -1    0    0  501    0 -0.00000000000E+00 -0.00000000000E+00 -0.17377208260E+04  0.17377208260E+04  0.00000000000E+00 0. -1.
         25    2    1    2    0    0 -0.62961499454E+02  0.24116440671E+03 -0.21549032296E+03  0.35240086346E+03  0.12500347116E+03 0.  0.
          2    1    1    2  501    0  0.40135712774E+01 -0.13966568182E+03 -0.14485821042E+04  0.14553050278E+04  0.00000000000E+00 0. -1.
          1    1    1    2  502    0  0.58947928177E+02 -0.10149872489E+03  0.18785388733E+04  0.18822022069E+04  0.00000000000E+00 0. -1.
         22    1    3    3    0    0  0.10513472320E+02 -0.11020816994E+02 -0.19100698307E+02  0.24430067197E+02  0.00000000000E+00 0. -1.
         22    1    3    3    0    0 -0.73474971774E+02  0.25218522371E+03 -0.19638962466E+03  0.32797079627E+03  0.00000000000E+00 0. -1.
</event>
<event>
 7    1  0.6485470E-006  0.1823450E+03  0.7818608E-02  0.1337279E+00
          2   -1    0    0  502    0  0.00000000000E+00  0.00000000000E+00  0.55476717265E+03  0.55476717265E+03  0.00000000000E+00 0. -1.
          1   -1    0    0  501    0 -0.00000000000E+00 -0.00000000000E+00 -0.14264172803E+04  0.14264172803E+04  0.00000000000E+00 0. -1.
         25    2    1    2    0    0 -0.14131043471E+03  0.12995971922E+03 -0.10509477777E+03  0.25204766422E+03  0.12499978058E+03 0.  0.
          2    1    1    2  501    0  0.15223602280E+03 -0.99182007869E+02 -0.12406673348E+04  0.12539012373E+04  0.00000000000E+00 0. -1.
          1    1    1    2  502    0 -0.10925588089E+02 -0.30777711355E+02  0.47411200498E+03  0.47523555134E+03  0.00000000000E+00 0. -1.
         22    1    3    3    0    0 -0.95811801897E+02  0.13894567589E+03 -0.42325249879E+02  0.17400353160E+03  0.00000000000E+00 0. -1.
         22    1    3    3    0    0 -0.45498632815E+02 -0.89859566653E+01 -0.62769527894E+02  0.78044132626E+02  0.00000000000E+00 0. -1.
</event>
<event>
 7    1  0.6485470E-006  0.1102119E+03  0.7818608E-02  0.1333409E+00
          2   -1    0    0  502    0  0.00000000000E+00  0.00000000000E+00  0.13326807400E+04  0.13326807400E+04  0.00000000000E+00 0. -1.
          1   -1    0    0  501    0 -0.00000000000E+00 -0.00000000000E+00 -0.14475653161E+03  0.14475653161E+03  0.00000000000E+00 0. -1.
         25    2    1    2    0    0  0.28831668690E+02 -0.51938345468E+02 -0.24870049877E+02  0.14060569603E+03  0.12499034173E+03 0.  0.
          2    1    1    2  501    0  0.64972840379E+00 -0.55886246428E+02 -0.46427428937E+02  0.72658109282E+02  0.00000000000E+00 0. -1.
          1    1    1    2  502    0 -0.29481397094E+02  0.10782459190E+03  0.12592216872E+04  0.12641734663E+04  0.00000000000E+00 0. -1.
         22    1    3    3    0    0  0.58087881865E+02 -0.66197867972E+02  0.14787323646E+02  0.89302993702E+02  0.00000000000E+00 0. -1.
         22    1    3    3    0    0 -0.29256213174E+02  0.14259522504E+02 -0.39657373522E+02  0.51302702327E+02  0.00000000000E+00 0. -1.
</event>
<event>
 7    1  0.6485470E-006  0.1348486E+03  0.7818608E-02  0.1269496E+00
          2   -1    0    0  502    0  0.00000000000E+00  0.00000000000E+00  0.47254960087E+03  0.47254960087E+03  0.00000000000E+00 0. -1.
          1   -1    0    0  501    0 -0.00000000000E+00 -0.00000000000E+00 -0.19261776870E+04  0.19261776870E+04  0.00000000000E+00 0. -1.
         25    2    1    2    0    0  0.98527915481E+02  0.18207040363E+03 -0.19419057390E+03  0.31014738965E+03  0.12499616917E+03 0.  0.
          2    1    1    2  501    0 -0.84665515570E+02 -0.10099391753E+03 -0.16673029454E+04  0.16725032534E+04  0.00000000000E+00 0. -1.
          1    1    1    2  502    0 -0.13862399911E+02 -0.81076486104E+02  0.40786543320E+03  0.41607664478E+03  0.00000000000E+00 0. -1.
         22    1    3    3    0    0  0.82477222127E+02  0.19971209870E+03 -0.18545531345E+03  0.28474741057E+03  0.00000000000E+00 0. -1.
         22    1    3    3    0    0  0.16050693354E+02 -0.17641695073E+02 -0.87352604474E+01  0.25399979080E+02  0.00000000000E+00 0. -1.
</event>
<event>
 7    1  0.6485470E-006  0.1086888E+03  0.7818608E-02  0.1401655E+00
          2   -1    0    0  502    0  0.00000000000E+00  0.00000000000E+00  0.20923387891E+04  0.20923387891E+04  0.00000000000E+00 0. -1.
          1   -1    0    0  501    0 -0.00000000000E+00 -0.00000000000E+00 -0.12541186376E+03  0.12541186376E+03  0.00000000000E+00 0. -1.
         25    2    1    2    0    0 -0.92040605022E+02 -0.25023878907E+02  0.90080553222E+03  0.91442462497E+03  0.12499648144E+03 0.  0.
          2    1    1    2  501    0 -0.22950103072E+02  0.22491945359E+02 -0.11357625873E+03  0.11803457707E+03  0.00000000000E+00 0. -1.
          1    1    1    2  502    0  0.11499070809E+03  0.25319335481E+01  0.11796976518E+04  0.11852914508E+04  0.00000000000E+00 0. -1.
         22    1    3    3    0    0 -0.10452907044E+03 -0.27182507530E+02  0.42693778715E+03  0.44038743100E+03  0.00000000000E+00 0.  1.
         22    1    3    3    0    0  0.12488465419E+02  0.21586286236E+01  0.47386774507E+03  0.47403719397E+03  0.00000000000E+00 0.  1.
</event>
<event>
 7    1  0.6485470E-006  0.1118887E+03  0.7818608E-02  0.1282207E+00
          2   -1    0    0  502    0  0.00000000000E+00  0.00000000000E+00  0.60217491380E+03  0.60217491380E+03  0.00000000000E+00 0. -1.
          1   -1    0    0  501    0 -0.00000000000E+00 -0.00000000000E+00 -0.19846351359E+04  0.19846351359E+04  0.00000000000E+00 0. -1.
         25    2    1    2    0    0 -0.10043361210E+03  0.14660347333E+03 -0.58637989188E+03  0.62533648015E+03  0.12499938791E+03 0.  0.
          2    1    1    2  501    0  0.59185900484E+01 -0.87567225079E+02 -0.13720339759E+04  0.13748382740E+04  0.00000000000E+00 0. -1.
          1    1    1    2  502    0  0.94515022052E+02 -0.59036248249E+02  0.57595364569E+03  0.58663529555E+03  0.00000000000E+00 0. -1.
         22    1    3    3    0    0  0.19238073932E+02  0.17282408081E+02 -0.18748752111E+03  0.18926266322E+03  0.00000000000E+00 0.  1.
         22    1    3    3    0    0 -0.11967168603E+03  0.12932106525E+03 -0.39889237077E+03  0.43607381694E+03  0.00000000000E+00 0.  1.
</event>
<event>
 7    1  0.6485470E-006  0.8014166E+02  0.7818608E-02  0.1355569E+00
          2   -1    0    0  502    0  0.00000000000E+00  0.00000000000E+00  0.39590707623E+03  0.39590707623E+03  0.00000000000E+00 0. -1.
          1   -1    0    0  501    0 -0.00000000000E+00 -0.00000000000E+00 -0.14514946905E+03  0.14514946905E+03  0.00000000000E+00 0. -1.
         25    2    1    2    0    0 -0.19886181961E+02  0.13354287170E+03  0.17389435849E+03  0.25316729202E+03  0.12500108408E+03 0.  0.
          2    1    1    2  501    0  0.29393447842E+02 -0.70739436255E+02 -0.84751417817E+02  0.11424029692E+03  0.00000000000E+00 0. -1.
          1    1    1    2  502    0 -0.95072658805E+01 -0.62803435448E+02  0.16161466650E+03  0.17364895634E+03  0.00000000000E+00 0. -1.
         22    1    3    3    0    0 -0.40145517137E+02  0.87866840182E+02  0.17852451917E+03  0.20298583225E+03  0.00000000000E+00 0.  1.
         22    1    3    3    0    0  0.20259335175E+02  0.45676031522E+02 -0.46301606784E+01  0.50181459776E+02  0.00000000000E+00 0.  1.
</event>
<event>
 7    1  0.6485470E-006  0.3401781E+02  0.7818608E-02  0.1562042E+00
          2   -1    0    0  502    0  0.00000000000E+00  0.00000000000E+00  0.31186866773E+03  0.31186866773E+03  0.00000000000E+00 0. -1.
          1   -1    0    0  501    0 -0.00000000000E+00 -0.00000000000E+00 -0.24833028625E+04  0.24833028625E+04  0.00000000000E+00 0. -1.
         25    2    1    2    0    0  0.97077840123E+01  0.65997640873E+02  0.89019827047E+02  0.16732959591E+03  0.12499893755E+03 0.  0.
          2    1    1    2  501    0 -0.82196711557E+01 -0.32979053209E+02 -0.24425420221E+04  0.24427784817E+04  0.00000000000E+00 0. -1.
          1    1    1    2  502    0 -0.14881128565E+01 -0.33018587665E+02  0.18208800033E+03  0.18506345257E+03  0.00000000000E+00 0. -1.
         22    1    3    3    0    0  0.49375006915E+02  0.83492033560E+02  0.71798566573E+02  0.12068075711E+03  0.00000000000E+00 0. -1.
         22    1    3    3    0    0 -0.39667222903E+02 -0.17494392687E+02  0.17221260475E+02  0.46648838792E+02  0.00000000000E+00 0. -1.
</event>
<event>
 7    1  0.6485470E-006  0.4815093E+02  0.7818608E-02  0.1457057E+00
          2   -1    0    0  502    0  0.00000000000E+00  0.00000000000E+00  0.74268843212E+03  0.74268843212E+03  0.00000000000E+00 0. -1.
          1   -1    0    0  501    0 -0.00000000000E+00 -0.00000000000E+00 -0.24821563473E+02  0.24821563473E+02  0.00000000000E+00 0. -1.
         25    2    1    2    0    0 -0.43102243568E+02  0.40227468837E+02  0.48088897874E+03  0.50035460225E+03  0.12499786185E+03 0.  0.
          2    1    1    2  501    0  0.46652729257E+02  0.96170286061E+01  0.35058221688E+02  0.59144258337E+02  0.00000000000E+00 0. -1.
          1    1    1    2  502    0 -0.35504856892E+01 -0.49844497443E+02  0.20191966822E+03  0.20801113501E+03  0.00000000000E+00 0. -1.
         22    1    3    3    0    0 -0.20760225194E+02 -0.40221249884E+02  0.91114239586E+02  0.10173760636E+03  0.00000000000E+00 0. -1.
         22    1    3    3    0    0 -0.22342018374E+02  0.80448718721E+02  0.38977473916E+03  0.39861699589E+03  0.00000000000E+00 0. -1.
</event>
<event>
 7    1  0.6977379E-006  0.7665539E+02  0.7818608E-02  0.1479954E+00
          2   -1    0    0  502    0  0.00000000000E+00  0.00000000000E+00  0.87067511229E+03  0.87067511229E+03  0.00000000000E+00 0. -1.
          1   -1    0    0  501    0 -0.00000000000E+00 -0.00000000000E+00 -0.12305249602E+04  0.12305249602E+04  0.00000000000E+00 0. -1.
         25    2    1    2    0    0  0.48819609258E+02  0.25760514860E+02 -0.56683284667E+03  0.58307033005E+03  0.12499830139E+03 0.  0.
          2    1    1    2  501    0  0.10217546057E+02  0.23239153362E+02 -0.65362040448E+03  0.65411320859E+03  0.00000000000E+00 0. -1.
          1    1    1    2  502    0 -0.59037155314E+02 -0.48999668223E+02  0.86060340321E+03  0.86401653388E+03  0.00000000000E+00 0. -1.
         22    1    3    3    0    0 -0.26544118727E+02  0.31499825281E+02 -0.75938450003E+02  0.86391419832E+02  0.00000000000E+00 0.  1.
         22    1    3    3    0    0  0.75363727985E+02 -0.57393104203E+01 -0.49089439667E+03  0.49667891022E+03  0.00000000000E+00 0.  1.
</event>
<event>
 7    1  0.6485470E-006  0.1253480E+03  0.7818608E-02  0.1343646E+00
          2   -1    0    0  502    0  0.00000000000E+00  0.00000000000E+00  0.96072898341E+03  0.96072898341E+03  0.00000000000E+00 0. -1.
          1   -1    0    0  501    0 -0.00000000000E+00 -0.00000000000E+00 -0.26873428936E+03  0.26873428936E+03  0.00000000000E+00 0. -1.
         25    2    1    2    0    0  0.12096076190E+03 -0.80982963666E+02 -0.11369727114E+03  0.22302889009E+03  0.12500028010E+03 0.  0.
          2    1    1    2  501    0 -0.76252061341E+02  0.85750449882E+02 -0.66805042934E+02  0.13277963050E+03  0.00000000000E+00 0. -1.
          1    1    1    2  502    0 -0.44708700563E+02 -0.47674862154E+01  0.87249700813E+03  0.87365475219E+03  0.00000000000E+00 0. -1.
         22    1    3    3    0    0  0.30879375094E+02 -0.60700015461E+02 -0.11151547781E+03  0.13066648183E+03  0.00000000000E+00 0. -1.
         22    1    3    3    0    0  0.90081386810E+02 -0.20282948205E+02 -0.21817933350E+01  0.92362408260E+02  0.00000000000E+00 0. -1.
</event>
<event>
 7    1  0.6485470E-006  0.7521724E+02  0.7818608E-02  0.1367150E+00
          2   -1    0    0  502    0  0.00000000000E+00  0.00000000000E+00  0.11159309002E+04  0.11159309002E+04  0.00000000000E+00 0. -1.
          1   -1    0    0  501    0 -0.00000000000E+00 -0.00000000000E+00 -0.86258464247E+02  0.86258464247E+02  0.00000000000E+00 0. -1.
         25    2    1    2    0    0  0.81065733512E+02  0.99720872902E+02  0.42882165744E+03  0.46478876559E+03  0.12499870835E+03 0.  0.
          2    1    1    2  501    0 -0.27358667501E+02 -0.54983000372E+02 -0.52211548566E+02  0.80608143639E+02  0.00000000000E+00 0. -1.
          1    1    1    2  502    0 -0.53707066011E+02 -0.44737872529E+02  0.65306232709E+03  0.65679245523E+03  0.00000000000E+00 0. -1.
         22    1    3    3    0    0  0.18850947883E+02  0.29742914594E+02  0.11428536176E+02  0.37021759058E+02  0.00000000000E+00 0. -1.
         22    1    3    3    0    0  0.62214785629E+02  0.69977958307E+02  0.41739312126E+03  0.42776700653E+03  0.00000000000E+00 0. -1.
</event>
<event>
 7    1  0.6485470E-006  0.1038572E+03  0.7818608E-02  0.1378521E+00
          2   -1    0    0  502    0  0.00000000000E+00  0.00000000000E+00  0.55043291991E+03  0.55043291991E+03  0.00000000000E+00 0. -1.
          1   -1    0    0  501    0 -0.00000000000E+00 -0.00000000000E+00 -0.47289422349E+03  0.47289422349E+03  0.00000000000E+00 0. -1.
         25    2    1    2    0    0 -0.93518309746E+02  0.92739915087E+02  0.25640084899E+02  0.18337890588E+03  0.12499617219E+03 0.  0.
          2    1    1    2  501    0  0.40079875699E+02 -0.58076587474E+01 -0.38711682062E+03  0.38922944151E+03  0.00000000000E+00 0. -1.
          1    1    1    2  502    0  0.53438434047E+02 -0.86932256339E+02  0.43901543213E+03  0.45071879601E+03  0.00000000000E+00 0. -1.
         22    1    3    3    0    0 -0.12375876145E+03  0.83616413484E+02  0.26925532158E+02  0.15176600384E+03  0.00000000000E+00 0. -1.
         22    1    3    3    0    0  0.30240451706E+02  0.91235016023E+01 -0.12854472587E+01  0.31612902042E+02  0.00000000000E+00 0. -1.
</event>
<event>
 7    1  0.6485470E-006  0.1625155E+03  0.7818608E-02  0.1306525E+00
          2   -1    0    0  502    0  0.00000000000E+00  0.00000000000E+00  0.15268500551E+03  0.15268500551E+03  0.00000000000E+00 0. -1.
          1   -1    0    0  501    0 -0.00000000000E+00 -0.00000000000E+00 -0.11035338800E+04  0.11035338800E+04  0.00000000000E+00 0. -1.
         25    2    1    2    0    0 -0.71922069270E+02  0.11819425277E+03 -0.11462234004E+03  0.21888430451E+03  0.12501756873E+03 0.  0.
          2    1    1    2  501    0  0.12003861753E+03 -0.11546301435E+03 -0.92309072957E+03  0.93799652046E+03  0.00000000000E+00 0. -1.
          1    1    1    2  502    0 -0.48116548261E+02 -0.27312384121E+01  0.86864195115E+02  0.99338060545E+02  0.00000000000E+00 0. -1.
         22    1    3    3    0    0 -0.97264094628E+02  0.95447395371E+02 -0.48751164747E+02  0.14473142524E+03  0.00000000000E+00 0. -1.
         22    1    3    3    0    0  0.25342025357E+02  0.22746857395E+02 -0.65871175291E+02  0.74152879275E+02  0.00000000000E+00 0. -1.
</event>
<event>
 7    1  0.6485470E-006  0.7772866E+02  0.7818608E-02  0.1416155E+00
          2   -1    0    0  502    0  0.00000000000E+00  0.00000000000E+00  0.16273762924E+03  0.16273762924E+03  0.00000000000E+00 0. -1.
          1   -1    0    0  501    0 -0.00000000000E+00 -0.00000000000E+00 -0.82250912473E+03  0.82250912473E+03  0.00000000000E+00 0. -1.
         25    2    1    2    0    0  0.52195492997E+01 -0.58674334397E+02 -0.45066371733E+03  0.47137348774E+03  0.12500103047E+03 0.  0.
          2    1    1    2  501    0 -0.38913450183E+02  0.80451914080E+02 -0.35318410045E+03  0.36431548951E+03  0.00000000000E+00 0. -1.
          1    1    1    2  502    0  0.33693900883E+02 -0.21777579684E+02  0.14407632229E+03  0.14955777672E+03  0.00000000000E+00 0. -1.
         22    1    3    3    0    0 -0.33115934608E+02  0.20666375602E+02 -0.65421693876E+02  0.76182427338E+02  0.00000000000E+00 0.  1.
         22    1    3    3    0    0  0.38335483908E+02 -0.79340709999E+02 -0.38524202345E+03  0.39519106040E+03  0.00000000000E+00 0.  1.
</event>
<event>
 7    1  0.6485470E-006  0.3221749E+02  0.7818608E-02  0.1625339E+00
          2   -1    0    0  502    0  0.00000000000E+00  0.00000000000E+00  0.67556220647E+03  0.67556220647E+03  0.00000000000E+00 0. -1.
          1   -1    0    0  501    0 -0.00000000000E+00 -0.00000000000E+00 -0.52218114923E+02  0.52218114923E+02  0.00000000000E+00 0. -1.
         25    2    1    2    0    0  0.75584888815E+01 -0.25960688557E+02  0.10889848737E+03  0.16795971086E+03  0.12498198198E+03 0.  0.
          2    1    1    2  501    0  0.15979129391E+02  0.29267147234E+02 -0.10018913548E+02  0.34817770060E+02  0.00000000000E+00 0. -1.
          1    1    1    2  502    0 -0.23537618272E+02 -0.33064586765E+01  0.52446451773E+03  0.52500284047E+03  0.00000000000E+00 0. -1.
         22    1    3    3    0    0 -0.13829330843E+02 -0.22652429307E+02  0.13296817816E+03  0.13559100025E+03  0.00000000000E+00 0. -1.
         22    1    3    3    0    0  0.21387819725E+02 -0.33082592497E+01 -0.24069690796E+02  0.32368710614E+02  0.00000000000E+00 0. -1.
</event>
<event>
 7    1  0.6485470E-006  0.1271714E+03  0.7818608E-02  0.1311843E+00
          2   -1    0    0  502    0  0.00000000000E+00  0.00000000000E+00  0.38033882104E+03  0.38033882104E+03  0.00000000000E+00 0. -1.
          1   -1    0    0  501    0 -0.00000000000E+00 -0.00000000000E+00 -0.47124862113E+03  0.47124862113E+03  0.00000000000E+00 0. -1.
         25    2    1    2    0    0 -0.41685170412E+02 -0.14494687369E+03 -0.97258774731E+02  0.21870436696E+03  0.12500032496E+03 0.  0.
          2    1    1    2  501    0  0.55321341369E+02  0.19576595628E+02 -0.29785203991E+03  0.30357788389E+03  0.00000000000E+00 0. -1.
          1    1    1    2  502    0 -0.13636170957E+02  0.12537027806E+03  0.30420101455E+03  0.32930519132E+03  0.00000000000E+00 0. -1.
         22    1    3    3    0    0 -0.63214849716E+02 -0.25737982981E+02 -0.62829777526E+02  0.92769294147E+02  0.00000000000E+00 0. -1.
         22    1    3    3    0    0  0.21529679304E+02 -0.11920889071E+03 -0.34428997204E+02  0.12593507281E+03  0.00000000000E+00 0. -1.
</event>
<event>
 7    1  0.6485470E-006  0.9673345E+02  0.7818608E-02  0.1365319E+00
          2   -1    0    0  502    0  0.00000000000E+00  0.00000000000E+00  0.10830521995E+04  0.10830521995E+04  0.00000000000E+00 0. -1.
          1   -1    0    0  501    0 -0.00000000000E+00 -0.00000000000E+00 -0.39020807083E+03  0.39020807083E+03  0.00000000000E+00 0. -1.
         25    2    1    2    0    0  0.52997299027E+02 -0.99723329677E+02  0.20252796858E+03  0.26341977999E+03  0.12497578263E+03 0.  0.
          2    1    1    2  501    0 -0.46202624006E+01  0.96462983442E+02 -0.35257188436E+03  0.36555900706E+03  0.00000000000E+00 0. -1.
          1    1    1    2  502    0 -0.48377036626E+02  0.32603462348E+01  0.84288804447E+03  0.84428148330E+03  0.00000000000E+00 0. -1.
         22    1    3    3    0    0  0.56398616425E+02 -0.38795591969E+02  0.20532948368E+02  0.71466802499E+02  0.00000000000E+00 0.  1.
         22    1    3    3    0    0 -0.34013173982E+01 -0.60927737708E+02  0.18199502022E+03  0.19195297749E+03  0.00000000000E+00 0.  1.
</event>
<event>
 7    1  0.6485470E-006  0.6200456E+02  0.7818608E-02  0.1392470E+00
          2   -1    0    0  502    0  0.00000000000E+00  0.00000000000E+00  0.42722418603E+02  0.42722418603E+02  0.00000000000E+00 0. -1.
          1   -1    0    0  501    0 -0.00000000000E+00 -0.00000000000E+00 -0.12004499265E+04  0.12004499265E+04  0.00000000000E+00 0. -1.
         25    2    1    2    0    0 -0.48150448521E+01 -0.14426661380E+02 -0.35737755310E+03  0.37891256074E+03  0.12499880006E+03 0.  0.
          2    1    1    2  501    0 -0.36258048799E+02  0.58979377263E+02 -0.80067469098E+03  0.80366235064E+03  0.00000000000E+00 0. -1.
          1    1    1    2  502    0  0.41073093651E+02 -0.44552715883E+02  0.32473623110E+00  0.60597433677E+02  0.00000000000E+00 0. -1.
         22    1    3    3    0    0 -0.48562564490E+01  0.41613768139E+02 -0.44747623211E+02  0.61299581634E+02  0.00000000000E+00 0.  1.
         22    1    3    3    0    0  0.41211596836E-01 -0.56040429519E+02 -0.31262992988E+03  0.31761297911E+03  0.00000000000E+00 0.  1.
</event>
<event>
 7    1  0.6485470E-006  0.2396087E+03  0.7818608E-02  0.1234729E+00
          2   -1    0    0  502    0  0.00000000000E+00  0.00000000000E+00  0.24840314681E+04  0.24840314681E+04  0.00000000000E+00 0. -1.
          1   -1    0    0  501    0 -0.00000000000E+00 -0.00000000000E+00 -0.34705385875E+03  0.34705385875E+03  0.00000000000E+00 0. -1.
         25    2    1    2    0    0 -0.37965454889E+02 -0.29264085921E+03  0.67984374247E+03  0.75159339153E+03  0.12500025506E+03 0.  0.
          2    1    1    2  501    0  0.55536796573E+02  0.22960574118E+03 -0.26563616063E+03  0.35547953808E+03  0.00000000000E+00 0. -1.
          1    1    1    2  502    0 -0.17571341684E+02  0.63035118036E+02  0.17227700275E+04  0.17240123972E+04  0.00000000000E+00 0. -1.
         22    1    3    3    0    0  0.14889963876E+02 -0.30477368885E+02  0.19457326702E+03  0.19750781574E+03  0.00000000000E+00 0. -1.
         22    1    3    3    0    0 -0.52855418765E+02 -0.26216349033E+03  0.48527047545E+03  0.55408557579E+03  0.00000000000E+00 0. -1.
</event>
<event>
 7    1  0.6485470E-006  0.6003392E+02  0.7818608E-02  0.1406160E+00
          2   -1    0    0  502    0  0.00000000000E+00  0.00000000000E+00  0.22544119793E+03  0.22544119793E+03  0.00000000000E+00 0. -1.
          1   -1    0    0  501    0 -0.00000000000E+00 -0.00000000000E+00 -0.16303846608E+04  0.16303846608E+04  0.00000000000E+00 0. -1.
         25    2    1    2    0    0  0.83369942456E+02  0.56359867768E+02 -0.25789451599E+01  0.16049336414E+03  0.12499794789E+03 0.  0.
          2    1    1    2  501    0 -0.59572517042E+02 -0.55021397352E+01 -0.15428665539E+04  0.15440260236E+04  0.00000000000E+00 0. -1.
          1    1    1    2  502    0 -0.23797425414E+02 -0.50857728032E+02  0.14050203625E+03  0.15130647094E+03  0.00000000000E+00 0. -1.
         22    1    3    3    0    0  0.46653944356E+02  0.13568162600E+02 -0.61873401356E+02  0.78670218988E+02  0.00000000000E+00 0. -1.
         22    1    3    3    0    0  0.36715998099E+02  0.42791705168E+02  0.59294456196E+02  0.81823145156E+02  0.00000000000E+00 0. -1.
</event>
<event>
 7    1  0.6485470E-006  0.6350272E+02  0.7818608E-02  0.1530021E+00
          2   -1    0    0  502    0  0.00000000000E+00  0.00000000000E+00  0.51560070808E+03  0.51560070808E+03  0.00000000000E+00 0. -1.
          1   -1    0    0  501    0 -0.00000000000E+00 -0.00000000000E+00 -0.10042799204E+03  0.10042799204E+03  0.00000000000E+00 0. -1.
         25    2    1    2    0    0 -0.79130581925E+01 -0.49631097457E+02  0.11910175157E+03  0.17979504925E+03  0.12496067455E+03 0.  0.
          2    1    1    2  501    0  0.15958994893E+02 -0.14811067038E+02 -0.65423848973E+02  0.68951702221E+02  0.00000000000E+00 0. -1.
          1    1    1    2  502    0 -0.80459367002E+01  0.64442164495E+02  0.36149481343E+03  0.36728194864E+03  0.00000000000E+00 0. -1.
         22    1    3    3    0    0 -0.50568009248E+02 -0.44083874490E+02  0.17302491045E+02  0.69281222172E+02  0.00000000000E+00 0. -1.
         22    1    3    3    0    0  0.42654951055E+02 -0.55472229669E+01  0.10179926053E+03  0.11051382708E+03  0.00000000000E+00 0. -1.
</event>
<event>
 7    1  0.6485470E-006  0.2838970E+02  0.7818608E-02  0.1623414E+00
          2   -1    0    0  502    0  0.00000000000E+00  0.00000000000E+00  0.20179035467E+03  0.20179035467E+03  0.00000000000E+00 0. -1.
          1   -1    0    0  501    0 -0.00000000000E+00 -0.00000000000E+00 -0.10120396628E+04  0.10120396628E+04  0.00000000000E+00 0. -1.
         25    2    1    2    0    0  0.81928778521E+01 -0.23499047549E+02  0.10437108974E+03  0.16472996812E+03  0.12499323798E+03 0.  0.
          2    1    1    2  501    0 -0.28013581481E+02  0.47579854985E+01 -0.97887900962E+03  0.97929133287E+03  0.00000000000E+00 0. -1.
          1    1    1    2  502    0  0.19820703629E+02  0.18741062050E+02  0.64258611800E+02  0.69808716430E+02  0.00000000000E+00 0. -1.
         22    1    3    3    0    0 -0.66695757832E+01 -0.67889236625E+02  0.95055440311E+02  0.11699986506E+03  0.00000000000E+00 0.  1.
         22    1    3    3    0    0  0.14862453635E+02  0.44390189076E+02  0.93156494262E+01  0.47730103064E+02  0.00000000000E+00 0.  1.
</event>
<event>
 7    1  0.6485470E-006  0.4177956E+02  0.7818608E-02  0.1504908E+00
          2   -1    0    0  502    0  0.00000000000E+00  0.00000000000E+00  0.17959442954E+03  0.17959442954E+03  0.00000000000E+00 0. -1.
          1   -1    0    0  501    0 -0.00000000000E+00 -0.00000000000E+00 -0.55403019957E+03  0.55403019957E+03  0.00000000000E+00 0. -1.
         25    2    1    2    0    0 -0.54468784048E+02  0.58873122701E+01 -0.21994876654E+03  0.25885145750E+03  0.12500043306E+03 0.  0.
          2    1    1    2  501    0  0.26058838308E+02 -0.32849717900E+02 -0.31080614128E+03  0.31362178572E+03  0.00000000000E+00 0. -1.
          1    1    1    2  502    0  0.28409945740E+02  0.26962405630E+02  0.15631913779E+03  0.16115138589E+03  0.00000000000E+00 0. -1.
         22    1    3    3    0    0 -0.45714511770E+01  0.11239986613E+02  0.14605772482E+02  0.18988524290E+02  0.00000000000E+00 0.  1.
         22    1    3    3    0    0 -0.49897332871E+02 -0.53526743433E+01 -0.23455453903E+03  0.23986293321E+03  0.00000000000E+00 0.  1.
</event>
<event>
 7    1  0.6485470E-006  0.5095844E+02  0.7818608E-02  0.1484234E+00
          2   -1    0    0  502    0  0.00000000000E+00  0.00000000000E+00  0.84492706588E+03  0.84492706588E+03  0.00000000000E+00 0. -1.
          1   -1    0    0  501    0 -0.00000000000E+00 -0.00000000000E+00 -0.11290597739E+04  0.11290597739E+04  0.00000000000E+00 0. -1.
         25    2    1    2    0    0  0.94849338266E+01 -0.70192346092E+02  0.20564336451E+02  0.14513799008E+03  0.12500085924E+03 0.  0.
          2    1    1    2  501    0 -0.28874962694E+02  0.23221177846E+02 -0.10656034565E+04  0.10662474914E+04  0.00000000000E+00 0. -1.
          1    1    1    2  502    0  0.19390028867E+02  0.46971168247E+02  0.76090641197E+03  0.76260135828E+03  0.00000000000E+00 0. -1.
         22    1    3    3    0    0 -0.40190860413E+02  0.15568928080E+02  0.15828207963E+02  0.45915454365E+02  0.00000000000E+00 0.  1.
         22    1    3    3    0    0  0.49675794239E+02 -0.85761274172E+02  0.47361284888E+01  0.99222535716E+02  0.00000000000E+00 0.  1.
</event>
<event>
 7    1  0.6485470E-006  0.7880046E+02  0.7818608E-02  0.1466200E+00
          2   -1    0    0  502    0  0.00000000000E+00  0.00000000000E+00  0.21706201078E+03  0.21706201078E+03  0.00000000000E+00 0. -1.
          1   -1    0    0  501    0 -0.00000000000E+00 -0.00000000000E+00 -0.10514742421E+04  0.10514742421E+04  0.00000000000E+00 0. -1.
         25    2    1    2    0    0 -0.35062112459E+02  0.90319625075E+02 -0.31757985171E+03  0.35478090390E+03  0.12500216461E+03 0.  0.
          2    1    1    2  501    0  0.11834857018E+02 -0.76088333361E+02 -0.71227411311E+03  0.71642439275E+03  0.00000000000E+00 0. -1.
          1    1    1    2  502    0  0.23227255441E+02 -0.14231291713E+02  0.19544173355E+03  0.19733095619E+03  0.00000000000E+00 0. -1.
         22    1    3    3    0    0 -0.39200630481E+02  0.11864613708E+03 -0.28629248595E+03  0.31237314671E+03  0.00000000000E+00 0. -1.
         22    1    3    3    0    0  0.41385180218E+01 -0.28326512005E+02 -0.31287365764E+02  0.42407757194E+02  0.00000000000E+00 0. -1.
</event>
<event>
 7    1  0.6485470E-006  0.8806083E+02  0.7818608E-02  0.1443146E+00
          2   -1    0    0  502    0  0.00000000000E+00  0.00000000000E+00  0.18933943712E+03  0.18933943712E+03  0.00000000000E+00 0. -1.
          1   -1    0    0  501    0 -0.00000000000E+00 -0.00000000000E+00 -0.91942383239E+03  0.91942383239E+03  0.00000000000E+00 0. -1.
         25    2    1    2    0    0  0.90816568336E+01  0.69363083749E+02  0.26685712214E+02  0.14570215553E+03  0.12499310785E+03 0.  0.
          2    1    1    2  501    0 -0.13333383625E+02  0.25591172197E+02 -0.83771712607E+03  0.83821397658E+03  0.00000000000E+00 0. -1.
          1    1    1    2  502    0  0.42517267917E+01 -0.94954255946E+02  0.80947018583E+02  0.12484713741E+03  0.00000000000E+00 0. -1.
         22    1    3    3    0    0  0.58949772714E+02  0.37280327810E+02  0.45751747367E+02  0.83415351895E+02  0.00000000000E+00 0.  1.
         22    1    3    3    0    0 -0.49868115880E+02  0.32082755939E+02 -0.19066035153E+02  0.62286803631E+02  0.00000000000E+00 0.  1.
</event>
<event>
 7    1  0.6485470E-006  0.1723091E+03  0.7818608E-02  0.1314479E+00
          2   -1    0    0  502    0  0.00000000000E+00  0.00000000000E+00  0.23348166681E+04  0.23348166681E+04  0.00000000000E+00 0. -1.
          1   -1    0    0  501    0 -0.00000000000E+00 -0.00000000000E+00 -0.55452846641E+03  0.55452846641E+03  0.00000000000E+00 0. -1.
         25    2    1    2    0    0 -0.14481298970E+03  0.12614176949E+03  0.38256137501E+03  0.44593650385E+03  0.12499444718E+03 0.  0.
          2    1    1    2  501    0  0.10388430007E+03 -0.13679314326E+03 -0.50849233263E+03  0.53672037802E+03  0.00000000000E+00 0. -1.
          1    1    1    2  502    0  0.40928689624E+02  0.10651373767E+02  0.19062191593E+04  0.19066882526E+04  0.00000000000E+00 0. -1.
         22    1    3    3    0    0 -0.74218679787E+02  0.89057524861E+02  0.10250271231E+03  0.15474644162E+03  0.00000000000E+00 0. -1.
         22    1    3    3    0    0 -0.70594309909E+02  0.37084244631E+02  0.28005866270E+03  0.29119006223E+03  0.00000000000E+00 0. -1.
</event>
<event>
 7    1  0.6485470E-006  0.7602622E+02  0.7818608E-02  0.1483282E+00
          2   -1    0    0  502    0  0.00000000000E+00  0.00000000000E+00  0.81255822595E+03  0.81255822595E+03  0.00000000000E+00 0. -1.
          1   -1    0    0  501    0 -0.00000000000E+00 -0.00000000000E+00 -0.71511484166E+02  0.71511484166E+02  0.00000000000E+00 0. -1.
         25    2    1    2    0    0  0.22546799590E+02 -0.54479326049E+02  0.29079942118E+03  0.32197479352E+03  0.12500843636E+03 0.  0.
          2    1    1    2  501    0 -0.46258485981E+02  0.62410195190E+02 -0.28461097559E+02  0.82733995813E+02  0.00000000000E+00 0. -1.
          1    1    1    2  502    0  0.23711686391E+02 -0.79308691408E+01  0.47870841816E+03  0.47936092078E+03  0.00000000000E+00 0. -1.
         22    1    3    3    0    0  0.19291834715E+02 -0.21334376089E+02  0.28701886638E+03  0.28845651345E+03  0.00000000000E+00 0.  1.
         22    1    3    3    0    0  0.32549648749E+01 -0.33144949960E+02  0.37805547961E+01  0.33518280068E+02  0.00000000000E+00 0.  1.
</event>
<event>
 7    1  0.6485470E-006  0.1378731E+03  0.7818608E-02  0.1278964E+00
          2   -1    0    0  502    0  0.00000000000E+00  0.00000000000E+00  0.24256274101E+04  0.24256274101E+04  0.00000000000E+00 0. -1.
          1   -1    0    0  501    0 -0.00000000000E+00 -0.00000000000E+00 -0.57493249871E+03  0.57493249871E+03  0.00000000000E+00 0. -1.
         25    2    1    2    0    0 -0.10384194870E+03 -0.16377909524E+03  0.11467093191E+04  0.11696898386E+04  0.12500125487E+03 0.  0.
          2    1    1    2  501    0  0.52352474003E+02  0.51526893582E+02 -0.55802111393E+03  0.56283511430E+03  0.00000000000E+00 0. -1.
          1    1    1    2  502    0  0.51489474697E+02  0.11225220166E+03  0.12620067062E+04  0.12680349559E+04  0.00000000000E+00 0. -1.
         22    1    3    3    0    0 -0.71993603463E+02 -0.17675454938E+02  0.25606792589E+03  0.26658260130E+03  0.00000000000E+00 0.  1.
         22    1    3    3    0    0 -0.31848345236E+02 -0.14610364030E+03  0.89064139319E+03  0.90310723730E+03  0.00000000000E+00 0.  1.
</event>
<event>
 7    1  0.6485470E-006  0.1461405E+03  0.7818608E-02  0.1335397E+00
          2   -1    0    0  502    0  0.00000000000E+00  0.00000000000E+00  0.17632285412E+03  0.17632285412E+03  0.00000000000E+00 0. -1.
          1   -1    0    0  501    0 -0.00000000000E+00 -0.00000000000E+00 -0.13706211961E+04  0.13706211961E+04  0.00000000000E+00 0. -1.
         25    2    1    2    0    0 -0.16789886047E+03  0.79729111846E+02 -0.86296258823E+03  0.89155850762E+03  0.12500154076E+03 0.  0.
          2    1    1    2  501    0  0.35615600912E+02 -0.21153534339E+02 -0.45994889758E+03  0.46181049298E+03  0.00000000000E+00 0. -1.
          1    1    1    2  502    0  0.13228325955E+03 -0.58575577506E+02  0.12861314388E+03  0.19357504957E+03  0.00000000000E+00 0. -1.
         22    1    3    3    0    0 -0.14473715400E+03  0.10503597482E+03 -0.59168001191E+03  0.61811539072E+03  0.00000000000E+00 0.  1.
         22    1    3    3    0    0 -0.23161706468E+02 -0.25306862977E+02 -0.27128257633E+03  0.27344311690E+03  0.00000000000E+00 0.  1.
</event>
<event>
 7    1  0.6485470E-006  0.8917579E+02  0.7818608E-02  0.1372733E+00
          2   -1    0    0  502    0  0.00000000000E+00  0.00000000000E+00  0.86570471089E+03  0.86570471089E+03  0.00000000000E+00 0. -1.
          1   -1    0    0  501    0 -0.00000000000E+00 -0.00000000000E+00 -0.22998910086E+03  0.22998910086E+03  0.00000000000E+00 0. -1.
         25    2    1    2    0    0  0.60317038834E+02  0.78102337287E+02  0.21621374070E+03  0.26853533462E+03  0.12499889603E+03 0.  0.
          2    1    1    2  501    0 -0.48325606813E+02  0.10536599442E+02 -0.19755491908E+03  0.20365247422E+03  0.00000000000E+00 0. -1.
          1    1    1    2  502    0 -0.11991432021E+02 -0.88638936729E+02  0.61705678841E+03  0.62350600291E+03  0.00000000000E+00 0. -1.
         22    1    3    3    0    0  0.21605471660E+02  0.95486397120E+02  0.20078655494E+03  0.22338238311E+03  0.00000000000E+00 0.  1.
         22    1    3    3    0    0  0.38711567174E+02 -0.17384059833E+02  0.15427185762E+02  0.45152951508E+02  0.00000000000E+00 0.  1.
</event>
<event>
 7    1  0.6485470E-006  0.7524569E+02  0.7818608E-02  0.1361249E+00
          2   -1    0    0  502    0  0.00000000000E+00  0.00000000000E+00  0.60169011743E+03  0.60169011743E+03  0.00000000000E+00 0. -1.
          1   -1    0    0  501    0 -0.00000000000E+00 -0.00000000000E+00 -0.47186229554E+03  0.47186229554E+03  0.00000000000E+00 0. -1.
         25    2    1    2    0    0 -0.20746377710E+02  0.25187006079E+02 -0.19716060504E+02  0.13068426552E+03  0.12499942700E+03 0.  0.
          2    1    1    2  501    0 -0.56309022411E+02 -0.31438774487E+02 -0.39127372841E+03  0.39655293857E+03  0.00000000000E+00 0. -1.
          1    1    1    2  502    0  0.77055400121E+02  0.62517684083E+01  0.54081761081E+03  0.54631520888E+03  0.00000000000E+00 0. -1.
         22    1    3    3    0    0 -0.41253672872E+02 -0.24920349240E+02 -0.49335671301E+02  0.68970267467E+02  0.00000000000E+00 0.  1.
         22    1    3    3    0    0  0.20507295162E+02  0.50107355319E+02  0.29619610797E+02  0.61713998053E+02  0.00000000000E+00 0.  1.
</event>
<event>
 7    1  0.6485470E-006  0.7336196E+02  0.7818608E-02  0.1425996E+00
          2   -1    0    0  502    0  0.00000000000E+00  0.00000000000E+00  0.14857759371E+04  0.14857759371E+04  0.00000000000E+00 0. -1.
          1   -1    0    0  501    0 -0.00000000000E+00 -0.00000000000E+00 -0.10896536563E+03  0.10896536563E+03  0.00000000000E+00 0. -1.
         25    2    1    2    0    0  0.43365537312E+02  0.15241934943E+02  0.75556352602E+03  0.76721052387E+03  0.12499143840E+03 0.  0.
          2    1    1    2  501    0  0.38417199949E+02  0.88054038545E+01 -0.96760974071E+02  0.10448015358E+03  0.00000000000E+00 0. -1.
          1    1    1    2  502    0 -0.81782737261E+02 -0.24047338798E+02  0.71800801952E+03  0.72305062528E+03  0.00000000000E+00 0. -1.
         22    1    3    3    0    0 -0.13778435420E+02 -0.25067974070E+00  0.60877917512E+03  0.60893512970E+03  0.00000000000E+00 0.  1.
         22    1    3    3    0    0  0.57143972732E+02  0.15492614684E+02  0.14678435090E+03  0.15827539417E+03  0.00000000000E+00 0.  1.
</event>
<event>
 7    1  0.6485470E-006  0.3277622E+03  0.7818608E-02  0.1187670E+00
          2   -1    0    0  502    0  0.00000000000E+00  0.00000000000E+00  0.22576469826E+04  0.22576469826E+04  0.00000000000E+00 0. -1.
          1   -1    0    0  501    0 -0.00000000000E+00 -0.00000000000E+00 -0.13667616655E+04  0.13667616655E+04  0.00000000000E+00 0. -1.
         25    2    1    2    0    0 -0.54364026495E+02  0.24748715341E+03  0.34084707024E+03  0.44272588194E+03  0.12499657104E+03 0.  0.
          2    1    1    2  501    0  0.82388053717E+02 -0.32134857780E+03 -0.12940536475E+04  0.13358995256E+04  0.00000000000E+00 0. -1.
          1    1    1    2  502    0 -0.28024027221E+02  0.73861424385E+02  0.18440918943E+04  0.18457832405E+04  0.00000000000E+00 0. -1.
         22    1    3    3    0    0 -0.53266093226E+02  0.43800341706E+02  0.40974024057E+02  0.80216066150E+02  0.00000000000E+00 0.  1.
         22    1    3    3    0    0 -0.10979332697E+01  0.20368681170E+03  0.29987304618E+03  0.36250981579E+03  0.00000000000E+00 0.  1.
</event>
<event>
 7    1  0.6485470E-006  0.1049038E+03  0.7818608E-02  0.1294291E+00
          2   -1    0    0  502    0  0.00000000000E+00  0.00000000000E+00  0.22071777538E+03  0.22071777538E+03  0.00000000000E+00 0. -1.
          1   -1    0    0  501    0 -0.00000000000E+00 -0.00000000000E+00 -0.59783573158E+03  0.59783573158E+03  0.00000000000E+00 0. -1.
         25    2    1    2    0    0 -0.67000755526E+02 -0.13576891527E+03 -0.49879316975E+02  0.20257241426E+03  0.12500134864E+03 0.  0.
          2    1    1    2  501    0 -0.18068406143E+02  0.81591840948E+02 -0.44966335531E+03  0.45736290724E+03  0.00000000000E+00 0. -1.
          1    1    1    2  502    0  0.85069161669E+02  0.54177074318E+02  0.12242471609E+03  0.15861818546E+03  0.00000000000E+00 0. -1.
         22    1    3    3    0    0 -0.67056744906E+02 -0.64123743360E+02 -0.82216256474E+02  0.12396763420E+03  0.00000000000E+00 0.  1.
         22    1    3    3    0    0  0.55989380488E-01 -0.71645171905E+02  0.32336939499E+02  0.78604780060E+02  0.00000000000E+00 0.  1.
</event>
<event>
 7    1  0.6485470E-006  0.2424396E+03  0.7818608E-02  0.1275032E+00
          2   -1    0    0  502    0  0.00000000000E+00  0.00000000000E+00  0.50918935602E+03  0.50918935602E+03  0.00000000000E+00 0. -1.
          1   -1    0    0  501    0 -0.00000000000E+00 -0.00000000000E+00 -0.18675553850E+04  0.18675553850E+04  0.00000000000E+00 0. -1.
         25    2    1    2    0    0  0.26642842329E+03  0.67856903192E+02 -0.16311373021E+03  0.34325897135E+03  0.12502787042E+03 0.  0.
          2    1    1    2  501    0 -0.22515687185E+03 -0.81197726190E+02 -0.16043445675E+04  0.16221005452E+04  0.00000000000E+00 0. -1.
          1    1    1    2  502    0 -0.41271551440E+02  0.13340822998E+02  0.40909226874E+03  0.41138522441E+03  0.00000000000E+00 0. -1.
         22    1    3    3    0    0  0.50483179369E+02  0.63064778703E+02 -0.74161238867E+02  0.10966132893E+03  0.00000000000E+00 0. -1.
         22    1    3    3    0    0  0.21594524392E+03  0.47921244881E+01 -0.88952491348E+02  0.23359764243E+03  0.00000000000E+00 0. -1.
</event>
<event>
 7    1  0.6485470E-006  0.5981015E+02  0.7818608E-02  0.1490041E+00
          2   -1    0    0  502    0  0.00000000000E+00  0.00000000000E+00  0.48096946947E+03  0.48096946947E+03  0.00000000000E+00 0. -1.
          1   -1    0    0  501    0 -0.00000000000E+00 -0.00000000000E+00 -0.17591827174E+03  0.17591827174E+03  0.00000000000E+00 0. -1.
         25    2    1    2    0    0 -0.85306834654E+02  0.45886037577E+01  0.55344646372E+02  0.16120583306E+03  0.12500391757E+03 0.  0.
          2    1    1    2  501    0  0.28485561078E+02  0.10366876196E+02 -0.11875609723E+03  0.12256390146E+03  0.00000000000E+00 0. -1.
          1    1    1    2  502    0  0.56821273577E+02 -0.14955479954E+02  0.36846264858E+03  0.37311800669E+03  0.00000000000E+00 0. -1.
         22    1    3    3    0    0 -0.35015438264E+02 -0.51392070290E+02 -0.81831728805E+01  0.62723122721E+02  0.00000000000E+00 0.  1.
         22    1    3    3    0    0 -0.50291396390E+02  0.55980674047E+02  0.63527819253E+02  0.98482710344E+02  0.00000000000E+00 0.  1.
</event>
<event>
 7    1  0.6485470E-006  0.1692883E+03  0.7818608E-02  0.1351056E+00
          2   -1    0    0  502    0  0.00000000000E+00  0.00000000000E+00  0.69873472991E+03  0.69873472991E+03  0.00000000000E+00 0. -1.
          1   -1    0    0  501    0 -0.00000000000E+00 -0.00000000000E+00 -0.15286270565E+04  0.15286270565E+04  0.00000000000E+00 0. -1.
         25    2    1    2    0    0 -0.14784264933E+03 -0.90643177646E+02 -0.70101790874E+03  0.73288784912E+03  0.12499942558E+03 0.  0.
          2    1    1    2  501    0  0.15668190724E+03  0.60675333985E+02 -0.80261304597E+03  0.82001123028E+03  0.00000000000E+00 0. -1.
          1    1    1    2  502    0 -0.88392579101E+01  0.29967843661E+02  0.67373862812E+03  0.67446270702E+03  0.00000000000E+00 0. -1.
         22    1    3    3    0    0 -0.14482968181E+03 -0.26873756216E+02 -0.53842453510E+03  0.55821036850E+03  0.00000000000E+00 0.  1.
         22    1    3    3    0    0 -0.30129675258E+01 -0.63769421431E+02 -0.16259337364E+03  0.17467748061E+03  0.00000000000E+00 0.  1.
</event>
<event>
 7    1  0.6485470E-006  0.1406255E+03  0.7818608E-02  0.1239504E+00
          2   -1    0    0  502    0  0.00000000000E+00  0.00000000000E+00  0.39480556784E+03  0.39480556784E+03  0.00000000000E+00 0. -1.
          1   -1    0    0  501    0 -0.00000000000E+00 -0.00000000000E+00 -0.58168646977E+03  0.58168646977E+03  0.00000000000E+00 0. -1.
         25    2    1    2    0    0 -0.15808379517E+01 -0.37954988921E+02 -0.18429900669E+03  0.22590743274E+03  0.12499985627E+03 0.  0.
          2    1    1    2  501    0 -0.13541746681E+02  0.17776495296E+03 -0.34062416532E+03  0.38445881367E+03  0.00000000000E+00 0. -1.
          1    1    1    2  502    0  0.15122584633E+02 -0.13980996404E+03  0.33804227009E+03  0.36612579119E+03  0.00000000000E+00 0. -1.
         22    1    3    3    0    0  0.40935043762E+02 -0.63434850294E+02 -0.77641971765E+02  0.10829558541E+03  0.00000000000E+00 0.  1.
         22    1    3    3    0    0 -0.42515881714E+02  0.25479861373E+02 -0.10665703493E+03  0.11761184733E+03  0.00000000000E+00 0.  1.
</event>
<event>
 7    1  0.6485470E-006  0.1202976E+03  0.7818608E-02  0.1243502E+00
          2   -1    0    0  502    0  0.00000000000E+00  0.00000000000E+00  0.81864850461E+03  0.81864850461E+03  0.00000000000E+00 0. -1.
          1   -1    0    0  501    0 -0.00000000000E+00 -0.00000000000E+00 -0.22915306904E+03  0.22915306904E+03  0.00000000000E+00 0. -1.
         25    2    1    2    0    0  0.49541406962E+02  0.25557914175E+02  0.85227186558E+02  0.16123038487E+03  0.12499602273E+03 0.  0.
          2    1    1    2  501    0 -0.43071033860E+02  0.11116158254E+03 -0.16493828957E+03  0.20351081238E+03  0.00000000000E+00 0. -1.
          1    1    1    2  502    0 -0.64703731021E+01 -0.13671949671E+03  0.66920653858E+03  0.68306037639E+03  0.00000000000E+00 0. -1.
         22    1    3    3    0    0  0.80225187356E+02  0.72817052086E+01  0.14293683573E+02  0.81813283195E+02  0.00000000000E+00 0.  1.
         22    1    3    3    0    0 -0.30683780394E+02  0.18276208966E+02  0.70933502985E+02  0.79417101679E+02  0.00000000000E+00 0.  1.
</event>
<event>
 7    1  0.6485470E-006  0.7419045E+02  0.7818608E-02  0.1451280E+00
          2   -1    0    0  502    0  0.00000000000E+00  0.00000000000E+00  0.60994510522E+03  0.60994510522E+03  0.00000000000E+00 0. -1.
          1   -1    0    0  501    0 -0.00000000000E+00 -0.00000000000E+00 -0.76650556176E+02  0.76650556176E+02  0.00000000000E+00 0. -1.
         25    2    1    2    0    0  0.57629417205E+02 -0.76865382152E+02  0.78428538980E+02  0.17608200528E+03  0.12499760060E+03 0.  0.
          2    1    1    2  501    0 -0.29907543069E+02  0.60383945188E+02  0.14447638069E+02  0.68916008407E+02  0.00000000000E+00 0. -1.
          1    1    1    2  502    0 -0.27721874136E+02  0.16481436964E+02  0.44041837200E+03  0.44159764771E+03  0.00000000000E+00 0. -1.
         22    1    3    3    0    0  0.20264992470E+02 -0.10631544738E+03  0.66524817097E+02  0.12704013366E+03  0.00000000000E+00 0.  1.
         22    1    3    3    0    0  0.37364424735E+02  0.29450065223E+02  0.11903721883E+02  0.49041871621E+02  0.00000000000E+00 0.  1.
</event>
<event>
 7    1  0.6485470E-006  0.7913192E+02  0.7818608E-02  0.1336887E+00
          2   -1    0    0  502    0  0.00000000000E+00  0.00000000000E+00  0.49047847766E+04  0.49047847766E+04  0.00000000000E+00 0. -1.
          1   -1    0    0  501    0 -0.00000000000E+00 -0.00000000000E+00 -0.13836878844E+04  0.13836878844E+04  0.00000000000E+00 0. -1.
         25    2    1    2    0    0  0.46952000381E+02  0.58752288721E+02 -0.55918713346E+03  0.57790274592E+03  0.12500004697E+03 0.  0.
          2    1    1    2  501    0  0.29994081935E+02 -0.77222848235E+02 -0.81271734996E+03  0.81692870201E+03  0.00000000000E+00 0. -1.
          1    1    1    2  502    0 -0.76946082316E+02  0.18470559514E+02  0.48930013756E+04  0.48936412132E+04  0.00000000000E+00 0. -1.
         22    1    3    3    0    0 -0.25593226217E+02  0.67092071015E+01 -0.34280793782E+03  0.34382744062E+03  0.00000000000E+00 0. -1.
         22    1    3    3    0    0  0.72545226598E+02  0.52043081619E+02 -0.21637919563E+03  0.23407530530E+03  0.00000000000E+00 0. -1.
</event>
<event>
 7    1  0.6485470E-006  0.8824737E+02  0.7818608E-02  0.1373377E+00
          2   -1    0    0  502    0  0.00000000000E+00  0.00000000000E+00  0.16237068930E+04  0.16237068930E+04  0.00000000000E+00 0. -1.
          1   -1    0    0  501    0 -0.00000000000E+00 -0.00000000000E+00 -0.52722660595E+03  0.52722660595E+03  0.00000000000E+00 0. -1.
         25    2    1    2    0    0 -0.74207454251E+02 -0.41111486668E+02 -0.23406405187E+03  0.27858130177E+03  0.12499864286E+03 0.  0.
          2    1    1    2  501    0  0.45053997538E+02  0.81383472678E+02 -0.26251925711E+03  0.27851300270E+03  0.00000000000E+00 0. -1.
          1    1    1    2  502    0  0.29153456713E+02 -0.40271986011E+02  0.15930635960E+04  0.15938391944E+04  0.00000000000E+00 0. -1.
         22    1    3    3    0    0 -0.69477301434E+02 -0.79352147937E+02 -0.20420651683E+03  0.22983507198E+03  0.00000000000E+00 0. -1.
         22    1    3    3    0    0 -0.47301528177E+01  0.38240661269E+02 -0.29857535034E+02  0.48746229785E+02  0.00000000000E+00 0. -1.
</event>
<event>
 7    1  0.6485470E-006  0.2157081E+03  0.7818608E-02  0.1348749E+00
          2   -1    0    0  502    0  0.00000000000E+00  0.00000000000E+00  0.18960871372E+04  0.18960871372E+04  0.00000000000E+00 0. -1.
          1   -1    0    0  501    0 -0.00000000000E+00 -0.00000000000E+00 -0.10592162796E+04  0.10592162796E+04  0.00000000000E+00 0. -1.
         25    2    1    2    0    0 -0.22117557246E+03  0.74169907346E+02 -0.12858225513E+03  0.29424282762E+03  0.12500254502E+03 0.  0.
          2    1    1    2  501    0  0.23022223527E+02  0.97662513818E+01 -0.84123234188E+03  0.84160397781E+03  0.00000000000E+00 0. -1.
          1    1    1    2  502    0  0.19815334893E+03 -0.83936158728E+02  0.18066854547E+04  0.18194566114E+04  0.00000000000E+00 0. -1.
         22    1    3    3    0    0  0.51188256510E+01  0.14835827709E+02 -0.41923082374E+02  0.44764371945E+02  0.00000000000E+00 0. -1.
         22    1    3    3    0    0 -0.22629439811E+03  0.59334079637E+02 -0.86659172751E+02  0.24947845567E+03  0.00000000000E+00 0. -1.
</event>
<event>
 7    1  0.6485470E-006  0.8038212E+02  0.7818608E-02  0.1474619E+00
          2   -1    0    0  502    0  0.00000000000E+00  0.00000000000E+00  0.12306784324E+04  0.12306784324E+04  0.00000000000E+00 0. -1.
          1   -1    0    0  501    0 -0.00000000000E+00 -0.00000000000E+00 -0.27395934074E+04  0.27395934074E+04  0.00000000000E+00 0. -1.
         25    2    1    2    0    0  0.10414900294E+03  0.13661431415E+01 -0.22294042413E+03  0.27599931473E+03  0.12499723141E+03 0.  0.
          2    1    1    2  501    0 -0.79545842192E+02 -0.65456757593E+01 -0.24893526265E+04  0.24906318246E+04  0.00000000000E+00 0. -1.
          1    1    1    2  502    0 -0.24603160749E+02  0.51795326178E+01  0.12033780755E+04  0.12036407004E+04  0.00000000000E+00 0. -1.
         22    1    3    3    0    0  0.13095474432E+03  0.77198691127E+01 -0.20410811372E+03  0.24262906570E+03  0.00000000000E+00 0.  1.
         22    1    3    3    0    0 -0.26805741380E+02 -0.63537259712E+01 -0.18832310413E+02  0.33370249027E+02  0.00000000000E+00 0.  1.
</event>
<event>
 7    1  0.6485470E-006  0.9337736E+02  0.7818608E-02  0.1482849E+00
          2   -1    0    0  502    0  0.00000000000E+00  0.00000000000E+00  0.24481975135E+03  0.24481975135E+03  0.00000000000E+00 0. -1.
          1   -1    0    0  501    0 -0.00000000000E+00 -0.00000000000E+00 -0.18219424777E+03  0.18219424777E+03  0.00000000000E+00 0. -1.
         25    2    1    2    0    0 -0.10645372989E+03 -0.87628803966E+01  0.96785956532E+02  0.19079396183E+03  0.12500251921E+03 0.  0.
          2    1    1    2  501    0  0.91841423294E+02 -0.54995270203E+01 -0.11817037857E+03  0.14976424874E+03  0.00000000000E+00 0. -1.
          1    1    1    2  502    0  0.14612306597E+02  0.14262407417E+02  0.84009925623E+02  0.86455788543E+02  0.00000000000E+00 0. -1.
         22    1    3    3    0    0  0.28275611544E+02  0.34883521697E+01  0.23515547416E+02  0.36941301809E+02  0.00000000000E+00 0.  1.
         22    1    3    3    0    0 -0.13472934144E+03 -0.12251232566E+02  0.73270409116E+02  0.15385266002E+03  0.00000000000E+00 0.  1.
</event>
<event>
 7    1  0.6485470E-006  0.1075443E+03  0.7818608E-02  0.1293931E+00
          2   -1    0    0  502    0  0.00000000000E+00  0.00000000000E+00  0.64066776713E+03  0.64066776713E+03  0.00000000000E+00 0. -1.
          1   -1    0    0  501    0 -0.00000000000E+00 -0.00000000000E+00 -0.30910682503E+03  0.30910682503E+03  0.00000000000E+00 0. -1.
         25    2    1    2    0    0 -0.11578286214E+02 -0.47682180212E+02  0.65658605855E+02  0.14947942605E+03  0.12500159706E+03 0.  0.
          2    1    1    2  501    0  0.89230100857E+02  0.73369491010E+02 -0.25134487824E+03  0.27662129514E+03  0.00000000000E+00 0. -1.
          1    1    1    2  502    0 -0.77651814644E+02 -0.25687310797E+02  0.51724721448E+03  0.52367387097E+03  0.00000000000E+00 0. -1.
         22    1    3    3    0    0  0.14800875519E+02 -0.18789204211E+01  0.90042144172E+02  0.91269841597E+02  0.00000000000E+00 0. -1.
         22    1    3    3    0    0 -0.26379161733E+02 -0.45803259791E+02 -0.24383538317E+02  0.58209584452E+02  0.00000000000E+00 0. -1.
</event>
<event>
 7    1  0.6485470E-006  0.4100490E+03  0.7818608E-02  0.1104516E+00
          2   -1    0    0  502    0  0.00000000000E+00  0.00000000000E+00  0.30730750912E+04  0.30730750912E+04  0.00000000000E+00 0. -1.
          1   -1    0    0  501    0 -0.00000000000E+00 -0.00000000000E+00 -0.16521117293E+03  0.16521117293E+03  0.00000000000E+00 0. -1.
         25    2    1    2    0    0  0.48517288083E+03  0.17455665707E+03  0.16594354340E+04  0.17421855946E+04  0.12498774234E+03 0.  0.
          2    1    1    2  501    0 -0.14507572623E+03 -0.89596477672E+02 -0.27657912280E+02  0.17274100632E+03  0.00000000000E+00 0. -1.
          1    1    1    2  502    0 -0.34009715460E+03 -0.84960179400E+02  0.12760863966E+04  0.13233596633E+04  0.00000000000E+00 0. -1.
         22    1    3    3    0    0  0.47848063865E+02  0.26521885941E+02  0.33836879825E+03  0.34276273321E+03  0.00000000000E+00 0.  1.
         22    1    3    3    0    0  0.43732481696E+03  0.14803477113E+03  0.13210666357E+04  0.13994228614E+04  0.00000000000E+00 0.  1.
</event>
<event>
 7    1  0.6485470E-006  0.9126061E+02  0.7818608E-02  0.1335774E+00
          2   -1    0    0  502    0  0.00000000000E+00  0.00000000000E+00  0.26993815143E+03  0.26993815143E+03  0.00000000000E+00 0. -1.
          1   -1    0    0  501    0 -0.00000000000E+00 -0.00000000000E+00 -0.55514055137E+03  0.55514055137E+03  0.00000000000E+00 0. -1.
         25    2    1    2    0    0 -0.48570051354E+01  0.15175256907E+03 -0.88345031262E+02  0.21559301141E+03  0.12499227696E+03 0.  0.
          2    1    1    2  501    0  0.11795017189E+02 -0.86001057494E+02 -0.39301385197E+03  0.40248626332E+03  0.00000000000E+00 0. -1.
          1    1    1    2  502    0 -0.69380120534E+01 -0.65751511578E+02  0.19615648329E+03  0.20699942808E+03  0.00000000000E+00 0. -1.
         22    1    3    3    0    0 -0.17485162547E+02  0.13768304930E+03 -0.11682290647E+03  0.18141098217E+03  0.00000000000E+00 0. -1.
         22    1    3    3    0    0  0.12628157411E+02  0.14069519773E+02  0.28477875213E+02  0.34182029239E+02  0.00000000000E+00 0. -1.
</event>
<event>
 7    1  0.6485470E-006  0.1365465E+03  0.7818608E-02  0.1359873E+00
          2   -1    0    0  502    0  0.00000000000E+00  0.00000000000E+00  0.36010250056E+03  0.36010250056E+03  0.00000000000E+00 0. -1.
          1   -1    0    0  501    0 -0.00000000000E+00 -0.00000000000E+00 -0.10591165733E+04  0.10591165733E+04  0.00000000000E+00 0. -1.
         25    2    1    2    0    0  0.53439525997E+02 -0.15459576459E+03 -0.15754609428E+03  0.25923180313E+03  0.12499889025E+03 0.  0.
          2    1    1    2  501    0 -0.28266129476E+02  0.22216097767E+02 -0.83564408292E+03  0.83641709834E+03  0.00000000000E+00 0. -1.
          1    1    1    2  502    0 -0.25173396521E+02  0.13237966682E+03  0.29417610441E+03  0.32357017243E+03  0.00000000000E+00 0. -1.
         22    1    3    3    0    0 -0.20552673366E+02  0.11833450607E+02 -0.17228113907E+02  0.29312980820E+02  0.00000000000E+00 0. -1.
         22    1    3    3    0    0  0.73992199363E+02 -0.16642921520E+03 -0.14031798037E+03  0.22991882231E+03  0.00000000000E+00 0. -1.
</event>
<event>
 7    1  0.6485470E-006  0.9169244E+02  0.7818608E-02  0.1324401E+00
          2   -1    0    0  502    0  0.00000000000E+00  0.00000000000E+00  0.66294128058E+02  0.66294128058E+02  0.00000000000E+00 0. -1.
          1   -1    0    0  501    0 -0.00000000000E+00 -0.00000000000E+00 -0.13414811831E+04  0.13414811831E+04  0.00000000000E+00 0. -1.
         25    2    1    2    0    0 -0.21111275671E+02  0.40870833397E+02 -0.30051754083E+03  0.32871384902E+03  0.12500356477E+03 0.  0.
          2    1    1    2  501    0  0.45466134388E+02  0.56764821068E+02 -0.97572176893E+03  0.97842852812E+03  0.00000000000E+00 0. -1.
          1    1    1    2  502    0 -0.24354858717E+02 -0.97635654465E+02  0.10522547291E+01  0.10063293400E+03  0.00000000000E+00 0. -1.
         22    1    3    3    0    0  0.25734100538E+02  0.15007751012E+02 -0.73245806229E+01  0.30677777010E+02  0.00000000000E+00 0.  1.
         22    1    3    3    0    0 -0.46845376209E+02  0.25863082385E+02 -0.29319296021E+03  0.29803607201E+03  0.00000000000E+00 0.  1.
</event>
<event>
 7    1  0.6485470E-006  0.4186911E+02  0.7818608E-02  0.1517815E+00
          2   -1    0    0  502    0  0.00000000000E+00  0.00000000000E+00  0.19024701821E+04  0.19024701821E+04  0.00000000000E+00 0. -1.
          1   -1    0    0  501    0 -0.00000000000E+00 -0.00000000000E+00 -0.27502775371E+03  0.27502775371E+03  0.00000000000E+00 0. -1.
         25    2    1    2    0    0  0.11479291750E+02  0.35959996952E+02  0.12411536303E+03  0.18014493617E+03  0.12499071632E+03 0.  0.
          2    1    1    2  501    0  0.24300934448E+02 -0.34370232956E+02 -0.24503495735E+03  0.24862417150E+03  0.00000000000E+00 0. -1.
          1    1    1    2  502    0 -0.35780226198E+02 -0.15897639964E+01  0.17483620227E+04  0.17487288282E+04  0.00000000000E+00 0. -1.
         22    1    3    3    0    0  0.10117713025E+02  0.66373868328E+02  0.17663471894E+02  0.69425188175E+02  0.00000000000E+00 0.  1.
         22    1    3    3    0    0  0.13615787248E+01 -0.30413871376E+02  0.10645189114E+03  0.11071974799E+03  0.00000000000E+00 0.  1.
</event>
<event>
 7    1  0.8438919E-006  0.7448498E+02  0.7818608E-02  0.1382588E+00
          2   -1    0    0  502    0  0.00000000000E+00  0.00000000000E+00  0.25395996107E+04  0.25395996107E+04  0.00000000000E+00 0. -1.
          1   -1    0    0  501    0 -0.00000000000E+00 -0.00000000000E+00 -0.90709391631E+03  0.90709391631E+03  0.00000000000E+00 0. -1.
         25    2    1    2    0    0 -0.53793417673E+01  0.19591097283E+02 -0.66174865877E+02  0.14286859645E+03  0.12497829639E+03 0.  0.
          2    1    1    2  501    0 -0.22227093448E+02  0.49901645593E+02 -0.80108289434E+03  0.80294334888E+03  0.00000000000E+00 0. -1.
          1    1    1    2  502    0  0.27606435215E+02 -0.69492742876E+02  0.24997634546E+04  0.25008815817E+04  0.00000000000E+00 0. -1.
         22    1    3    3    0    0 -0.38944603436E+02  0.29996196484E+02 -0.88499815761E+02  0.10123572161E+03  0.00000000000E+00 0. -1.
         22    1    3    3    0    0  0.33565261668E+02 -0.10405099201E+02  0.22324949884E+02  0.41632874841E+02  0.00000000000E+00 0. -1.
</event>
<event>
 7    1  0.6485470E-006  0.2187014E+03  0.7818608E-02  0.1163900E+00
          2   -1    0    0  502    0  0.00000000000E+00  0.00000000000E+00  0.33786998277E+04  0.33786998277E+04  0.00000000000E+00 0. -1.
          1   -1    0    0  501    0 -0.00000000000E+00 -0.00000000000E+00 -0.12959295102E+03  0.12959295102E+03  0.00000000000E+00 0. -1.
         25    2    1    2    0    0 -0.83784137727E+02  0.26744384726E+02  0.16746027670E+04  0.16815658911E+04  0.12503749461E+03 0.  0.
          2    1    1    2  501    0  0.22424146469E+03  0.38711185256E+02 -0.16536019831E+02  0.22815834480E+03  0.00000000000E+00 0. -1.
          1    1    1    2  502    0 -0.14045732696E+03 -0.65455569982E+02  0.15910401295E+04  0.15985685428E+04  0.00000000000E+00 0. -1.
         22    1    3    3    0    0  0.10539916379E+02  0.49010821700E+02  0.80962067623E+03  0.81117124570E+03  0.00000000000E+00 0.  1.
         22    1    3    3    0    0 -0.94324054106E+02 -0.22266436975E+02  0.86498209078E+03  0.87039464542E+03  0.00000000000E+00 0.  1.
</event>
<event>
 7    1  0.6485470E-006  0.9857559E+02  0.7818608E-02  0.1413825E+00
          2   -1    0    0  502    0  0.00000000000E+00  0.00000000000E+00  0.11325421394E+04  0.11325421394E+04  0.00000000000E+00 0. -1.
          1   -1    0    0  501    0 -0.00000000000E+00 -0.00000000000E+00 -0.89041414923E+03  0.89041414923E+03  0.00000000000E+00 0. -1.
         25    2    1    2    0    0 -0.26684615064E+02 -0.77448166175E+02  0.20439339695E+03  0.25319868267E+03  0.12499049990E+03 0.  0.
          2    1    1    2  501    0  0.58835893604E+02  0.79405193803E+02 -0.86290316959E+03  0.86854402725E+03  0.00000000000E+00 0. -1.
          1    1    1    2  502    0 -0.32151278540E+02 -0.19570276276E+01  0.90063776281E+03  0.90121357872E+03  0.00000000000E+00 0. -1.
         22    1    3    3    0    0 -0.37973669720E+02 -0.10722329136E+03  0.13288548442E+03  0.17492108441E+03  0.00000000000E+00 0. -1.
         22    1    3    3    0    0  0.11289054656E+02  0.29775125186E+02  0.71507912528E+02  0.78277598257E+02  0.00000000000E+00 0. -1.
</event>
<event>
 7    1  0.6485470E-006  0.6888145E+02  0.7818608E-02  0.1441796E+00
          2   -1    0    0  502    0  0.00000000000E+00  0.00000000000E+00  0.16752867587E+04  0.16752867587E+04  0.00000000000E+00 0. -1.
          1   -1    0    0  501    0 -0.00000000000E+00 -0.00000000000E+00 -0.10446093664E+03  0.10446093664E+03  0.00000000000E+00 0. -1.
         25    2    1    2    0    0 -0.52502861748E+02 -0.33594599158E+02  0.17792559244E+03  0.22620032362E+03  0.12499568943E+03 0.  0.
          2    1    1    2  501    0 -0.16918659953E+02  0.33201553140E+02 -0.75136853995E+02  0.83869726444E+02  0.00000000000E+00 0. -1.
          1    1    1    2  502    0  0.69421521701E+02  0.39304601733E+00  0.14680370836E+04  0.14696776452E+04  0.00000000000E+00 0. -1.
         22    1    3    3    0    0 -0.11863334260E+02 -0.19554009962E+01 -0.19091753959E+02  0.22562299574E+02  0.00000000000E+00 0. -1.
         22    1    3    3    0    0 -0.40639527488E+02 -0.31639198162E+02  0.19701734640E+03  0.20363802404E+03  0.00000000000E+00 0. -1.
</event>
<event>
 7    1  0.6485470E-006  0.4796621E+02  0.7818608E-02  0.1458749E+00
          2   -1    0    0  502    0  0.00000000000E+00  0.00000000000E+00  0.13847284721E+04  0.13847284721E+04  0.00000000000E+00 0. -1.
          1   -1    0    0  501    0 -0.00000000000E+00 -0.00000000000E+00 -0.17088815780E+03  0.17088815780E+03  0.00000000000E+00 0. -1.
         25    2    1    2    0    0  0.18929338824E+02 -0.26193304208E+02  0.10241215771E+02  0.12951492534E+03  0.12499929733E+03 0.  0.
          2    1    1    2  501    0  0.26143869875E+02  0.42599489894E+02 -0.10517579775E+03  0.11644812967E+03  0.00000000000E+00 0. -1.
          1    1    1    2  502    0 -0.45073208699E+02 -0.16406185686E+02  0.13087748963E+04  0.13096535749E+04  0.00000000000E+00 0. -1.
         22    1    3    3    0    0  0.33511912002E+02 -0.38816304156E+02 -0.46722909132E+02  0.69374231182E+02  0.00000000000E+00 0.  1.
         22    1    3    3    0    0 -0.14582573178E+02  0.12622999949E+02  0.56964124902E+02  0.60140694160E+02  0.00000000000E+00 0.  1.
</event>
<event>
 7    1  0.6485470E-006  0.5501967E+02  0.7818608E-02  0.1530123E+00
          2   -1    0    0  502    0  0.00000000000E+00  0.00000000000E+00  0.44271053830E+02  0.44271053830E+02  0.00000000000E+00 0. -1.
          1   -1    0    0  501    0 -0.00000000000E+00 -0.00000000000E+00 -0.66430637429E+03  0.66430637429E+03  0.00000000000E+00 0. -1.
         25    2    1    2    0    0  0.31885744583E+02  0.35076654900E+02 -0.12653659791E+03  0.18407281041E+03  0.12499686594E+03 0.  0.
          2    1    1    2  501    0 -0.51975754251E+02 -0.20008410135E+02 -0.49613725391E+03  0.49925343286E+03  0.00000000000E+00 0. -1.
          1    1    1    2  502    0  0.20090009668E+02 -0.15068244765E+02  0.26385313557E+01  0.25251184853E+02  0.00000000000E+00 0. -1.
         22    1    3    3    0    0  0.18693183847E+02  0.74087695006E+02 -0.12016563235E+03  0.14240154800E+03  0.00000000000E+00 0.  1.
         22    1    3    3    0    0  0.13192560736E+02 -0.39011040106E+02 -0.63709655562E+01  0.41671262412E+02  0.00000000000E+00 0.  1.
</event>
<event>
 7    1  0.6485470E-006  0.3001692E+02  0.7818608E-02  0.1617697E+00
          2   -1    0    0  502    0  0.00000000000E+00  0.00000000000E+00  0.12855804376E+03  0.12855804376E+03  0.00000000000E+00 0. -1.
          1   -1    0    0  501    0 -0.00000000000E+00 -0.00000000000E+00 -0.18064228982E+04  0.18064228982E+04  0.00000000000E+00 0. -1.
         25    2    1    2    0    0  0.10246903352E+02 -0.40207455687E+02 -0.67656433263E+03  0.68926462924E+03  0.12499917769E+03 0.  0.
          2    1    1    2  501    0  0.14094354389E+02  0.22651278072E+02 -0.11215047993E+04  0.11218220653E+04  0.00000000000E+00 0. -1.
          1    1    1    2  502    0 -0.24341257740E+02  0.17556177615E+02  0.12020427754E+03  0.12389424741E+03  0.00000000000E+00 0. -1.
         22    1    3    3    0    0 -0.44535896373E+02 -0.51705936570E+02 -0.48204119672E+03  0.48684768180E+03  0.00000000000E+00 0.  1.
         22    1    3    3    0    0  0.54782799725E+02  0.11498480883E+02 -0.19452313591E+03  0.20241694745E+03  0.00000000000E+00 0.  1.
</event>
<event>
 7    1  0.6485470E-006  0.6826805E+02  0.7818608E-02  0.1370791E+00
          2   -1    0    0  502    0  0.00000000000E+00  0.00000000000E+00  0.49775765146E+02  0.49775765146E+02  0.00000000000E+00 0. -1.
          1   -1    0    0  501    0 -0.00000000000E+00 -0.00000000000E+00 -0.29331689409E+04  0.29331689409E+04  0.00000000000E+00 0. -1.
         25    2    1    2    0    0  0.57330965324E+02  0.11046856828E+03 -0.31428804017E+03  0.36040629170E+03  0.12500231493E+03 0.  0.
          2    1    1    2  501    0 -0.82897364645E+01 -0.66819298324E+02 -0.25543636160E+04  0.25552508724E+04  0.00000000000E+00 0. -1.
          1    1    1    2  502    0 -0.49041228859E+02 -0.43649269955E+02 -0.14741519571E+02  0.67287541900E+02  0.00000000000E+00 0. -1.
         22    1    3    3    0    0  0.52335978909E+02  0.11049995227E+03 -0.32573004869E+03  0.34792148361E+03  0.00000000000E+00 0.  1.
         22    1    3    3    0    0  0.49949864145E+01 -0.31383992192E-01  0.11442008512E+02  0.12484808089E+02  0.00000000000E+00 0.  1.
</event>
<event>
 7    1  0.6485470E-006  0.7105389E+02  0.7818608E-02  0.1371335E+00
          2   -1    0    0  502    0  0.00000000000E+00  0.00000000000E+00  0.39422129806E+03  0.39422129806E+03  0.00000000000E+00 0. -1.
          1   -1    0    0  501    0 -0.00000000000E+00 -0.00000000000E+00 -0.13278372726E+04  0.13278372726E+04  0.00000000000E+00 0. -1.
         25    2    1    2    0    0  0.66330344925E+02  0.75091418001E+02  0.14513473899E+02  0.16085446893E+03  0.12500033413E+03 0.  0.
          2    1    1    2  501    0  0.31372673880E+01 -0.62717314615E+02 -0.12498074489E+04  0.12513840192E+04  0.00000000000E+00 0. -1.
          1    1    1    2  502    0 -0.69467612314E+02 -0.12374103386E+02  0.30167800048E+03  0.30982008258E+03  0.00000000000E+00 0. -1.
         22    1    3    3    0    0  0.19057472304E+00  0.90670338130E+02 -0.28713985284E+01  0.90715993435E+02  0.00000000000E+00 0.  1.
         22    1    3    3    0    0  0.66139770202E+02 -0.15578920129E+02  0.17384872427E+02  0.70138475490E+02  0.00000000000E+00 0.  1.
</event>
<event>
 7    1  0.6485470E-006  0.5311038E+02  0.7818608E-02  0.1493447E+00
          2   -1    0    0  502    0  0.00000000000E+00  0.00000000000E+00  0.26948570169E+04  0.26948570169E+04  0.00000000000E+00 0. -1.
          1   -1    0    0  501    0 -0.00000000000E+00 -0.00000000000E+00 -0.51677281568E+03  0.51677281568E+03  0.00000000000E+00 0. -1.
         25    2    1    2    0    0 -0.39931292300E+02 -0.28892022135E+02  0.10472570879E+04  0.10558417676E+04  0.12500069165E+03 0.  0.
          2    1    1    2  501    0  0.53100533629E+02 -0.17356821362E+01 -0.51093381727E+03  0.51368866534E+03  0.00000000000E+00 0. -1.
          1    1    1    2  502    0 -0.13169241328E+02  0.30627704271E+02  0.16417609306E+04  0.16420993997E+04  0.00000000000E+00 0. -1.
         22    1    3    3    0    0 -0.43688852584E+02 -0.16587361054E+02  0.12429002360E+03  0.13278503814E+03  0.00000000000E+00 0. -1.
         22    1    3    3    0    0  0.37575602837E+01 -0.12304661081E+02  0.92296706430E+03  0.92305672942E+03  0.00000000000E+00 0. -1.
</event>
<event>
 7    1  0.6485470E-006  0.6483052E+02  0.7818608E-02  0.1482099E+00
          2   -1    0    0  502    0  0.00000000000E+00  0.00000000000E+00  0.60406635952E+03  0.60406635952E+03  0.00000000000E+00 0. -1.
          1   -1    0    0  501    0 -0.00000000000E+00 -0.00000000000E+00 -0.27897145986E+03  0.27897145986E+03  0.00000000000E+00 0. -1.
         25    2    1    2    0    0  0.23197108549E+02 -0.84690461635E+02 -0.28642816591E+02  0.15542176273E+03  0.12499973301E+03 0.  0.
          2    1    1    2  501    0 -0.29398384377E+02  0.55782219376E+02 -0.18120218985E+03  0.19185972638E+03  0.00000000000E+00 0. -1.
          1    1    1    2  502    0  0.62012758286E+01  0.28908242259E+02  0.53493990609E+03  0.53575633027E+03  0.00000000000E+00 0. -1.
         22    1    3    3    0    0 -0.28139554136E+02  0.50462289934E+01 -0.42388974642E+02  0.51128505799E+02  0.00000000000E+00 0.  1.
         22    1    3    3    0    0  0.51336662685E+02 -0.89736690628E+02  0.13746158051E+02  0.10429325693E+03  0.00000000000E+00 0.  1.
</event>
<event>
 7    1  0.6485470E-006  0.1131614E+03  0.7818608E-02  0.1348106E+00
          2   -1    0    0  502    0  0.00000000000E+00  0.00000000000E+00  0.38354300231E+03  0.38354300231E+03  0.00000000000E+00 0. -1.
          1   -1    0    0  501    0 -0.00000000000E+00 -0.00000000000E+00 -0.13993509629E+04  0.13993509629E+04  0.00000000000E+00 0. -1.
         25    2    1    2    0    0  0.14183197092E+03  0.55358247354E+02  0.14849625195E+03  0.24669178138E+03  0.12499941853E+03 0.  0.
          2    1    1    2  501    0 -0.11120760275E+03 -0.18483566697E+02 -0.13447660038E+04  0.13494830040E+04  0.00000000000E+00 0. -1.
          1    1    1    2  502    0 -0.30624368175E+02 -0.36874680657E+02  0.18046179127E+03  0.18671917981E+03  0.00000000000E+00 0. -1.
         22    1    3    3    0    0 -0.15502119759E+02 -0.16668950154E+01 -0.80399179930E+01  0.17542364075E+02  0.00000000000E+00 0.  1.
         22    1    3    3    0    0  0.15733409068E+03  0.57025142370E+02  0.15653616994E+03  0.22914941731E+03  0.00000000000E+00 0.  1.
</event>
<event>
 7    1  0.8493711E-006  0.1749966E+03  0.7818608E-02  0.1261888E+00
          2   -1    0    0  502    0  0.00000000000E+00  0.00000000000E+00  0.12177855652E+04  0.12177855652E+04  0.00000000000E+00 0. -1.
          1   -1    0    0  501    0 -0.00000000000E+00 -0.00000000000E+00 -0.15293603006E+04  0.15293603006E+04  0.00000000000E+00 0. -1.
         25    2    1    2    0    0 -0.11054840849E+03 -0.10471980690E+02 -0.19917312877E+03  0.26005970066E+03  0.12502199680E+03 0.  0.
          2    1    1    2  501    0 -0.61906259588E+02 -0.28749041299E+02 -0.12922522950E+04  0.12940536644E+04  0.00000000000E+00 0. -1.
          1    1    1    2  502    0  0.17245466808E+03  0.39221021989E+02  0.11798506883E+04  0.11930325008E+04  0.00000000000E+00 0. -1.
         22    1    3    3    0    0 -0.32999177194E+02 -0.37464035168E+02 -0.16274314327E+03  0.17022875876E+03  0.00000000000E+00 0.  1.
         22    1    3    3    0    0 -0.77549231296E+02  0.26992054478E+02 -0.36429985502E+02  0.89830941903E+02  0.00000000000E+00 0.  1.
</event>
<event>
 7    1  0.6485470E-006  0.8786141E+02  0.7818608E-02  0.1317040E+00
          2   -1    0    0  502    0  0.00000000000E+00  0.00000000000E+00  0.41668347695E+03  0.41668347695E+03  0.00000000000E+00 0. -1.
          1   -1    0    0  501    0 -0.00000000000E+00 -0.00000000000E+00 -0.56369735851E+03  0.56369735851E+03  0.00000000000E+00 0. -1.
         25    2    1    2    0    0  0.14945648306E+02 -0.45058765843E+02  0.12491135092E+03  0.18298074435E+03  0.12500176972E+03 0.  0.
          2    1    1    2  501    0 -0.88758940033E+02  0.11575602255E+02 -0.52452877190E+03  0.53211143246E+03  0.00000000000E+00 0. -1.
          1    1    1    2  502    0  0.73813291727E+02  0.33483163588E+02  0.25260353942E+03  0.26528865864E+03  0.00000000000E+00 0. -1.
         22    1    3    3    0    0 -0.43677502167E+01  0.48114075778E+01  0.12916883398E+03  0.12933218686E+03  0.00000000000E+00 0. -1.
         22    1    3    3    0    0  0.19313398522E+02 -0.49870173421E+02 -0.42574830601E+01  0.53648557497E+02  0.00000000000E+00 0. -1.
</event>
<event>
 7    1  0.6485470E-006  0.8383365E+02  0.7818608E-02  0.1482952E+00
          2   -1    0    0  502    0  0.00000000000E+00  0.00000000000E+00  0.10065432950E+04  0.10065432950E+04  0.00000000000E+00 0. -1.
          1   -1    0    0  501    0 -0.00000000000E+00 -0.00000000000E+00 -0.98562394379E+02  0.98562394379E+02  0.00000000000E+00 0. -1.
         25    2    1    2    0    0  0.10666037089E+02 -0.10359638574E+03  0.74877746869E+01  0.16290885590E+03  0.12504900270E+03 0.  0.
          2    1    1    2  501    0  0.59800011887E+01  0.21926259345E+02 -0.12139497220E+02  0.25766036867E+02  0.00000000000E+00 0. -1.
          1    1    1    2  502    0 -0.16646038278E+02  0.81670126391E+02  0.91263262318E+03  0.91643079664E+03  0.00000000000E+00 0. -1.
         22    1    3    3    0    0 -0.12549812029E+02 -0.12396096655E+03 -0.13865116752E+02  0.12536371274E+03  0.00000000000E+00 0. -1.
         22    1    3    3    0    0  0.23215849118E+02  0.20364580812E+02  0.21352891439E+02  0.37545143158E+02  0.00000000000E+00 0. -1.
</event>
<event>
 7    1  0.6485470E-006  0.1781745E+03  0.7818608E-02  0.1224901E+00
          2   -1    0    0  502    0  0.00000000000E+00  0.00000000000E+00  0.24979980363E+03  0.24979980363E+03  0.00000000000E+00 0. -1.
          1   -1    0    0  501    0 -0.00000000000E+00 -0.00000000000E+00 -0.78377059565E+03  0.78377059565E+03  0.00000000000E+00 0. -1.
         25    2    1    2    0    0  0.99037243476E+02  0.24702711244E+03 -0.38519131005E+02  0.29654798713E+03  0.12500486127E+03 0.  0.
          2    1    1    2  501    0 -0.74425000585E+02 -0.15278543302E+03 -0.58225706757E+03  0.60655235717E+03  0.00000000000E+00 0. -1.
          1    1    1    2  502    0 -0.24612242891E+02 -0.94241679418E+02  0.86805406556E+02  0.13047005498E+03  0.00000000000E+00 0. -1.
         22    1    3    3    0    0  0.67728224301E+02  0.17095375963E+03  0.33863197461E+02  0.18697330408E+03  0.00000000000E+00 0. -1.
         22    1    3    3    0    0  0.31309019176E+02  0.76073352811E+02 -0.72382328467E+02  0.10957468304E+03  0.00000000000E+00 0. -1.
</event>
<event>
 7    1  0.6485470E-006  0.1164527E+03  0.7818608E-02  0.1351836E+00
          2   -1    0    0  502    0  0.00000000000E+00  0.00000000000E+00  0.13683621246E+04  0.13683621246E+04  0.00000000000E+00 0. -1.
          1   -1    0    0  501    0 -0.00000000000E+00 -0.00000000000E+00 -0.16969643439E+04  0.16969643439E+04  0.00000000000E+00 0. -1.
         25    2    1    2    0    0 -0.15056860144E+03  0.57314195745E+02  0.24664908834E+03  0.32002347799E+03  0.12499373151E+03 0.  0.
          2    1    1    2  501    0  0.10958783099E+03 -0.38436568502E+02 -0.16577758149E+04  0.16618385947E+04  0.00000000000E+00 0. -1.
          1    1    1    2  502    0  0.40980770453E+02 -0.18877627243E+02  0.10825245072E+04  0.10834643958E+04  0.00000000000E+00 0. -1.
         22    1    3    3    0    0 -0.16552755256E+03  0.49213618623E+02  0.24881992144E+03  0.30287407320E+03  0.00000000000E+00 0. -1.
         22    1    3    3    0    0  0.14958951120E+02  0.81005771218E+01 -0.21708331024E+01  0.17149404791E+02  0.00000000000E+00 0. -1.
</event>
<event>
 7    1  0.6485470E-006  0.1072154E+03  0.7818608E-02  0.1386997E+00
          2   -1    0    0  502    0  0.00000000000E+00  0.00000000000E+00  0.24982896597E+04  0.24982896597E+04  0.00000000000E+00 0. -1.
          1   -1    0    0  501    0 -0.00000000000E+00 -0.00000000000E+00 -0.76124359519E+02  0.76124359519E+02  0.00000000000E+00 0. -1.
         25    2    1    2    0    0 -0.64649550441E+02  0.33387979106E+02  0.11098693199E+04  0.11192540727E+04  0.12500180176E+03 0.  0.
          2    1    1    2  501    0  0.10048081398E+03 -0.40948154194E+02 -0.29833624478E+02  0.11253084225E+03  0.00000000000E+00 0. -1.
          1    1    1    2  502    0 -0.35831263534E+02  0.75601750885E+01  0.13421296047E+04  0.13426291043E+04  0.00000000000E+00 0. -1.
         22    1    3    3    0    0 -0.85229237501E+02 -0.17274407998E+02  0.56584274024E+03  0.57248618741E+03  0.00000000000E+00 0. -1.
         22    1    3    3    0    0  0.20579687060E+02  0.50662387104E+02  0.54402657971E+03  0.54676788532E+03  0.00000000000E+00 0. -1.
</event>
<event>
 7    1  0.6485470E-006  0.6497254E+02  0.7818608E-02  0.1428278E+00
          2   -1    0    0  502    0  0.00000000000E+00  0.00000000000E+00  0.33669850054E+03  0.33669850054E+03  0.00000000000E+00 0. -1.
          1   -1    0    0  501    0 -0.00000000000E+00 -0.00000000000E+00 -0.22347386675E+04  0.22347386675E+04  0.00000000000E+00 0. -1.
         25    2    1    2    0    0  0.10641314222E+02  0.98120611446E+02 -0.32597268565E+03  0.36280128151E+03  0.12500274445E+03 0.  0.
          2    1    1    2  501    0 -0.25902688705E+02 -0.35240713955E+02 -0.18868070826E+04  0.18873139177E+04  0.00000000000E+00 0. -1.
          1    1    1    2  502    0  0.15261374483E+02 -0.62879897491E+02  0.31473960124E+03  0.32132196882E+03  0.00000000000E+00 0. -1.
         22    1    3    3    0    0 -0.39071575625E+02  0.52138071291E+02 -0.60790546182E+02  0.89109241972E+02  0.00000000000E+00 0. -1.
         22    1    3    3    0    0  0.49712889847E+02  0.45982540155E+02 -0.26518213947E+03  0.27369203954E+03  0.00000000000E+00 0. -1.
</event>
<event>
 7    1  0.6485470E-006  0.3454278E+02  0.7818608E-02  0.1559318E+00
          2   -1    0    0  502    0  0.00000000000E+00  0.00000000000E+00  0.41267280892E+03  0.41267280892E+03  0.00000000000E+00 0. -1.
          1   -1    0    0  501    0 -0.00000000000E+00 -0.00000000000E+00 -0.32353672436E+03  0.32353672436E+03  0.00000000000E+00 0. -1.
         25    2    1    2    0    0  0.33737614837E+02  0.18171639770E+02 -0.90815747330E+02  0.15918857094E+03  0.12500026403E+03 0.  0.
          2    1    1    2  501    0 -0.28932974851E+02  0.16110954130E+02 -0.19635357664E+03  0.19912661031E+03  0.00000000000E+00 0. -1.
          1    1    1    2  502    0 -0.48046399860E+01 -0.34282593901E+02  0.37630540853E+03  0.37789435203E+03  0.00000000000E+00 0. -1.
         22    1    3    3    0    0  0.16986143731E+02 -0.49746657086E+02 -0.67282443997E+02  0.85382587454E+02  0.00000000000E+00 0. -1.
         22    1    3    3    0    0  0.16751471106E+02  0.67918296857E+02 -0.23533303333E+02  0.73805983483E+02  0.00000000000E+00 0. -1.
</event>
<event>
 7    1  0.6485470E-006  0.6855499E+02  0.7818608E-02  0.1508255E+00
          2   -1    0    0  502    0  0.00000000000E+00  0.00000000000E+00  0.24150001076E+03  0.24150001076E+03  0.00000000000E+00 0. -1.
          1   -1    0    0  501    0 -0.00000000000E+00 -0.00000000000E+00 -0.26238735344E+03  0.26238735344E+03  0.00000000000E+00 0. -1.
         25    2    1    2    0    0 -0.22456965362E+02  0.58917145438E+02 -0.70117854262E+02  0.15658132592E+03  0.12500261125E+03 0.  0.
          2    1    1    2  501    0 -0.22420376157E+02 -0.64583393743E+01 -0.14204764361E+03  0.14395109055E+03  0.00000000000E+00 0. -1.
          1    1    1    2  502    0  0.44877341518E+02 -0.52458806063E+02  0.19127815520E+03  0.20335494774E+03  0.00000000000E+00 0. -1.
         22    1    3    3    0    0  0.21830320525E+02 -0.26814801819E+02 -0.45221552196E+02  0.56926138757E+02  0.00000000000E+00 0. -1.
         22    1    3    3    0    0 -0.44287285886E+02  0.85731947256E+02 -0.24896302066E+02  0.99655187161E+02  0.00000000000E+00 0. -1.
</event>
<event>
 7    1  0.6485470E-006  0.1017256E+03  0.7818608E-02  0.1364841E+00
          2   -1    0    0  502    0  0.00000000000E+00  0.00000000000E+00  0.79209607497E+03  0.79209607497E+03  0.00000000000E+00 0. -1.
          1   -1    0    0  501    0 -0.00000000000E+00 -0.00000000000E+00 -0.60239761122E+03  0.60239761122E+03  0.00000000000E+00 0. -1.
         25    2    1    2    0    0  0.55758712956E+02  0.12914021226E+03  0.25874284846E+03  0.31993090628E+03  0.12498677797E+03 0.  0.
          2    1    1    2  501    0 -0.20579989555E+02 -0.99050543662E+02 -0.56624530293E+03  0.57521151697E+03  0.00000000000E+00 0. -1.
          1    1    1    2  502    0 -0.35178723401E+02 -0.30089668602E+02  0.49720091820E+03  0.49935126294E+03  0.00000000000E+00 0. -1.
         22    1    3    3    0    0 -0.94545612689E+01 -0.10048727691E+02 -0.49922993610E+01  0.14672719922E+02  0.00000000000E+00 0.  1.
         22    1    3    3    0    0  0.65213274225E+02  0.13918893996E+03  0.26373514782E+03  0.30525818636E+03  0.00000000000E+00 0.  1.
</event>
<event>
 7    1  0.6485470E-006  0.4714175E+02  0.7818608E-02  0.1531272E+00
          2   -1    0    0  502    0  0.00000000000E+00  0.00000000000E+00  0.16865903028E+04  0.16865903028E+04  0.00000000000E+00 0. -1.
          1   -1    0    0  501    0 -0.00000000000E+00 -0.00000000000E+00 -0.27240244783E+03  0.27240244783E+03  0.00000000000E+00 0. -1.
         25    2    1    2    0    0  0.22280188819E+02  0.34108067621E+01  0.29757241886E+03  0.32354378398E+03  0.12499278087E+03 0.  0.
          2    1    1    2  501    0  0.23863422080E+02 -0.16633776150E+02 -0.25818115803E+03  0.25981465660E+03  0.00000000000E+00 0. -1.
          1    1    1    2  502    0 -0.46143610899E+02  0.13222969388E+02  0.13747965942E+04  0.13756343101E+04  0.00000000000E+00 0. -1.
         22    1    3    3    0    0 -0.44621756396E+01  0.90669387998E+01 -0.10318037540E+02  0.14442378243E+02  0.00000000000E+00 0.  1.
         22    1    3    3    0    0  0.26742364459E+02 -0.56561320377E+01  0.30789045640E+03  0.30910140573E+03  0.00000000000E+00 0.  1.
</event>
<event>
 7    1  0.6485470E-006  0.6932746E+02  0.7818608E-02  0.1452564E+00
          2   -1    0    0  502    0  0.00000000000E+00  0.00000000000E+00  0.69497668444E+02  0.69497668444E+02  0.00000000000E+00 0. -1.
          1   -1    0    0  501    0 -0.00000000000E+00 -0.00000000000E+00 -0.14946250594E+04  0.14946250594E+04  0.00000000000E+00 0. -1.
         25    2    1    2    0    0 -0.68224244419E+02  0.45645262773E+02 -0.15381534113E+03  0.21452830031E+03  0.12500077971E+03 0.  0.
          2    1    1    2  501    0  0.68197953022E+02 -0.11455951559E+02 -0.13018903412E+04  0.13037256844E+04  0.00000000000E+00 0. -1.
          1    1    1    2  502    0  0.26291397521E-01 -0.34189311214E+02  0.30578291383E+02  0.45868743131E+02  0.00000000000E+00 0. -1.
         22    1    3    3    0    0 -0.60037085479E+02  0.47501923779E+02 -0.17539417055E+03  0.19137397801E+03  0.00000000000E+00 0. -1.
         22    1    3    3    0    0 -0.81871589396E+01 -0.18566610056E+01  0.21578829429E+02  0.23154322299E+02  0.00000000000E+00 0. -1.
</event>
<event>
 7    1  0.6485470E-006  0.5254379E+02  0.7818608E-02  0.1542604E+00
          2   -1    0    0  502    0  0.00000000000E+00  0.00000000000E+00  0.18639104831E+04  0.18639104831E+04  0.00000000000E+00 0. -1.
          1   -1    0    0  501    0 -0.00000000000E+00 -0.00000000000E+00 -0.99893424318E+02  0.99893424318E+02  0.00000000000E+00 0. -1.
         25    2    1    2    0    0 -0.47266245719E+02 -0.57511160354E+02 -0.32415442578E+02  0.14905475514E+03  0.12499971025E+03 0.  0.
          2    1    1    2  501    0  0.20991761376E+02  0.12110774921E+02  0.79614333435E+01  0.25509004993E+02  0.00000000000E+00 0. -1.
          1    1    1    2  502    0  0.26274484343E+02  0.45400385433E+02  0.17884710680E+04  0.17892401473E+04  0.00000000000E+00 0. -1.
         22    1    3    3    0    0 -0.57073104063E+02 -0.89612419003E+02 -0.41848620962E+02  0.11418858053E+03  0.00000000000E+00 0. -1.
         22    1    3    3    0    0  0.98068583432E+01  0.32101258649E+02  0.94331783838E+01  0.34866174609E+02  0.00000000000E+00 0. -1.
</event>
<event>
 7    1  0.6485470E-006  0.9179899E+02  0.7818608E-02  0.1416324E+00
          2   -1    0    0  502    0  0.00000000000E+00  0.00000000000E+00  0.10042289701E+04  0.10042289701E+04  0.00000000000E+00 0. -1.
          1   -1    0    0  501    0 -0.00000000000E+00 -0.00000000000E+00 -0.43915657321E+03  0.43915657321E+03  0.00000000000E+00 0. -1.
         25    2    1    2    0    0  0.10464984365E+03 -0.68940407970E+02  0.63635646769E+03  0.66052018038E+03  0.12503193627E+03 0.  0.
          2    1    1    2  501    0 -0.77930733489E+02  0.48034902747E+02 -0.42133943464E+03  0.43116988564E+03  0.00000000000E+00 0. -1.
          1    1    1    2  502    0 -0.26719110163E+02  0.20905505223E+02  0.35005536388E+03  0.35169547734E+03  0.00000000000E+00 0. -1.
         22    1    3    3    0    0  0.57292662505E+02 -0.79203973642E+02  0.21253586148E+03  0.23393847703E+03  0.00000000000E+00 0.  1.
         22    1    3    3    0    0  0.47357181147E+02  0.10263565672E+02  0.42382060621E+03  0.42658170335E+03  0.00000000000E+00 0.  1.
</event>
<event>
 7    1  0.6485470E-006  0.7838854E+02  0.7818608E-02  0.1363418E+00
          2   -1    0    0  502    0  0.00000000000E+00  0.00000000000E+00  0.14069386866E+04  0.14069386866E+04  0.00000000000E+00 0. -1.
          1   -1    0    0  501    0 -0.00000000000E+00 -0.00000000000E+00 -0.76814458565E+03  0.76814458565E+03  0.00000000000E+00 0. -1.
         25    2    1    2    0    0  0.97576975732E+02 -0.97529416432E+02  0.11807646872E+03  0.22045442562E+03  0.12499939218E+03 0.  0.
          2    1    1    2  501    0 -0.50721363274E+02  0.58798203865E+02 -0.71410306738E+03  0.71831265916E+03  0.00000000000E+00 0. -1.
          1    1    1    2  502    0 -0.46855612458E+02  0.38731212567E+02  0.12348206996E+04  0.12363161874E+04  0.00000000000E+00 0. -1.
         22    1    3    3    0    0  0.84205946546E+02 -0.10232263504E+03  0.36223244776E+02  0.13737789683E+03  0.00000000000E+00 0. -1.
         22    1    3    3    0    0  0.13371029186E+02  0.47932186039E+01  0.81853223943E+02  0.83076528790E+02  0.00000000000E+00 0. -1.
</event>
<event>
 7    1  0.6485470E-006  0.2004289E+03  0.7818608E-02  0.1177031E+00
          2   -1    0    0  502    0  0.00000000000E+00  0.00000000000E+00  0.80400967475E+03  0.80400967475E+03  0.00000000000E+00 0. -1.
          1   -1    0    0  501    0 -0.00000000000E+00 -0.00000000000E+00 -0.13273298762E+04  0.13273298762E+04  0.00000000000E+00 0. -1.
         25    2    1    2    0    0 -0.26744696303E+03 -0.97642855205E+02  0.20304558606E+03  0.37136854251E+03  0.12500031654E+03 0.  0.
          2    1    1    2  501    0  0.19679731725E+03 -0.29583793220E+02 -0.12247303143E+04  0.12407935879E+04  0.00000000000E+00 0. -1.
          1    1    1    2  502    0  0.70649645781E+02  0.12722664842E+03  0.49836452677E+03  0.51917742060E+03  0.00000000000E+00 0. -1.
         22    1    3    3    0    0 -0.18744690769E+03 -0.21264088792E+02  0.77224453020E+02  0.20384337325E+03  0.00000000000E+00 0.  1.
         22    1    3    3    0    0 -0.80000055343E+02 -0.76378766413E+02  0.12582113304E+03  0.16752516925E+03  0.00000000000E+00 0.  1.
</event>
<event>
 7    1  0.6485470E-006  0.1395120E+03  0.7818608E-02  0.1244594E+00
          2   -1    0    0  502    0  0.00000000000E+00  0.00000000000E+00  0.78201196129E+03  0.78201196129E+03  0.00000000000E+00 0. -1.
          1   -1    0    0  501    0 -0.00000000000E+00 -0.00000000000E+00 -0.21800946980E+04  0.21800946980E+04  0.00000000000E+00 0. -1.
         25    2    1    2    0    0  0.23405842018E+03 -0.51915225218E+02 -0.41024582195E+03  0.49132929911E+03  0.12499724427E+03 0.  0.
          2    1    1    2  501    0 -0.99361587709E+02  0.21538178505E+02 -0.17213657457E+04  0.17243655787E+04  0.00000000000E+00 0. -1.
          1    1    1    2  502    0 -0.13469683247E+03  0.30377046713E+02  0.73352883100E+03  0.74641178149E+03  0.00000000000E+00 0. -1.
         22    1    3    3    0    0  0.19979848414E+02 -0.12756555389E+02  0.33789685936E+01  0.23944550044E+02  0.00000000000E+00 0. -1.
         22    1    3    3    0    0  0.21407857177E+03 -0.39158669829E+02 -0.41362479054E+03  0.46738474907E+03  0.00000000000E+00 0. -1.
</event>
<event>
 7    1  0.6485470E-006  0.1545636E+03  0.7818608E-02  0.1227037E+00
          2   -1    0    0  502    0  0.00000000000E+00  0.00000000000E+00  0.11849569742E+04  0.11849569742E+04  0.00000000000E+00 0. -1.
          1   -1    0    0  501    0 -0.00000000000E+00 -0.00000000000E+00 -0.27358487280E+04  0.27358487280E+04  0.00000000000E+00 0. -1.
         25    2    1    2    0    0  0.99846924849E+01  0.25317297474E+03 -0.46366523618E+03  0.54296093609E+03  0.12499951063E+03 0.  0.
          2    1    1    2  501    0  0.31398403058E+02 -0.10523156082E+03 -0.22260247109E+04  0.22287318266E+04  0.00000000000E+00 0. -1.
          1    1    1    2  502    0 -0.41383095543E+02 -0.14794141392E+03  0.11387981933E+04  0.11491129395E+04  0.00000000000E+00 0. -1.
         22    1    3    3    0    0  0.42636790541E+02  0.10041462256E+03 -0.10348957819E+03  0.15036982784E+03  0.00000000000E+00 0. -1.
         22    1    3    3    0    0 -0.32652098056E+02  0.15275835218E+03 -0.36017565799E+03  0.39259110825E+03  0.00000000000E+00 0. -1.
</event>
<event>
 7    1  0.6485470E-006  0.1453635E+03  0.7818608E-02  0.1306027E+00
          2   -1    0    0  502    0  0.00000000000E+00  0.00000000000E+00  0.12135835030E+04  0.12135835030E+04  0.00000000000E+00 0. -1.
          1   -1    0    0  501    0 -0.00000000000E+00 -0.00000000000E+00 -0.17455385789E+03  0.17455385789E+03  0.00000000000E+00 0. -1.
         25    2    1    2    0    0  0.17611915039E+03 -0.73912089440E+02  0.52263732452E+03  0.57031191771E+03  0.12499983358E+03 0.  0.
          2    1    1    2  501    0 -0.13821104394E+03  0.35278102608E+02 -0.11554847777E+03  0.18357093426E+03  0.00000000000E+00 0. -1.
          1    1    1    2  502    0 -0.37908106447E+02  0.38633986833E+02  0.63194079832E+03  0.63425450890E+03  0.00000000000E+00 0. -1.
         22    1    3    3    0    0  0.11141861556E+03  0.19735509876E+02  0.23028550692E+03  0.25658334502E+03  0.00000000000E+00 0. -1.
         22    1    3    3    0    0  0.64700534825E+02 -0.93647599316E+02  0.29235181761E+03  0.31372857269E+03  0.00000000000E+00 0. -1.
</event>
<event>
 7    1  0.6485470E-006  0.6736821E+02  0.7818608E-02  0.1421985E+00
          2   -1    0    0  502    0  0.00000000000E+00  0.00000000000E+00  0.16946824056E+03  0.16946824056E+03  0.00000000000E+00 0. -1.
          1   -1    0    0  501    0 -0.00000000000E+00 -0.00000000000E+00 -0.11429241594E+04  0.11429241594E+04  0.00000000000E+00 0. -1.
         25    2    1    2    0    0 -0.13642941575E+02 -0.40882551184E+02 -0.11945858998E+03  0.17819348457E+03  0.12500020151E+03 0.  0.
          2    1    1    2  501    0 -0.44173906595E+02  0.27053845629E+01 -0.98500499987E+03  0.98599873372E+03  0.00000000000E+00 0. -1.
          1    1    1    2  502    0  0.57816848170E+02  0.38177166622E+02  0.13100767101E+03  0.14820018167E+03  0.00000000000E+00 0. -1.
         22    1    3    3    0    0  0.39436841717E+02 -0.36498143014E+02 -0.11224839908E+03  0.12444710533E+03  0.00000000000E+00 0.  1.
         22    1    3    3    0    0 -0.53079783292E+02 -0.43844081699E+01 -0.72101908975E+01  0.53746379246E+02  0.00000000000E+00 0.  1.
</event>
<event>
 7    1  0.6485470E-006  0.5327300E+02  0.7818608E-02  0.1505524E+00
          2   -1    0    0  502    0  0.00000000000E+00  0.00000000000E+00  0.22082183099E+03  0.22082183099E+03  0.00000000000E+00 0. -1.
          1   -1    0    0  501    0 -0.00000000000E+00 -0.00000000000E+00 -0.29982275887E+03  0.29982275887E+03  0.00000000000E+00 0. -1.
         25    2    1    2    0    0  0.59161954199E+02  0.55759885758E+02 -0.84346229416E+02  0.17129621676E+03  0.12497522064E+03 0.  0.
          2    1    1    2  501    0 -0.38483684290E+02 -0.33219519204E+02 -0.16686757612E+03  0.17444001368E+03  0.00000000000E+00 0. -1.
          1    1    1    2  502    0 -0.20678269910E+02 -0.22540366554E+02  0.17221287765E+03  0.17490835943E+03  0.00000000000E+00 0. -1.
         22    1    3    3    0    0 -0.21350749621E+02 -0.25702254525E+02 -0.28279156128E+02  0.43774091291E+02  0.00000000000E+00 0. -1.
         22    1    3    3    0    0  0.80512703821E+02  0.81462140283E+02 -0.56067073288E+02  0.12752212546E+03  0.00000000000E+00 0. -1.
</event>
<event>
 7    1  0.6485470E-006  0.1976550E+03  0.7818608E-02  0.1355509E+00
          2   -1    0    0  502    0  0.00000000000E+00  0.00000000000E+00  0.26390138717E+03  0.26390138717E+03  0.00000000000E+00 0. -1.
          1   -1    0    0  501    0 -0.00000000000E+00 -0.00000000000E+00 -0.57664743496E+03  0.57664743496E+03  0.00000000000E+00 0. -1.
         25    2    1    2    0    0  0.17547650107E+03  0.11669938481E+03 -0.40444784645E+03  0.47288891063E+03  0.12504044328E+03 0.  0.
          2    1    1    2  501    0 -0.13055947667E+01 -0.25734382861E+02 -0.93897491786E+02  0.97368896485E+02  0.00000000000E+00 0. -1.
          1    1    1    2  502    0 -0.17417090630E+03 -0.90965001953E+02  0.18559929045E+03  0.27029101501E+03  0.00000000000E+00 0. -1.
         22    1    3    3    0    0  0.25330409767E+02 -0.21689793669E+02 -0.10716120449E+03  0.11223012321E+03  0.00000000000E+00 0.  1.
         22    1    3    3    0    0  0.15014609130E+03  0.13838917848E+03 -0.29728664196E+03  0.36065878742E+03  0.00000000000E+00 0.  1.
</event>
<event>
 7    1  0.6485470E-006  0.5010459E+02  0.7818608E-02  0.1447140E+00
          2   -1    0    0  502    0  0.00000000000E+00  0.00000000000E+00  0.74722312702E+03  0.74722312702E+03  0.00000000000E+00 0. -1.
          1   -1    0    0  501    0 -0.00000000000E+00 -0.00000000000E+00 -0.56245727817E+02  0.56245727817E+02  0.00000000000E+00 0. -1.
         25    2    1    2    0    0 -0.39426493000E+02 -0.15654848674E+02  0.16687315740E+03  0.21277138190E+03  0.12500195061E+03 0.  0.
          2    1    1    2  501    0  0.11188885110E+00  0.49235366443E+02 -0.13149780607E+02  0.50961265270E+02  0.00000000000E+00 0. -1.
          1    1    1    2  502    0  0.39314604148E+02 -0.33580517770E+02  0.53725402241E+03  0.53973620767E+03  0.00000000000E+00 0. -1.
         22    1    3    3    0    0  0.93263033823E+01  0.95626248781E+01 -0.16575186663E+02  0.21287567786E+02  0.00000000000E+00 0. -1.
         22    1    3    3    0    0 -0.48752796382E+02 -0.25217473552E+02  0.18344834406E+03  0.19148381411E+03  0.00000000000E+00 0. -1.
</event>
<event>
 7    1  0.6485470E-006  0.1018456E+03  0.7818608E-02  0.1444863E+00
          2   -1    0    0  502    0  0.00000000000E+00  0.00000000000E+00  0.21223224905E+03  0.21223224905E+03  0.00000000000E+00 0. -1.
          1   -1    0    0  501    0 -0.00000000000E+00 -0.00000000000E+00 -0.57118174827E+03  0.57118174827E+03  0.00000000000E+00 0. -1.
         25    2    1    2    0    0 -0.10723499203E+03  0.47578117510E+02  0.66242629437E+02  0.18378136418E+03  0.12499793232E+03 0.  0.
          2    1    1    2  501    0  0.84198502617E+02 -0.56305702012E+02 -0.50554295830E+03  0.51559034378E+03  0.00000000000E+00 0. -1.
          1    1    1    2  502    0  0.23036489415E+02  0.87275845024E+01  0.80350829642E+02  0.84042289354E+02  0.00000000000E+00 0. -1.
         22    1    3    3    0    0 -0.17126901841E+02  0.29045655022E+02  0.83618030111E+02  0.90160722058E+02  0.00000000000E+00 0.  1.
         22    1    3    3    0    0 -0.90108090191E+02  0.18532462487E+02 -0.17375400674E+02  0.93620642127E+02  0.00000000000E+00 0.  1.
</event>
<event>
 7    1  0.6485470E-006  0.8137683E+02  0.7818608E-02  0.1436003E+00
          2   -1    0    0  502    0  0.00000000000E+00  0.00000000000E+00  0.51885233350E+03  0.51885233350E+03  0.00000000000E+00 0. -1.
          1   -1    0    0  501    0 -0.00000000000E+00 -0.00000000000E+00 -0.48956518351E+03  0.48956518351E+03  0.00000000000E+00 0. -1.
         25    2    1    2    0    0  0.37724225659E+02  0.99304538589E+02 -0.26749314398E+03  0.31378280231E+03  0.12499022509E+03 0.  0.
          2    1    1    2  501    0  0.76305127199E+01 -0.32043642894E+02 -0.19421207289E+03  0.19698565692E+03  0.00000000000E+00 0. -1.
          1    1    1    2  502    0 -0.45354738379E+02 -0.67260895695E+02  0.49099236687E+03  0.49764905778E+03  0.00000000000E+00 0. -1.
         22    1    3    3    0    0  0.51354466584E+01  0.74015334530E+02 -0.26183827566E+03  0.27214688159E+03  0.00000000000E+00 0.  1.
         22    1    3    3    0    0  0.32588779001E+02  0.25289204059E+02 -0.56548683133E+01  0.41635920722E+02  0.00000000000E+00 0.  1.
</event>
<event>
 7    1  0.6485470E-006  0.2468730E+03  0.7818608E-02  0.1292499E+00
          2   -1    0    0  502    0  0.00000000000E+00  0.00000000000E+00  0.77550813342E+03  0.77550813342E+03  0.00000000000E+00 0. -1.
          1   -1    0    0  501    0 -0.00000000000E+00 -0.00000000000E+00 -0.15204163755E+04  0.15204163755E+04  0.00000000000E+00 0. -1.
         25    2    1    2    0    0 -0.22186588883E+03  0.16071141266E+03 -0.11740843468E+04  0.12120874033E+04  0.12501675457E+03 0.  0.
          2    1    1    2  501    0  0.36088442456E+02  0.12052930731E+01 -0.30617205527E+03  0.30829394389E+03  0.00000000000E+00 0. -1.
          1    1    1    2  502    0  0.18577744637E+03 -0.16191670573E+03  0.73534816006E+03  0.77554316172E+03  0.00000000000E+00 0. -1.
         22    1    3    3    0    0 -0.59553277058E+02  0.68969849422E+02 -0.19282143529E+03  0.21326870104E+03  0.00000000000E+00 0. -1.
         22    1    3    3    0    0 -0.16231261177E+03  0.91741563239E+02 -0.98126291153E+03  0.99881870223E+03  0.00000000000E+00 0. -1.
</event>
<event>
 7    1  0.6485470E-006  0.1160708E+03  0.7818608E-02  0.1254252E+00
          2   -1    0    0  502    0  0.00000000000E+00  0.00000000000E+00  0.32757523895E+03  0.32757523895E+03  0.00000000000E+00 0. -1.
          1   -1    0    0  501    0 -0.00000000000E+00 -0.00000000000E+00 -0.28355056770E+03  0.28355056770E+03  0.00000000000E+00 0. -1.
         25    2    1    2    0    0 -0.26059864370E+02 -0.36444675768E+02  0.59839777863E+02  0.14561067808E+03  0.12495735126E+03 0.  0.
          2    1    1    2  501    0  0.12443037072E+03 -0.25164378891E+02 -0.20642987092E+03  0.24234160751E+03  0.00000000000E+00 0. -1.
          1    1    1    2  502    0 -0.98370506347E+02  0.61609054659E+02  0.19061476431E+03  0.22317352107E+03  0.00000000000E+00 0. -1.
         22    1    3    3    0    0  0.34742380660E+02 -0.50093206190E+02  0.26332468757E+01  0.61018819305E+02  0.00000000000E+00 0.  1.
         22    1    3    3    0    0 -0.60802245030E+02  0.13648530421E+02  0.57206530987E+02  0.84591858775E+02  0.00000000000E+00 0.  1.
</event>
<event>
 7    1  0.6485470E-006  0.2999603E+02  0.7818608E-02  0.1653248E+00
          2   -1    0    0  502    0  0.00000000000E+00  0.00000000000E+00  0.43728676115E+02  0.43728676115E+02  0.00000000000E+00 0. -1.
          1   -1    0    0  501    0 -0.00000000000E+00 -0.00000000000E+00 -0.54358470245E+03  0.54358470245E+03  0.00000000000E+00 0. -1.
         25    2    1    2    0    0  0.14170909176E+02  0.12217962676E+02 -0.27926620949E+03  0.30653751117E+03  0.12500214682E+03 0.  0.
          2    1    1    2  501    0 -0.12006574296E+02  0.18147908192E+02 -0.24236943630E+03  0.24334429940E+03  0.00000000000E+00 0. -1.
          1    1    1    2  502    0 -0.21643348800E+01 -0.30365870868E+02  0.21779619456E+02  0.37431567997E+02  0.00000000000E+00 0. -1.
         22    1    3    3    0    0  0.18880875648E+02  0.29946235831E+02 -0.28509952243E+03  0.28728905686E+03  0.00000000000E+00 0.  1.
         22    1    3    3    0    0 -0.47099664719E+01 -0.17728273155E+02  0.58333129373E+01  0.19248454303E+02  0.00000000000E+00 0.  1.
</event>
<event>
 7    1  0.6485470E-006  0.8190291E+02  0.7818608E-02  0.1324896E+00
          2   -1    0    0  502    0  0.00000000000E+00  0.00000000000E+00  0.53591902920E+03  0.53591902920E+03  0.00000000000E+00 0. -1.
          1   -1    0    0  501    0 -0.00000000000E+00 -0.00000000000E+00 -0.32321262089E+03  0.32321262089E+03  0.00000000000E+00 0. -1.
         25    2    1    2    0    0 -0.61793699591E+02  0.20795340130E+02  0.16300096783E+02  0.14192185579E+03  0.12500085006E+03 0.  0.
          2    1    1    2  501    0  0.52316437285E+02  0.63016484979E+02 -0.24991241762E+03  0.26299107108E+03  0.00000000000E+00 0. -1.
          1    1    1    2  502    0  0.94772623062E+01 -0.83811825110E+02  0.44631872915E+03  0.45421872321E+03  0.00000000000E+00 0. -1.
         22    1    3    3    0    0 -0.73746511970E+01  0.68291115715E+02  0.58115759520E+01  0.68933564981E+02  0.00000000000E+00 0.  1.
         22    1    3    3    0    0 -0.54419048394E+02 -0.47495775585E+02  0.10488520831E+02  0.72988290813E+02  0.00000000000E+00 0.  1.
</event>
<event>
 7    1  0.6485470E-006  0.4865622E+02  0.7818608E-02  0.1467189E+00
          2   -1    0    0  502    0  0.00000000000E+00  0.00000000000E+00  0.14535110366E+04  0.14535110366E+04  0.00000000000E+00 0. -1.
          1   -1    0    0  501    0 -0.00000000000E+00 -0.00000000000E+00 -0.46452584806E+03  0.46452584806E+03  0.00000000000E+00 0. -1.
         25    2    1    2    0    0  0.21985469409E+01  0.17937851627E+01  0.75308609983E+03  0.76339471167E+03  0.12499904308E+03 0.  0.
          2    1    1    2  501    0  0.44903810349E+02  0.18737011505E+02 -0.45712937415E+03  0.45971153183E+03  0.00000000000E+00 0. -1.
          1    1    1    2  502    0 -0.47102357290E+02 -0.20530796667E+02  0.69302846291E+03  0.69493064119E+03  0.00000000000E+00 0. -1.
         22    1    3    3    0    0  0.51545062103E+02 -0.35868673750E+02  0.35956104856E+03  0.36500356550E+03  0.00000000000E+00 0.  1.
         22    1    3    3    0    0 -0.49346515162E+02  0.37662458913E+02  0.39352505127E+03  0.39839114617E+03  0.00000000000E+00 0.  1.
</event>
<event>
 7    1  0.6485470E-006  0.1114933E+03  0.7818608E-02  0.1335884E+00
          2   -1    0    0  502    0  0.00000000000E+00  0.00000000000E+00  0.95372808032E+02  0.95372808032E+02  0.00000000000E+00 0. -1.
          1   -1    0    0  501    0 -0.00000000000E+00 -0.00000000000E+00 -0.10053659398E+04  0.10053659398E+04  0.00000000000E+00 0. -1.
         25    2    1    2    0    0 -0.44897328443E+02  0.90039000632E+02 -0.56555786202E+03  0.58787996206E+03  0.12499745105E+03 0.  0.
          2    1    1    2  501    0  0.48980816143E+02  0.22891957248E+02 -0.38799894355E+03  0.39174780440E+03  0.00000000000E+00 0. -1.
          1    1    1    2  502    0 -0.40834876999E+01 -0.11293095788E+03  0.43563673841E+02  0.12111098133E+03  0.00000000000E+00 0. -1.
         22    1    3    3    0    0 -0.47717739818E+02  0.41028449743E+02 -0.50947202373E+03  0.51334399708E+03  0.00000000000E+00 0. -1.
         22    1    3    3    0    0  0.28204113747E+01  0.49010550889E+02 -0.56085838293E+02  0.74535964982E+02  0.00000000000E+00 0. -1.
</event>
<event>
 7    1  0.6485470E-006  0.5041866E+02  0.7818608E-02  0.1512397E+00
          2   -1    0    0  502    0  0.00000000000E+00  0.00000000000E+00  0.82735613707E+02  0.82735613707E+02  0.00000000000E+00 0. -1.
          1   -1    0    0  501    0 -0.00000000000E+00 -0.00000000000E+00 -0.78504432495E+03  0.78504432495E+03  0.00000000000E+00 0. -1.
         25    2    1    2    0    0  0.20751603662E+02 -0.12139289550E+02 -0.13937120513E+03  0.18875210467E+03  0.12500013116E+03 0.  0.
          2    1    1    2  501    0  0.30758014310E+02  0.23428555480E+01 -0.60867105042E+03  0.60945220652E+03  0.00000000000E+00 0. -1.
          1    1    1    2  502    0 -0.51509617972E+02  0.97964340015E+01  0.45733544308E+02  0.69575627469E+02  0.00000000000E+00 0. -1.
         22    1    3    3    0    0  0.19585752353E+02  0.33807330671E+02 -0.13729249866E+03  0.14274371261E+03  0.00000000000E+00 0. -1.
         22    1    3    3    0    0  0.11658513090E+01 -0.45946620221E+02 -0.20787064758E+01  0.46008392056E+02  0.00000000000E+00 0. -1.
</event>
<event>
 7    1  0.6485470E-006  0.5007346E+02  0.7818608E-02  0.1520735E+00
          2   -1    0    0  502    0  0.00000000000E+00  0.00000000000E+00  0.26419205516E+03  0.26419205516E+03  0.00000000000E+00 0. -1.
          1   -1    0    0  501    0 -0.00000000000E+00 -0.00000000000E+00 -0.15252264480E+04  0.15252264480E+04  0.00000000000E+00 0. -1.
         25    2    1    2    0    0  0.80174930069E+01  0.36979728153E+02  0.66923060533E+02  0.14674854583E+03  0.12499863673E+03 0.  0.
          2    1    1    2  501    0 -0.27044200208E+02  0.11448864932E+02 -0.14808628371E+04  0.14811540121E+04  0.00000000000E+00 0. -1.
          1    1    1    2  502    0  0.19026707201E+02 -0.48428593085E+02  0.15290538369E+03  0.16151594527E+03  0.00000000000E+00 0. -1.
         22    1    3    3    0    0 -0.95828323568E+01  0.53856658186E+02 -0.18630258940E+02  0.57788033841E+02  0.00000000000E+00 0. -1.
         22    1    3    3    0    0  0.17600325364E+02 -0.16876930033E+02  0.85553319474E+02  0.88960511988E+02  0.00000000000E+00 0. -1.
</event>
<event>
 7    1  0.6485470E-006  0.1226829E+03  0.7818608E-02  0.1334923E+00
          2   -1    0    0  502    0  0.00000000000E+00  0.00000000000E+00  0.54994046543E+03  0.54994046543E+03  0.00000000000E+00 0. -1.
          1   -1    0    0  501    0 -0.00000000000E+00 -0.00000000000E+00 -0.99139573304E+03  0.99139573304E+03  0.00000000000E+00 0. -1.
         25    2    1    2    0    0 -0.41262478789E+02  0.73912799589E+02 -0.11172486230E+03  0.18781192141E+03  0.12500071547E+03 0.  0.
          2    1    1    2  501    0  0.34672199784E+02 -0.12302155912E+03 -0.83555719584E+03  0.84527645949E+03  0.00000000000E+00 0. -1.
          1    1    1    2  502    0  0.65902790049E+01  0.49108759528E+02  0.50582679053E+03  0.50824781756E+03  0.00000000000E+00 0. -1.
         22    1    3    3    0    0  0.20792901316E+02 -0.13024614944E+02 -0.68186562501E+02  0.72466493259E+02  0.00000000000E+00 0. -1.
         22    1    3    3    0    0 -0.62055380105E+02  0.86937414533E+02 -0.43538299798E+02  0.11534542815E+03  0.00000000000E+00 0. -1.
</event>
<event>
 7    1  0.6485470E-006  0.3080427E+02  0.7818608E-02  0.1661483E+00
          2   -1    0    0  502    0  0.00000000000E+00  0.00000000000E+00  0.14126983829E+03  0.14126983829E+03  0.00000000000E+00 0. -1.
          1   -1    0    0  501    0 -0.00000000000E+00 -0.00000000000E+00 -0.44276746051E+03  0.44276746051E+03  0.00000000000E+00 0. -1.
         25    2    1    2    0    0 -0.12426780757E+02  0.39737602094E+02 -0.23669234943E+03  0.27089340215E+03  0.12500586045E+03 0.  0.
          2    1    1    2  501    0  0.17883642439E+02 -0.94675735826E+01 -0.18651416480E+03  0.18760861731E+03  0.00000000000E+00 0. -1.
          1    1    1    2  502    0 -0.54568616815E+01 -0.30270028512E+02  0.12170889201E+03  0.12553527934E+03  0.00000000000E+00 0. -1.
         22    1    3    3    0    0 -0.63095823760E+02  0.41991695939E+02 -0.10282084172E+03  0.12773609903E+03  0.00000000000E+00 0. -1.
         22    1    3    3    0    0  0.50669043003E+02 -0.22540938453E+01 -0.13387150771E+03  0.14315730312E+03  0.00000000000E+00 0. -1.
</event>
<event>
 7    1  0.6485470E-006  0.8370871E+02  0.7818608E-02  0.1439583E+00
          2   -1    0    0  502    0  0.00000000000E+00  0.00000000000E+00  0.12693129549E+04  0.12693129549E+04  0.00000000000E+00 0. -1.
          1   -1    0    0  501    0 -0.00000000000E+00 -0.00000000000E+00 -0.22839005018E+02  0.22839005018E+02  0.00000000000E+00 0. -1.
         25    2    1    2    0    0 -0.91894840835E+02  0.10897711655E+02  0.72039357870E+03  0.73699053638E+03  0.12499888236E+03 0.  0.
          2    1    1    2  501    0  0.80932678372E+02  0.18285387749E+02  0.10934523295E+03  0.13726191680E+03  0.00000000000E+00 0. -1.
          1    1    1    2  502    0  0.10962162462E+02 -0.29183099404E+02  0.41673513824E+03  0.41789950675E+03  0.00000000000E+00 0. -1.
         22    1    3    3    0    0  0.78007020016E+01 -0.41052102088E+02  0.24068226709E+03  0.24428278639E+03  0.00000000000E+00 0.  1.
         22    1    3    3    0    0 -0.99695542836E+02  0.51949813743E+02  0.47971131161E+03  0.49270774999E+03  0.00000000000E+00 0.  1.
</event>
<event>
 7    1  0.6485470E-006  0.4761211E+02  0.7818608E-02  0.1512756E+00
          2   -1    0    0  502    0  0.00000000000E+00  0.00000000000E+00  0.17429518930E+04  0.17429518930E+04  0.00000000000E+00 0. -1.
          1   -1    0    0  501    0 -0.00000000000E+00 -0.00000000000E+00 -0.42060612904E+03  0.42060612904E+03  0.00000000000E+00 0. -1.
         25    2    1    2    0    0  0.28795794679E+01 -0.66712646065E+02  0.14247882975E+04  0.14318190241E+04  0.12500062386E+03 0.  0.
          2    1    1    2  501    0  0.14537194491E+02  0.29163986326E+02 -0.41508819717E+03  0.41636531982E+03  0.00000000000E+00 0. -1.
          1    1    1    2  502    0 -0.17416773959E+02  0.37548659739E+02  0.31264566358E+03  0.31537367807E+03  0.00000000000E+00 0. -1.
         22    1    3    3    0    0 -0.57219728739E+02 -0.33374545749E+02  0.91877276574E+03  0.92115761558E+03  0.00000000000E+00 0.  1.
         22    1    3    3    0    0  0.60099308207E+02 -0.33338100317E+02  0.50601553176E+03  0.51066140853E+03  0.00000000000E+00 0.  1.
</event>
<event>
 7    1  0.6485470E-006  0.5149040E+02  0.7818608E-02  0.1453692E+00
          2   -1    0    0  502    0  0.00000000000E+00  0.00000000000E+00  0.48840122153E+03  0.48840122153E+03  0.00000000000E+00 0. -1.
          1   -1    0    0  501    0 -0.00000000000E+00 -0.00000000000E+00 -0.65861556096E+03  0.65861556096E+03  0.00000000000E+00 0. -1.
         25    2    1    2    0    0 -0.56127597808E+02 -0.51635646830E+02 -0.34633791397E+03  0.37602087751E+03  0.12500080963E+03 0.  0.
          2    1    1    2  501    0  0.50609372897E+01  0.45372377194E+02 -0.29427337968E+03  0.29779369988E+03  0.00000000000E+00 0. -1.
          1    1    1    2  502    0  0.51066660518E+02  0.62632696354E+01  0.47039695422E+03  0.47320220509E+03  0.00000000000E+00 0. -1.
         22    1    3    3    0    0 -0.55936566185E+02 -0.62104261988E+01 -0.47197691927E+02  0.73451282857E+02  0.00000000000E+00 0.  1.
         22    1    3    3    0    0 -0.19103162349E+00 -0.45425220631E+02 -0.29914022204E+03  0.30256959465E+03  0.00000000000E+00 0.  1.
</event>
<event>
 7    1  0.6485470E-006  0.8172068E+02  0.7818608E-02  0.1431690E+00
          2   -1    0    0  502    0  0.00000000000E+00  0.00000000000E+00  0.20886673047E+04  0.20886673047E+04  0.00000000000E+00 0. -1.
          1   -1    0    0  501    0 -0.00000000000E+00 -0.00000000000E+00 -0.15440652080E+03  0.15440652080E+03  0.00000000000E+00 0. -1.
         25    2    1    2    0    0 -0.17880812019E+01  0.76851563012E+02  0.59835624197E+02  0.15848050926E+03  0.12500563956E+03 0.  0.
          2    1    1    2  501    0 -0.32096704851E+02 -0.76914106404E+02 -0.88390008779E+02  0.12148568590E+03  0.00000000000E+00 0. -1.
          1    1    1    2  502    0  0.33884786053E+02  0.62543392561E-01  0.19628151685E+04  0.19631076303E+04  0.00000000000E+00 0. -1.
         22    1    3    3    0    0 -0.38561765926E+02 -0.16353318132E+02  0.36601871306E+02  0.55624974502E+02  0.00000000000E+00 0.  1.
         22    1    3    3    0    0  0.36773684724E+02  0.93204881143E+02  0.23233752891E+02  0.10285553476E+03  0.00000000000E+00 0.  1.
</event>
<event>
 7    1  0.6485470E-006  0.6292848E+02  0.7818608E-02  0.1387061E+00
          2   -1    0    0  502    0  0.00000000000E+00  0.00000000000E+00  0.10835601973E+04  0.10835601973E+04  0.00000000000E+00 0. -1.
          1   -1    0    0  501    0 -0.00000000000E+00 -0.00000000000E+00 -0.86699880646E+03  0.86699880646E+03  0.00000000000E+00 0. -1.
         25    2    1    2    0    0 -0.21739368357E+02 -0.28191017043E+02 -0.31531418587E+02  0.13374473108E+03  0.12500435655E+03 0.  0.
          2    1    1    2  501    0  0.58641521112E+02 -0.22829048601E+02 -0.78213578708E+03  0.78466322896E+03  0.00000000000E+00 0. -1.
          1    1    1    2  502    0 -0.36902152756E+02  0.51020065644E+02  0.10302285965E+04  0.10321510437E+04  0.00000000000E+00 0. -1.
         22    1    3    3    0    0  0.28364757618E+02 -0.47877175715E+02  0.20086948297E+02  0.59163070585E+02  0.00000000000E+00 0. -1.
         22    1    3    3    0    0 -0.50104125974E+02  0.19686158672E+02 -0.51618366883E+02  0.74581660498E+02  0.00000000000E+00 0. -1.
</event>
<event>
 7    1  0.6485470E-006  0.5402514E+02  0.7818608E-02  0.1473157E+00
          2   -1    0    0  502    0  0.00000000000E+00  0.00000000000E+00  0.84389184324E+03  0.84389184324E+03  0.00000000000E+00 0. -1.
          1   -1    0    0  501    0 -0.00000000000E+00 -0.00000000000E+00 -0.13853641488E+03  0.13853641488E+03  0.00000000000E+00 0. -1.
         25    2    1    2    0    0  0.20737435889E+02  0.40408389169E+02  0.12775336274E+03  0.18441268387E+03  0.12499694844E+03 0.  0.
          2    1    1    2  501    0 -0.51656614217E+02 -0.18662890642E+02 -0.10280613131E+03  0.11655818253E+03  0.00000000000E+00 0. -1.
          1    1    1    2  502    0  0.30919178328E+02 -0.21745498527E+02  0.68040819693E+03  0.68145739173E+03  0.00000000000E+00 0. -1.
         22    1    3    3    0    0 -0.43352366407E+02  0.51237629136E+02  0.75460565413E+02  0.10099019381E+03  0.00000000000E+00 0.  1.
         22    1    3    3    0    0  0.64089802296E+02 -0.10829239967E+02  0.52292797327E+02  0.83422490067E+02  0.00000000000E+00 0.  1.
</event>
<event>
 7    1  0.6485470E-006  0.1109953E+03  0.7818608E-02  0.1329080E+00
          2   -1    0    0  502    0  0.00000000000E+00  0.00000000000E+00  0.18748948308E+04  0.18748948308E+04  0.00000000000E+00 0. -1.
          1   -1    0    0  501    0 -0.00000000000E+00 -0.00000000000E+00 -0.30626100214E+03  0.30626100214E+03  0.00000000000E+00 0. -1.
         25    2    1    2    0    0  0.66173824201E+02  0.57444598115E+02  0.66381206503E+03  0.68114073319E+03  0.12500953510E+03 0.  0.
          2    1    1    2  501    0  0.51528887457E+02 -0.25841579867E+02 -0.29168044017E+03  0.29732220346E+03  0.00000000000E+00 0. -1.
          1    1    1    2  502    0 -0.11770271166E+03 -0.31603018248E+02  0.11965022038E+04  0.12026928963E+04  0.00000000000E+00 0. -1.
         22    1    3    3    0    0  0.96944791812E+02  0.46707366698E+02  0.36430592675E+03  0.37986665954E+03  0.00000000000E+00 0.  1.
         22    1    3    3    0    0 -0.30770967611E+02  0.10737231418E+02  0.29950613828E+03  0.30127407365E+03  0.00000000000E+00 0.  1.
</event>
<event>
 7    1  0.6485470E-006  0.1028549E+03  0.7818608E-02  0.1307416E+00
          2   -1    0    0  502    0  0.00000000000E+00  0.00000000000E+00  0.15770207930E+04  0.15770207930E+04  0.00000000000E+00 0. -1.
          1   -1    0    0  501    0 -0.00000000000E+00 -0.00000000000E+00 -0.46359623408E+02  0.46359623408E+02  0.00000000000E+00 0. -1.
         25    2    1    2    0    0 -0.70012734026E+02 -0.76040295385E+02  0.65553134877E+03  0.67530014498E+03  0.12500010855E+03 0.  0.
          2    1    1    2  501    0  0.67658005457E+02 -0.33579292491E+02  0.10188059142E+02  0.76216606692E+02  0.00000000000E+00 0. -1.
          1    1    1    2  502    0  0.23547285693E+01  0.10961958788E+03  0.86494176168E+03  0.87186366474E+03  0.00000000000E+00 0. -1.
         22    1    3    3    0    0 -0.14643961227E+02 -0.55111802067E+02  0.89106999508E+02  0.10579136869E+03  0.00000000000E+00 0. -1.
         22    1    3    3    0    0 -0.55368772799E+02 -0.20928493318E+02  0.56642434926E+03  0.56950877629E+03  0.00000000000E+00 0. -1.
</event>
<event>
 7    1  0.6485470E-006  0.6089882E+02  0.7818608E-02  0.1504591E+00
          2   -1    0    0  502    0  0.00000000000E+00  0.00000000000E+00  0.77566540941E+02  0.77566540941E+02  0.00000000000E+00 0. -1.
          1   -1    0    0  501    0 -0.00000000000E+00 -0.00000000000E+00 -0.47630334466E+03  0.47630334466E+03  0.00000000000E+00 0. -1.
         25    2    1    2    0    0 -0.17396814695E+02  0.57348407718E+02 -0.17155212303E+03  0.22056111863E+03  0.12500234841E+03 0.  0.
          2    1    1    2  501    0  0.26709863830E+02  0.34286065133E+01 -0.26150805991E+03  0.26289092332E+03  0.00000000000E+00 0. -1.
          1    1    1    2  502    0 -0.93130491348E+01 -0.60777014231E+02  0.34323379216E+02  0.70417843647E+02  0.00000000000E+00 0. -1.
         22    1    3    3    0    0 -0.20440574902E+02 -0.37783215778E+02 -0.45017840427E+02  0.62225352177E+02  0.00000000000E+00 0.  1.
         22    1    3    3    0    0  0.30437602069E+01  0.95131623496E+02 -0.12653428260E+03  0.15833576645E+03  0.00000000000E+00 0.  1.
</event>
<event>
 7    1  0.6485470E-006  0.1382487E+03  0.7818608E-02  0.1299168E+00
          2   -1    0    0  502    0  0.00000000000E+00  0.00000000000E+00  0.11019614321E+04  0.11019614321E+04  0.00000000000E+00 0. -1.
          1   -1    0    0  501    0 -0.00000000000E+00 -0.00000000000E+00 -0.22445346726E+03  0.22445346726E+03  0.00000000000E+00 0. -1.
         25    2    1    2    0    0  0.15468466068E+03 -0.10291932431E+03  0.34010388817E+03  0.40720471089E+03  0.12500116104E+03 0.  0.
          2    1    1    2  501    0 -0.36337358288E+02  0.48510326067E+02 -0.18007582127E+03  0.19000251774E+03  0.00000000000E+00 0. -1.
          1    1    1    2  502    0 -0.11834730239E+03  0.54408998247E+02  0.71747989791E+03  0.72920767068E+03  0.00000000000E+00 0. -1.
         22    1    3    3    0    0  0.15554235451E+03 -0.12264746808E+03  0.27323208012E+03  0.33747828831E+03  0.00000000000E+00 0. -1.
         22    1    3    3    0    0 -0.85769383016E+00  0.19728143767E+02  0.66871808049E+02  0.69726422588E+02  0.00000000000E+00 0. -1.
</event>
<event>
 7    1  0.6485470E-006  0.1206761E+03  0.7818608E-02  0.1340098E+00
          2   -1    0    0  502    0  0.00000000000E+00  0.00000000000E+00  0.15375928569E+04  0.15375928569E+04  0.00000000000E+00 0. -1.
          1   -1    0    0  501    0 -0.00000000000E+00 -0.00000000000E+00 -0.11135511592E+03  0.11135511592E+03  0.00000000000E+00 0. -1.
         25    2    1    2    0    0 -0.11658162404E+03 -0.28110098244E+02  0.25446042552E+03  0.30782599125E+03  0.12500112017E+03 0.  0.
          2    1    1    2  501    0  0.18779805465E+02 -0.44343688493E+02 -0.74612316550E+02  0.88803387230E+02  0.00000000000E+00 0. -1.
          1    1    1    2  502    0  0.97801818578E+02  0.72453786738E+02  0.12463896320E+04  0.12523185943E+04  0.00000000000E+00 0. -1.
         22    1    3    3    0    0 -0.58280155109E+02  0.48685285580E+02  0.12752707316E+03  0.14842502450E+03  0.00000000000E+00 0.  1.
         22    1    3    3    0    0 -0.58301468934E+02 -0.76795383825E+02  0.12693335237E+03  0.15940096675E+03  0.00000000000E+00 0.  1.
</event>
<event>
 7    1  0.6485470E-006  0.9995635E+02  0.7818608E-02  0.1420829E+00
          2   -1    0    0  502    0  0.00000000000E+00  0.00000000000E+00  0.33478178340E+03  0.33478178340E+03  0.00000000000E+00 0. -1.
          1   -1    0    0  501    0 -0.00000000000E+00 -0.00000000000E+00 -0.37758873101E+04  0.37758873101E+04  0.00000000000E+00 0. -1.
         25    2    1    2    0    0 -0.92414839915E+02 -0.47051153550E+02  0.14639007851E+03  0.21865263542E+03  0.12499842480E+03 0.  0.
          2    1    1    2  501    0  0.72090118140E+02  0.69244465473E+02 -0.37375942793E+04  0.37389306998E+04  0.00000000000E+00 0. -1.
          1    1    1    2  502    0  0.20324721775E+02 -0.22193311923E+02  0.15009867412E+03  0.15308575826E+03  0.00000000000E+00 0. -1.
         22    1    3    3    0    0 -0.32410600173E+02  0.26665325432E+02 -0.24609650292E+01  0.42042156615E+02  0.00000000000E+00 0. -1.
         22    1    3    3    0    0 -0.60004239742E+02 -0.73716478982E+02  0.14885104354E+03  0.17661047881E+03  0.00000000000E+00 0. -1.
</event>
<event>
 7    1  0.6485470E-006  0.6236515E+02  0.7818608E-02  0.1430260E+00
          2   -1    0    0  502    0  0.00000000000E+00  0.00000000000E+00  0.12317724160E+04  0.12317724160E+04  0.00000000000E+00 0. -1.
          1   -1    0    0  501    0 -0.00000000000E+00 -0.00000000000E+00 -0.81664451212E+02  0.81664451212E+02  0.00000000000E+00 0. -1.
         25    2    1    2    0    0 -0.20338053010E+02 -0.10412173462E+03  0.66746862173E+03  0.68730930124E+03  0.12499897022E+03 0.  0.
          2    1    1    2  501    0  0.78806745637E+01  0.61000291656E+02 -0.57457114886E+02  0.84169238233E+02  0.00000000000E+00 0. -1.
          1    1    1    2  502    0  0.12457378446E+02  0.43121442960E+02  0.54009645791E+03  0.54195832770E+03  0.00000000000E+00 0. -1.
         22    1    3    3    0    0  0.14113422222E+02 -0.36340259842E+02  0.51938586417E+03  0.52084688640E+03  0.00000000000E+00 0.  1.
         22    1    3    3    0    0 -0.34451475232E+02 -0.67781474774E+02  0.14808275756E+03  0.16646241485E+03  0.00000000000E+00 0.  1.
</event>
<event>
 7    1  0.6485470E-006  0.8707431E+02  0.7818608E-02  0.1372477E+00
          2   -1    0    0  502    0  0.00000000000E+00  0.00000000000E+00  0.17413572503E+03  0.17413572503E+03  0.00000000000E+00 0. -1.
          1   -1    0    0  501    0 -0.00000000000E+00 -0.00000000000E+00 -0.51029062102E+03  0.51029062102E+03  0.00000000000E+00 0. -1.
         25    2    1    2    0    0 -0.39564063878E+01  0.36410565474E+02 -0.35539655953E+03  0.37851423218E+03  0.12499970805E+03 0.  0.
          2    1    1    2  501    0 -0.82584654352E+02 -0.46032458022E+02 -0.11315014451E+03  0.14745225508E+03  0.00000000000E+00 0. -1.
          1    1    1    2  502    0  0.86541060739E+02  0.96218925476E+01  0.13239180804E+03  0.15845985879E+03  0.00000000000E+00 0. -1.
         22    1    3    3    0    0 -0.12762228249E+02 -0.38680442233E+02 -0.21721793716E+03  0.22100380835E+03  0.00000000000E+00 0. -1.
         22    1    3    3    0    0  0.88058218617E+01  0.75091007707E+02 -0.13817862236E+03  0.15751042383E+03  0.00000000000E+00 0. -1.
</event>
<event>
 7    1  0.6485470E-006  0.4463847E+02  0.7818608E-02  0.1518104E+00
          2   -1    0    0  502    0  0.00000000000E+00  0.00000000000E+00  0.10889929691E+04  0.10889929691E+04  0.00000000000E+00 0. -1.
          1   -1    0    0  501    0 -0.00000000000E+00 -0.00000000000E+00 -0.37467751640E+03  0.37467751640E+03  0.00000000000E+00 0. -1.
         25    2    1    2    0    0  0.74852546972E+02  0.12774072336E+02  0.17852305943E+03  0.23078597054E+03  0.12500240292E+03 0.  0.
          2    1    1    2  501    0 -0.33458728034E+02  0.21626618636E+01 -0.34719050879E+03  0.34880569517E+03  0.00000000000E+00 0. -1.
          1    1    1    2  502    0 -0.41393818937E+02 -0.14936734199E+02  0.88298290207E+03  0.88407881980E+03  0.00000000000E+00 0. -1.
         22    1    3    3    0    0  0.80328287012E+02 -0.30402141273E+02  0.60676717372E+02  0.10515982084E+03  0.00000000000E+00 0. -1.
         22    1    3    3    0    0 -0.54757400407E+01  0.43176213609E+02  0.11784634206E+03  0.12562614970E+03  0.00000000000E+00 0. -1.
</event>
<event>
 7    1  0.6485470E-006  0.7934569E+02  0.7818608E-02  0.1368681E+00
          2   -1    0    0  502    0  0.00000000000E+00  0.00000000000E+00  0.54193710430E+03  0.54193710430E+03  0.00000000000E+00 0. -1.
          1   -1    0    0  501    0 -0.00000000000E+00 -0.00000000000E+00 -0.22707073577E+03  0.22707073577E+03  0.00000000000E+00 0. -1.
         25    2    1    2    0    0 -0.11745394480E+03  0.48148750644E+02 -0.46099292145E+00  0.17815614982E+03  0.12500267943E+03 0.  0.
          2    1    1    2  501    0  0.60157188319E+02 -0.43527021523E+02 -0.12575446832E+03  0.14603997813E+03  0.00000000000E+00 0. -1.
          1    1    1    2  502    0  0.57296756486E+02 -0.46217291203E+01  0.44108182977E+03  0.44481171212E+03  0.00000000000E+00 0. -1.
         22    1    3    3    0    0 -0.37962554176E+02  0.82810998678E+02  0.52446330438E+01  0.91248688744E+02  0.00000000000E+00 0.  1.
         22    1    3    3    0    0 -0.79491390629E+02 -0.34662248035E+02 -0.57056259653E+01  0.86907461075E+02  0.00000000000E+00 0.  1.
</event>
<event>
 7    1  0.6485470E-006  0.8069522E+02  0.7818608E-02  0.1376088E+00
          2   -1    0    0  502    0  0.00000000000E+00  0.00000000000E+00  0.13984773650E+03  0.13984773650E+03  0.00000000000E+00 0. -1.
          1   -1    0    0  501    0 -0.00000000000E+00 -0.00000000000E+00 -0.13021387743E+04  0.13021387743E+04  0.00000000000E+00 0. -1.
         25    2    1    2    0    0 -0.84496848612E+02  0.62707579458E+02 -0.49123637162E+02  0.17061633704E+03  0.12499937916E+03 0.  0.
          2    1    1    2  501    0  0.52452497451E+02  0.87156918129E+01 -0.11721494533E+04  0.11733548349E+04  0.00000000000E+00 0. -1.
          1    1    1    2  502    0  0.32044351161E+02 -0.71423271271E+02  0.58982052637E+02  0.98015338870E+02  0.00000000000E+00 0. -1.
         22    1    3    3    0    0  0.22663609223E+02 -0.29703173465E+01  0.17104861256E+02  0.28548874701E+02  0.00000000000E+00 0.  1.
         22    1    3    3    0    0 -0.10716045784E+03  0.65677896805E+02 -0.66228498418E+02  0.14206746234E+03  0.00000000000E+00 0.  1.
</event>
<event>
 7    1  0.6485470E-006  0.1135277E+03  0.7818608E-02  0.1256660E+00
          2   -1    0    0  502    0  0.00000000000E+00  0.00000000000E+00  0.11091223921E+04  0.11091223921E+04  0.00000000000E+00 0. -1.
          1   -1    0    0  501    0 -0.00000000000E+00 -0.00000000000E+00 -0.35338504981E+03  0.35338504981E+03  0.00000000000E+00 0. -1.
         25    2    1    2    0    0  0.19871303677E+03  0.62198049204E+02  0.27351701807E+03  0.36577510293E+03  0.12499759374E+03 0.  0.
          2    1    1    2  501    0 -0.11078261749E+03  0.51628530215E+01 -0.29318287801E+03  0.31345756228E+03  0.00000000000E+00 0. -1.
          1    1    1    2  502    0 -0.87930419278E+02 -0.67360902225E+02  0.77540320218E+03  0.78327477665E+03  0.00000000000E+00 0. -1.
         22    1    3    3    0    0  0.98312904135E+02 -0.20972919069E+02  0.64526052530E+02  0.11945250901E+03  0.00000000000E+00 0.  1.
         22    1    3    3    0    0  0.10040013264E+03  0.83170968273E+02  0.20899096554E+03  0.24632259392E+03  0.00000000000E+00 0.  1.
</event>
<event>
 7    1  0.6485470E-006  0.9980764E+02  0.7818608E-02  0.1355984E+00
          2   -1    0    0  502    0  0.00000000000E+00  0.00000000000E+00  0.41223976505E+03  0.41223976505E+03  0.00000000000E+00 0. -1.
          1   -1    0    0  501    0 -0.00000000000E+00 -0.00000000000E+00 -0.10902978840E+04  0.10902978840E+04  0.00000000000E+00 0. -1.
         25    2    1    2    0    0 -0.11200482796E+03 -0.98443713904E+01 -0.31007059479E+02  0.17096664015E+03  0.12500464461E+03 0.  0.
          2    1    1    2  501    0  0.27349239285E+02 -0.42838423340E+02 -0.98137740622E+03  0.98269258919E+03  0.00000000000E+00 0. -1.
          1    1    1    2  502    0  0.84655588677E+02  0.52682794730E+02  0.33432634679E+03  0.34887841967E+03  0.00000000000E+00 0. -1.
         22    1    3    3    0    0 -0.11430638465E+03  0.75631157192E+01 -0.65717283804E+02  0.13206782985E+03  0.00000000000E+00 0. -1.
         22    1    3    3    0    0  0.23015566836E+01 -0.17407487110E+02  0.34710224325E+02  0.38898810307E+02  0.00000000000E+00 0. -1.
</event>
<event>
 7    1  0.6485470E-006  0.1008824E+03  0.7818608E-02  0.1448477E+00
          2   -1    0    0  502    0  0.00000000000E+00  0.00000000000E+00  0.67837472466E+03  0.67837472466E+03  0.00000000000E+00 0. -1.
          1   -1    0    0  501    0 -0.00000000000E+00 -0.00000000000E+00 -0.57357237365E+03  0.57357237365E+03  0.00000000000E+00 0. -1.
         25    2    1    2    0    0  0.73649966369E+02  0.34294543377E+02  0.93723582517E+02  0.17609439954E+03  0.12499877751E+03 0.  0.
          2    1    1    2  501    0 -0.85006194650E+02 -0.55679214720E+02 -0.52726334295E+03  0.53696634987E+03  0.00000000000E+00 0. -1.
          1    1    1    2  502    0  0.11356228281E+02  0.21384671342E+02  0.53834211143E+03  0.53888634890E+03  0.00000000000E+00 0. -1.
         22    1    3    3    0    0  0.58875130502E+02  0.68936484027E+02  0.19304837841E+02  0.92688707973E+02  0.00000000000E+00 0.  1.
         22    1    3    3    0    0  0.14774835867E+02 -0.34641940649E+02  0.74418744675E+02  0.83405691568E+02  0.00000000000E+00 0.  1.
</event>
<event>
 7    1  0.6485470E-006  0.7357061E+02  0.7818608E-02  0.1411802E+00
          2   -1    0    0  502    0  0.00000000000E+00  0.00000000000E+00  0.22687298584E+04  0.22687298584E+04  0.00000000000E+00 0. -1.
          1   -1    0    0  501    0 -0.00000000000E+00 -0.00000000000E+00 -0.75225815181E+02  0.75225815181E+02  0.00000000000E+00 0. -1.
         25    2    1    2    0    0  0.31339267560E+02 -0.12113231084E+01  0.13769424942E+03  0.18859500577E+03  0.12499901153E+03 0.  0.
          2    1    1    2  501    0  0.42158870466E+02 -0.12032778429E+02 -0.39325195836E+02  0.58895068921E+02  0.00000000000E+00 0. -1.
          1    1    1    2  502    0 -0.73498138026E+02  0.13244101538E+02  0.20951349896E+04  0.20964655988E+04  0.00000000000E+00 0. -1.
         22    1    3    3    0    0  0.27999136720E+02 -0.14715427598E+02 -0.15183184856E+02  0.35085959711E+02  0.00000000000E+00 0.  1.
         22    1    3    3    0    0  0.33401308394E+01  0.13504104489E+02  0.15287743428E+03  0.15350904606E+03  0.00000000000E+00 0.  1.
</event>
<event>
 7    1  0.6485470E-006  0.7767722E+02  0.7818608E-02  0.1384804E+00
          2   -1    0    0  502    0  0.00000000000E+00  0.00000000000E+00  0.59429211282E+03  0.59429211282E+03  0.00000000000E+00 0. -1.
          1   -1    0    0  501    0 -0.00000000000E+00 -0.00000000000E+00 -0.41010055272E+04  0.41010055272E+04  0.00000000000E+00 0. -1.
         25    2    1    2    0    0 -0.46359778036E+02 -0.66180973742E+02 -0.77001546116E+03  0.78426884449E+03  0.12499863879E+03 0.  0.
          2    1    1    2  501    0 -0.27897137520E+02  0.43229814726E+02 -0.33210912141E+04  0.33214897139E+04  0.00000000000E+00 0. -1.
          1    1    1    2  502    0  0.74256915556E+02  0.22951159016E+02  0.58439326097E+03  0.58953908155E+03  0.00000000000E+00 0. -1.
         22    1    3    3    0    0 -0.14406181497E+02  0.18778384064E+02 -0.47536984173E+03  0.47595866648E+03  0.00000000000E+00 0. -1.
         22    1    3    3    0    0 -0.31953596539E+02 -0.84959357806E+02 -0.29464561944E+03  0.30831017801E+03  0.00000000000E+00 0. -1.
</event>
<event>
 7    1  0.6485470E-006  0.7838162E+02  0.7818608E-02  0.1507102E+00
          2   -1    0    0  502    0  0.00000000000E+00  0.00000000000E+00  0.13864327144E+04  0.13864327144E+04  0.00000000000E+00 0. -1.
          1   -1    0    0  501    0 -0.00000000000E+00 -0.00000000000E+00 -0.56727657609E+03  0.56727657609E+03  0.00000000000E+00 0. -1.
         25    2    1    2    0    0 -0.26340110470E+02 -0.59814134941E+02 -0.85503574752E+02  0.16495042002E+03  0.12500499034E+03 0.  0.
          2    1    1    2  501    0  0.11227423218E+02 -0.17232787780E+02 -0.44066512753E+03  0.44114484994E+03  0.00000000000E+00 0. -1.
          1    1    1    2  502    0  0.15112687252E+02  0.77046922722E+02  0.13453248406E+04  0.13476140206E+04  0.00000000000E+00 0. -1.
         22    1    3    3    0    0 -0.17253741964E+02  0.68199693415E+01 -0.95211802851E+02  0.97002530873E+02  0.00000000000E+00 0.  1.
         22    1    3    3    0    0 -0.90863685065E+01 -0.66634104283E+02  0.97082280985E+01  0.67947889143E+02  0.00000000000E+00 0.  1.
</event>
<event>
 7    1  0.6485470E-006  0.6431004E+02  0.7818608E-02  0.1400723E+00
          2   -1    0    0  502    0  0.00000000000E+00  0.00000000000E+00  0.25141792709E+04  0.25141792709E+04  0.00000000000E+00 0. -1.
          1   -1    0    0  501    0 -0.00000000000E+00 -0.00000000000E+00 -0.92058909604E+02  0.92058909604E+02  0.00000000000E+00 0. -1.
         25    2    1    2    0    0  0.17736558085E+02  0.18876292162E+02  0.68933217431E+02  0.14508405736E+03  0.12500678116E+03 0.  0.
          2    1    1    2  501    0  0.46339907344E+02 -0.29083472731E+02 -0.39568038216E+02  0.67519367940E+02  0.00000000000E+00 0. -1.
          1    1    1    2  502    0 -0.64076465429E+02  0.10207180569E+02  0.23927551821E+04  0.23936347552E+04  0.00000000000E+00 0. -1.
         22    1    3    3    0    0  0.29516364848E+02 -0.49529697595E+02  0.38253150937E+02  0.69193282148E+02  0.00000000000E+00 0.  1.
         22    1    3    3    0    0 -0.11779806763E+02  0.68405989757E+02  0.30680066494E+02  0.75890775210E+02  0.00000000000E+00 0.  1.
</event>
<event>
 7    1  0.6485470E-006  0.1378923E+03  0.7818608E-02  0.1400829E+00
          2   -1    0    0  502    0  0.00000000000E+00  0.00000000000E+00  0.67310395436E+03  0.67310395436E+03  0.00000000000E+00 0. -1.
          1   -1    0    0  501    0 -0.00000000000E+00 -0.00000000000E+00 -0.30661957172E+03  0.30661957172E+03  0.00000000000E+00 0. -1.
         25    2    1    2    0    0  0.86206141543E+02 -0.10507408213E+03 -0.15995925005E+03  0.24430393359E+03  0.12500155486E+03 0.  0.
          2    1    1    2  501    0  0.19559822617E+02  0.16351937901E+02 -0.95239670777E+02  0.98592938001E+02  0.00000000000E+00 0. -1.
          1    1    1    2  502    0 -0.10576596416E+03  0.88722144225E+02  0.62168330347E+03  0.63682665448E+03  0.00000000000E+00 0. -1.
         22    1    3    3    0    0  0.59505418556E+02 -0.13316885218E+03 -0.12835536411E+03  0.19429343150E+03  0.00000000000E+00 0.  1.
         22    1    3    3    0    0  0.26700722987E+02  0.28094770057E+02 -0.31603885943E+02  0.50010502090E+02  0.00000000000E+00 0.  1.
</event>
<event>
 7    1  0.6485470E-006  0.8117555E+02  0.7818608E-02  0.1351088E+00
          2   -1    0    0  502    0  0.00000000000E+00  0.00000000000E+00  0.38292702710E+03  0.38292702710E+03  0.00000000000E+00 0. -1.
          1   -1    0    0  501    0 -0.00000000000E+00 -0.00000000000E+00 -0.79645880377E+03  0.79645880377E+03  0.00000000000E+00 0. -1.
         25    2    1    2    0    0 -0.24265170720E+01 -0.12729791751E+03  0.16774097314E+03  0.24489157693E+03  0.12499681034E+03 0.  0.
          2    1    1    2  501    0 -0.34026729454E+02  0.73311427511E+02 -0.74962977549E+03  0.75397425952E+03  0.00000000000E+00 0. -1.
          1    1    1    2  502    0  0.36453246526E+02  0.53986489996E+02  0.16835702568E+03  0.18051999441E+03  0.00000000000E+00 0. -1.
         22    1    3    3    0    0 -0.46531675295E+02 -0.24684917424E+02  0.13355170792E+02  0.54340615941E+02  0.00000000000E+00 0. -1.
         22    1    3    3    0    0  0.44105158223E+02 -0.10261300008E+03  0.15438580235E+03  0.19055096099E+03  0.00000000000E+00 0. -1.
</event>
<event>
 7    1  0.6485470E-006  0.7386244E+02  0.7818608E-02  0.1477527E+00
          2   -1    0    0  502    0  0.00000000000E+00  0.00000000000E+00  0.12096769001E+04  0.12096769001E+04  0.00000000000E+00 0. -1.
          1   -1    0    0  501    0 -0.00000000000E+00 -0.00000000000E+00 -0.89109801022E+02  0.89109801022E+02  0.00000000000E+00 0. -1.
         25    2    1    2    0    0 -0.44067830312E+01  0.97570442555E+02  0.96298551523E+02  0.18557378074E+03  0.12499922430E+03 0.  0.
          2    1    1    2  501    0  0.10595731022E+02 -0.24619094009E+02 -0.39057494646E+02  0.47369369784E+02  0.00000000000E+00 0. -1.
          1    1    1    2  502    0 -0.61889479910E+01 -0.72951348546E+02  0.10633260422E+04  0.10658435506E+04  0.00000000000E+00 0. -1.
         22    1    3    3    0    0 -0.51073813162E+02  0.13092599617E+01  0.38569206313E+02  0.64014312682E+02  0.00000000000E+00 0.  1.
         22    1    3    3    0    0  0.46667030131E+02  0.96261182593E+02  0.57729345209E+02  0.12155946805E+03  0.00000000000E+00 0.  1.
</event>
<event>
 7    1  0.6485470E-006  0.1200150E+03  0.7818608E-02  0.1250463E+00
          2   -1    0    0  502    0  0.00000000000E+00  0.00000000000E+00  0.27243711135E+03  0.27243711135E+03  0.00000000000E+00 0. -1.
          1   -1    0    0  501    0 -0.00000000000E+00 -0.00000000000E+00 -0.28637673616E+04  0.28637673616E+04  0.00000000000E+00 0. -1.
         25    2    1    2    0    0 -0.10802221219E+03  0.20382033394E+01 -0.21223600926E+03  0.26896484598E+03  0.12500004857E+03 0.  0.
          2    1    1    2  501    0  0.42406656316E+02  0.10304520827E+03 -0.26061786939E+04  0.26085597605E+04  0.00000000000E+00 0. -1.
          1    1    1    2  502    0  0.65615555871E+02 -0.10508341161E+03  0.22708445293E+03  0.25867986649E+03  0.00000000000E+00 0. -1.
         22    1    3    3    0    0 -0.13429273997E+03 -0.75143121598E+00 -0.19714597890E+03  0.23854064989E+03  0.00000000000E+00 0.  1.
         22    1    3    3    0    0  0.26270527779E+02  0.27896345553E+01 -0.15090030367E+02  0.30424196081E+02  0.00000000000E+00 0.  1.
</event>
<event>
 7    1  0.6485470E-006  0.1174681E+03  0.7818608E-02  0.1247505E+00
          2   -1    0    0  502    0  0.00000000000E+00  0.00000000000E+00  0.13400440665E+04  0.13400440665E+04  0.00000000000E+00 0. -1.
          1   -1    0    0  501    0 -0.00000000000E+00 -0.00000000000E+00 -0.61189051130E+02  0.61189051130E+02  0.00000000000E+00 0. -1.
         25    2    1    2    0    0 -0.20795358524E+02  0.18461488620E+02  0.18678478668E+03  0.22646442033E+03  0.12499721454E+03 0.  0.
          2    1    1    2  501    0 -0.13510280939E+02  0.11668862756E+03  0.57394439740E+02  0.13073976138E+03  0.00000000000E+00 0. -1.
          1    1    1    2  502    0  0.34305639464E+02 -0.13515011618E+03  0.10346757890E+04  0.10440289359E+04  0.00000000000E+00 0. -1.
         22    1    3    3    0    0 -0.34812818133E+02 -0.22885560338E+02  0.79954685145E+01  0.42421795048E+02  0.00000000000E+00 0. -1.
         22    1    3    3    0    0  0.14017459609E+02  0.41347048958E+02  0.17878931817E+03  0.18404262528E+03  0.00000000000E+00 0. -1.
</event>
<event>
 7    1  0.6485470E-006  0.7438615E+02  0.7818608E-02  0.1404725E+00
          2   -1    0    0  502    0  0.00000000000E+00  0.00000000000E+00  0.28527319042E+03  0.28527319042E+03  0.00000000000E+00 0. -1.
          1   -1    0    0  501    0 -0.00000000000E+00 -0.00000000000E+00 -0.25303337452E+03  0.25303337452E+03  0.00000000000E+00 0. -1.
         25    2    1    2    0    0  0.11992974620E+02  0.30064952993E+02 -0.89519583441E+02  0.15712089310E+03  0.12500194554E+03 0.  0.
          2    1    1    2  501    0 -0.23353186391E+01  0.45770661239E+02 -0.11956195430E+03  0.12804478927E+03  0.00000000000E+00 0. -1.
          1    1    1    2  502    0 -0.96576559813E+01 -0.75835614231E+02  0.24132135364E+03  0.25314088257E+03  0.00000000000E+00 0. -1.
         22    1    3    3    0    0  0.27503928245E+02  0.62514988119E+02 -0.98676618614E+02  0.12000693676E+03  0.00000000000E+00 0.  1.
         22    1    3    3    0    0 -0.15510953624E+02 -0.32450035127E+02  0.91570351729E+01  0.37113956340E+02  0.00000000000E+00 0.  1.
</event>
<event>
 7    1  0.6485470E-006  0.1171268E+03  0.7818608E-02  0.1304321E+00
          2   -1    0    0  502    0  0.00000000000E+00  0.00000000000E+00  0.12811167998E+03  0.12811167998E+03  0.00000000000E+00 0. -1.
          1   -1    0    0  501    0 -0.00000000000E+00 -0.00000000000E+00 -0.28703932278E+04  0.28703932278E+04  0.00000000000E+00 0. -1.
         25    2    1    2    0    0 -0.73549265061E+02  0.87023975349E-01 -0.63858915320E+03  0.65485140767E+03  0.12499903036E+03 0.  0.
          2    1    1    2  501    0 -0.28782076007E+02  0.61863106192E+02 -0.21931936387E+04  0.21942547228E+04  0.00000000000E+00 0. -1.
          1    1    1    2  502    0  0.10233134107E+03 -0.61950130167E+02  0.89501244014E+02  0.14939877735E+03  0.00000000000E+00 0. -1.
         22    1    3    3    0    0 -0.66531128405E+01 -0.50743668967E+02 -0.13644822103E+03  0.14573023321E+03  0.00000000000E+00 0.  1.
         22    1    3    3    0    0 -0.66896152220E+02  0.50830692943E+02 -0.50214093217E+03  0.50912117446E+03  0.00000000000E+00 0.  1.
</event>
<event>
 7    1  0.6485470E-006  0.2125406E+03  0.7818608E-02  0.1200663E+00
          2   -1    0    0  502    0  0.00000000000E+00  0.00000000000E+00  0.64801001686E+02  0.64801001686E+02  0.00000000000E+00 0. -1.
          1   -1    0    0  501    0 -0.00000000000E+00 -0.00000000000E+00 -0.30211938552E+04  0.30211938552E+04  0.00000000000E+00 0. -1.
         25    2    1    2    0    0 -0.21952780734E+03 -0.19300065356E+03 -0.11460493327E+04  0.11893254165E+04  0.12499665231E+03 0.  0.
          2    1    1    2  501    0  0.12324574194E+03  0.14952152665E+03 -0.17745925992E+04  0.17851400765E+04  0.00000000000E+00 0. -1.
          1    1    1    2  502    0  0.96282065399E+02  0.43479126918E+02 -0.35750921734E+02  0.11152936385E+03  0.00000000000E+00 0. -1.
         22    1    3    3    0    0 -0.93947969042E+02 -0.16009096089E+03 -0.60003811064E+03  0.62809320237E+03  0.00000000000E+00 0. -1.
         22    1    3    3    0    0 -0.12557983830E+03 -0.32909692675E+02 -0.54601122201E+03  0.56123221417E+03  0.00000000000E+00 0. -1.
</event>
<event>
 7    1  0.6485470E-006  0.5880783E+02  0.7818608E-02  0.1451890E+00
          2   -1    0    0  502    0  0.00000000000E+00  0.00000000000E+00  0.88731425698E+02  0.88731425698E+02  0.00000000000E+00 0. -1.
          1   -1    0    0  501    0 -0.00000000000E+00 -0.00000000000E+00 -0.55135717496E+03  0.55135717496E+03  0.00000000000E+00 0. -1.
         25    2    1    2    0    0  0.24011900540E+02 -0.75176806415E+02 -0.10951644374E+03  0.18397954141E+03  0.12500598633E+03 0.  0.
          2    1    1    2  501    0  0.18292157469E+02  0.36139683706E+02 -0.38713048235E+03  0.38924374128E+03  0.00000000000E+00 0. -1.
          1    1    1    2  502    0 -0.42304058009E+02  0.39037122708E+02  0.34021176830E+02  0.66865317963E+02  0.00000000000E+00 0. -1.
         22    1    3    3    0    0  0.63455784312E+02 -0.73932770289E+02 -0.10658718919E+03  0.14440747898E+03  0.00000000000E+00 0. -1.
         22    1    3    3    0    0 -0.39443883772E+02 -0.12440361254E+01 -0.29292545493E+01  0.39572062432E+02  0.00000000000E+00 0. -1.
</event>
<event>
 7    1  0.6485470E-006  0.8913153E+02  0.7818608E-02  0.1482056E+00
          2   -1    0    0  502    0  0.00000000000E+00  0.00000000000E+00  0.22079772673E+04  0.22079772673E+04  0.00000000000E+00 0. -1.
          1   -1    0    0  501    0 -0.00000000000E+00 -0.00000000000E+00 -0.60193550250E+02  0.60193550250E+02  0.00000000000E+00 0. -1.
         25    2    1    2    0    0  0.84286282125E+02 -0.55836930268E+02  0.16549055494E+03  0.23072501804E+03  0.12499988015E+03 0.  0.
          2    1    1    2  501    0 -0.24226904114E+01  0.21374531518E+02 -0.22242643059E+02  0.30943096107E+02  0.00000000000E+00 0. -1.
          1    1    1    2  502    0 -0.81863591713E+02  0.34462398750E+02  0.20045358052E+04  0.20065027034E+04  0.00000000000E+00 0. -1.
         22    1    3    3    0    0  0.20125866884E+02 -0.21464786334E+02 -0.17190024494E+02  0.34077624804E+02  0.00000000000E+00 0.  1.
         22    1    3    3    0    0  0.64160415241E+02 -0.34372143934E+02  0.18268057944E+03  0.19664739324E+03  0.00000000000E+00 0.  1.
</event>
<event>
 7    1  0.6485470E-006  0.1180530E+03  0.7818608E-02  0.1330747E+00
          2   -1    0    0  502    0  0.00000000000E+00  0.00000000000E+00  0.49113896661E+03  0.49113896661E+03  0.00000000000E+00 0. -1.
          1   -1    0    0  501    0 -0.00000000000E+00 -0.00000000000E+00 -0.98390137309E+03  0.98390137309E+03  0.00000000000E+00 0. -1.
         25    2    1    2    0    0 -0.49116140354E+02  0.12510501945E+03 -0.37592735865E+03  0.41834317050E+03  0.12500387267E+03 0.  0.
          2    1    1    2  501    0  0.52920244850E+02 -0.72184010597E+01 -0.57811474863E+03  0.58057671346E+03  0.00000000000E+00 0. -1.
          1    1    1    2  502    0 -0.38041044964E+01 -0.11788661839E+03  0.46127970080E+03  0.47612045575E+03  0.00000000000E+00 0. -1.
         22    1    3    3    0    0  0.95076487411E+01 -0.12749323928E+01 -0.16671002910E+03  0.16698579173E+03  0.00000000000E+00 0.  1.
         22    1    3    3    0    0 -0.58623789095E+02  0.12637995184E+03 -0.20921732956E+03  0.25135737877E+03  0.00000000000E+00 0.  1.
</event>
<event>
 7    1  0.6485470E-006  0.1016108E+03  0.7818608E-02  0.1434779E+00
          2   -1    0    0  502    0  0.00000000000E+00  0.00000000000E+00  0.10011503128E+04  0.10011503128E+04  0.00000000000E+00 0. -1.
          1   -1    0    0  501    0 -0.00000000000E+00 -0.00000000000E+00 -0.28695008394E+02  0.28695008394E+02  0.00000000000E+00 0. -1.
         25    2    1    2    0    0 -0.60591835004E+01  0.82879316953E+02  0.58263251466E+03  0.60165714954E+03  0.12499993428E+03 0.  0.
          2    1    1    2  501    0  0.21865136702E+02 -0.10430421405E+03  0.13508217804E+03  0.17206001307E+03  0.00000000000E+00 0. -1.
          1    1    1    2  502    0 -0.15805953201E+02  0.21424897094E+02  0.25474061166E+03  0.25612815855E+03  0.00000000000E+00 0. -1.
         22    1    3    3    0    0 -0.21824420068E+02 -0.17937275630E+02  0.29707754114E+03  0.29841768818E+03  0.00000000000E+00 0. -1.
         22    1    3    3    0    0  0.15765236567E+02  0.10081659258E+03  0.28555497352E+03  0.30323946136E+03  0.00000000000E+00 0. -1.
</event>
<event>
 7    1  0.6485470E-006  0.8496024E+02  0.7818608E-02  0.1334187E+00
          2   -1    0    0  502    0  0.00000000000E+00  0.00000000000E+00  0.46138118964E+03  0.46138118964E+03  0.00000000000E+00 0. -1.
          1   -1    0    0  501    0 -0.00000000000E+00 -0.00000000000E+00 -0.42752362340E+03  0.42752362340E+03  0.00000000000E+00 0. -1.
         25    2    1    2    0    0  0.57255402363E+02  0.10317945089E+03  0.57023820319E+02  0.18111092173E+03  0.12500107881E+03 0.  0.
          2    1    1    2  501    0 -0.77381721303E+02 -0.34038977813E+02 -0.35669710743E+03  0.36657797158E+03  0.00000000000E+00 0. -1.
          1    1    1    2  502    0  0.20126318940E+02 -0.69140473072E+02  0.33353085335E+03  0.34121591972E+03  0.00000000000E+00 0. -1.
         22    1    3    3    0    0 -0.13321112171E+01  0.10947672567E+03  0.54078733849E+02  0.12211239674E+03  0.00000000000E+00 0.  1.
         22    1    3    3    0    0  0.58587513580E+02 -0.62972747813E+01  0.29450864701E+01  0.58998524994E+02  0.00000000000E+00 0.  1.
</event>
<event>
 7    1  0.6485470E-006  0.4908910E+02  0.7818608E-02  0.1473874E+00
          2   -1    0    0  502    0  0.00000000000E+00  0.00000000000E+00  0.21187107666E+03  0.21187107666E+03  0.00000000000E+00 0. -1.
          1   -1    0    0  501    0 -0.00000000000E+00 -0.00000000000E+00 -0.34526412914E+03  0.34526412914E+03  0.00000000000E+00 0. -1.
         25    2    1    2    0    0  0.27890622313E+02  0.20714724879E+02 -0.24785260677E+03  0.27975784257E+03  0.12500619649E+03 0.  0.
          2    1    1    2  501    0  0.91087367065E+01 -0.52975963011E+02 -0.68998373633E+02  0.87465406335E+02  0.00000000000E+00 0. -1.
          1    1    1    2  502    0 -0.36999359019E+02  0.32261238132E+02  0.18345792792E+03  0.18991195689E+03  0.00000000000E+00 0. -1.
         22    1    3    3    0    0  0.35880213911E+02  0.51694719996E+02 -0.23815300559E+03  0.24632618192E+03  0.00000000000E+00 0.  1.
         22    1    3    3    0    0 -0.79895915982E+01 -0.30979995118E+02 -0.96996011762E+01  0.33431660658E+02  0.00000000000E+00 0.  1.
</event>
<event>
 7    1  0.6485470E-006  0.9038693E+02  0.7818608E-02  0.1415027E+00
          2   -1    0    0  502    0  0.00000000000E+00  0.00000000000E+00  0.18831649902E+04  0.18831649902E+04  0.00000000000E+00 0. -1.
          1   -1    0    0  501    0 -0.00000000000E+00 -0.00000000000E+00 -0.48148334557E+02  0.48148334557E+02  0.00000000000E+00 0. -1.
         25    2    1    2    0    0 -0.33029929917E+02  0.93287821767E+02  0.64555416666E+03  0.66495086837E+03  0.12500352511E+03 0.  0.
          2    1    1    2  501    0 -0.16311417598E+01 -0.90145703936E+02  0.15018321575E+02  0.91402727226E+02  0.00000000000E+00 0. -1.
          1    1    1    2  502    0  0.34661071677E+02 -0.31421178311E+01  0.11744441674E+04  0.11749597292E+04  0.00000000000E+00 0. -1.
         22    1    3    3    0    0  0.18260980870E+02  0.27680232925E+02  0.33074709670E+02  0.46835831763E+02  0.00000000000E+00 0.  1.
         22    1    3    3    0    0 -0.51290910787E+02  0.65607588841E+02  0.61247945699E+03  0.61811503660E+03  0.00000000000E+00 0.  1.
</event>
<event>
 7    1  0.6485470E-006  0.1710908E+03  0.7818608E-02  0.1265301E+00
          2   -1    0    0  502    0  0.00000000000E+00  0.00000000000E+00  0.10973609875E+04  0.10973609875E+04  0.00000000000E+00 0. -1.
          1   -1    0    0  501    0 -0.00000000000E+00 -0.00000000000E+00 -0.12024705964E+04  0.12024705964E+04  0.00000000000E+00 0. -1.
         25    2    1    2    0    0 -0.49162647454E+02 -0.11814712112E+03 -0.14599718606E+03  0.23090146203E+03  0.12499839477E+03 0.  0.
          2    1    1    2  501    0  0.11297621915E+03  0.14022447344E+03 -0.10049293169E+04  0.10209355813E+04  0.00000000000E+00 0. -1.
          1    1    1    2  502    0 -0.63813571700E+02 -0.22077352313E+02  0.10458168940E+04  0.10479945406E+04  0.00000000000E+00 0. -1.
         22    1    3    3    0    0 -0.22530145567E+02 -0.55413641425E+02  0.10016461569E+02  0.60651534339E+02  0.00000000000E+00 0.  1.
         22    1    3    3    0    0 -0.26632501887E+02 -0.62733479698E+02 -0.15601364763E+03  0.17024992769E+03  0.00000000000E+00 0.  1.
</event>
<event>
 7    1  0.6485470E-006  0.2909322E+02  0.7818608E-02  0.1631795E+00
          2   -1    0    0  502    0  0.00000000000E+00  0.00000000000E+00  0.59338891293E+03  0.59338891293E+03  0.00000000000E+00 0. -1.
          1   -1    0    0  501    0 -0.00000000000E+00 -0.00000000000E+00 -0.50782791086E+03  0.50782791086E+03  0.00000000000E+00 0. -1.
         25    2    1    2    0    0  0.14845543305E+02  0.96723671822E+01 -0.43299755212E+03  0.45102723660E+03  0.12499897268E+03 0.  0.
          2    1    1    2  501    0  0.35626831772E+01 -0.32201292638E+02 -0.61441739290E+02  0.69460084120E+02  0.00000000000E+00 0. -1.
          1    1    1    2  502    0 -0.18408226482E+02  0.22528925455E+02  0.58000029348E+03  0.58072950306E+03  0.00000000000E+00 0. -1.
         22    1    3    3    0    0 -0.17023687345E+02  0.56861103065E+02 -0.13256792931E+03  0.14524891343E+03  0.00000000000E+00 0.  1.
         22    1    3    3    0    0  0.31869230649E+02 -0.47188735883E+02 -0.30042962281E+03  0.30577832317E+03  0.00000000000E+00 0.  1.
</event>
<event>
 7    1  0.8378439E-006  0.5628943E+02  0.7818608E-02  0.1418487E+00
          2   -1    0    0  502    0  0.00000000000E+00  0.00000000000E+00  0.15168142036E+04  0.15168142036E+04  0.00000000000E+00 0. -1.
          1   -1    0    0  501    0 -0.00000000000E+00 -0.00000000000E+00 -0.58910851712E+03  0.58910851712E+03  0.00000000000E+00 0. -1.
         25    2    1    2    0    0 -0.59204564316E+02 -0.11082002797E+02 -0.85170213513E+01  0.13901126032E+03  0.12499439836E+03 0.  0.
          2    1    1    2  501    0  0.19197600210E+02  0.50911749372E+02 -0.51335721380E+03  0.51623268304E+03  0.00000000000E+00 0. -1.
          1    1    1    2  502    0  0.40006964107E+02 -0.39829746575E+02  0.14495799216E+04  0.14506787774E+04  0.00000000000E+00 0. -1.
         22    1    3    3    0    0 -0.58704402978E+02 -0.55865624619E+02  0.23009435926E+02  0.84241373949E+02  0.00000000000E+00 0.  1.
         22    1    3    3    0    0 -0.50016133813E+00  0.44783621822E+02 -0.31526457278E+02  0.54769886373E+02  0.00000000000E+00 0.  1.
</event>
<event>
 7    1  0.6485470E-006  0.9825332E+02  0.7818608E-02  0.1409646E+00
          2   -1    0    0  502    0  0.00000000000E+00  0.00000000000E+00  0.63624028042E+02  0.63624028042E+02  0.00000000000E+00 0. -1.
          1   -1    0    0  501    0 -0.00000000000E+00 -0.00000000000E+00 -0.22805505396E+04  0.22805505396E+04  0.00000000000E+00 0. -1.
         25    2    1    2    0    0  0.61397211824E+02  0.23702794438E+02 -0.85164364555E+02  0.16494894645E+03  0.12499498335E+03 0.  0.
          2    1    1    2  501    0 -0.92919712397E+02 -0.34697517927E+02 -0.21420085008E+04  0.21443037118E+04  0.00000000000E+00 0. -1.
          1    1    1    2  502    0  0.31522500573E+02  0.10994723489E+02  0.10246353863E+02  0.34921909376E+02  0.00000000000E+00 0. -1.
         22    1    3    3    0    0  0.19396390367E+02  0.71192847168E+02 -0.65240404936E+02  0.98493410355E+02  0.00000000000E+00 0.  1.
         22    1    3    3    0    0  0.42000821457E+02 -0.47490052730E+02 -0.19923959619E+02  0.66455536099E+02  0.00000000000E+00 0.  1.
</event>
<event>
 7    1  0.6485470E-006  0.7955664E+02  0.7818608E-02  0.1367238E+00
          2   -1    0    0  502    0  0.00000000000E+00  0.00000000000E+00  0.38452013833E+03  0.38452013833E+03  0.00000000000E+00 0. -1.
          1   -1    0    0  501    0 -0.00000000000E+00 -0.00000000000E+00 -0.27455645490E+03  0.27455645490E+03  0.00000000000E+00 0. -1.
         25    2    1    2    0    0  0.92766955939E+02  0.74725671769E+02  0.12204636433E+03  0.21144810078E+03  0.12500140056E+03 0.  0.
          2    1    1    2  501    0 -0.20756020641E+02 -0.54181791914E+02 -0.21953581461E+03  0.22707367276E+03  0.00000000000E+00 0. -1.
          1    1    1    2  502    0 -0.72010935297E+02 -0.20543879856E+02  0.20745313371E+03  0.22055481969E+03  0.00000000000E+00 0. -1.
         22    1    3    3    0    0  0.61295806348E+01  0.59826212432E+01 -0.25587444600E+02  0.26982973092E+02  0.00000000000E+00 0.  1.
         22    1    3    3    0    0  0.86637375304E+02  0.68743050526E+02  0.14763380893E+03  0.18446512769E+03  0.00000000000E+00 0.  1.
</event>
<event>
 7    1  0.6485470E-006  0.6701463E+02  0.7818608E-02  0.1413770E+00
          2   -1    0    0  502    0  0.00000000000E+00  0.00000000000E+00  0.16374009934E+02  0.16374009934E+02  0.00000000000E+00 0. -1.
          1   -1    0    0  501    0 -0.00000000000E+00 -0.00000000000E+00 -0.21880518548E+04  0.21880518548E+04  0.00000000000E+00 0. -1.
         25    2    1    2    0    0 -0.96603020942E+01 -0.10963848336E+03 -0.10851669336E+04  0.10978743200E+04  0.12500732076E+03 0.  0.
          2    1    1    2  501    0  0.55677432190E+00  0.47397831391E+02 -0.99133282422E+03  0.99246543154E+03  0.00000000000E+00 0. -1.
          1    1    1    2  502    0  0.91035277723E+01  0.62240651971E+02 -0.95178087114E+02  0.11408611328E+03  0.00000000000E+00 0. -1.
         22    1    3    3    0    0  0.19856491208E+02 -0.12913885321E+03 -0.81636796322E+03  0.82675738583E+03  0.00000000000E+00 0.  1.
         22    1    3    3    0    0 -0.29516793303E+02  0.19500369849E+02 -0.26879897036E+03  0.27111693414E+03  0.00000000000E+00 0.  1.
</event>
<event>
 7    1  0.6485470E-006  0.5147612E+02  0.7818608E-02  0.1506463E+00
          2   -1    0    0  502    0  0.00000000000E+00  0.00000000000E+00  0.30754316355E+03  0.30754316355E+03  0.00000000000E+00 0. -1.
          1   -1    0    0  501    0 -0.00000000000E+00 -0.00000000000E+00 -0.53119080611E+03  0.53119080611E+03  0.00000000000E+00 0. -1.
         25    2    1    2    0    0 -0.11971132953E+02 -0.25640948566E+02  0.11838895629E+03  0.17447646312E+03  0.12500129978E+03 0.  0.
          2    1    1    2  501    0  0.91238045523E+01 -0.30101848204E+02 -0.49780153107E+03  0.49879427564E+03  0.00000000000E+00 0. -1.
          1    1    1    2  502    0  0.28473284011E+01  0.55742796770E+02  0.15576493222E+03  0.16546323090E+03  0.00000000000E+00 0. -1.
         22    1    3    3    0    0  0.29320677596E+02 -0.54503772503E+02  0.10576071240E+03  0.12253853125E+03  0.00000000000E+00 0. -1.
         22    1    3    3    0    0 -0.41291810549E+02  0.28862823937E+02  0.12628243882E+02  0.51937931877E+02  0.00000000000E+00 0. -1.
</event>
<event>
 7    1  0.6485470E-006  0.7501101E+02  0.7818608E-02  0.1405248E+00
          2   -1    0    0  502    0  0.00000000000E+00  0.00000000000E+00  0.50696910357E+03  0.50696910357E+03  0.00000000000E+00 0. -1.
          1   -1    0    0  501    0 -0.00000000000E+00 -0.00000000000E+00 -0.94504847238E+03  0.94504847238E+03  0.00000000000E+00 0. -1.
         25    2    1    2    0    0  0.41007878733E+01 -0.46685523595E+02 -0.55963405227E+03  0.57533491840E+03  0.12499456505E+03 0.  0.
          2    1    1    2  501    0 -0.41213371325E+02 -0.18710765804E+02 -0.37335744797E+03  0.37609097129E+03  0.00000000000E+00 0. -1.
          1    1    1    2  502    0  0.37112583452E+02  0.65396289399E+02  0.49491213143E+03  0.50059168626E+03  0.00000000000E+00 0. -1.
         22    1    3    3    0    0  0.25200334721E+02  0.35760449298E+02 -0.12465247012E+03  0.13210641510E+03  0.00000000000E+00 0.  1.
         22    1    3    3    0    0 -0.21099546847E+02 -0.82445972892E+02 -0.43498158216E+03  0.44322850330E+03  0.00000000000E+00 0.  1.
</event>
<event>
 7    1  0.6485470E-006  0.1272608E+03  0.7818608E-02  0.1396724E+00
          2   -1    0    0  502    0  0.00000000000E+00  0.00000000000E+00  0.10395549682E+04  0.10395549682E+04  0.00000000000E+00 0. -1.
          1   -1    0    0  501    0 -0.00000000000E+00 -0.00000000000E+00 -0.19190152947E+03  0.19190152947E+03  0.00000000000E+00 0. -1.
         25    2    1    2    0    0  0.25453519979E+02  0.10947934594E+03  0.24785199693E+03  0.29948062521E+03  0.12499769447E+03 0.  0.
          2    1    1    2  501    0 -0.19125469801E+02  0.21181774113E+02 -0.15922347986E+03  0.16176083484E+03  0.00000000000E+00 0. -1.
          1    1    1    2  502    0 -0.63280501781E+01 -0.13066112005E+03  0.75902492169E+03  0.77021503768E+03  0.00000000000E+00 0. -1.
         22    1    3    3    0    0  0.70108698913E+02  0.60293319728E+02  0.19033618921E+03  0.21160902388E+03  0.00000000000E+00 0.  1.
         22    1    3    3    0    0 -0.44655178935E+02  0.49186026214E+02  0.57515807727E+02  0.87871601322E+02  0.00000000000E+00 0.  1.
</event>
<event>
 7    1  0.6485470E-006  0.2305918E+02  0.7818608E-02  0.1696696E+00
          2   -1    0    0  502    0  0.00000000000E+00  0.00000000000E+00  0.36906212435E+03  0.36906212435E+03  0.00000000000E+00 0. -1.
          1   -1    0    0  501    0 -0.00000000000E+00 -0.00000000000E+00 -0.12737303367E+03  0.12737303367E+03  0.00000000000E+00 0. -1.
         25    2    1    2    0    0 -0.14663323318E+02  0.37887944742E+02 -0.63823497583E+02  0.14610737471E+03  0.12499366661E+03 0.  0.
          2    1    1    2  501    0 -0.21716221823E+01 -0.22207581874E+02 -0.16338347751E+02  0.27655636728E+02  0.00000000000E+00 0. -1.
          1    1    1    2  502    0  0.16834945500E+02 -0.15680362868E+02  0.32185093601E+03  0.32267214658E+03  0.00000000000E+00 0. -1.
         22    1    3    3    0    0 -0.31047430630E+02  0.63539967411E+02 -0.83835727170E+02  0.10967998704E+03  0.00000000000E+00 0. -1.
         22    1    3    3    0    0  0.16384107312E+02 -0.25652022668E+02  0.20012229587E+02  0.36427387670E+02  0.00000000000E+00 0. -1.
</event>
<event>
 7    1  0.6485470E-006  0.8606265E+02  0.7818608E-02  0.1326299E+00
          2   -1    0    0  502    0  0.00000000000E+00  0.00000000000E+00  0.95855464677E+03  0.95855464677E+03  0.00000000000E+00 0. -1.
          1   -1    0    0  501    0 -0.00000000000E+00 -0.00000000000E+00 -0.56624896314E+03  0.56624896314E+03  0.00000000000E+00 0. -1.
         25    2    1    2    0    0 -0.37929093176E+02  0.12627086965E+02  0.27209831737E+03  0.30209946928E+03  0.12501414156E+03 0.  0.
          2    1    1    2  501    0  0.15546802459E+02 -0.85458907346E+02 -0.54564047330E+03  0.55251104425E+03  0.00000000000E+00 0. -1.
          1    1    1    2  502    0  0.22382290717E+02  0.72831820380E+02  0.66584783956E+03  0.67019309639E+03  0.00000000000E+00 0. -1.
         22    1    3    3    0    0 -0.59530159340E+02 -0.29077673972E+02  0.77713990202E+02  0.10212157102E+03  0.00000000000E+00 0. -1.
         22    1    3    3    0    0  0.21601066164E+02  0.41704760937E+02  0.19438432717E+03  0.19997789826E+03  0.00000000000E+00 0. -1.
</event>
<event>
 7    1  0.6485470E-006  0.1455945E+03  0.7818608E-02  0.1320935E+00
          2   -1    0    0  502    0  0.00000000000E+00  0.00000000000E+00  0.24335632936E+04  0.24335632936E+04  0.00000000000E+00 0. -1.
          1   -1    0    0  501    0 -0.00000000000E+00 -0.00000000000E+00 -0.23174856881E+04  0.23174856881E+04  0.00000000000E+00 0. -1.
         25    2    1    2    0    0  0.15424410905E+03  0.98740315917E+02 -0.17961536040E+03  0.28535681309E+03  0.12500375162E+03 0.  0.
          2    1    1    2  501    0 -0.10707591707E+03 -0.96190663396E+02 -0.20822806002E+04  0.20872494805E+04  0.00000000000E+00 0. -1.
          1    1    1    2  502    0 -0.47168191981E+02 -0.25496525207E+01  0.23779735662E+04  0.23784426881E+04  0.00000000000E+00 0. -1.
         22    1    3    3    0    0  0.15253285515E+03  0.43984503289E+02 -0.16432351575E+03  0.22848003471E+03  0.00000000000E+00 0. -1.
         22    1    3    3    0    0  0.17112539011E+01  0.54755812628E+02 -0.15291844654E+02  0.56876778385E+02  0.00000000000E+00 0. -1.
</event>
<event>
 7    1  0.6485470E-006  0.7338459E+02  0.7818608E-02  0.1428460E+00
          2   -1    0    0  502    0  0.00000000000E+00  0.00000000000E+00  0.29800919071E+03  0.29800919071E+03  0.00000000000E+00 0. -1.
          1   -1    0    0  501    0 -0.00000000000E+00 -0.00000000000E+00 -0.15296011061E+04  0.15296011061E+04  0.00000000000E+00 0. -1.
         25    2    1    2    0    0 -0.10264037341E+03  0.27976142788E+02 -0.32104534765E+03  0.36057389261E+03  0.12500282385E+03 0.  0.
          2    1    1    2  501    0  0.38172458877E+02  0.61788082392E+01 -0.11836879576E+04  0.11843194228E+04  0.00000000000E+00 0. -1.
          1    1    1    2  502    0  0.64467914531E+02 -0.34154951027E+02  0.27314138988E+03  0.28271698136E+03  0.00000000000E+00 0. -1.
         22    1    3    3    0    0 -0.34945825087E+02 -0.47912189137E+02 -0.15381116307E+03  0.16484739138E+03  0.00000000000E+00 0. -1.
         22    1    3    3    0    0 -0.67694548322E+02  0.75888331926E+02 -0.16723418457E+03  0.19572650123E+03  0.00000000000E+00 0. -1.
</event>
<event>
 7    1  0.6485470E-006  0.9360837E+02  0.7818608E-02  0.1369408E+00
          2   -1    0    0  502    0  0.00000000000E+00  0.00000000000E+00  0.57448307975E+03  0.57448307975E+03  0.00000000000E+00 0. -1.
          1   -1    0    0  501    0 -0.00000000000E+00 -0.00000000000E+00 -0.22033869945E+04  0.22033869945E+04  0.00000000000E+00 0. -1.
         25    2    1    2    0    0  0.13586281555E+03 -0.10034924189E+02 -0.19981035578E+03  0.27222904143E+03  0.12500027347E+03 0.  0.
          2    1    1    2  501    0 -0.43597432567E+02  0.21092677628E+02 -0.19630558050E+04  0.19636531595E+04  0.00000000000E+00 0. -1.
          1    1    1    2  502    0 -0.92265382985E+02 -0.11057753439E+02  0.53396224596E+03  0.54198787341E+03  0.00000000000E+00 0. -1.
         22    1    3    3    0    0  0.44533677880E+02 -0.85806991076E+01  0.72392021199E+01  0.45926930118E+02  0.00000000000E+00 0.  1.
         22    1    3    3    0    0  0.91329137672E+02 -0.14542250818E+01 -0.20704955790E+03  0.22630211131E+03  0.00000000000E+00 0.  1.
</event>
<event>
 7    1  0.6485470E-006  0.3532835E+02  0.7818608E-02  0.1595806E+00
          2   -1    0    0  502    0  0.00000000000E+00  0.00000000000E+00  0.25002808230E+04  0.25002808230E+04  0.00000000000E+00 0. -1.
          1   -1    0    0  501    0 -0.00000000000E+00 -0.00000000000E+00 -0.94092640150E+03  0.94092640150E+03  0.00000000000E+00 0. -1.
         25    2    1    2    0    0  0.40192930725E+02  0.37844911517E+02  0.86191341952E+03  0.87267864685E+03  0.12500227565E+03 0.  0.
          2    1    1    2  501    0 -0.80810214068E+01 -0.24532212463E+02 -0.93518045934E+03  0.93553707777E+03  0.00000000000E+00 0. -1.
          1    1    1    2  502    0 -0.32111909318E+02 -0.13312699054E+02  0.16326214613E+04  0.16329914999E+04  0.00000000000E+00 0. -1.
         22    1    3    3    0    0  0.25378113769E+02  0.48645046098E+01  0.28457116099E+02  0.38438516103E+02  0.00000000000E+00 0.  1.
         22    1    3    3    0    0  0.14814816956E+02  0.32980406908E+02  0.83345630342E+03  0.83424013075E+03  0.00000000000E+00 0.  1.
</event>
<event>
 7    1  0.6485470E-006  0.2545948E+02  0.7818608E-02  0.1688731E+00
          2   -1    0    0  502    0  0.00000000000E+00  0.00000000000E+00  0.11164522984E+04  0.11164522984E+04  0.00000000000E+00 0. -1.
          1   -1    0    0  501    0 -0.00000000000E+00 -0.00000000000E+00 -0.10444011639E+04  0.10444011639E+04  0.00000000000E+00 0. -1.
         25    2    1    2    0    0 -0.31577606368E+02  0.17049348822E+02  0.65944552548E+03  0.67214901461E+03  0.12501228437E+03 0.  0.
          2    1    1    2  501    0  0.65368002929E+01 -0.20052154335E+02 -0.10375893181E+04  0.10378036480E+04  0.00000000000E+00 0. -1.
          1    1    1    2  502    0  0.25040806075E+02  0.30028055130E+01  0.45019492716E+03  0.45090079979E+03  0.00000000000E+00 0. -1.
         22    1    3    3    0    0 -0.46748590559E+02  0.48551164268E+02  0.59521158204E+03  0.59901542022E+03  0.00000000000E+00 0. -1.
         22    1    3    3    0    0  0.15170984191E+02 -0.31501815446E+02  0.64233943441E+02  0.73133594385E+02  0.00000000000E+00 0. -1.
</event>
<event>
 7    1  0.6485470E-006  0.6251522E+02  0.7818608E-02  0.1423310E+00
          2   -1    0    0  502    0  0.00000000000E+00  0.00000000000E+00  0.13416966666E+03  0.13416966666E+03  0.00000000000E+00 0. -1.
          1   -1    0    0  501    0 -0.00000000000E+00 -0.00000000000E+00 -0.11823863242E+04  0.11823863242E+04  0.00000000000E+00 0. -1.
         25    2    1    2    0    0 -0.53624558020E+02 -0.28746523059E+02 -0.14565024287E+03  0.20135000494E+03  0.12500350168E+03 0.  0.
          2    1    1    2  501    0  0.34783014815E+02 -0.31921810895E+02 -0.99878917725E+03  0.99990433579E+03  0.00000000000E+00 0. -1.
          1    1    1    2  502    0  0.18841543205E+02  0.60668333953E+02  0.96222762558E+02  0.11530165016E+03  0.00000000000E+00 0. -1.
         22    1    3    3    0    0  0.27215233431E+02  0.19903974246E+02 -0.78820452224E+02  0.85729229615E+02  0.00000000000E+00 0.  1.
         22    1    3    3    0    0 -0.80839791451E+02 -0.48650497305E+02 -0.66829790648E+02  0.11562077533E+03  0.00000000000E+00 0.  1.
</event>
<event>
 7    1  0.6485470E-006  0.8192374E+02  0.7818608E-02  0.1326044E+00
          2   -1    0    0  502    0  0.00000000000E+00  0.00000000000E+00  0.21403310606E+03  0.21403310606E+03  0.00000000000E+00 0. -1.
          1   -1    0    0  501    0 -0.00000000000E+00 -0.00000000000E+00 -0.85233332133E+03  0.85233332133E+03  0.00000000000E+00 0. -1.
         25    2    1    2    0    0 -0.26405359672E+02 -0.74540518458E+02 -0.48709427119E+03  0.50905744043E+03  0.12500046687E+03 0.  0.
          2    1    1    2  501    0 -0.53538129362E+02  0.81241819919E+02 -0.33921847601E+03  0.35289621572E+03  0.00000000000E+00 0. -1.
          1    1    1    2  502    0  0.79943489034E+02 -0.67013014612E+01  0.18801253194E+03  0.20441277124E+03  0.00000000000E+00 0. -1.
         22    1    3    3    0    0 -0.41930521526E+02 -0.98560942169E+01 -0.38371518146E+03  0.38612517622E+03  0.00000000000E+00 0. -1.
         22    1    3    3    0    0  0.15525161854E+02 -0.64684424241E+02 -0.10337908973E+03  0.12293226421E+03  0.00000000000E+00 0. -1.
</event>
<event>
 7    1  0.6485470E-006  0.1276656E+03  0.7818608E-02  0.1333234E+00
          2   -1    0    0  502    0  0.00000000000E+00  0.00000000000E+00  0.24949616285E+04  0.24949616285E+04  0.00000000000E+00 0. -1.
          1   -1    0    0  501    0 -0.00000000000E+00 -0.00000000000E+00 -0.43589853487E+03  0.43589853487E+03  0.00000000000E+00 0. -1.
         25    2    1    2    0    0  0.16130348030E+03  0.42822298579E+02  0.71638183226E+03  0.74611060997E+03  0.12500220282E+03 0.  0.
          2    1    1    2  501    0 -0.48194228633E+02  0.35306617252E+01 -0.41752088495E+03  0.42030802826E+03  0.00000000000E+00 0. -1.
          1    1    1    2  502    0 -0.11310925167E+03 -0.46352960304E+02  0.17602021463E+04  0.17644415251E+04  0.00000000000E+00 0. -1.
         22    1    3    3    0    0  0.78678547129E+02  0.16039403436E+02  0.57205882640E+03  0.57766675264E+03  0.00000000000E+00 0. -1.
         22    1    3    3    0    0  0.82624933169E+02  0.26782895144E+02  0.14432300586E+03  0.16844385733E+03  0.00000000000E+00 0. -1.
</event>
<event>
 7    1  0.6485470E-006  0.1121038E+03  0.7818608E-02  0.1416441E+00
          2   -1    0    0  502    0  0.00000000000E+00  0.00000000000E+00  0.36685475750E+04  0.36685475750E+04  0.00000000000E+00 0. -1.
          1   -1    0    0  501    0 -0.00000000000E+00 -0.00000000000E+00 -0.20078794194E+03  0.20078794194E+03  0.00000000000E+00 0. -1.
         25    2    1    2    0    0  0.86591434288E+02 -0.12369363590E+02  0.24618372988E+03  0.28962446625E+03  0.12499929977E+03 0.  0.
          2    1    1    2  501    0  0.26523550014E+02  0.81784419508E+01 -0.17704411135E+03  0.17920659302E+03  0.00000000000E+00 0. -1.
          1    1    1    2  502    0 -0.11311498430E+03  0.41909216395E+01  0.33986200145E+04  0.34005044577E+04  0.00000000000E+00 0. -1.
         22    1    3    3    0    0  0.21708561800E+02  0.88137187054E+01 -0.92797779786E+01  0.25200348652E+02  0.00000000000E+00 0. -1.
         22    1    3    3    0    0  0.64882872488E+02 -0.21183082296E+02  0.25546350786E+03  0.26442411760E+03  0.00000000000E+00 0. -1.
</event>
<event>
 7    1  0.6485470E-006  0.1405428E+03  0.7818608E-02  0.1257439E+00
          2   -1    0    0  502    0  0.00000000000E+00  0.00000000000E+00  0.88548208591E+03  0.88548208591E+03  0.00000000000E+00 0. -1.
          1   -1    0    0  501    0 -0.00000000000E+00 -0.00000000000E+00 -0.25911106914E+04  0.25911106914E+04  0.00000000000E+00 0. -1.
         25    2    1    2    0    0 -0.53241569789E+02  0.16708766127E+03 -0.29428399994E+03  0.36466585491E+03  0.12500064724E+03 0.  0.
          2    1    1    2  501    0 -0.50753539454E+02 -0.72853616946E+02 -0.22549654482E+04  0.22567128182E+04  0.00000000000E+00 0. -1.
          1    1    1    2  502    0  0.10399510924E+03 -0.94234044326E+02  0.84362084266E+03  0.85521410420E+03  0.00000000000E+00 0. -1.
         22    1    3    3    0    0  0.56588413067E+01 -0.14934006169E+02 -0.31186991741E+01  0.16271856370E+02  0.00000000000E+00 0. -1.
         22    1    3    3    0    0 -0.58900411095E+02  0.18202166744E+03 -0.29116530077E+03  0.34839399854E+03  0.00000000000E+00 0. -1.
</event>
<event>
 7    1  0.6485470E-006  0.8537091E+02  0.7818608E-02  0.1368040E+00
          2   -1    0    0  502    0  0.00000000000E+00  0.00000000000E+00  0.14883666240E+04  0.14883666240E+04  0.00000000000E+00 0. -1.
          1   -1    0    0  501    0 -0.00000000000E+00 -0.00000000000E+00 -0.88809519049E+02  0.88809519049E+02  0.00000000000E+00 0. -1.
         25    2    1    2    0    0 -0.60763045457E+02  0.53354770329E+02  0.17842726443E+03  0.23237895343E+03  0.12499924038E+03 0.  0.
          2    1    1    2  501    0 -0.25499445365E+02 -0.47271862666E+02 -0.48414786595E+02  0.72310734161E+02  0.00000000000E+00 0. -1.
          1    1    1    2  502    0  0.86262490822E+02 -0.60829076626E+01  0.12695446272E+04  0.12724864555E+04  0.00000000000E+00 0. -1.
         22    1    3    3    0    0  0.73076473091E+01  0.75490337581E+02  0.75561450080E+02  0.10705944851E+03  0.00000000000E+00 0. -1.
         22    1    3    3    0    0 -0.68070692766E+02 -0.22135567252E+02  0.10286581435E+03  0.12531950492E+03  0.00000000000E+00 0. -1.
</event>
<event>
 7    1  0.6485470E-006  0.6232243E+02  0.7818608E-02  0.1426614E+00
          2   -1    0    0  502    0  0.00000000000E+00  0.00000000000E+00  0.18743865474E+04  0.18743865474E+04  0.00000000000E+00 0. -1.
          1   -1    0    0  501    0 -0.00000000000E+00 -0.00000000000E+00 -0.89450201080E+03  0.89450201080E+03  0.00000000000E+00 0. -1.
         25    2    1    2    0    0  0.60676547126E+02  0.41948956747E+01  0.14434332381E+03  0.20039901116E+03  0.12500211207E+03 0.  0.
          2    1    1    2  501    0 -0.12590259871E+02 -0.44427470197E+02 -0.86528092384E+03  0.86651219951E+03  0.00000000000E+00 0. -1.
          1    1    1    2  502    0 -0.48086287254E+02  0.40232574522E+02  0.17008221366E+04  0.17019773475E+04  0.00000000000E+00 0. -1.
         22    1    3    3    0    0  0.63689774909E+02 -0.51240141255E+02  0.10119581208E+03  0.13008663224E+03  0.00000000000E+00 0. -1.
         22    1    3    3    0    0 -0.30132277834E+01  0.55435036929E+02  0.43147511728E+02  0.70312378920E+02  0.00000000000E+00 0. -1.
</event>
<event>
 7    1  0.6485470E-006  0.3725832E+02  0.7818608E-02  0.1544210E+00
          2   -1    0    0  502    0  0.00000000000E+00  0.00000000000E+00  0.22105882710E+04  0.22105882710E+04  0.00000000000E+00 0. -1.
          1   -1    0    0  501    0 -0.00000000000E+00 -0.00000000000E+00 -0.38965589063E+03  0.38965589063E+03  0.00000000000E+00 0. -1.
         25    2    1    2    0    0  0.18802518299E+02  0.56009819660E+02  0.10841054170E+04  0.10928869160E+04  0.12500648505E+03 0.  0.
          2    1    1    2  501    0  0.89762215692E+01 -0.32610757326E+02 -0.38422810170E+03  0.38571397198E+03  0.00000000000E+00 0. -1.
          1    1    1    2  502    0 -0.27778739868E+02 -0.23399062334E+02  0.11210550651E+04  0.11216432737E+04  0.00000000000E+00 0. -1.
         22    1    3    3    0    0 -0.38566799459E+02 -0.15324011923E+02  0.49199086522E+03  0.49373802246E+03  0.00000000000E+00 0. -1.
         22    1    3    3    0    0  0.57369317758E+02  0.71333831583E+02  0.59211455182E+03  0.59914889354E+03  0.00000000000E+00 0. -1.
</event>
<event>
 7    1  0.6485470E-006  0.1788392E+03  0.7818608E-02  0.1369577E+00
          2   -1    0    0  502    0  0.00000000000E+00  0.00000000000E+00  0.88747465639E+03  0.88747465639E+03  0.00000000000E+00 0. -1.
          1   -1    0    0  501    0 -0.00000000000E+00 -0.00000000000E+00 -0.12353928568E+03  0.12353928568E+03  0.00000000000E+00 0. -1.
         25    2    1    2    0    0 -0.10376022595E+03 -0.13890263318E+03  0.25534845231E+03  0.33299800258E+03  0.12499884650E+03 0.  0.
          2    1    1    2  501    0  0.87638338294E+02  0.15841979820E+03  0.12707166595E+02  0.18149044846E+03  0.00000000000E+00 0. -1.
          1    1    1    2  502    0  0.16121887659E+02 -0.19517165017E+02  0.49587975180E+03  0.49652549103E+03  0.00000000000E+00 0. -1.
         22    1    3    3    0    0 -0.11632959880E+03 -0.15451342758E+03  0.22602787641E+03  0.29748205959E+03  0.00000000000E+00 0. -1.
         22    1    3    3    0    0  0.12569372845E+02  0.15610794397E+02  0.29320575899E+02  0.35515942990E+02  0.00000000000E+00 0. -1.
</event>
<event>
 7    1  0.6485470E-006  0.7132550E+02  0.7818608E-02  0.1370290E+00
          2   -1    0    0  502    0  0.00000000000E+00  0.00000000000E+00  0.13397713346E+04  0.13397713346E+04  0.00000000000E+00 0. -1.
          1   -1    0    0  501    0 -0.00000000000E+00 -0.00000000000E+00 -0.13625713586E+03  0.13625713586E+03  0.00000000000E+00 0. -1.
         25    2    1    2    0    0 -0.13138461830E+02  0.44013869909E+02  0.16188296632E+02  0.13415866934E+03  0.12500659057E+03 0.  0.
          2    1    1    2  501    0  0.75527648328E+02 -0.34573140882E+02 -0.53913722532E+02  0.99027355865E+02  0.00000000000E+00 0. -1.
          1    1    1    2  502    0 -0.62389186497E+02 -0.94407290276E+01  0.12412396246E+04  0.12428424452E+04  0.00000000000E+00 0. -1.
         22    1    3    3    0    0  0.35605189869E+01  0.26972360983E+02 -0.53760509535E+02  0.60252617685E+02  0.00000000000E+00 0. -1.
         22    1    3    3    0    0 -0.16698980817E+02  0.17041508926E+02  0.69948806166E+02  0.73906051653E+02  0.00000000000E+00 0. -1.
</event>
<event>
 7    1  0.6485470E-006  0.4254556E+02  0.7818608E-02  0.1578321E+00
          2   -1    0    0  502    0  0.00000000000E+00  0.00000000000E+00  0.34166088665E+03  0.34166088665E+03  0.00000000000E+00 0. -1.
          1   -1    0    0  501    0 -0.00000000000E+00 -0.00000000000E+00 -0.25552984213E+04  0.25552984213E+04  0.00000000000E+00 0. -1.
         25    2    1    2    0    0 -0.37244822362E+02  0.14736368035E+02 -0.78905689264E+03  0.79989990976E+03  0.12499899389E+03 0.  0.
          2    1    1    2  501    0 -0.44130865086E+01 -0.23457439580E+02 -0.17593919075E+04  0.17595538102E+04  0.00000000000E+00 0. -1.
          1    1    1    2  502    0  0.41657908871E+02  0.87210715450E+01  0.33481126546E+03  0.33750558802E+03  0.00000000000E+00 0. -1.
         22    1    3    3    0    0  0.39364985159E+02 -0.18427164767E+02 -0.37507580280E+03  0.37758577874E+03  0.00000000000E+00 0.  1.
         22    1    3    3    0    0 -0.76609807521E+02  0.33163532802E+02 -0.41398108984E+03  0.42231413103E+03  0.00000000000E+00 0.  1.
</event>
<event>
 7    1  0.6485470E-006  0.4760538E+02  0.7818608E-02  0.1481196E+00
          2   -1    0    0  502    0  0.00000000000E+00  0.00000000000E+00  0.39167313764E+02  0.39167313764E+02  0.00000000000E+00 0. -1.
          1   -1    0    0  501    0 -0.00000000000E+00 -0.00000000000E+00 -0.76832747976E+03  0.76832747976E+03  0.00000000000E+00 0. -1.
         25    2    1    2    0    0  0.82658315472E+02  0.14684879961E+02 -0.34997001924E+03  0.38098887821E+03  0.12500187252E+03 0.  0.
          2    1    1    2  501    0 -0.40463551937E+02  0.21525466142E+01 -0.37891447819E+03  0.38107494574E+03  0.00000000000E+00 0. -1.
          1    1    1    2  502    0 -0.42194763535E+02 -0.16837426575E+02 -0.27566856989E+00  0.45430969576E+02  0.00000000000E+00 0. -1.
         22    1    3    3    0    0 -0.23189513062E+02  0.16317644023E+02 -0.20664032494E+02  0.35085912578E+02  0.00000000000E+00 0.  1.
         22    1    3    3    0    0  0.10584782853E+03 -0.16327640624E+01 -0.32930598675E+03  0.34590296563E+03  0.00000000000E+00 0.  1.
</event>
<event>
 7    1  0.6485470E-006  0.1763951E+03  0.7818608E-02  0.1269200E+00
          2   -1    0    0  502    0  0.00000000000E+00  0.00000000000E+00  0.12471540834E+04  0.12471540834E+04  0.00000000000E+00 0. -1.
          1   -1    0    0  501    0 -0.00000000000E+00 -0.00000000000E+00 -0.16313516657E+04  0.16313516657E+04  0.00000000000E+00 0. -1.
         25    2    1    2    0    0  0.72638721622E+02  0.14541711602E+03  0.24291200225E+03  0.31788882640E+03  0.12499817440E+03 0.  0.
          2    1    1    2  501    0 -0.52524414568E+02  0.34896909856E+02 -0.15847181990E+04  0.15859723764E+04  0.00000000000E+00 0. -1.
          1    1    1    2  502    0 -0.20114307054E+02 -0.18031402587E+03  0.95760861440E+03  0.97464454631E+03  0.00000000000E+00 0. -1.
         22    1    3    3    0    0  0.65269098738E+02  0.11279536138E+03  0.25158958423E+03  0.28333755079E+03  0.00000000000E+00 0.  1.
         22    1    3    3    0    0  0.73696228840E+01  0.32621754637E+02 -0.86775819742E+01  0.34551275606E+02  0.00000000000E+00 0.  1.
</event>
<event>
 7    1  0.6485470E-006  0.6398917E+02  0.7818608E-02  0.1411546E+00
          2   -1    0    0  502    0  0.00000000000E+00  0.00000000000E+00  0.24716279886E+04  0.24716279886E+04  0.00000000000E+00 0. -1.
          1   -1    0    0  501    0 -0.00000000000E+00 -0.00000000000E+00 -0.40090331614E+03  0.40090331614E+03  0.00000000000E+00 0. -1.
         25    2    1    2    0    0  0.30323695431E+02  0.37260861710E+02  0.20100921581E+04  0.20145487025E+04  0.12501236858E+03 0.  0.
          2    1    1    2  501    0 -0.56847607793E+02  0.29376241203E+02 -0.39327341057E+03  0.39844521521E+03  0.00000000000E+00 0. -1.
          1    1    1    2  502    0  0.26523912362E+02 -0.66637102913E+02  0.45390592491E+03  0.45953738703E+03  0.00000000000E+00 0. -1.
         22    1    3    3    0    0 -0.36477247487E+02 -0.99186418756E+01  0.11386951345E+04  0.11393224207E+04  0.00000000000E+00 0. -1.
         22    1    3    3    0    0  0.66800942918E+02  0.47179503586E+02  0.87139702363E+03  0.87522628178E+03  0.00000000000E+00 0. -1.
</event>
<event>
 7    1  0.6485470E-006  0.3440037E+02  0.7818608E-02  0.1572045E+00
          2   -1    0    0  502    0  0.00000000000E+00  0.00000000000E+00  0.14425750732E+03  0.14425750732E+03  0.00000000000E+00 0. -1.
          1   -1    0    0  501    0 -0.00000000000E+00 -0.00000000000E+00 -0.59757216942E+03  0.59757216942E+03  0.00000000000E+00 0. -1.
         25    2    1    2    0    0 -0.33509777691E+02 -0.53797533973E+02 -0.75730651570E+02  0.15930460401E+03  0.12500298160E+03 0.  0.
          2    1    1    2  501    0  0.20843721123E+02  0.22531989190E+02 -0.47677127129E+03  0.47775830330E+03  0.00000000000E+00 0. -1.
          1    1    1    2  502    0  0.12666056568E+02  0.31265544783E+02  0.99187260760E+02  0.10476676943E+03  0.00000000000E+00 0. -1.
         22    1    3    3    0    0  0.47178720881E+02 -0.11576385170E+02 -0.19975192947E+02  0.52524782064E+02  0.00000000000E+00 0.  1.
         22    1    3    3    0    0 -0.80688498572E+02 -0.42221148803E+02 -0.55755458623E+02  0.10677982194E+03  0.00000000000E+00 0.  1.
</event>
<event>
 7    1  0.6485470E-006  0.1282920E+03  0.7818608E-02  0.1325682E+00
          2   -1    0    0  502    0  0.00000000000E+00  0.00000000000E+00  0.12509722410E+04  0.12509722410E+04  0.00000000000E+00 0. -1.
          1   -1    0    0  501    0 -0.00000000000E+00 -0.00000000000E+00 -0.19848418937E+03  0.19848418937E+03  0.00000000000E+00 0. -1.
         25    2    1    2    0    0 -0.15125810413E+03  0.23705138058E+02 -0.21632608999E+02  0.19883249072E+03  0.12500176782E+03 0.  0.
          2    1    1    2  501    0  0.11780457925E+03  0.15308916533E+02 -0.47417452241E+02  0.12790893868E+03  0.00000000000E+00 0. -1.
          1    1    1    2  502    0  0.33453524877E+02 -0.39014054591E+02  0.11215381129E+04  0.11227150010E+04  0.00000000000E+00 0. -1.
         22    1    3    3    0    0 -0.35883688885E+02  0.55063510127E+02  0.25252368736E+02  0.70408177098E+02  0.00000000000E+00 0.  1.
         22    1    3    3    0    0 -0.11537441524E+03 -0.31358372070E+02 -0.46884977735E+02  0.12842431362E+03  0.00000000000E+00 0.  1.
</event>
<event>
 7    1  0.6485470E-006  0.5716030E+02  0.7818608E-02  0.1465030E+00
          2   -1    0    0  502    0  0.00000000000E+00  0.00000000000E+00  0.98751001397E+03  0.98751001397E+03  0.00000000000E+00 0. -1.
          1   -1    0    0  501    0 -0.00000000000E+00 -0.00000000000E+00 -0.37526011194E+04  0.37526011194E+04  0.00000000000E+00 0. -1.
         25    2    1    2    0    0  0.66315089931E+02 -0.53041617133E+01 -0.17496324041E+03  0.22508464943E+03  0.12500055452E+03 0.  0.
          2    1    1    2  501    0 -0.49498632730E+02 -0.28628609518E+02 -0.35519744210E+04  0.35524346580E+04  0.00000000000E+00 0. -1.
          1    1    1    2  502    0 -0.16816457202E+02  0.33932771232E+02  0.96184655596E+03  0.96259182596E+03  0.00000000000E+00 0. -1.
         22    1    3    3    0    0 -0.57586437801E+01 -0.53902930514E+02 -0.76189889874E+02  0.93507150610E+02  0.00000000000E+00 0. -1.
         22    1    3    3    0    0  0.72073733711E+02  0.48598768801E+02 -0.98773350535E+02  0.13157749882E+03  0.00000000000E+00 0. -1.
</event>
<event>
 7    1  0.6485470E-006  0.8529170E+02  0.7818608E-02  0.1360273E+00
          2   -1    0    0  502    0  0.00000000000E+00  0.00000000000E+00  0.95059110887E+03  0.95059110887E+03  0.00000000000E+00 0. -1.
          1   -1    0    0  501    0 -0.00000000000E+00 -0.00000000000E+00 -0.28209396112E+02  0.28209396112E+02  0.00000000000E+00 0. -1.
         25    2    1    2    0    0 -0.98236485123E+01 -0.41595908292E+02  0.48753961773E+03  0.50512037733E+03  0.12499997232E+03 0.  0.
          2    1    1    2  501    0  0.45056712586E+02  0.86863349690E+02  0.12589024856E+03  0.15944812182E+03  0.00000000000E+00 0. -1.
          1    1    1    2  502    0 -0.35233064074E+02 -0.45267441399E+02  0.30895184646E+03  0.31423200583E+03  0.00000000000E+00 0. -1.
         22    1    3    3    0    0  0.55261213248E+02 -0.17898560907E+02  0.29078098699E+03  0.29652612460E+03  0.00000000000E+00 0. -1.
         22    1    3    3    0    0 -0.65084861760E+02 -0.23697347385E+02  0.19675863074E+03  0.20859425273E+03  0.00000000000E+00 0. -1.
</event>
<event>
 7    1  0.6485470E-006  0.1155127E+03  0.7818608E-02  0.1256904E+00
          2   -1    0    0  502    0  0.00000000000E+00  0.00000000000E+00  0.90554955756E+03  0.90554955756E+03  0.00000000000E+00 0. -1.
          1   -1    0    0  501    0 -0.00000000000E+00 -0.00000000000E+00 -0.69760475959E+03  0.69760475959E+03  0.00000000000E+00 0. -1.
         25    2    1    2    0    0 -0.14805790052E+03 -0.64649374450E+02  0.72361212871E+02  0.21670600829E+03  0.12499866151E+03 0.  0.
          2    1    1    2  501    0  0.10084556355E+03 -0.40302136521E+02 -0.61630673643E+03  0.62580195211E+03  0.00000000000E+00 0. -1.
          1    1    1    2  502    0  0.47212336971E+02  0.10495151097E+03  0.75189032153E+03  0.76064635674E+03  0.00000000000E+00 0. -1.
         22    1    3    3    0    0 -0.12761947906E+03 -0.32124446536E+02 -0.35287448085E+01  0.13164787709E+03  0.00000000000E+00 0. -1.
         22    1    3    3    0    0 -0.20438421453E+02 -0.32524927914E+02  0.75889957679E+02  0.85058131204E+02  0.00000000000E+00 0. -1.
</event>
<event>
 7    1  0.6485470E-006  0.7583918E+02  0.7818608E-02  0.1422104E+00
          2   -1    0    0  502    0  0.00000000000E+00  0.00000000000E+00  0.63467112652E+03  0.63467112652E+03  0.00000000000E+00 0. -1.
          1   -1    0    0  501    0 -0.00000000000E+00 -0.00000000000E+00 -0.15005654306E+03  0.15005654306E+03  0.00000000000E+00 0. -1.
         25    2    1    2    0    0 -0.10223463060E+03 -0.23182122714E+02 -0.27139834255E+02  0.16538014110E+03  0.12499875983E+03 0.  0.
          2    1    1    2  501    0  0.62957013690E+02  0.23289629094E+02 -0.31868559784E+02  0.74307452512E+02  0.00000000000E+00 0. -1.
          1    1    1    2  502    0  0.39277616909E+02 -0.10750637950E+00  0.54362297750E+03  0.54504007597E+03  0.00000000000E+00 0. -1.
         22    1    3    3    0    0 -0.15302065334E+02 -0.64713697401E+02 -0.61975239913E+01  0.66786414325E+02  0.00000000000E+00 0.  1.
         22    1    3    3    0    0 -0.86932565266E+02  0.41531574686E+02 -0.20942310264E+02  0.98593726772E+02  0.00000000000E+00 0.  1.
</event>
<event>
 7    1  0.6485470E-006  0.5853830E+02  0.7818608E-02  0.1516256E+00
          2   -1    0    0  502    0  0.00000000000E+00  0.00000000000E+00  0.10526322561E+04  0.10526322561E+04  0.00000000000E+00 0. -1.
          1   -1    0    0  501    0 -0.00000000000E+00 -0.00000000000E+00 -0.28040874855E+03  0.28040874855E+03  0.00000000000E+00 0. -1.
         25    2    1    2    0    0  0.19235467032E+02 -0.48241959256E+02  0.20678526205E+03  0.24714863691E+03  0.12500005721E+03 0.  0.
          2    1    1    2  501    0 -0.43554279880E+02  0.39370713180E+02 -0.25670919256E+03  0.26333749809E+03  0.00000000000E+00 0. -1.
          1    1    1    2  502    0  0.24318812849E+02  0.88712460760E+01  0.82214743809E+03  0.82255486967E+03  0.00000000000E+00 0. -1.
         22    1    3    3    0    0  0.59772452796E+02 -0.57153714631E+02  0.85471974111E+02  0.11893170968E+03  0.00000000000E+00 0.  1.
         22    1    3    3    0    0 -0.40536985764E+02  0.89117553749E+01  0.12131328794E+03  0.12821692723E+03  0.00000000000E+00 0.  1.
</event>
<event>
 7    1  0.6485470E-006  0.6066978E+02  0.7818608E-02  0.1442398E+00
          2   -1    0    0  502    0  0.00000000000E+00  0.00000000000E+00  0.45716145861E+02  0.45716145861E+02  0.00000000000E+00 0. -1.
          1   -1    0    0  501    0 -0.00000000000E+00 -0.00000000000E+00 -0.28662649844E+04  0.28662649844E+04  0.00000000000E+00 0. -1.
         25    2    1    2    0    0  0.58408621674E+01 -0.98488920003E+02 -0.32333507345E+03  0.36042493835E+03  0.12500553360E+03 0.  0.
          2    1    1    2  501    0 -0.86250762478E+01  0.41225401049E+02 -0.24937657911E+04  0.24941214378E+04  0.00000000000E+00 0. -1.
          1    1    1    2  502    0  0.27842140803E+01  0.57263518953E+02 -0.34479739529E+01  0.57434754072E+02  0.00000000000E+00 0. -1.
         22    1    3    3    0    0  0.57805349833E+01 -0.90832974773E+02 -0.93579441985E+02  0.13054177819E+03  0.00000000000E+00 0. -1.
         22    1    3    3    0    0  0.60327184158E-01 -0.76559452296E+01 -0.22975563147E+03  0.22988316016E+03  0.00000000000E+00 0. -1.
</event>
<event>
 7    1  0.6485470E-006  0.4430814E+02  0.7818608E-02  0.1480795E+00
          2   -1    0    0  502    0  0.00000000000E+00  0.00000000000E+00  0.11794900466E+04  0.11794900466E+04  0.00000000000E+00 0. -1.
          1   -1    0    0  501    0 -0.00000000000E+00 -0.00000000000E+00 -0.11864848142E+03  0.11864848142E+03  0.00000000000E+00 0. -1.
         25    2    1    2    0    0  0.22222990488E+02 -0.12203205504E+02 -0.15641976414E+02  0.12849906167E+03  0.12499823156E+03 0.  0.
          2    1    1    2  501    0 -0.30097801775E+02 -0.31626845865E+02 -0.35802723856E+02  0.56462111956E+02  0.00000000000E+00 0. -1.
          1    1    1    2  502    0  0.78748112869E+01  0.43830051369E+02  0.11122862654E+04  0.11131773544E+04  0.00000000000E+00 0. -1.
         22    1    3    3    0    0 -0.30570130491E+02  0.41604838813E+02 -0.60436004157E+00  0.51631974027E+02  0.00000000000E+00 0. -1.
         22    1    3    3    0    0  0.52793120979E+02 -0.53808044317E+02 -0.15037616373E+02  0.76867087639E+02  0.00000000000E+00 0. -1.
</event>
<event>
 7    1  0.6485470E-006  0.6675728E+02  0.7818608E-02  0.1467506E+00
          2   -1    0    0  502    0  0.00000000000E+00  0.00000000000E+00  0.24150576741E+03  0.24150576741E+03  0.00000000000E+00 0. -1.
          1   -1    0    0  501    0 -0.00000000000E+00 -0.00000000000E+00 -0.64557488292E+03  0.64557488292E+03  0.00000000000E+00 0. -1.
         25    2    1    2    0    0  0.37013367553E+02 -0.30131799873E+02  0.73908240495E+02  0.15286118345E+03  0.12500479451E+03 0.  0.
          2    1    1    2  501    0  0.31241473888E+02  0.62160564406E+01 -0.59543213547E+03  0.59628357096E+03  0.00000000000E+00 0. -1.
          1    1    1    2  502    0 -0.68254841441E+02  0.23915743433E+02  0.11745477947E+03  0.13793589592E+03  0.00000000000E+00 0. -1.
         22    1    3    3    0    0  0.62989339392E+02  0.28153142041E+02  0.47696145102E+02  0.83875971180E+02  0.00000000000E+00 0. -1.
         22    1    3    3    0    0 -0.25975971839E+02 -0.58284941914E+02  0.26212095393E+02  0.68985212269E+02  0.00000000000E+00 0. -1.
</event>
<event>
 7    1  0.6485470E-006  0.6647700E+02  0.7818608E-02  0.1377760E+00
          2   -1    0    0  502    0  0.00000000000E+00  0.00000000000E+00  0.68554542985E+03  0.68554542985E+03  0.00000000000E+00 0. -1.
          1   -1    0    0  501    0 -0.00000000000E+00 -0.00000000000E+00 -0.82098867828E+03  0.82098867828E+03  0.00000000000E+00 0. -1.
         25    2    1    2    0    0  0.68571321902E+02  0.19356964755E+01 -0.11893237282E+03  0.18569103236E+03  0.12502190642E+03 0.  0.
          2    1    1    2  501    0 -0.39874876994E+02  0.54895990872E+02 -0.66539389055E+03  0.66884423090E+03  0.00000000000E+00 0. -1.
          1    1    1    2  502    0 -0.28696444908E+02 -0.56831687347E+02  0.64888301494E+03  0.65199884487E+03  0.00000000000E+00 0. -1.
         22    1    3    3    0    0 -0.15290624923E+02 -0.43489627049E+02 -0.50034902125E+02  0.68034126011E+02  0.00000000000E+00 0. -1.
         22    1    3    3    0    0  0.83861946825E+02  0.45425323524E+02 -0.68897470695E+02  0.11765690634E+03  0.00000000000E+00 0. -1.
</event>
<event>
 7    1  0.6485470E-006  0.5511641E+02  0.7818608E-02  0.1440651E+00
          2   -1    0    0  502    0  0.00000000000E+00  0.00000000000E+00  0.54914814944E+03  0.54914814944E+03  0.00000000000E+00 0. -1.
          1   -1    0    0  501    0 -0.00000000000E+00 -0.00000000000E+00 -0.36008614074E+03  0.36008614074E+03  0.00000000000E+00 0. -1.
         25    2    1    2    0    0  0.64816221703E+02  0.11132834138E+02  0.27125388754E+03  0.30582490920E+03  0.12500048396E+03 0.  0.
          2    1    1    2  501    0 -0.45256184212E+02  0.31570262665E+02 -0.33843153555E+03  0.34290043446E+03  0.00000000000E+00 0. -1.
          1    1    1    2  502    0 -0.19560037492E+02 -0.42703096803E+02  0.25623965671E+03  0.26050894652E+03  0.00000000000E+00 0. -1.
         22    1    3    3    0    0  0.30292023063E+02  0.41373983358E+02  0.25007473846E+03  0.25527786425E+03  0.00000000000E+00 0. -1.
         22    1    3    3    0    0  0.34524198640E+02 -0.30241149220E+02  0.21179149085E+02  0.50547044957E+02  0.00000000000E+00 0. -1.
</event>
<event>
 7    1  0.6485470E-006  0.1232986E+03  0.7818608E-02  0.1248946E+00
          2   -1    0    0  502    0  0.00000000000E+00  0.00000000000E+00  0.53842505099E+03  0.53842505099E+03  0.00000000000E+00 0. -1.
          1   -1    0    0  501    0 -0.00000000000E+00 -0.00000000000E+00 -0.34394098063E+03  0.34394098063E+03  0.00000000000E+00 0. -1.
         25    2    1    2    0    0  0.22677690884E+03 -0.19625066808E+02  0.18003740576E+03  0.31598678684E+03  0.12498508852E+03 0.  0.
          2    1    1    2  501    0 -0.11671883501E+03  0.15963188514E+02 -0.25194395028E+03  0.27812562614E+03  0.00000000000E+00 0. -1.
          1    1    1    2  502    0 -0.11005807384E+03  0.36618782937E+01  0.26639061488E+03  0.28825361865E+03  0.00000000000E+00 0. -1.
         22    1    3    3    0    0  0.22703778463E+03  0.23775160958E+01  0.18563902018E+03  0.29328084500E+03  0.00000000000E+00 0.  1.
         22    1    3    3    0    0 -0.26087578466E+00 -0.22002582903E+02 -0.56016144187E+01  0.22705941837E+02  0.00000000000E+00 0.  1.
</event>
<event>
 7    1  0.6485470E-006  0.9128701E+02  0.7818608E-02  0.1317556E+00
          2   -1    0    0  502    0  0.00000000000E+00  0.00000000000E+00  0.22662859589E+03  0.22662859589E+03  0.00000000000E+00 0. -1.
          1   -1    0    0  501    0 -0.00000000000E+00 -0.00000000000E+00 -0.44712837085E+03  0.44712837085E+03  0.00000000000E+00 0. -1.
         25    2    1    2    0    0 -0.35663039410E+01 -0.19320747253E+02  0.45698453383E+02  0.13452914634E+03  0.12499493100E+03 0.  0.
          2    1    1    2  501    0 -0.66158441960E+02 -0.62899758044E+02 -0.37506624918E+03  0.38601555704E+03  0.00000000000E+00 0. -1.
          1    1    1    2  502    0  0.69724745901E+02  0.82220505297E+02  0.10886802083E+03  0.15321226335E+03  0.00000000000E+00 0. -1.
         22    1    3    3    0    0  0.27597414494E+02  0.32146576749E+02 -0.18775994120E+02  0.46341748334E+02  0.00000000000E+00 0. -1.
         22    1    3    3    0    0 -0.31163718435E+02 -0.51467324002E+02  0.64474447503E+02  0.88187398009E+02  0.00000000000E+00 0. -1.
</event>
<event>
 7    1  0.6485470E-006  0.1807939E+03  0.7818608E-02  0.1266179E+00
          2   -1    0    0  502    0  0.00000000000E+00  0.00000000000E+00  0.35493331898E+02  0.35493331898E+02  0.00000000000E+00 0. -1.
          1   -1    0    0  501    0 -0.00000000000E+00 -0.00000000000E+00 -0.37170616757E+04  0.37170616757E+04  0.00000000000E+00 0. -1.
         25    2    1    2    0    0  0.90677374095E+02  0.21619929904E+03 -0.20093926453E+04  0.20268811108E+04  0.12499484600E+03 0.  0.
          2    1    1    2  501    0 -0.10971261120E+02 -0.62399555951E+02 -0.14100993505E+04  0.14115219628E+04  0.00000000000E+00 0. -1.
          1    1    1    2  502    0 -0.79706112975E+02 -0.15379974309E+03 -0.26207634802E+03  0.31415193396E+03  0.00000000000E+00 0. -1.
         22    1    3    3    0    0  0.77539844341E+02  0.14643395711E+03 -0.17538804113E+04  0.17616900489E+04  0.00000000000E+00 0.  1.
         22    1    3    3    0    0  0.13137529754E+02  0.69765341925E+02 -0.25551223394E+03  0.26519106191E+03  0.00000000000E+00 0.  1.
</event>
<event>
 7    1  0.6485470E-006  0.5844537E+02  0.7818608E-02  0.1485150E+00
          2   -1    0    0  502    0  0.00000000000E+00  0.00000000000E+00  0.28445065654E+03  0.28445065654E+03  0.00000000000E+00 0. -1.
          1   -1    0    0  501    0 -0.00000000000E+00 -0.00000000000E+00 -0.38660851070E+04  0.38660851070E+04  0.00000000000E+00 0. -1.
         25    2    1    2    0    0 -0.40993095718E+02 -0.12246885405E+02 -0.11802926266E+03  0.17716086733E+03  0.12499858388E+03 0.  0.
          2    1    1    2  501    0  0.56421233632E+02 -0.15902475946E+02 -0.37172473717E+04  0.37177095458E+04  0.00000000000E+00 0. -1.
          1    1    1    2  502    0 -0.15428137915E+02  0.28149361351E+02  0.25364218387E+03  0.25566535045E+03  0.00000000000E+00 0. -1.
         22    1    3    3    0    0 -0.78487407567E+02 -0.10829880551E+02 -0.36138628068E+02  0.87083637372E+02  0.00000000000E+00 0.  1.
         22    1    3    3    0    0  0.37494311849E+02 -0.14170048540E+01 -0.81890634591E+02  0.90077229961E+02  0.00000000000E+00 0.  1.
</event>
<event>
 7    1  0.6485470E-006  0.1105118E+03  0.7818608E-02  0.1328509E+00
          2   -1    0    0  502    0  0.00000000000E+00  0.00000000000E+00  0.43026300958E+03  0.43026300958E+03  0.00000000000E+00 0. -1.
          1   -1    0    0  501    0 -0.00000000000E+00 -0.00000000000E+00 -0.11587954715E+04  0.11587954715E+04  0.00000000000E+00 0. -1.
         25    2    1    2    0    0 -0.23824932324E+02 -0.15660908234E+03 -0.43475624235E+03  0.47930358737E+03  0.12499962616E+03 0.  0.
          2    1    1    2  501    0  0.33939657318E+02  0.47266952313E+02 -0.69313559182E+03  0.69557387369E+03  0.00000000000E+00 0. -1.
          1    1    1    2  502    0 -0.10114724995E+02  0.10934213002E+03  0.39935937229E+03  0.41418101996E+03  0.00000000000E+00 0. -1.
         22    1    3    3    0    0  0.38336446725E+02 -0.12478266989E+03 -0.25529160335E+03  0.28673018780E+03  0.00000000000E+00 0. -1.
         22    1    3    3    0    0 -0.62161379048E+02 -0.31826412445E+02 -0.17946463900E+03  0.19257339958E+03  0.00000000000E+00 0. -1.
</event>
<event>
 7    1  0.6485470E-006  0.1060306E+03  0.7818608E-02  0.1343230E+00
          2   -1    0    0  502    0  0.00000000000E+00  0.00000000000E+00  0.60147208567E+03  0.60147208567E+03  0.00000000000E+00 0. -1.
          1   -1    0    0  501    0 -0.00000000000E+00 -0.00000000000E+00 -0.87683019832E+02  0.87683019832E+02  0.00000000000E+00 0. -1.
         25    2    1    2    0    0  0.37399252738E+02 -0.13436426701E+03  0.12878386187E+03  0.22729799518E+03  0.12500654054E+03 0.  0.
          2    1    1    2  501    0 -0.42610301573E+02  0.32093357999E+02 -0.95823187007E+01  0.54198175795E+02  0.00000000000E+00 0. -1.
          1    1    1    2  502    0  0.52110488352E+01  0.10227090901E+03  0.39458752266E+03  0.40765893453E+03  0.00000000000E+00 0. -1.
         22    1    3    3    0    0 -0.42137423949E+02 -0.28711206458E+02  0.58267443635E+02  0.77427326320E+02  0.00000000000E+00 0.  1.
         22    1    3    3    0    0  0.79536676687E+02 -0.10565306055E+03  0.70516418240E+02  0.14987066886E+03  0.00000000000E+00 0.  1.
</event>
<event>
 7    1  0.6485470E-006  0.2820031E+02  0.7818608E-02  0.1622956E+00
          2   -1    0    0  502    0  0.00000000000E+00  0.00000000000E+00  0.15560848013E+04  0.15560848013E+04  0.00000000000E+00 0. -1.
          1   -1    0    0  501    0 -0.00000000000E+00 -0.00000000000E+00 -0.83152346266E+03  0.83152346266E+03  0.00000000000E+00 0. -1.
         25    2    1    2    0    0  0.75382697440E+01  0.21601030879E+02 -0.23535848595E+03  0.26747668268E+03  0.12500691510E+03 0.  0.
          2    1    1    2  501    0 -0.28365644810E+02 -0.35904203577E+01 -0.57963039249E+03  0.58033515560E+03  0.00000000000E+00 0. -1.
          1    1    1    2  502    0  0.20827375066E+02 -0.18010610522E+02  0.15395502171E+04  0.15397964257E+04  0.00000000000E+00 0. -1.
         22    1    3    3    0    0 -0.15725880415E+02  0.55640488989E+02 -0.46581139559E+02  0.74249376377E+02  0.00000000000E+00 0. -1.
         22    1    3    3    0    0  0.23264150159E+02 -0.34039458109E+02 -0.18877734639E+03  0.19322730630E+03  0.00000000000E+00 0. -1.
</event>
<event>
 7    1  0.6485470E-006  0.1557674E+03  0.7818608E-02  0.1273992E+00
          2   -1    0    0  502    0  0.00000000000E+00  0.00000000000E+00  0.22035097710E+04  0.22035097710E+04  0.00000000000E+00 0. -1.
          1   -1    0    0  501    0 -0.00000000000E+00 -0.00000000000E+00 -0.71980244891E+02  0.71980244891E+02  0.00000000000E+00 0. -1.
         25    2    1    2    0    0 -0.97999993886E+02 -0.54246146679E+02  0.21907180728E+03  0.27597828760E+03  0.12499966100E+03 0.  0.
          2    1    1    2  501    0 -0.82503350435E+01 -0.67684646476E+02 -0.11172430865E+02  0.69094881202E+02  0.00000000000E+00 0. -1.
          1    1    1    2  502    0  0.10625032893E+03  0.12193079315E+03  0.19236301497E+04  0.19304168471E+04  0.00000000000E+00 0. -1.
         22    1    3    3    0    0 -0.63234323843E+02 -0.81126064299E+02  0.80528907608E+02  0.13063277912E+03  0.00000000000E+00 0.  1.
         22    1    3    3    0    0 -0.34765670043E+02  0.26879917620E+02  0.13854289967E+03  0.14534550848E+03  0.00000000000E+00 0.  1.
</event>
<event>
 7    1  0.6485470E-006  0.1939314E+03  0.7818608E-02  0.1215155E+00
          2   -1    0    0  502    0  0.00000000000E+00  0.00000000000E+00  0.12582660542E+04  0.12582660542E+04  0.00000000000E+00 0. -1.
          1   -1    0    0  501    0 -0.00000000000E+00 -0.00000000000E+00 -0.43980222016E+03  0.43980222016E+03  0.00000000000E+00 0. -1.
         25    2    1    2    0    0 -0.12420978342E+03 -0.15076132848E+03  0.56037088701E+02  0.23858185499E+03  0.12499639099E+03 0.  0.
          2    1    1    2  501    0  0.89712491690E+02 -0.42169496341E+02 -0.33260016687E+03  0.34705830719E+03  0.00000000000E+00 0. -1.
          1    1    1    2  502    0  0.34497291734E+02  0.19293082482E+03  0.10950269122E+04  0.11124281121E+04  0.00000000000E+00 0. -1.
         22    1    3    3    0    0 -0.27247607513E+02  0.66731616968E+01  0.45412973138E+02  0.53378847228E+02  0.00000000000E+00 0.  1.
         22    1    3    3    0    0 -0.96962175911E+02 -0.15743449017E+03  0.10624115563E+02  0.18520300776E+03  0.00000000000E+00 0.  1.
</event>
<event>
 7    1  0.6485470E-006  0.2937259E+03  0.7818608E-02  0.1281208E+00
          2   -1    0    0  502    0  0.00000000000E+00  0.00000000000E+00  0.30764094541E+04  0.30764094541E+04  0.00000000000E+00 0. -1.
          1   -1    0    0  501    0 -0.00000000000E+00 -0.00000000000E+00 -0.17039475315E+04  0.17039475315E+04  0.00000000000E+00 0. -1.
         25    2    1    2    0    0  0.26466105262E+03 -0.18433552191E+03  0.18280741082E+04  0.18605123169E+04  0.12500431443E+03 0.  0.
          2    1    1    2  501    0 -0.24989739043E+03  0.15398425010E+03 -0.16747304057E+04  0.17002593293E+04  0.00000000000E+00 0. -1.
          1    1    1    2  502    0 -0.14763662187E+02  0.30351271805E+02  0.12191182201E+04  0.12195853394E+04  0.00000000000E+00 0. -1.
         22    1    3    3    0    0  0.15016685108E+03 -0.79100991654E+02  0.12658474376E+04  0.12771753151E+04  0.00000000000E+00 0. -1.
         22    1    3    3    0    0  0.11449420154E+03 -0.10523453025E+03  0.56222667059E+03  0.58333700180E+03  0.00000000000E+00 0. -1.
</event>
<event>
 7    1  0.6485470E-006  0.9238518E+02  0.7818608E-02  0.1384721E+00
          2   -1    0    0  502    0  0.00000000000E+00  0.00000000000E+00  0.81595738126E+03  0.81595738126E+03  0.00000000000E+00 0. -1.
          1   -1    0    0  501    0 -0.00000000000E+00 -0.00000000000E+00 -0.11559317255E+03  0.11559317255E+03  0.00000000000E+00 0. -1.
         25    2    1    2    0    0  0.71740302800E+02  0.10261689533E+03  0.28178046400E+03  0.33271767667E+03  0.12499569684E+03 0.  0.
          2    1    1    2  501    0 -0.76723480404E+01 -0.42602725507E+02 -0.80867930124E+02  0.91725019857E+02  0.00000000000E+00 0. -1.
          1    1    1    2  502    0 -0.64067954759E+02 -0.60014169826E+02  0.49945167485E+03  0.50710785728E+03  0.00000000000E+00 0. -1.
         22    1    3    3    0    0  0.59769483239E+02 -0.71765100291E+01  0.60184002857E+02  0.85123484555E+02  0.00000000000E+00 0.  1.
         22    1    3    3    0    0  0.11970819561E+02  0.10979340536E+03  0.22159646114E+03  0.24759419212E+03  0.00000000000E+00 0.  1.
</event>
<event>
 7    1  0.6485470E-006  0.1560080E+03  0.7818608E-02  0.1324666E+00
          2   -1    0    0  502    0  0.00000000000E+00  0.00000000000E+00  0.15637340588E+03  0.15637340588E+03  0.00000000000E+00 0. -1.
          1   -1    0    0  501    0 -0.00000000000E+00 -0.00000000000E+00 -0.32696654090E+03  0.32696654090E+03  0.00000000000E+00 0. -1.
         25    2    1    2    0    0  0.18469197507E+03  0.20363229940E+01 -0.40325155469E+02  0.22664109522E+03  0.12499918245E+03 0.  0.
          2    1    1    2  501    0 -0.14576544344E+03 -0.19452384229E+02 -0.14968897461E+03  0.20983981718E+03  0.00000000000E+00 0. -1.
          1    1    1    2  502    0 -0.38926531631E+02  0.17416061235E+02  0.19420995060E+02  0.46859034379E+02  0.00000000000E+00 0. -1.
         22    1    3    3    0    0  0.32475423055E+02  0.45406034486E+02 -0.39462792291E+02  0.68364267317E+02  0.00000000000E+00 0.  1.
         22    1    3    3    0    0  0.15221655201E+03 -0.43369711492E+02 -0.86236317832E+00  0.15827682791E+03  0.00000000000E+00 0.  1.
</event>
<event>
 7    1  0.6485470E-006  0.1121790E+03  0.7818608E-02  0.1293864E+00
          2   -1    0    0  502    0  0.00000000000E+00  0.00000000000E+00  0.79855947825E+03  0.79855947825E+03  0.00000000000E+00 0. -1.
          1   -1    0    0  501    0 -0.00000000000E+00 -0.00000000000E+00 -0.52685710044E+02  0.52685710044E+02  0.00000000000E+00 0. -1.
         25    2    1    2    0    0  0.17594710601E+02 -0.41689668534E+02  0.37171183004E+03  0.39476780214E+03  0.12499732280E+03 0.  0.
          2    1    1    2  501    0  0.10386865935E+03 -0.42372442184E+02  0.13690585248E+03  0.17699529568E+03  0.00000000000E+00 0. -1.
          1    1    1    2  502    0 -0.12146336995E+03  0.84062110718E+02  0.23725608569E+03  0.27948209047E+03  0.00000000000E+00 0. -1.
         22    1    3    3    0    0 -0.52562329037E+02 -0.45757414306E+01  0.17013939118E+03  0.17813238974E+03  0.00000000000E+00 0.  1.
         22    1    3    3    0    0  0.70157039638E+02 -0.37113927103E+02  0.20157243886E+03  0.21663541240E+03  0.00000000000E+00 0.  1.
</event>
<event>
 7    1  0.6485470E-006  0.4759442E+02  0.7818608E-02  0.1525531E+00
          2   -1    0    0  502    0  0.00000000000E+00  0.00000000000E+00  0.37052761331E+03  0.37052761331E+03  0.00000000000E+00 0. -1.
          1   -1    0    0  501    0 -0.00000000000E+00 -0.00000000000E+00 -0.20957203035E+03  0.20957203035E+03  0.00000000000E+00 0. -1.
         25    2    1    2    0    0 -0.61246593421E+01 -0.67082328789E+02 -0.39797588483E+02  0.14746579026E+03  0.12499904383E+03 0.  0.
          2    1    1    2  501    0 -0.13294699656E+02  0.44312337371E+02 -0.11057894207E+03  0.11986673730E+03  0.00000000000E+00 0. -1.
          1    1    1    2  502    0  0.19419358998E+02  0.22769991418E+02  0.31133211351E+03  0.31276711610E+03  0.00000000000E+00 0. -1.
         22    1    3    3    0    0  0.30237668740E+01 -0.11308696633E+02  0.44478096292E+02  0.45992725896E+02  0.00000000000E+00 0.  1.
         22    1    3    3    0    0 -0.91484262162E+01 -0.55773632157E+02 -0.84275684775E+02  0.10147306436E+03  0.00000000000E+00 0.  1.
</event>
<event>
 7    1  0.6485470E-006  0.4426051E+02  0.7818608E-02  0.1530506E+00
          2   -1    0    0  502    0  0.00000000000E+00  0.00000000000E+00  0.12657588415E+03  0.12657588415E+03  0.00000000000E+00 0. -1.
          1   -1    0    0  501    0 -0.00000000000E+00 -0.00000000000E+00 -0.33946000405E+03  0.33946000405E+03  0.00000000000E+00 0. -1.
         25    2    1    2    0    0  0.29858114207E+02  0.30676913918E+02 -0.24632251893E+01  0.13214914448E+03  0.12499899551E+03 0.  0.
          2    1    1    2  501    0 -0.27336581123E+02  0.14910826076E+02 -0.26266449266E+03  0.26450379413E+03  0.00000000000E+00 0. -1.
          1    1    1    2  502    0 -0.25215330839E+01 -0.45587739995E+02  0.52243597949E+02  0.69382949588E+02  0.00000000000E+00 0. -1.
         22    1    3    3    0    0  0.64600677091E+02  0.87722540992E+01  0.37193462773E+02  0.75057002310E+02  0.00000000000E+00 0.  1.
         22    1    3    3    0    0 -0.34742562885E+02  0.21904659819E+02 -0.39656687963E+02  0.57092142172E+02  0.00000000000E+00 0.  1.
</event>
<event>
 7    1  0.6485470E-006  0.5112481E+02  0.7818608E-02  0.1557037E+00
          2   -1    0    0  502    0  0.00000000000E+00  0.00000000000E+00  0.68285405019E+03  0.68285405019E+03  0.00000000000E+00 0. -1.
          1   -1    0    0  501    0 -0.00000000000E+00 -0.00000000000E+00 -0.25337739975E+04  0.25337739975E+04  0.00000000000E+00 0. -1.
         25    2    1    2    0    0  0.29224832228E+02  0.66109371874E+02  0.38087931999E+01  0.14442521562E+03  0.12497838266E+03 0.  0.
          2    1    1    2  501    0 -0.26628746765E+02 -0.43556526738E+02 -0.24629895246E+04  0.24635185527E+04  0.00000000000E+00 0. -1.
          1    1    1    2  502    0 -0.25960854631E+01 -0.22552845136E+02  0.60826078410E+03  0.60868427938E+03  0.00000000000E+00 0. -1.
         22    1    3    3    0    0  0.40269160541E+01  0.30469660871E+02 -0.59826458995E+02  0.67259359813E+02  0.00000000000E+00 0.  1.
         22    1    3    3    0    0  0.25197916174E+02  0.35639711002E+02  0.63635252195E+02  0.77165855803E+02  0.00000000000E+00 0.  1.
</event>
<event>
 7    1  0.6485470E-006  0.9478951E+02  0.7818608E-02  0.1376099E+00
          2   -1    0    0  502    0  0.00000000000E+00  0.00000000000E+00  0.21520925762E+03  0.21520925762E+03  0.00000000000E+00 0. -1.
          1   -1    0    0  501    0 -0.00000000000E+00 -0.00000000000E+00 -0.12725263073E+04  0.12725263073E+04  0.00000000000E+00 0. -1.
         25    2    1    2    0    0 -0.12551402077E+03  0.45522219330E+02 -0.42644763827E+03  0.46401338674E+03  0.12499917210E+03 0.  0.
          2    1    1    2  501    0  0.80645676255E+02 -0.39571537054E+02 -0.82220923736E+03  0.82710196569E+03  0.00000000000E+00 0. -1.
          1    1    1    2  502    0  0.44868344512E+02 -0.59506822762E+01  0.19133982596E+03  0.19662021248E+03  0.00000000000E+00 0. -1.
         22    1    3    3    0    0 -0.70308563563E+02  0.54704881572E+02 -0.38283353550E+03  0.39306161614E+03  0.00000000000E+00 0.  1.
         22    1    3    3    0    0 -0.55205457203E+02 -0.91826622416E+01 -0.43614102768E+02  0.70951770599E+02  0.00000000000E+00 0.  1.
</event>
<event>
 7    1  0.6485470E-006  0.7456539E+02  0.7818608E-02  0.1367400E+00
          2   -1    0    0  502    0  0.00000000000E+00  0.00000000000E+00  0.20498940649E+03  0.20498940649E+03  0.00000000000E+00 0. -1.
          1   -1    0    0  501    0 -0.00000000000E+00 -0.00000000000E+00 -0.50246968097E+03  0.50246968097E+03  0.00000000000E+00 0. -1.
         25    2    1    2    0    0 -0.62727073931E+02  0.45519207586E+02 -0.11242476042E+02  0.14750604316E+03  0.12499982175E+03 0.  0.
          2    1    1    2  501    0  0.84748447123E+01 -0.75161566131E+02 -0.41249511925E+03  0.41937251629E+03  0.00000000000E+00 0. -1.
          1    1    1    2  502    0  0.54252229219E+02  0.29642358545E+02  0.12625732081E+03  0.14058052800E+03  0.00000000000E+00 0. -1.
         22    1    3    3    0    0 -0.10765537501E+02 -0.42563273578E+02  0.40999560298E+01  0.44094656080E+02  0.00000000000E+00 0.  1.
         22    1    3    3    0    0 -0.51961536430E+02  0.88082481164E+02 -0.15342432072E+02  0.10341138708E+03  0.00000000000E+00 0.  1.
</event>
<event>
 7    1  0.6485470E-006  0.7578502E+02  0.7818608E-02  0.1381001E+00
          2   -1    0    0  502    0  0.00000000000E+00  0.00000000000E+00  0.13795951401E+03  0.13795951401E+03  0.00000000000E+00 0. -1.
          1   -1    0    0  501    0 -0.00000000000E+00 -0.00000000000E+00 -0.59171491578E+03  0.59171491578E+03  0.00000000000E+00 0. -1.
         25    2    1    2    0    0 -0.10577543533E+03  0.56327298964E+02 -0.16755334692E+03  0.24096096829E+03  0.12500742718E+03 0.  0.
          2    1    1    2  501    0  0.54211621612E+02 -0.43791011477E+01 -0.37198927592E+03  0.37594427492E+03  0.00000000000E+00 0. -1.
          1    1    1    2  502    0  0.51563813714E+02 -0.51948197817E+02  0.85787221070E+02  0.11276918657E+03  0.00000000000E+00 0. -1.
         22    1    3    3    0    0 -0.10997510072E+03  0.26179539067E+01 -0.14630702927E+03  0.18304951045E+03  0.00000000000E+00 0. -1.
         22    1    3    3    0    0  0.41996653957E+01  0.53709345058E+02 -0.21246317640E+02  0.57911457841E+02  0.00000000000E+00 0. -1.
</event>
<event>
 7    1  0.6485470E-006  0.8272231E+02  0.7818608E-02  0.1384088E+00
          2   -1    0    0  502    0  0.00000000000E+00  0.00000000000E+00  0.23589646347E+03  0.23589646347E+03  0.00000000000E+00 0. -1.
          1   -1    0    0  501    0 -0.00000000000E+00 -0.00000000000E+00 -0.40059144844E+04  0.40059144844E+04  0.00000000000E+00 0. -1.
         25    2    1    2    0    0 -0.64808312983E+02 -0.17666461620E+02 -0.57595012914E+03  0.59317563922E+03  0.12500626547E+03 0.  0.
          2    1    1    2  501    0 -0.12995877980E+02  0.46822780757E+02 -0.34135793209E+04  0.34139251670E+04  0.00000000000E+00 0. -1.
          1    1    1    2  502    0  0.77804190963E+02 -0.29156319137E+02  0.21951142913E+03  0.23471014165E+03  0.00000000000E+00 0. -1.
         22    1    3    3    0    0 -0.15444151338E+02 -0.51082396169E+02 -0.98579429540E+02  0.11209744394E+03  0.00000000000E+00 0. -1.
         22    1    3    3    0    0 -0.49364161645E+02  0.33415934549E+02 -0.47737069960E+03  0.48107819528E+03  0.00000000000E+00 0. -1.
</event>
<event>
 7    1  0.6485470E-006  0.1818472E+03  0.7818608E-02  0.1351818E+00
          2   -1    0    0  502    0  0.00000000000E+00  0.00000000000E+00  0.85923001379E+03  0.85923001379E+03  0.00000000000E+00 0. -1.
          1   -1    0    0  501    0 -0.00000000000E+00 -0.00000000000E+00 -0.71911947058E+03  0.71911947058E+03  0.00000000000E+00 0. -1.
         25    2    1    2    0    0 -0.10234021459E+03  0.16581107043E+03  0.37486853824E+03  0.44058671808E+03  0.12499361819E+03 0.  0.
          2    1    1    2  501    0  0.73442316476E+02 -0.16599463979E+03 -0.67377428506E+03  0.69779637539E+03  0.00000000000E+00 0. -1.
          1    1    1    2  502    0  0.28897898110E+02  0.18356935911E+00  0.43901629004E+03  0.43996639091E+03  0.00000000000E+00 0. -1.
         22    1    3    3    0    0 -0.16414580001E+02 -0.51607670983E+01  0.12340383473E+03  0.12459766602E+03  0.00000000000E+00 0.  1.
         22    1    3    3    0    0 -0.85925634586E+02  0.17097183752E+03  0.25146470351E+03  0.31598905205E+03  0.00000000000E+00 0.  1.
</event>
<event>
 7    1  0.6485470E-006  0.1310863E+03  0.7818608E-02  0.1265152E+00
          2   -1    0    0  502    0  0.00000000000E+00  0.00000000000E+00  0.29729303231E+03  0.29729303231E+03  0.00000000000E+00 0. -1.
          1   -1    0    0  501    0 -0.00000000000E+00 -0.00000000000E+00 -0.12977534744E+04  0.12977534744E+04  0.00000000000E+00 0. -1.
         25    2    1    2    0    0  0.18997146947E+03  0.18916710906E+02 -0.23088387764E+03  0.32462212275E+03  0.12500062584E+03 0.  0.
          2    1    1    2  501    0 -0.67399874979E+02 -0.56982587219E+02 -0.10014863201E+04  0.10053678967E+04  0.00000000000E+00 0. -1.
          1    1    1    2  502    0 -0.12257159449E+03  0.38065876313E+02  0.23190975560E+03  0.26505648730E+03  0.00000000000E+00 0. -1.
         22    1    3    3    0    0  0.18234792664E+03  0.12690222973E+02 -0.24606535277E+03  0.30652889904E+03  0.00000000000E+00 0. -1.
         22    1    3    3    0    0  0.76235428254E+01  0.62264879328E+01  0.15181475130E+02  0.18093223713E+02  0.00000000000E+00 0. -1.
</event>
<event>
 7    1  0.6485470E-006  0.1321922E+03  0.7818608E-02  0.1306779E+00
          2   -1    0    0  502    0  0.00000000000E+00  0.00000000000E+00  0.14224488817E+03  0.14224488817E+03  0.00000000000E+00 0. -1.
          1   -1    0    0  501    0 -0.00000000000E+00 -0.00000000000E+00 -0.12303883618E+04  0.12303883618E+04  0.00000000000E+00 0. -1.
         25    2    1    2    0    0  0.14527151059E+03  0.15280144466E+02 -0.12875283994E+03  0.23136462530E+03  0.12495999938E+03 0.  0.
          2    1    1    2  501    0 -0.11446663608E+03 -0.65731205443E+02 -0.10360727274E+04  0.10444471737E+04  0.00000000000E+00 0. -1.
          1    1    1    2  502    0 -0.30804874513E+02  0.50451060977E+02  0.76682093791E+02  0.96821450907E+02  0.00000000000E+00 0. -1.
         22    1    3    3    0    0  0.14320388845E+03  0.45987255440E+02 -0.13239118701E+03  0.20037367025E+03  0.00000000000E+00 0.  1.
         22    1    3    3    0    0  0.20676221469E+01 -0.30707110974E+02  0.36383470789E+01  0.30990955054E+02  0.00000000000E+00 0.  1.
</event>
<event>
 7    1  0.6485470E-006  0.5943212E+02  0.7818608E-02  0.1498123E+00
          2   -1    0    0  502    0  0.00000000000E+00  0.00000000000E+00  0.38308789243E+04  0.38308789243E+04  0.00000000000E+00 0. -1.
          1   -1    0    0  501    0 -0.00000000000E+00 -0.00000000000E+00 -0.96975046088E+02  0.96975046088E+02  0.00000000000E+00 0. -1.
         25    2    1    2    0    0  0.40988068565E+02 -0.51209424345E+02  0.19865284875E+04  0.19915376249E+04  0.12499701239E+03 0.  0.
          2    1    1    2  501    0 -0.28060613942E+02 -0.66817757370E+01 -0.91779259299E+02  0.96205387683E+02  0.00000000000E+00 0. -1.
          1    1    1    2  502    0 -0.12927454622E+02  0.57891200082E+02  0.18391546501E+04  0.18401109578E+04  0.00000000000E+00 0. -1.
         22    1    3    3    0    0  0.19259616239E+02 -0.69382684195E+02  0.54563585032E+03  0.55036657860E+03  0.00000000000E+00 0.  1.
         22    1    3    3    0    0  0.21728452326E+02  0.18173259850E+02  0.14408926371E+04  0.14411710463E+04  0.00000000000E+00 0.  1.
</event>
<event>
 7    1  0.6485470E-006  0.1985140E+03  0.7818608E-02  0.1290613E+00
          2   -1    0    0  502    0  0.00000000000E+00  0.00000000000E+00  0.16622892103E+04  0.16622892103E+04  0.00000000000E+00 0. -1.
          1   -1    0    0  501    0 -0.00000000000E+00 -0.00000000000E+00 -0.15105750342E+04  0.15105750342E+04  0.00000000000E+00 0. -1.
         25    2    1    2    0    0 -0.15296827058E+03 -0.11155460247E+03 -0.44843413518E+03  0.50255503000E+03  0.12499865380E+03 0.  0.
          2    1    1    2  501    0  0.23520815906E+02 -0.39185560665E+02 -0.10285353949E+04  0.10295502880E+04  0.00000000000E+00 0. -1.
          1    1    1    2  502    0  0.12944745467E+03  0.15074016314E+03  0.16286837061E+04  0.16407589265E+04  0.00000000000E+00 0. -1.
         22    1    3    3    0    0 -0.15078218463E+03 -0.12232121903E+03 -0.32461499699E+03  0.37824944692E+03  0.00000000000E+00 0. -1.
         22    1    3    3    0    0 -0.21860859528E+01  0.10766616554E+02 -0.12381913819E+03  0.12430558308E+03  0.00000000000E+00 0. -1.
</event>
<event>
 7    1  0.6485470E-006  0.8530393E+02  0.7818608E-02  0.1327317E+00
          2   -1    0    0  502    0  0.00000000000E+00  0.00000000000E+00  0.38548561992E+03  0.38548561992E+03  0.00000000000E+00 0. -1.
          1   -1    0    0  501    0 -0.00000000000E+00 -0.00000000000E+00 -0.27185416726E+03  0.27185416726E+03  0.00000000000E+00 0. -1.
         25    2    1    2    0    0  0.55308531016E+02 -0.82577525184E+02  0.86083479582E+02  0.18142116968E+03  0.12500077633E+03 0.  0.
          2    1    1    2  501    0 -0.85440982859E+02  0.12607073084E+02 -0.20967348535E+03  0.22676434971E+03  0.00000000000E+00 0. -1.
          1    1    1    2  502    0  0.30132451843E+02  0.69970452100E+02  0.23722145842E+03  0.24915426779E+03  0.00000000000E+00 0. -1.
         22    1    3    3    0    0  0.41285635051E+02  0.26897270785E+02  0.24405875426E+02  0.54987394852E+02  0.00000000000E+00 0. -1.
         22    1    3    3    0    0  0.14022895965E+02 -0.10947479597E+03  0.61677604155E+02  0.12643377483E+03  0.00000000000E+00 0. -1.
</event>
<event>
 7    1  0.6485470E-006  0.9296258E+02  0.7818608E-02  0.1303996E+00
          2   -1    0    0  502    0  0.00000000000E+00  0.00000000000E+00  0.68093636883E+02  0.68093636883E+02  0.00000000000E+00 0. -1.
          1   -1    0    0  501    0 -0.00000000000E+00 -0.00000000000E+00 -0.11545000388E+04  0.11545000388E+04  0.00000000000E+00 0. -1.
         25    2    1    2    0    0  0.67091341056E+01 -0.56628769295E+01 -0.34592905816E+03  0.36792481623E+03  0.12499870585E+03 0.  0.
          2    1    1    2  501    0 -0.34597740079E+02 -0.86284628226E+02 -0.75215485712E+03  0.75787793857E+03  0.00000000000E+00 0. -1.
          1    1    1    2  502    0  0.27888605974E+02  0.91947505155E+02  0.11677513357E+02  0.96790920884E+02  0.00000000000E+00 0. -1.
         22    1    3    3    0    0  0.38869248515E+02  0.13113614421E+02 -0.31982912737E+03  0.32244915270E+03  0.00000000000E+00 0. -1.
         22    1    3    3    0    0 -0.32160114410E+02 -0.18776491350E+02 -0.26099930791E+02  0.45475663531E+02  0.00000000000E+00 0. -1.
</event>
<event>
 7    1  0.6485470E-006  0.5824386E+02  0.7818608E-02  0.1422267E+00
          2   -1    0    0  502    0  0.00000000000E+00  0.00000000000E+00  0.13861324380E+03  0.13861324380E+03  0.00000000000E+00 0. -1.
          1   -1    0    0  501    0 -0.00000000000E+00 -0.00000000000E+00 -0.67803293873E+03  0.67803293873E+03  0.00000000000E+00 0. -1.
         25    2    1    2    0    0 -0.95588767290E+02 -0.49819310888E+02 -0.21273964756E+03  0.26926471966E+03  0.12500462169E+03 0.  0.
          2    1    1    2  501    0  0.45660754997E+02  0.22895907510E+02 -0.42812119837E+03  0.43115761343E+03  0.00000000000E+00 0. -1.
          1    1    1    2  502    0  0.49928012293E+02  0.26923403378E+02  0.10144115100E+03  0.11622384943E+03  0.00000000000E+00 0. -1.
         22    1    3    3    0    0 -0.74839960943E+02 -0.34851428980E+02 -0.34960698037E+02  0.89654293055E+02  0.00000000000E+00 0. -1.
         22    1    3    3    0    0 -0.20748806346E+02 -0.14967881908E+02 -0.17777894952E+03  0.17961042661E+03  0.00000000000E+00 0. -1.
</event>
<event>
 7    1  0.6485470E-006  0.1503554E+03  0.7818608E-02  0.1238708E+00
          2   -1    0    0  502    0  0.00000000000E+00  0.00000000000E+00  0.19162329545E+04  0.19162329545E+04  0.00000000000E+00 0. -1.
          1   -1    0    0  501    0 -0.00000000000E+00 -0.00000000000E+00 -0.23533139612E+03  0.23533139612E+03  0.00000000000E+00 0. -1.
         25    2    1    2    0    0 -0.21781002282E+03 -0.96622719427E+02  0.33290329750E+03  0.42804639623E+03  0.12498782296E+03 0.  0.
          2    1    1    2  501    0  0.99054833073E+02  0.14647711904E+02 -0.17074219524E+03  0.19793764840E+03  0.00000000000E+00 0. -1.
          1    1    1    2  502    0  0.11875518974E+03  0.81975007523E+02  0.15187404562E+04  0.15255803060E+04  0.00000000000E+00 0. -1.
         22    1    3    3    0    0 -0.41800988763E+02 -0.67368414630E+02  0.16492444710E+03  0.18299152768E+03  0.00000000000E+00 0.  1.
         22    1    3    3    0    0 -0.17600903405E+03 -0.29254304797E+02  0.16797885040E+03  0.24505486855E+03  0.00000000000E+00 0.  1.
</event>
<event>
 7    1  0.6485470E-006  0.7209862E+02  0.7818608E-02  0.1426735E+00
          2   -1    0    0  502    0  0.00000000000E+00  0.00000000000E+00  0.70772242964E+03  0.70772242964E+03  0.00000000000E+00 0. -1.
          1   -1    0    0  501    0 -0.00000000000E+00 -0.00000000000E+00 -0.60372592562E+03  0.60372592562E+03  0.00000000000E+00 0. -1.
         25    2    1    2    0    0  0.65699116407E+01 -0.76914535254E+02 -0.80860904786E+02  0.16765398578E+03  0.12494144049E+03 0.  0.
          2    1    1    2  501    0 -0.38045840671E+02  0.11951519237E+02 -0.47667241431E+03  0.47833765832E+03  0.00000000000E+00 0. -1.
          1    1    1    2  502    0  0.31475929030E+02  0.64963016017E+02  0.66152982311E+03  0.66545671116E+03  0.00000000000E+00 0. -1.
         22    1    3    3    0    0 -0.24075175382E+02  0.16529244548E+02 -0.60569163944E+02  0.67241755003E+02  0.00000000000E+00 0.  1.
         22    1    3    3    0    0  0.30645087023E+02 -0.93443779802E+02 -0.20291740842E+02  0.10041223077E+03  0.00000000000E+00 0.  1.
</event>
<event>
 7    1  0.6485470E-006  0.1173337E+03  0.7818608E-02  0.1260792E+00
          2   -1    0    0  502    0  0.00000000000E+00  0.00000000000E+00  0.23351742610E+04  0.23351742610E+04  0.00000000000E+00 0. -1.
          1   -1    0    0  501    0 -0.00000000000E+00 -0.00000000000E+00 -0.38998986123E+03  0.38998986123E+03  0.00000000000E+00 0. -1.
         25    2    1    2    0    0  0.12091035768E+03  0.12985495358E+03  0.12225453009E+02  0.21738498889E+03  0.12500059253E+03 0.  0.
          2    1    1    2  501    0 -0.10186635594E+03 -0.14551450057E+02 -0.27660587086E+03  0.29512591713E+03  0.00000000000E+00 0. -1.
          1    1    1    2  502    0 -0.19044001739E+02 -0.11530350352E+03  0.22095648176E+04  0.22126532162E+04  0.00000000000E+00 0. -1.
         22    1    3    3    0    0  0.12016468449E+03  0.42898690659E+02 -0.88794524633E+01  0.12790110920E+03  0.00000000000E+00 0. -1.
         22    1    3    3    0    0  0.74567318506E+00  0.86956262917E+02  0.21104905473E+02  0.89483879688E+02  0.00000000000E+00 0. -1.
</event>
<event>
 7    1  0.6485470E-006  0.1054835E+03  0.7818608E-02  0.1299632E+00
          2   -1    0    0  502    0  0.00000000000E+00  0.00000000000E+00  0.30660731230E+03  0.30660731230E+03  0.00000000000E+00 0. -1.
          1   -1    0    0  501    0 -0.00000000000E+00 -0.00000000000E+00 -0.12473887651E+04  0.12473887651E+04  0.00000000000E+00 0. -1.
         25    2    1    2    0    0 -0.11717637163E+03 -0.12528942198E+03 -0.76600906818E+02  0.22565270796E+03  0.12499481732E+03 0.  0.
          2    1    1    2  501    0  0.90145553264E+02  0.50953729642E+02 -0.10869896986E+04  0.10919107602E+04  0.00000000000E+00 0. -1.
          1    1    1    2  502    0  0.27030818364E+02  0.74335692340E+02  0.22280915255E+03  0.23643260934E+03  0.00000000000E+00 0. -1.
         22    1    3    3    0    0  0.70209755445E+01  0.15995166957E+02 -0.25167246371E+02  0.30635432973E+02  0.00000000000E+00 0.  1.
         22    1    3    3    0    0 -0.12419734717E+03 -0.14128458894E+03 -0.51433660448E+02  0.19501727499E+03  0.00000000000E+00 0.  1.
</event>
<event>
 7    1  0.6485470E-006  0.1174258E+03  0.7818608E-02  0.1370613E+00
          2   -1    0    0  502    0  0.00000000000E+00  0.00000000000E+00  0.82285723028E+03  0.82285723028E+03  0.00000000000E+00 0. -1.
          1   -1    0    0  501    0 -0.00000000000E+00 -0.00000000000E+00 -0.37939941868E+03  0.37939941868E+03  0.00000000000E+00 0. -1.
         25    2    1    2    0    0 -0.15271625281E+03  0.15158516651E+02 -0.23371272720E+03  0.30625865302E+03  0.12498275558E+03 0.  0.
          2    1    1    2  501    0  0.37771780279E+02  0.58692094581E+01 -0.10157755395E+03  0.10853181318E+03  0.00000000000E+00 0. -1.
          1    1    1    2  502    0  0.11494447253E+03 -0.21027726109E+02  0.77874809275E+03  0.78746618276E+03  0.00000000000E+00 0. -1.
         22    1    3    3    0    0 -0.10744572954E+03 -0.40079032657E+01 -0.23353491615E+03  0.25709765683E+03  0.00000000000E+00 0.  1.
         22    1    3    3    0    0 -0.45270523269E+02  0.19166419916E+02 -0.17781105120E+00  0.49160996189E+02  0.00000000000E+00 0.  1.
</event>
<event>
 7    1  0.6485470E-006  0.5641571E+02  0.7818608E-02  0.1471068E+00
          2   -1    0    0  502    0  0.00000000000E+00  0.00000000000E+00  0.19014419979E+03  0.19014419979E+03  0.00000000000E+00 0. -1.
          1   -1    0    0  501    0 -0.00000000000E+00 -0.00000000000E+00 -0.65826205036E+03  0.65826205036E+03  0.00000000000E+00 0. -1.
         25    2    1    2    0    0  0.55782377650E+02 -0.25724449101E+02 -0.90642768322E+02  0.16618241820E+03  0.12500825466E+03 0.  0.
          2    1    1    2  501    0 -0.27710273229E+02  0.49430317379E+02 -0.52609057853E+03  0.52913373766E+03  0.00000000000E+00 0. -1.
          1    1    1    2  502    0 -0.28072104421E+02 -0.23705868279E+02  0.14861549628E+03  0.15309009429E+03  0.00000000000E+00 0. -1.
         22    1    3    3    0    0  0.79074682488E+02 -0.31559666722E+02 -0.14528901745E+02  0.86370752921E+02  0.00000000000E+00 0. -1.
         22    1    3    3    0    0 -0.23292304838E+02  0.58352176215E+01 -0.76113866577E+02  0.79811665279E+02  0.00000000000E+00 0. -1.
</event>
<event>
 7    1  0.6485470E-006  0.6797040E+02  0.7818608E-02  0.1470776E+00
          2   -1    0    0  502    0  0.00000000000E+00  0.00000000000E+00  0.26653395149E+04  0.26653395149E+04  0.00000000000E+00 0. -1.
          1   -1    0    0  501    0 -0.00000000000E+00 -0.00000000000E+00 -0.16022288947E+03  0.16022288947E+03  0.00000000000E+00 0. -1.
         25    2    1    2    0    0  0.52426849492E+02  0.33416952718E+02 -0.17960948029E+02  0.14075238382E+03  0.12499348231E+03 0.  0.
          2    1    1    2  501    0  0.15258261326E+02 -0.26478611789E+02 -0.77518017871E+02  0.83324513293E+02  0.00000000000E+00 0. -1.
          1    1    1    2  502    0 -0.67685110819E+02 -0.69383409293E+01  0.26005955913E+04  0.26014855072E+04  0.00000000000E+00 0. -1.
         22    1    3    3    0    0  0.71792775251E+02  0.17983302850E+02 -0.57757355458E+02  0.93880316729E+02  0.00000000000E+00 0. -1.
         22    1    3    3    0    0 -0.19365925759E+02  0.15433649867E+02  0.39796407429E+02  0.46872067086E+02  0.00000000000E+00 0. -1.
</event>
<event>
 7    1  0.6485470E-006  0.1272986E+03  0.7818608E-02  0.1257820E+00
          2   -1    0    0  502    0  0.00000000000E+00  0.00000000000E+00  0.54814258970E+03  0.54814258970E+03  0.00000000000E+00 0. -1.
          1   -1    0    0  501    0 -0.00000000000E+00 -0.00000000000E+00 -0.61317025671E+03  0.61317025671E+03  0.00000000000E+00 0. -1.
         25    2    1    2    0    0 -0.16354566661E+02 -0.71616722139E+02 -0.49534439960E+02  0.15321779927E+03  0.12500242609E+03 0.  0.
          2    1    1    2  501    0 -0.97653226733E+02  0.11179196097E+01 -0.49791240271E+03  0.50739941191E+03  0.00000000000E+00 0. -1.
          1    1    1    2  502    0  0.11400779339E+03  0.70498802529E+02  0.48241917565E+03  0.50069563524E+03  0.00000000000E+00 0. -1.
         22    1    3    3    0    0 -0.59151409649E+02  0.97726826331E+00 -0.94851208561E+01  0.59915038466E+02  0.00000000000E+00 0.  1.
         22    1    3    3    0    0  0.42796842988E+02 -0.72593990402E+02 -0.40049319104E+02  0.93302760800E+02  0.00000000000E+00 0.  1.
</event>
<event>
 7    1  0.6485470E-006  0.8474927E+02  0.7818608E-02  0.1347616E+00
          2   -1    0    0  502    0  0.00000000000E+00  0.00000000000E+00  0.88850237855E+03  0.88850237855E+03  0.00000000000E+00 0. -1.
          1   -1    0    0  501    0 -0.00000000000E+00 -0.00000000000E+00 -0.15719416945E+04  0.15719416945E+04  0.00000000000E+00 0. -1.
         25    2    1    2    0    0  0.82691925906E+02  0.11191277387E+03  0.42702924068E+03  0.46619769833E+03  0.12499559181E+03 0.  0.
          2    1    1    2  501    0 -0.31446769853E+02 -0.56053258814E+02 -0.15484348824E+04  0.15497681930E+04  0.00000000000E+00 0. -1.
          1    1    1    2  502    0 -0.51245156053E+02 -0.55859515054E+02  0.43796632579E+03  0.44447818166E+03  0.00000000000E+00 0. -1.
         22    1    3    3    0    0  0.72159180376E+02  0.18498054157E+02  0.92800716856E+02  0.11900041331E+03  0.00000000000E+00 0.  1.
         22    1    3    3    0    0  0.10532745530E+02  0.93414719712E+02  0.33422852382E+03  0.34719728502E+03  0.00000000000E+00 0.  1.
</event>
<event>
 7    1  0.6485470E-006  0.1128678E+03  0.7818608E-02  0.1335716E+00
          2   -1    0    0  502    0  0.00000000000E+00  0.00000000000E+00  0.31199004709E+04  0.31199004709E+04  0.00000000000E+00 0. -1.
          1   -1    0    0  501    0 -0.00000000000E+00 -0.00000000000E+00 -0.32041751527E+03  0.32041751527E+03  0.00000000000E+00 0. -1.
         25    2    1    2    0    0  0.11379450072E+03 -0.11755399620E+03  0.45188941734E+03  0.49658488744E+03  0.12499749803E+03 0.  0.
          2    1    1    2  501    0 -0.85159482657E+02  0.72378865594E+02 -0.28731239418E+03  0.30828436470E+03  0.00000000000E+00 0. -1.
          1    1    1    2  502    0 -0.28635018061E+02  0.45175130610E+02  0.26349059324E+04  0.26354487340E+04  0.00000000000E+00 0. -1.
         22    1    3    3    0    0  0.48607245136E+02 -0.60548639172E+02  0.36770100650E+03  0.37580956902E+03  0.00000000000E+00 0. -1.
         22    1    3    3    0    0  0.65187255582E+02 -0.57005357032E+02  0.84188410846E+02  0.12077531843E+03  0.00000000000E+00 0. -1.
</event>
<event>
 7    1  0.6485470E-006  0.5909043E+02  0.7818608E-02  0.1544237E+00
          2   -1    0    0  502    0  0.00000000000E+00  0.00000000000E+00  0.40471065501E+03  0.40471065501E+03  0.00000000000E+00 0. -1.
          1   -1    0    0  501    0 -0.00000000000E+00 -0.00000000000E+00 -0.11026374705E+04  0.11026374705E+04  0.00000000000E+00 0. -1.
         25    2    1    2    0    0 -0.62361156959E+02  0.14543922732E+02  0.11214674718E+03  0.17973032510E+03  0.12500262906E+03 0.  0.
          2    1    1    2  501    0  0.12679976510E+02  0.17143242428E+02 -0.10653830277E+04  0.10655963909E+04  0.00000000000E+00 0. -1.
          1    1    1    2  502    0  0.49681180449E+02 -0.31687165159E+02  0.25530946501E+03  0.26202140953E+03  0.00000000000E+00 0. -1.
         22    1    3    3    0    0 -0.84525719258E+01  0.24800063670E+02  0.12129929072E+03  0.12409676490E+03  0.00000000000E+00 0.  1.
         22    1    3    3    0    0 -0.53908585033E+02 -0.10256140939E+02 -0.91525435353E+01  0.55633560199E+02  0.00000000000E+00 0.  1.
</event>
<event>
 7    1  0.6485470E-006  0.6793002E+02  0.7818608E-02  0.1432985E+00
          2   -1    0    0  502    0  0.00000000000E+00  0.00000000000E+00  0.70467123192E+03  0.70467123192E+03  0.00000000000E+00 0. -1.
          1   -1    0    0  501    0 -0.00000000000E+00 -0.00000000000E+00 -0.28057949775E+04  0.28057949775E+04  0.00000000000E+00 0. -1.
         25    2    1    2    0    0 -0.60643941832E+02 -0.50869078196E+02  0.19469366570E+03  0.24453405862E+03  0.12500372619E+03 0.  0.
          2    1    1    2  501    0 -0.62750321110E+01  0.39876501954E+02 -0.27783571158E+04  0.27786503512E+04  0.00000000000E+00 0. -1.
          1    1    1    2  502    0  0.66918973943E+02  0.10992576242E+02  0.48253970450E+03  0.48728179960E+03  0.00000000000E+00 0. -1.
         22    1    3    3    0    0 -0.14974849541E+02 -0.86270009238E+02  0.13900469606E+03  0.16428349321E+03  0.00000000000E+00 0.  1.
         22    1    3    3    0    0 -0.45669092291E+02  0.35400931042E+02  0.55688969642E+02  0.80250565413E+02  0.00000000000E+00 0.  1.
</event>
<event>
 7    1  0.6485470E-006  0.9138610E+02  0.7818608E-02  0.1419524E+00
          2   -1    0    0  502    0  0.00000000000E+00  0.00000000000E+00  0.13516001244E+04  0.13516001244E+04  0.00000000000E+00 0. -1.
          1   -1    0    0  501    0 -0.00000000000E+00 -0.00000000000E+00 -0.31957384138E+03  0.31957384138E+03  0.00000000000E+00 0. -1.
         25    2    1    2    0    0 -0.45274582803E+02  0.11494577247E+03  0.23161250679E+03  0.29074499624E+03  0.12500392425E+03 0.  0.
          2    1    1    2  501    0  0.36227398593E+02 -0.82952208606E+02 -0.28268310991E+03  0.29682188927E+03  0.00000000000E+00 0. -1.
          1    1    1    2  502    0  0.90471842098E+01 -0.31993563868E+02  0.10830968861E+04  0.10836070803E+04  0.00000000000E+00 0. -1.
         22    1    3    3    0    0 -0.71088967080E+02  0.88744257503E+02  0.91691556042E+02  0.14607027737E+03  0.00000000000E+00 0.  1.
         22    1    3    3    0    0  0.25814384277E+02  0.26201514971E+02  0.13992095075E+03  0.14467471887E+03  0.00000000000E+00 0.  1.
</event>
<event>
 7    1  0.6485470E-006  0.6397500E+02  0.7818608E-02  0.1407769E+00
          2   -1    0    0  502    0  0.00000000000E+00  0.00000000000E+00  0.83530766307E+03  0.83530766307E+03  0.00000000000E+00 0. -1.
          1   -1    0    0  501    0 -0.00000000000E+00 -0.00000000000E+00 -0.53504598171E+02  0.53504598171E+02  0.00000000000E+00 0. -1.
         25    2    1    2    0    0  0.16696283114E+02 -0.27926224427E+01  0.19101569225E+03  0.22890795437E+03  0.12500116911E+03 0.  0.
          2    1    1    2  501    0  0.49768765156E+02 -0.15174847251E+02 -0.11836374193E+02  0.53360151127E+02  0.00000000000E+00 0. -1.
          1    1    1    2  502    0 -0.66465048270E+02  0.17967469694E+02  0.60262374685E+03  0.60654415575E+03  0.00000000000E+00 0. -1.
         22    1    3    3    0    0  0.65835894419E+02 -0.20548052130E+02  0.76281818429E+02  0.10283726593E+03  0.00000000000E+00 0. -1.
         22    1    3    3    0    0 -0.49139611306E+02  0.17755429687E+02  0.11473387382E+03  0.12607068844E+03  0.00000000000E+00 0. -1.
</event>
<event>
 7    1  0.6485470E-006  0.3392269E+02  0.7818608E-02  0.1590179E+00
          2   -1    0    0  502    0  0.00000000000E+00  0.00000000000E+00  0.51949637918E+03  0.51949637918E+03  0.00000000000E+00 0. -1.
          1   -1    0    0  501    0 -0.00000000000E+00 -0.00000000000E+00 -0.71493361290E+03  0.71493361290E+03  0.00000000000E+00 0. -1.
         25    2    1    2    0    0  0.60990415469E+01  0.13082941306E+02  0.83041863687E+02  0.15076384791E+03  0.12500170019E+03 0.  0.
          2    1    1    2  501    0 -0.33273683730E+02 -0.70599770151E+01 -0.68016602951E+03  0.68101601230E+03  0.00000000000E+00 0. -1.
          1    1    1    2  502    0  0.27174642183E+02 -0.60229642911E+01  0.40168693210E+03  0.40265013187E+03  0.00000000000E+00 0. -1.
         22    1    3    3    0    0  0.45710604649E+02  0.68923933553E+01  0.97693132564E+02  0.10807827077E+03  0.00000000000E+00 0. -1.
         22    1    3    3    0    0 -0.39611563102E+02  0.61905479509E+01 -0.14651268877E+02  0.42685577131E+02  0.00000000000E+00 0. -1.
</event>
<event>
 7    1  0.6485470E-006  0.1395080E+03  0.7818608E-02  0.1293034E+00
          2   -1    0    0  502    0  0.00000000000E+00  0.00000000000E+00  0.13164968643E+04  0.13164968643E+04  0.00000000000E+00 0. -1.
          1   -1    0    0  501    0 -0.00000000000E+00 -0.00000000000E+00 -0.80969092923E+03  0.80969092923E+03  0.00000000000E+00 0. -1.
         25    2    1    2    0    0  0.12785982795E+03  0.59095271718E+02 -0.26782449520E+02  0.19021380676E+03  0.12499442362E+03 0.  0.
          2    1    1    2  501    0 -0.14050124758E+03  0.32148614148E+01 -0.69331948260E+03  0.70741984765E+03  0.00000000000E+00 0. -1.
          1    1    1    2  502    0  0.12641419622E+02 -0.62310133133E+02  0.12269078672E+04  0.12285541392E+04  0.00000000000E+00 0. -1.
         22    1    3    3    0    0  0.85223145048E+02  0.20342961056E+02 -0.74806324574E+02  0.11520766777E+03  0.00000000000E+00 0. -1.
         22    1    3    3    0    0  0.42636682907E+02  0.38752310662E+02  0.48023875054E+02  0.75006138990E+02  0.00000000000E+00 0. -1.
</event>
<event>
 7    1  0.6485470E-006  0.5170009E+02  0.7818608E-02  0.1504994E+00
          2   -1    0    0  502    0  0.00000000000E+00  0.00000000000E+00  0.51890781489E+03  0.51890781489E+03  0.00000000000E+00 0. -1.
          1   -1    0    0  501    0 -0.00000000000E+00 -0.00000000000E+00 -0.12358386280E+03  0.12358386280E+03  0.00000000000E+00 0. -1.
         25    2    1    2    0    0 -0.12526965332E+02  0.39204735662E+02  0.25189035499E-01  0.13156725112E+03  0.12496401392E+03 0.  0.
          2    1    1    2  501    0  0.30044685416E+02  0.98981552185E+01 -0.51854827203E+02  0.60741910595E+02  0.00000000000E+00 0. -1.
          1    1    1    2  502    0 -0.17517720084E+02 -0.49102890880E+02  0.44715359026E+03  0.45018251598E+03  0.00000000000E+00 0. -1.
         22    1    3    3    0    0  0.37364229686E+02  0.11833952313E+02 -0.44509661532E+02  0.59306307060E+02  0.00000000000E+00 0.  1.
         22    1    3    3    0    0 -0.49891195018E+02  0.27370783349E+02  0.44534850568E+02  0.72260944061E+02  0.00000000000E+00 0.  1.
</event>
<event>
 7    1  0.6485470E-006  0.5958900E+02  0.7818608E-02  0.1447735E+00
          2   -1    0    0  502    0  0.00000000000E+00  0.00000000000E+00  0.40259524656E+03  0.40259524656E+03  0.00000000000E+00 0. -1.
          1   -1    0    0  501    0 -0.00000000000E+00 -0.00000000000E+00 -0.10898526255E+04  0.10898526255E+04  0.00000000000E+00 0. -1.
         25    2    1    2    0    0  0.67097465346E+02 -0.64239033793E+02 -0.24385846645E+03  0.28933076156E+03  0.12496645393E+03 0.  0.
          2    1    1    2  501    0 -0.28042089487E+02  0.51066149627E+02 -0.82110478791E+03  0.82316898821E+03  0.00000000000E+00 0. -1.
          1    1    1    2  502    0 -0.39055375860E+02  0.13172884165E+02  0.37770587544E+03  0.37994812225E+03  0.00000000000E+00 0. -1.
         22    1    3    3    0    0 -0.84703769060E+01 -0.22203068091E+02 -0.18068270600E+03  0.18223875484E+03  0.00000000000E+00 0.  1.
         22    1    3    3    0    0  0.75567842253E+02 -0.42035965702E+02 -0.63175760442E+02  0.10709200672E+03  0.00000000000E+00 0.  1.
</event>
<event>
 7    1  0.6485470E-006  0.1027142E+03  0.7818608E-02  0.1295445E+00
          2   -1    0    0  502    0  0.00000000000E+00  0.00000000000E+00  0.18854943395E+03  0.18854943395E+03  0.00000000000E+00 0. -1.
          1   -1    0    0  501    0 -0.00000000000E+00 -0.00000000000E+00 -0.10601462928E+04  0.10601462928E+04  0.00000000000E+00 0. -1.
         25    2    1    2    0    0  0.71187687279E+02 -0.30778205123E+02 -0.45762218319E+02  0.15405761437E+03  0.12499833274E+03 0.  0.
          2    1    1    2  501    0 -0.33873154159E+02 -0.77347122208E+02 -0.93364465172E+03  0.93745522750E+03  0.00000000000E+00 0. -1.
          1    1    1    2  502    0 -0.37314533120E+02  0.10812532733E+03  0.10781001118E+03  0.15718288489E+03  0.00000000000E+00 0. -1.
         22    1    3    3    0    0 -0.20934647020E+02  0.24903204449E+02 -0.31834336102E+02  0.45517622880E+02  0.00000000000E+00 0. -1.
         22    1    3    3    0    0  0.92122334299E+02 -0.55681409572E+02 -0.13927882217E+02  0.10853999149E+03  0.00000000000E+00 0. -1.
</event>
<event>
 7    1  0.6485470E-006  0.8879161E+02  0.7818608E-02  0.1446687E+00
          2   -1    0    0  502    0  0.00000000000E+00  0.00000000000E+00  0.26653832929E+03  0.26653832929E+03  0.00000000000E+00 0. -1.
          1   -1    0    0  501    0 -0.00000000000E+00 -0.00000000000E+00 -0.85484718976E+03  0.85484718976E+03  0.00000000000E+00 0. -1.
         25    2    1    2    0    0 -0.10522278991E+03 -0.21141214367E+02 -0.15588721717E+03  0.22681354679E+03  0.12499909627E+03 0.  0.
          2    1    1    2  501    0  0.17152794204E+02  0.21974688670E+02 -0.65479714931E+03  0.65539027459E+03  0.00000000000E+00 0. -1.
          1    1    1    2  502    0  0.88069995708E+02 -0.83347430267E+00  0.22237550601E+03  0.23918169766E+03  0.00000000000E+00 0. -1.
         22    1    3    3    0    0 -0.11224219131E+03 -0.23119737139E+02 -0.57606797833E+02  0.12826291323E+03  0.00000000000E+00 0. -1.
         22    1    3    3    0    0  0.70194013959E+01  0.19785227719E+01 -0.98280419339E+02  0.98550633554E+02  0.00000000000E+00 0. -1.
</event>
<event>
 7    1  0.6485470E-006  0.8217111E+02  0.7818608E-02  0.1427593E+00
          2   -1    0    0  502    0  0.00000000000E+00  0.00000000000E+00  0.36060132922E+03  0.36060132922E+03  0.00000000000E+00 0. -1.
          1   -1    0    0  501    0 -0.00000000000E+00 -0.00000000000E+00 -0.24385869729E+03  0.24385869729E+03  0.00000000000E+00 0. -1.
         25    2    1    2    0    0  0.91818704886E+02  0.70354984634E+02  0.19083536018E+03  0.25578017882E+03  0.12499946701E+03 0.  0.
          2    1    1    2  501    0 -0.65500155985E+02 -0.47644179170E+02 -0.20120724234E+03  0.21689765469E+03  0.00000000000E+00 0. -1.
          1    1    1    2  502    0 -0.26318548901E+02 -0.22710805465E+02  0.12711451408E+03  0.13178219300E+03  0.00000000000E+00 0. -1.
         22    1    3    3    0    0  0.10257694083E+03  0.38254457933E+02  0.19296504466E+03  0.22185792932E+03  0.00000000000E+00 0. -1.
         22    1    3    3    0    0 -0.10758235944E+02  0.32100526701E+02 -0.21296844806E+01  0.33922249499E+02  0.00000000000E+00 0. -1.
</event>
<event>
 7    1  0.6485470E-006  0.6741073E+02  0.7818608E-02  0.1447520E+00
          2   -1    0    0  502    0  0.00000000000E+00  0.00000000000E+00  0.16262387764E+03  0.16262387764E+03  0.00000000000E+00 0. -1.
          1   -1    0    0  501    0 -0.00000000000E+00 -0.00000000000E+00 -0.15518495791E+04  0.15518495791E+04  0.00000000000E+00 0. -1.
         25    2    1    2    0    0  0.42794406162E+02  0.93130252397E+02 -0.26772689779E+03  0.31274219942E+03  0.12500154555E+03 0.  0.
          2    1    1    2  501    0 -0.26021732101E+02 -0.60720629385E+02 -0.12583577405E+04  0.12600906033E+04  0.00000000000E+00 0. -1.
          1    1    1    2  502    0 -0.16772674061E+02 -0.32409623012E+02  0.13685893688E+03  0.14164065399E+03  0.00000000000E+00 0. -1.
         22    1    3    3    0    0  0.39159613272E+02  0.11010537257E+03 -0.13360719178E+03  0.17750366215E+03  0.00000000000E+00 0. -1.
         22    1    3    3    0    0  0.36347928901E+01 -0.16975120176E+02 -0.13411970601E+03  0.13523853728E+03  0.00000000000E+00 0. -1.
</event>
<event>
 7    1  0.6485470E-006  0.8555597E+02  0.7818608E-02  0.1410611E+00
          2   -1    0    0  502    0  0.00000000000E+00  0.00000000000E+00  0.26858733619E+03  0.26858733619E+03  0.00000000000E+00 0. -1.
          1   -1    0    0  501    0 -0.00000000000E+00 -0.00000000000E+00 -0.16235987561E+03  0.16235987561E+03  0.00000000000E+00 0. -1.
         25    2    1    2    0    0  0.13464850102E+02  0.62705232548E+02  0.43645113591E+02  0.14711723634E+03  0.12500134764E+03 0.  0.
          2    1    1    2  501    0 -0.49095926274E+02 -0.76061029540E+02 -0.89354687420E+02  0.12720043379E+03  0.00000000000E+00 0. -1.
          1    1    1    2  502    0  0.35631076172E+02  0.13355796992E+02  0.15193703440E+03  0.15662954167E+03  0.00000000000E+00 0. -1.
         22    1    3    3    0    0 -0.17421914225E+02  0.22352788082E+02 -0.40133831831E+02  0.49131402257E+02  0.00000000000E+00 0.  1.
         22    1    3    3    0    0  0.30886764327E+02  0.40352444466E+02  0.83778945422E+02  0.97985834083E+02  0.00000000000E+00 0.  1.
</event>
<event>
 7    1  0.6485470E-006  0.5520498E+02  0.7818608E-02  0.1425976E+00
          2   -1    0    0  502    0  0.00000000000E+00  0.00000000000E+00  0.25017479513E+04  0.25017479513E+04  0.00000000000E+00 0. -1.
          1   -1    0    0  501    0 -0.00000000000E+00 -0.00000000000E+00 -0.12571531754E+02  0.12571531754E+02  0.00000000000E+00 0. -1.
         25    2    1    2    0    0  0.85504879850E+02 -0.49129999388E+02  0.16022473727E+04  0.16101388935E+04  0.12500308701E+03 0.  0.
          2    1    1    2  501    0 -0.33761292603E+02  0.40958750502E+02  0.82837216196E+02  0.98384188302E+02  0.00000000000E+00 0. -1.
          1    1    1    2  502    0 -0.51743587248E+02  0.81712488854E+01  0.80409183066E+03  0.80579640125E+03  0.00000000000E+00 0. -1.
         22    1    3    3    0    0  0.65013456625E+02  0.34045983230E+02  0.77621046569E+03  0.77967208849E+03  0.00000000000E+00 0. -1.
         22    1    3    3    0    0  0.20491423225E+02 -0.83175982618E+02  0.82603690702E+03  0.83046680504E+03  0.00000000000E+00 0. -1.
</event>
<event>
 7    1  0.6485470E-006  0.2048037E+03  0.7818608E-02  0.1306826E+00
          2   -1    0    0  502    0  0.00000000000E+00  0.00000000000E+00  0.14323211782E+04  0.14323211782E+04  0.00000000000E+00 0. -1.
          1   -1    0    0  501    0 -0.00000000000E+00 -0.00000000000E+00 -0.32107437197E+03  0.32107437197E+03  0.00000000000E+00 0. -1.
         25    2    1    2    0    0  0.55523827983E+02  0.17013540322E+03  0.14740898778E+03  0.26340295408E+03  0.12499102224E+03 0.  0.
          2    1    1    2  501    0 -0.87213792242E+02 -0.19135475491E+03 -0.22069680617E+03  0.30484417009E+03  0.00000000000E+00 0. -1.
          1    1    1    2  502    0  0.31689964259E+02  0.21219351694E+02  0.11845346247E+04  0.11851484260E+04  0.00000000000E+00 0. -1.
         22    1    3    3    0    0 -0.25456197494E+02  0.24497666460E-01  0.37378875253E+02  0.45223875399E+02  0.00000000000E+00 0. -1.
         22    1    3    3    0    0  0.80980025476E+02  0.17011090555E+03  0.11003011253E+03  0.21817907868E+03  0.00000000000E+00 0. -1.
</event>
<event>
 7    1  0.6485470E-006  0.9477567E+02  0.7818608E-02  0.1310917E+00
          2   -1    0    0  502    0  0.00000000000E+00  0.00000000000E+00  0.75525224405E+03  0.75525224405E+03  0.00000000000E+00 0. -1.
          1   -1    0    0  501    0 -0.00000000000E+00 -0.00000000000E+00 -0.61017259042E+02  0.61017259042E+02  0.00000000000E+00 0. -1.
         25    2    1    2    0    0 -0.13890730535E+03  0.55047347626E+02  0.32331111487E+03  0.37746577589E+03  0.12499954001E+03 0.  0.
          2    1    1    2  501    0  0.59872473916E+02 -0.62703697131E+02  0.34788527300E+02  0.93416852861E+02  0.00000000000E+00 0. -1.
          1    1    1    2  502    0  0.79034831437E+02  0.76563495050E+01  0.33613534283E+03  0.34538687434E+03  0.00000000000E+00 0. -1.
         22    1    3    3    0    0 -0.13311034786E+03  0.18308381689E+02  0.15516532632E+03  0.20525554813E+03  0.00000000000E+00 0. -1.
         22    1    3    3    0    0 -0.57969574973E+01  0.36738965938E+02  0.16814578856E+03  0.17221022776E+03  0.00000000000E+00 0. -1.
</event>
<event>
 7    1  0.6485470E-006  0.1527755E+03  0.7818608E-02  0.1325548E+00
          2   -1    0    0  502    0  0.00000000000E+00  0.00000000000E+00  0.66485060556E+03  0.66485060556E+03  0.00000000000E+00 0. -1.
          1   -1    0    0  501    0 -0.00000000000E+00 -0.00000000000E+00 -0.49215360298E+03  0.49215360298E+03  0.00000000000E+00 0. -1.
         25    2    1    2    0    0  0.39401276349E+02 -0.13097981801E+03  0.30401938923E+03  0.35603415370E+03  0.12499742504E+03 0.  0.
          2    1    1    2  501    0 -0.25635262341E+01  0.15356116514E+03 -0.45200757208E+03  0.47738710532E+03  0.00000000000E+00 0. -1.
          1    1    1    2  502    0 -0.36837750115E+02 -0.22581347135E+02  0.32068518542E+03  0.32358294952E+03  0.00000000000E+00 0. -1.
         22    1    3    3    0    0  0.28032697746E+01 -0.37979732485E+02  0.22544389918E+01  0.38149716857E+02  0.00000000000E+00 0.  1.
         22    1    3    3    0    0  0.36598006574E+02 -0.93000085524E+02  0.30176495024E+03  0.31788443684E+03  0.00000000000E+00 0.  1.
</event>
<event>
 7    1  0.8830007E-006  0.7229125E+02  0.7818608E-02  0.1435724E+00
          2   -1    0    0  502    0  0.00000000000E+00  0.00000000000E+00  0.17937779339E+04  0.17937779339E+04  0.00000000000E+00 0. -1.
          1   -1    0    0  501    0 -0.00000000000E+00 -0.00000000000E+00 -0.56489375459E+03  0.56489375459E+03  0.00000000000E+00 0. -1.
         25    2    1    2    0    0 -0.10679344791E+02  0.91962571677E+02 -0.16929989670E+03  0.22991069227E+03  0.12500123360E+03 0.  0.
          2    1    1    2  501    0  0.29736045455E+02 -0.22280706567E+02 -0.36360139588E+03  0.36549505793E+03  0.00000000000E+00 0. -1.
          1    1    1    2  502    0 -0.19056700664E+02 -0.69681865110E+02  0.17617854718E+04  0.17632659382E+04  0.00000000000E+00 0. -1.
         22    1    3    3    0    0  0.60706152464E+01  0.11536536672E+03 -0.92817430195E+02  0.14819276486E+03  0.00000000000E+00 0.  1.
         22    1    3    3    0    0 -0.16749960038E+02 -0.23402795043E+02 -0.76482466506E+02  0.81717927409E+02  0.00000000000E+00 0.  1.
</event>
<event>
 7    1  0.6485470E-006  0.6551573E+02  0.7818608E-02  0.1478976E+00
          2   -1    0    0  502    0  0.00000000000E+00  0.00000000000E+00  0.58408017849E+03  0.58408017849E+03  0.00000000000E+00 0. -1.
          1   -1    0    0  501    0 -0.00000000000E+00 -0.00000000000E+00 -0.22042120337E+04  0.22042120337E+04  0.00000000000E+00 0. -1.
         25    2    1    2    0    0 -0.44532290482E+02  0.88284540584E+01 -0.29122600818E+02  0.13614055635E+03  0.12500023483E+03 0.  0.
          2    1    1    2  501    0  0.64320052205E+02  0.13598444160E+02 -0.21206491705E+04  0.21216679502E+04  0.00000000000E+00 0. -1.
          1    1    1    2  502    0 -0.19787761722E+02 -0.22426898219E+02  0.52963991606E+03  0.53048370565E+03  0.00000000000E+00 0. -1.
         22    1    3    3    0    0  0.10195754234E+02  0.96951362249E+00 -0.67861743787E+02  0.68630238458E+02  0.00000000000E+00 0. -1.
         22    1    3    3    0    0 -0.54728044716E+02  0.78589404359E+01  0.38739142969E+02  0.67510317887E+02  0.00000000000E+00 0. -1.
</event>
<event>
 7    1  0.6485470E-006  0.6362847E+02  0.7818608E-02  0.1413873E+00
          2   -1    0    0  502    0  0.00000000000E+00  0.00000000000E+00  0.33294847111E+03  0.33294847111E+03  0.00000000000E+00 0. -1.
          1   -1    0    0  501    0 -0.00000000000E+00 -0.00000000000E+00 -0.15523311843E+04  0.15523311843E+04  0.00000000000E+00 0. -1.
         25    2    1    2    0    0 -0.45861384059E+02  0.42673341921E+02 -0.10428402805E+03  0.17442753633E+03  0.12500210504E+03 0.  0.
          2    1    1    2  501    0 -0.18150435068E+02 -0.46464446728E+02 -0.14090779322E+04  0.14099606385E+04  0.00000000000E+00 0. -1.
          1    1    1    2  502    0  0.64011819127E+02  0.37911048064E+01  0.29397924699E+03  0.30089148065E+03  0.00000000000E+00 0. -1.
         22    1    3    3    0    0  0.11917511538E+02  0.10099395893E+02  0.24794056159E+02  0.29304779465E+02  0.00000000000E+00 0. -1.
         22    1    3    3    0    0 -0.57778895597E+02  0.32573946029E+02 -0.12907808421E+03  0.14512275687E+03  0.00000000000E+00 0. -1.
</event>
<event>
 7    1  0.6485470E-006  0.8073942E+02  0.7818608E-02  0.1438863E+00
          2   -1    0    0  502    0  0.00000000000E+00  0.00000000000E+00  0.23160562610E+04  0.23160562610E+04  0.00000000000E+00 0. -1.
          1   -1    0    0  501    0 -0.00000000000E+00 -0.00000000000E+00 -0.20502547980E+02  0.20502547980E+02  0.00000000000E+00 0. -1.
         25    2    1    2    0    0  0.10060927457E+03  0.36274902429E+02  0.69769801779E+03  0.71682991113E+03  0.12499801114E+03 0.  0.
          2    1    1    2  501    0 -0.73684530367E+02 -0.18081957204E+02  0.12301638339E+03  0.14453164973E+03  0.00000000000E+00 0. -1.
          1    1    1    2  502    0 -0.26924744206E+02 -0.18192945226E+02  0.14748393118E+04  0.14751972481E+04  0.00000000000E+00 0. -1.
         22    1    3    3    0    0  0.47847436933E+02 -0.43258300097E+02  0.20274075474E+03  0.21275448616E+03  0.00000000000E+00 0. -1.
         22    1    3    3    0    0  0.52761837639E+02  0.79533202526E+02  0.49495726305E+03  0.50407542497E+03  0.00000000000E+00 0. -1.
</event>
<event>
 7    1  0.6485470E-006  0.1091409E+03  0.7818608E-02  0.1315348E+00
          2   -1    0    0  502    0  0.00000000000E+00  0.00000000000E+00  0.69605201299E+03  0.69605201299E+03  0.00000000000E+00 0. -1.
          1   -1    0    0  501    0 -0.00000000000E+00 -0.00000000000E+00 -0.29511798318E+03  0.29511798318E+03  0.00000000000E+00 0. -1.
         25    2    1    2    0    0 -0.79209223614E+02  0.11037188180E+02  0.17869726907E+03  0.23227807946E+03  0.12499788637E+03 0.  0.
          2    1    1    2  501    0  0.80571523451E+02 -0.77272163333E+02 -0.25432467761E+03  0.27774772593E+03  0.00000000000E+00 0. -1.
          1    1    1    2  502    0 -0.13622998369E+01  0.66234975153E+02  0.47656143836E+03  0.48114419078E+03  0.00000000000E+00 0. -1.
         22    1    3    3    0    0 -0.10528425394E+03  0.34071127948E+02  0.15389740714E+03  0.18955217702E+03  0.00000000000E+00 0.  1.
         22    1    3    3    0    0  0.26075030328E+02 -0.23033939768E+02  0.24799861925E+02  0.42725902441E+02  0.00000000000E+00 0.  1.
</event>
<event>
 7    1  0.6485470E-006  0.2775711E+03  0.7818608E-02  0.1232972E+00
          2   -1    0    0  502    0  0.00000000000E+00  0.00000000000E+00  0.20636262667E+04  0.20636262667E+04  0.00000000000E+00 0. -1.
          1   -1    0    0  501    0 -0.00000000000E+00 -0.00000000000E+00 -0.10036301563E+04  0.10036301563E+04  0.00000000000E+00 0. -1.
         25    2    1    2    0    0  0.24512763516E+03  0.77988031708E+02  0.64333650819E+03  0.70404286639E+03  0.12499921730E+03 0.  0.
          2    1    1    2  501    0 -0.24312609955E+03 -0.13546876823E+03 -0.95276374746E+03  0.99258291639E+03  0.00000000000E+00 0. -1.
          1    1    1    2  502    0 -0.20015356068E+01  0.57480736519E+02  0.13694233497E+04  0.13706306402E+04  0.00000000000E+00 0. -1.
         22    1    3    3    0    0  0.23645983403E+03  0.10215541937E+03  0.55155619556E+03  0.60873904070E+03  0.00000000000E+00 0. -1.
         22    1    3    3    0    0  0.86678011354E+01 -0.24167387663E+02  0.91780312636E+02  0.95303825687E+02  0.00000000000E+00 0. -1.
</event>
<event>
 7    1  0.6485470E-006  0.9304679E+02  0.7818608E-02  0.1341243E+00
          2   -1    0    0  502    0  0.00000000000E+00  0.00000000000E+00  0.35785592106E+03  0.35785592106E+03  0.00000000000E+00 0. -1.
          1   -1    0    0  501    0 -0.00000000000E+00 -0.00000000000E+00 -0.91774489739E+03  0.91774489739E+03  0.00000000000E+00 0. -1.
         25    2    1    2    0    0 -0.57476429962E+02  0.14315126359E+03  0.28912256364E+03  0.35072979589E+03  0.12499483448E+03 0.  0.
          2    1    1    2  501    0  0.31356692693E+02 -0.87098415272E+02 -0.85747265117E+03  0.86245505600E+03  0.00000000000E+00 0. -1.
          1    1    1    2  502    0  0.26119737269E+02 -0.56052848321E+02  0.84611111971E+01  0.62415966568E+02  0.00000000000E+00 0. -1.
         22    1    3    3    0    0 -0.92967698894E+02  0.10569180289E+03  0.24624569041E+03  0.28363830891E+03  0.00000000000E+00 0. -1.
         22    1    3    3    0    0  0.35491268931E+02  0.37459460705E+02  0.42876873230E+02  0.67091486976E+02  0.00000000000E+00 0. -1.
</event>
<event>
 7    1  0.6485470E-006  0.8087032E+02  0.7818608E-02  0.1440144E+00
          2   -1    0    0  502    0  0.00000000000E+00  0.00000000000E+00  0.18532684803E+04  0.18532684803E+04  0.00000000000E+00 0. -1.
          1   -1    0    0  501    0 -0.00000000000E+00 -0.00000000000E+00 -0.75878385199E+03  0.75878385199E+03  0.00000000000E+00 0. -1.
         25    2    1    2    0    0 -0.20840627105E+02 -0.65483207092E+02 -0.47017414046E+03  0.49133577285E+03  0.12499894869E+03 0.  0.
          2    1    1    2  501    0  0.10021221517E+01  0.90761076673E+02 -0.27047647181E+03  0.28530001593E+03  0.00000000000E+00 0. -1.
          1    1    1    2  502    0  0.19838504953E+02 -0.25277869581E+02  0.18351352405E+04  0.18354165435E+04  0.00000000000E+00 0. -1.
         22    1    3    3    0    0  0.33585723904E+02  0.20980426571E+02 -0.10817966131E+03  0.11519990569E+03  0.00000000000E+00 0. -1.
         22    1    3    3    0    0 -0.54426351008E+02 -0.86463633663E+02 -0.36199447915E+03  0.37613586716E+03  0.00000000000E+00 0. -1.
</event>
<event>
 7    1  0.6485470E-006  0.1056685E+03  0.7818608E-02  0.1310492E+00
          2   -1    0    0  502    0  0.00000000000E+00  0.00000000000E+00  0.20053937587E+04  0.20053937587E+04  0.00000000000E+00 0. -1.
          1   -1    0    0  501    0 -0.00000000000E+00 -0.00000000000E+00 -0.33998530420E+03  0.33998530420E+03  0.00000000000E+00 0. -1.
         25    2    1    2    0    0  0.16850635539E+03  0.45014192963E+02 -0.31070428795E+02  0.21681406879E+03  0.12498919757E+03 0.  0.
          2    1    1    2  501    0 -0.64619199684E+02 -0.30591476178E+02 -0.20864595717E+03  0.22055524212E+03  0.00000000000E+00 0. -1.
          1    1    1    2  502    0 -0.10388715570E+03 -0.14422716785E+02  0.19051248404E+04  0.19080097520E+04  0.00000000000E+00 0. -1.
         22    1    3    3    0    0  0.14503318853E+03  0.80220121371E+02 -0.45896999927E+02  0.17197798769E+03  0.00000000000E+00 0.  1.
         22    1    3    3    0    0  0.23473166860E+02 -0.35205928408E+02  0.14826571132E+02  0.44836081107E+02  0.00000000000E+00 0.  1.
</event>
<event>
 7    1  0.6485470E-006  0.4958268E+02  0.7818608E-02  0.1520562E+00
          2   -1    0    0  502    0  0.00000000000E+00  0.00000000000E+00  0.19014861756E+04  0.19014861756E+04  0.00000000000E+00 0. -1.
          1   -1    0    0  501    0 -0.00000000000E+00 -0.00000000000E+00 -0.85297913690E+03  0.85297913690E+03  0.00000000000E+00 0. -1.
         25    2    1    2    0    0  0.15637106923E+01 -0.22726587229E+02  0.12540777140E+03  0.17852549982E+03  0.12500120800E+03 0.  0.
          2    1    1    2  501    0 -0.21255794324E+02  0.44949955217E+02 -0.82554622275E+03  0.82704224388E+03  0.00000000000E+00 0. -1.
          1    1    1    2  502    0  0.19692083631E+02 -0.22223367988E+02  0.17486454901E+04  0.17488975688E+04  0.00000000000E+00 0. -1.
         22    1    3    3    0    0 -0.33955335371E+02 -0.63243983160E+02  0.58380197723E+02  0.92525746105E+02  0.00000000000E+00 0. -1.
         22    1    3    3    0    0  0.35519046064E+02  0.40517395932E+02  0.67027573673E+02  0.85999753714E+02  0.00000000000E+00 0. -1.
</event>
<event>
 7    1  0.6485470E-006  0.5053593E+02  0.7818608E-02  0.1453334E+00
          2   -1    0    0  502    0  0.00000000000E+00  0.00000000000E+00  0.20391341868E+04  0.20391341868E+04  0.00000000000E+00 0. -1.
          1   -1    0    0  501    0 -0.00000000000E+00 -0.00000000000E+00 -0.41707913819E+03  0.41707913819E+03  0.00000000000E+00 0. -1.
         25    2    1    2    0    0 -0.16163420540E+02 -0.12488492149E+02 -0.39020784393E+02  0.13252969408E+03  0.12499711836E+03 0.  0.
          2    1    1    2  501    0  0.28944748982E+02 -0.36569749787E+02 -0.32933819248E+03  0.33262409732E+03  0.00000000000E+00 0. -1.
          1    1    1    2  502    0 -0.12781328442E+02  0.49058241935E+02  0.19904140255E+04  0.19910595336E+04  0.00000000000E+00 0. -1.
         22    1    3    3    0    0  0.46536232616E+02 -0.22266341943E+01  0.15198185747E+02  0.49005751662E+02  0.00000000000E+00 0.  1.
         22    1    3    3    0    0 -0.62699653156E+02 -0.10261857954E+02 -0.54218970140E+02  0.83523942422E+02  0.00000000000E+00 0.  1.
</event>
<event>
 7    1  0.6485470E-006  0.1794789E+03  0.7818608E-02  0.1259721E+00
          2   -1    0    0  502    0  0.00000000000E+00  0.00000000000E+00  0.97023122707E+03  0.97023122707E+03  0.00000000000E+00 0. -1.
          1   -1    0    0  501    0 -0.00000000000E+00 -0.00000000000E+00 -0.27710799472E+03  0.27710799472E+03  0.00000000000E+00 0. -1.
         25    2    1    2    0    0 -0.22290297290E+02  0.12269403362E+03 -0.15039901899E+03  0.23193898487E+03  0.12500057821E+03 0.  0.
          2    1    1    2  501    0 -0.52090039481E+02  0.43682781679E+02 -0.61825873022E+02  0.91891219403E+02  0.00000000000E+00 0. -1.
          1    1    1    2  502    0  0.74380336771E+02 -0.16637681530E+03  0.90534812435E+03  0.92350901752E+03  0.00000000000E+00 0. -1.
         22    1    3    3    0    0 -0.39188248439E+02  0.13807813323E+03 -0.15196599817E+03  0.20903338080E+03  0.00000000000E+00 0.  1.
         22    1    3    3    0    0  0.16897951149E+02 -0.15384099611E+02  0.15669791809E+01  0.22905604066E+02  0.00000000000E+00 0.  1.
</event>
<event>
 7    1  0.6485470E-006  0.4725926E+02  0.7818608E-02  0.1528942E+00
          2   -1    0    0  502    0  0.00000000000E+00  0.00000000000E+00  0.39878858532E+03  0.39878858532E+03  0.00000000000E+00 0. -1.
          1   -1    0    0  501    0 -0.00000000000E+00 -0.00000000000E+00 -0.13419869001E+03  0.13419869001E+03  0.00000000000E+00 0. -1.
         25    2    1    2    0    0  0.21738028401E+02 -0.51527619712E+01  0.68208148908E+02  0.14411697805E+03  0.12497303289E+03 0.  0.
          2    1    1    2  501    0  0.26256874555E+02  0.13371450807E+02 -0.91898397422E+02  0.96506655764E+02  0.00000000000E+00 0. -1.
          1    1    1    2  502    0 -0.47994902956E+02 -0.82186888361E+01  0.28828014383E+03  0.29236364152E+03  0.00000000000E+00 0. -1.
         22    1    3    3    0    0 -0.34761928204E+02  0.38584804188E+02  0.12244633361E+02  0.53358315311E+02  0.00000000000E+00 0.  1.
         22    1    3    3    0    0  0.56499956605E+02 -0.43737566159E+02  0.55963515548E+02  0.90758662740E+02  0.00000000000E+00 0.  1.
</event>
<event>
 7    1  0.6485470E-006  0.4293189E+02  0.7818608E-02  0.1502104E+00
          2   -1    0    0  502    0  0.00000000000E+00  0.00000000000E+00  0.11152310549E+04  0.11152310549E+04  0.00000000000E+00 0. -1.
          1   -1    0    0  501    0 -0.00000000000E+00 -0.00000000000E+00 -0.59022602306E+03  0.59022602306E+03  0.00000000000E+00 0. -1.
         25    2    1    2    0    0 -0.60543775893E+02  0.49981878417E+02 -0.11263410616E+03  0.18567470470E+03  0.12499966851E+03 0.  0.
          2    1    1    2  501    0  0.37689519207E+02 -0.18560220274E+02 -0.43972023286E+03  0.44172261072E+03  0.00000000000E+00 0. -1.
          1    1    1    2  502    0  0.22854256686E+02 -0.31421658144E+02  0.10773593709E+04  0.10780597626E+04  0.00000000000E+00 0. -1.
         22    1    3    3    0    0 -0.38990107733E+02 -0.33308532739E+02 -0.10876327692E+02  0.52421191882E+02  0.00000000000E+00 0. -1.
         22    1    3    3    0    0 -0.21553668159E+02  0.83290411156E+02 -0.10175777846E+03  0.13325351282E+03  0.00000000000E+00 0. -1.
</event>
<event>
 7    1  0.6485470E-006  0.1940577E+03  0.7818608E-02  0.1195558E+00
          2   -1    0    0  502    0  0.00000000000E+00  0.00000000000E+00  0.77238235880E+03  0.77238235880E+03  0.00000000000E+00 0. -1.
          1   -1    0    0  501    0 -0.00000000000E+00 -0.00000000000E+00 -0.37247903766E+03  0.37247903766E+03  0.00000000000E+00 0. -1.
         25    2    1    2    0    0 -0.16296419222E+03  0.21423111629E+03  0.44381783018E+03  0.53390181915E+03  0.12499834788E+03 0.  0.
          2    1    1    2  501    0  0.39427784097E+02 -0.11579500315E+03 -0.29215219405E+03  0.31672691297E+03  0.00000000000E+00 0. -1.
          1    1    1    2  502    0  0.12353640812E+03 -0.98436113134E+02  0.24823768501E+03  0.29423266433E+03  0.00000000000E+00 0. -1.
         22    1    3    3    0    0 -0.59634595404E+02  0.14357083363E+03  0.32969026894E+03  0.36450588839E+03  0.00000000000E+00 0. -1.
         22    1    3    3    0    0 -0.10332959681E+03  0.70660282659E+02  0.11412756124E+03  0.16939593076E+03  0.00000000000E+00 0. -1.
</event>
<event>
 7    1  0.7097838E-006  0.1210589E+03  0.7818608E-02  0.1350131E+00
          2   -1    0    0  502    0  0.00000000000E+00  0.00000000000E+00  0.19216813442E+04  0.19216813442E+04  0.00000000000E+00 0. -1.
          1   -1    0    0  501    0 -0.00000000000E+00 -0.00000000000E+00 -0.92863898588E+03  0.92863898588E+03  0.00000000000E+00 0. -1.
         25    2    1    2    0    0  0.71803525088E+02 -0.29750653272E+02 -0.11244130599E+03  0.18522413201E+03  0.12499633675E+03 0.  0.
          2    1    1    2  501    0  0.42113831551E+02 -0.12874573364E+02 -0.77722053808E+03  0.77846714398E+03  0.00000000000E+00 0. -1.
          1    1    1    2  502    0 -0.11391735664E+03  0.42625226636E+02  0.18827042024E+04  0.18866290541E+04  0.00000000000E+00 0. -1.
         22    1    3    3    0    0 -0.31829544666E+02  0.10443568064E+02 -0.12528421952E+02  0.35765197946E+02  0.00000000000E+00 0. -1.
         22    1    3    3    0    0  0.10363306975E+03 -0.40194221337E+02 -0.99912884034E+02  0.14945893406E+03  0.00000000000E+00 0. -1.
</event>
<event>
 7    1  0.6485470E-006  0.5866843E+02  0.7818608E-02  0.1424001E+00
          2   -1    0    0  502    0  0.00000000000E+00  0.00000000000E+00  0.19745502208E+03  0.19745502208E+03  0.00000000000E+00 0. -1.
          1   -1    0    0  501    0 -0.00000000000E+00 -0.00000000000E+00 -0.11753242201E+04  0.11753242201E+04  0.00000000000E+00 0. -1.
         25    2    1    2    0    0 -0.13873229731E+02  0.10591323039E+03 -0.97021690364E+03  0.98405053360E+03  0.12499813478E+03 0.  0.
          2    1    1    2  501    0  0.15763055320E+02 -0.47493544529E+02 -0.19039741579E+03  0.19686362443E+03  0.00000000000E+00 0. -1.
          1    1    1    2  502    0 -0.18898255890E+01 -0.58419685863E+02  0.18274512138E+03  0.19186508418E+03  0.00000000000E+00 0. -1.
         22    1    3    3    0    0  0.21390774090E+02  0.13133580399E+02 -0.32349655189E+02  0.40945773177E+02  0.00000000000E+00 0.  1.
         22    1    3    3    0    0 -0.35264003821E+02  0.92779649994E+02 -0.93786724845E+03  0.94310476042E+03  0.00000000000E+00 0.  1.
</event>
<event>
 7    1  0.6485470E-006  0.5027161E+02  0.7818608E-02  0.1453441E+00
          2   -1    0    0  502    0  0.00000000000E+00  0.00000000000E+00  0.80053150547E+02  0.80053150547E+02  0.00000000000E+00 0. -1.
          1   -1    0    0  501    0 -0.00000000000E+00 -0.00000000000E+00 -0.58977286737E+03  0.58977286737E+03  0.00000000000E+00 0. -1.
         25    2    1    2    0    0 -0.22470271911E+02  0.11923270964E+02 -0.31325021008E+03  0.33822823711E+03  0.12500227501E+03 0.  0.
          2    1    1    2  501    0  0.43981041212E+02  0.33513737973E+02 -0.25124048492E+03  0.25725334572E+03  0.00000000000E+00 0. -1.
          1    1    1    2  502    0 -0.21510769301E+02 -0.45437008937E+02  0.54770978180E+02  0.74344435083E+02  0.00000000000E+00 0. -1.
         22    1    3    3    0    0  0.52137387852E+02  0.88480504991E+01 -0.12774496476E+03  0.13825834959E+03  0.00000000000E+00 0. -1.
         22    1    3    3    0    0 -0.74607659763E+02  0.30752204647E+01 -0.18550524531E+03  0.19996988752E+03  0.00000000000E+00 0. -1.
</event>
<event>
 7    1  0.6485470E-006  0.1448854E+03  0.7818608E-02  0.1280702E+00
          2   -1    0    0  502    0  0.00000000000E+00  0.00000000000E+00  0.20244871942E+04  0.20244871942E+04  0.00000000000E+00 0. -1.
          1   -1    0    0  501    0 -0.00000000000E+00 -0.00000000000E+00 -0.14850728654E+04  0.14850728654E+04  0.00000000000E+00 0. -1.
         25    2    1    2    0    0  0.87349991005E+02  0.19205906409E+03  0.12899133401E+03  0.27709187247E+03  0.12499774602E+03 0.  0.
          2    1    1    2  501    0 -0.31995103286E+02 -0.60855793327E+02 -0.14073988315E+04  0.14090772105E+04  0.00000000000E+00 0. -1.
          1    1    1    2  502    0 -0.55354887719E+02 -0.13120327077E+03  0.18178218262E+04  0.18233909766E+04  0.00000000000E+00 0. -1.
         22    1    3    3    0    0 -0.10973564520E+02  0.40101834217E+02  0.79079438564E+02  0.89342788346E+02  0.00000000000E+00 0.  1.
         22    1    3    3    0    0  0.98323555525E+02  0.15195722988E+03  0.49911895446E+02  0.18774908413E+03  0.00000000000E+00 0.  1.
</event>
<event>
 7    1  0.6485470E-006  0.1492987E+03  0.7818608E-02  0.1357608E+00
          2   -1    0    0  502    0  0.00000000000E+00  0.00000000000E+00  0.12681795994E+04  0.12681795994E+04  0.00000000000E+00 0. -1.
          1   -1    0    0  501    0 -0.00000000000E+00 -0.00000000000E+00 -0.42544657647E+03  0.42544657647E+03  0.00000000000E+00 0. -1.
         25    2    1    2    0    0  0.11849573601E+03  0.25763974136E+02  0.18907312938E+03  0.25705688315E+03  0.12499828440E+03 0.  0.
          2    1    1    2  501    0  0.30075334723E+02  0.14786743087E+02 -0.38504940715E+03  0.38650513512E+03  0.00000000000E+00 0. -1.
          1    1    1    2  502    0 -0.14857107074E+03 -0.40550717223E+02  0.10387093007E+04  0.10500641576E+04  0.00000000000E+00 0. -1.
         22    1    3    3    0    0  0.13754284322E+03  0.87780374859E+01  0.11764184166E+03  0.18120345078E+03  0.00000000000E+00 0. -1.
         22    1    3    3    0    0 -0.19047107210E+02  0.16985936650E+02  0.71431287724E+02  0.75853432374E+02  0.00000000000E+00 0. -1.
</event>
<event>
 7    1  0.6485470E-006  0.3993699E+02  0.7818608E-02  0.1515573E+00
          2   -1    0    0  502    0  0.00000000000E+00  0.00000000000E+00  0.97794648665E+03  0.97794648665E+03  0.00000000000E+00 0. -1.
          1   -1    0    0  501    0 -0.00000000000E+00 -0.00000000000E+00 -0.27019597925E+02  0.27019597925E+02  0.00000000000E+00 0. -1.
         25    2    1    2    0    0  0.15976996262E+02 -0.28154217606E+01  0.63192482465E+03  0.64437608254E+03  0.12501344220E+03 0.  0.
          2    1    1    2  501    0 -0.84788653612E+01  0.40188684363E+02  0.18073276345E+01  0.41113111556E+02  0.00000000000E+00 0. -1.
          1    1    1    2  502    0 -0.74981309004E+01 -0.37373262602E+02  0.31719473644E+03  0.31947689048E+03  0.00000000000E+00 0. -1.
         22    1    3    3    0    0 -0.23298689822E+02  0.47452800394E+02  0.41226868992E+03  0.41564416259E+03  0.00000000000E+00 0. -1.
         22    1    3    3    0    0  0.39275686084E+02 -0.50268222155E+02  0.21965613473E+03  0.22873191994E+03  0.00000000000E+00 0. -1.
</event>
<event>
 7    1  0.6485470E-006  0.1274648E+03  0.7818608E-02  0.1425955E+00
          2   -1    0    0  502    0  0.00000000000E+00  0.00000000000E+00  0.69581446755E+03  0.69581446755E+03  0.00000000000E+00 0. -1.
          1   -1    0    0  501    0 -0.00000000000E+00 -0.00000000000E+00 -0.26400856504E+03  0.26400856504E+03  0.00000000000E+00 0. -1.
         25    2    1    2    0    0 -0.12118241891E+03  0.22284600224E+02  0.38083384126E+03  0.41933417644E+03  0.12499981928E+03 0.  0.
          2    1    1    2  501    0 -0.23819940413E+01  0.22566034577E+02 -0.22956366020E+03  0.23068240916E+03  0.00000000000E+00 0. -1.
          1    1    1    2  502    0  0.12356441295E+03 -0.44850634802E+02  0.28053572145E+03  0.30980644699E+03  0.00000000000E+00 0. -1.
         22    1    3    3    0    0 -0.50679888075E+02  0.48261298079E+02  0.67908836527E+02  0.97515198949E+02  0.00000000000E+00 0.  1.
         22    1    3    3    0    0 -0.70502530836E+02 -0.25976697855E+02  0.31292500473E+03  0.32181897749E+03  0.00000000000E+00 0.  1.
</event>
<event>
 7    1  0.6485470E-006  0.5537076E+02  0.7818608E-02  0.1500468E+00
          2   -1    0    0  502    0  0.00000000000E+00  0.00000000000E+00  0.74144544056E+03  0.74144544056E+03  0.00000000000E+00 0. -1.
          1   -1    0    0  501    0 -0.00000000000E+00 -0.00000000000E+00 -0.34446782333E+03  0.34446782333E+03  0.00000000000E+00 0. -1.
         25    2    1    2    0    0  0.83101865245E+02  0.19300506918E+02  0.15068813838E+03  0.21356732935E+03  0.12500263814E+03 0.  0.
          2    1    1    2  501    0 -0.53002305500E+02 -0.14592148504E+02 -0.31019469104E+03  0.31502844560E+03  0.00000000000E+00 0. -1.
          1    1    1    2  502    0 -0.30099559745E+02 -0.47083584141E+01  0.55648416989E+03  0.55731748894E+03  0.00000000000E+00 0. -1.
         22    1    3    3    0    0 -0.27503987011E+02 -0.25236369370E+01  0.69065288532E+02  0.74383144091E+02  0.00000000000E+00 0. -1.
         22    1    3    3    0    0  0.11060585226E+03  0.21824143855E+02  0.81622849847E+02  0.13918418526E+03  0.00000000000E+00 0. -1.
</event>
<event>
 7    1  0.6485470E-006  0.4449874E+02  0.7818608E-02  0.1503733E+00
          2   -1    0    0  502    0  0.00000000000E+00  0.00000000000E+00  0.67152144674E+03  0.67152144674E+03  0.00000000000E+00 0. -1.
          1   -1    0    0  501    0 -0.00000000000E+00 -0.00000000000E+00 -0.11184098883E+04  0.11184098883E+04  0.00000000000E+00 0. -1.
         25    2    1    2    0    0 -0.59944959123E+02  0.44365393234E+02 -0.38318986460E+03  0.40990566709E+03  0.12500598923E+03 0.  0.
          2    1    1    2  501    0  0.23807768894E+02 -0.36099174899E+02 -0.72069152908E+03  0.72198770099E+03  0.00000000000E+00 0. -1.
          1    1    1    2  502    0  0.36137190229E+02 -0.82662183345E+01  0.65699295209E+03  0.65803796698E+03  0.00000000000E+00 0. -1.
         22    1    3    3    0    0 -0.44524172677E+02 -0.31300062512E+02 -0.25082975495E+03  0.25666644080E+03  0.00000000000E+00 0. -1.
         22    1    3    3    0    0 -0.15420786446E+02  0.75665455746E+02 -0.13236010965E+03  0.15323922629E+03  0.00000000000E+00 0. -1.
</event>
<event>
 7    1  0.6485470E-006  0.8671053E+02  0.7818608E-02  0.1413529E+00
          2   -1    0    0  502    0  0.00000000000E+00  0.00000000000E+00  0.10314053915E+04  0.10314053915E+04  0.00000000000E+00 0. -1.
          1   -1    0    0  501    0 -0.00000000000E+00 -0.00000000000E+00 -0.58244883774E+03  0.58244883774E+03  0.00000000000E+00 0. -1.
         25    2    1    2    0    0  0.10927090655E+03 -0.40736750468E+02  0.28839749597E+02  0.17337451266E+03  0.12500950615E+03 0.  0.
          2    1    1    2  501    0 -0.72840082014E+02  0.45195967246E+02 -0.50621462437E+03  0.51342146325E+03  0.00000000000E+00 0. -1.
          1    1    1    2  502    0 -0.36430824537E+02 -0.44592167785E+01  0.92633142856E+03  0.92705825337E+03  0.00000000000E+00 0. -1.
         22    1    3    3    0    0  0.91021043474E+02  0.31600456370E+02  0.16892762217E+02  0.97820164656E+02  0.00000000000E+00 0. -1.
         22    1    3    3    0    0  0.18249863077E+02 -0.72337206837E+02  0.11946987379E+02  0.75554348007E+02  0.00000000000E+00 0. -1.
</event>
<event>
 7    1  0.6485470E-006  0.2519969E+02  0.7818608E-02  0.1695283E+00
          2   -1    0    0  502    0  0.00000000000E+00  0.00000000000E+00  0.91770672928E+03  0.91770672928E+03  0.00000000000E+00 0. -1.
          1   -1    0    0  501    0 -0.00000000000E+00 -0.00000000000E+00 -0.94692718568E+03  0.94692718568E+03  0.00000000000E+00 0. -1.
         25    2    1    2    0    0 -0.16572253100E+02 -0.54095735509E+01 -0.42949383203E+03  0.44765345427E+03  0.12499904124E+03 0.  0.
          2    1    1    2  501    0  0.88347944728E+01 -0.18579103665E+02 -0.50797048638E+03  0.50838691143E+03  0.00000000000E+00 0. -1.
          1    1    1    2  502    0  0.77374586274E+01  0.23988677216E+02  0.90824386200E+03  0.90859354926E+03  0.00000000000E+00 0. -1.
         22    1    3    3    0    0  0.22608907531E+02  0.25189406200E+02 -0.30462305459E+02  0.45537028211E+02  0.00000000000E+00 0.  1.
         22    1    3    3    0    0 -0.39181160631E+02 -0.30598979750E+02 -0.39903152657E+03  0.40211642606E+03  0.00000000000E+00 0.  1.
</event>
<event>
 7    1  0.6485470E-006  0.8478547E+02  0.7818608E-02  0.1386366E+00
          2   -1    0    0  502    0  0.00000000000E+00  0.00000000000E+00  0.65076582561E+03  0.65076582561E+03  0.00000000000E+00 0. -1.
          1   -1    0    0  501    0 -0.00000000000E+00 -0.00000000000E+00 -0.89657474024E+03  0.89657474024E+03  0.00000000000E+00 0. -1.
         25    2    1    2    0    0 -0.75959430692E+02  0.63645696412E+02  0.26419387972E+03  0.30861547182E+03  0.12499797431E+03 0.  0.
          2    1    1    2  501    0  0.82912786084E+02 -0.17623557609E+02 -0.87081117013E+03  0.87492697633E+03  0.00000000000E+00 0. -1.
          1    1    1    2  502    0 -0.69533553915E+01 -0.46022138803E+02  0.36080837578E+03  0.36379811770E+03  0.00000000000E+00 0. -1.
         22    1    3    3    0    0 -0.35329127390E+02  0.11774806338E+02  0.95098081963E+00  0.37251814331E+02  0.00000000000E+00 0. -1.
         22    1    3    3    0    0 -0.40630303302E+02  0.51870890074E+02  0.26324289890E+03  0.27136365749E+03  0.00000000000E+00 0. -1.
</event>
<event>
 7    1  0.6485470E-006  0.9111735E+02  0.7818608E-02  0.1384149E+00
          2   -1    0    0  502    0  0.00000000000E+00  0.00000000000E+00  0.27142311969E+03  0.27142311969E+03  0.00000000000E+00 0. -1.
          1   -1    0    0  501    0 -0.00000000000E+00 -0.00000000000E+00 -0.11591521313E+03  0.11591521313E+03  0.00000000000E+00 0. -1.
         25    2    1    2    0    0 -0.30032353056E+02  0.11950879968E+03  0.10746162647E+03  0.20580846663E+03  0.12499931336E+03 0.  0.
          2    1    1    2  501    0  0.98415695440E-01 -0.44093915591E+02 -0.41597618495E+02  0.60618849727E+02  0.00000000000E+00 0. -1.
          1    1    1    2  502    0  0.29933937361E+02 -0.75414884089E+02  0.89643898594E+02  0.12091101647E+03  0.00000000000E+00 0. -1.
         22    1    3    3    0    0 -0.33160176115E+02  0.14084266122E+03  0.65915411948E+02  0.15900029569E+03  0.00000000000E+00 0. -1.
         22    1    3    3    0    0  0.31278230591E+01 -0.21333861538E+02  0.41546214518E+02  0.46808170932E+02  0.00000000000E+00 0. -1.
</event>
<event>
 7    1  0.6485470E-006  0.7536172E+02  0.7818608E-02  0.1440072E+00
          2   -1    0    0  502    0  0.00000000000E+00  0.00000000000E+00  0.23724838372E+03  0.23724838372E+03  0.00000000000E+00 0. -1.
          1   -1    0    0  501    0 -0.00000000000E+00 -0.00000000000E+00 -0.71173808034E+03  0.71173808034E+03  0.00000000000E+00 0. -1.
         25    2    1    2    0    0  0.42035597550E+02 -0.20440478472E+02 -0.38940873882E+03  0.41164219768E+03  0.12500131367E+03 0.  0.
          2    1    1    2  501    0  0.12695091671E+02 -0.32079713776E+02 -0.30384769645E+03  0.30580009160E+03  0.00000000000E+00 0. -1.
          1    1    1    2  502    0 -0.54730689221E+02  0.52520192248E+02  0.21876673865E+03  0.23154417478E+03  0.00000000000E+00 0. -1.
         22    1    3    3    0    0  0.75081488020E+01  0.41685659907E+02 -0.26498232904E+03  0.26834623389E+03  0.00000000000E+00 0.  1.
         22    1    3    3    0    0  0.34527448748E+02 -0.62126138379E+02 -0.12442640978E+03  0.14329596378E+03  0.00000000000E+00 0.  1.
</event>
<event>
 7    1  0.6485470E-006  0.1312866E+03  0.7818608E-02  0.1311441E+00
          2   -1    0    0  502    0  0.00000000000E+00  0.00000000000E+00  0.12973710876E+04  0.12973710876E+04  0.00000000000E+00 0. -1.
          1   -1    0    0  501    0 -0.00000000000E+00 -0.00000000000E+00 -0.45562911435E+03  0.45562911435E+03  0.00000000000E+00 0. -1.
         25    2    1    2    0    0 -0.77705796639E+02  0.80439737993E+02  0.84319897858E+03  0.85971980062E+03  0.12499950326E+03 0.  0.
          2    1    1    2  501    0  0.12328505060E+03 -0.46126955665E+02 -0.43577998671E+03  0.45522642340E+03  0.00000000000E+00 0. -1.
          1    1    1    2  502    0 -0.45579253959E+02 -0.34312782328E+02  0.43432298136E+03  0.43805397791E+03  0.00000000000E+00 0. -1.
         22    1    3    3    0    0  0.27237013912E+02  0.45588352888E+02  0.19244633006E+03  0.19963903126E+03  0.00000000000E+00 0. -1.
         22    1    3    3    0    0 -0.10494281055E+03  0.34851385105E+02  0.65075264852E+03  0.66008076936E+03  0.00000000000E+00 0. -1.
</event>
<event>
 7    1  0.7498200E-006  0.9759028E+02  0.7818608E-02  0.1295295E+00
          2   -1    0    0  502    0  0.00000000000E+00  0.00000000000E+00  0.11099123414E+04  0.11099123414E+04  0.00000000000E+00 0. -1.
          1   -1    0    0  501    0 -0.00000000000E+00 -0.00000000000E+00 -0.19842338071E+04  0.19842338071E+04  0.00000000000E+00 0. -1.
         25    2    1    2    0    0  0.18903811840E+01 -0.83326431747E+01 -0.28436494785E+03  0.31074223146E+03  0.12499721742E+03 0.  0.
          2    1    1    2  501    0  0.91472892856E+02  0.36743224004E+02 -0.16830642122E+04  0.16859485451E+04  0.00000000000E+00 0. -1.
          1    1    1    2  502    0 -0.93363274040E+02 -0.28410580829E+02  0.10931076943E+04  0.10974553719E+04  0.00000000000E+00 0. -1.
         22    1    3    3    0    0  0.47464177015E+02  0.37514587265E+02 -0.14494404274E+03  0.15706357911E+03  0.00000000000E+00 0.  1.
         22    1    3    3    0    0 -0.45573795830E+02 -0.45847230439E+02 -0.13942090511E+03  0.15367865234E+03  0.00000000000E+00 0.  1.
</event>
<event>
 7    1  0.6485470E-006  0.1312098E+03  0.7818608E-02  0.1334172E+00
          2   -1    0    0  502    0  0.00000000000E+00  0.00000000000E+00  0.14648537017E+03  0.14648537017E+03  0.00000000000E+00 0. -1.
          1   -1    0    0  501    0 -0.00000000000E+00 -0.00000000000E+00 -0.15216741211E+04  0.15216741211E+04  0.00000000000E+00 0. -1.
         25    2    1    2    0    0  0.13035167643E+03 -0.72784278108E+02 -0.41821856185E+03  0.46132409689E+03  0.12499618479E+03 0.  0.
          2    1    1    2  501    0 -0.41057374622E+02 -0.22113165770E+02 -0.10472658958E+04  0.10483036567E+04  0.00000000000E+00 0. -1.
          1    1    1    2  502    0 -0.89294301811E+02  0.94897443879E+02  0.90295706739E+02  0.15853173766E+03  0.00000000000E+00 0. -1.
         22    1    3    3    0    0  0.21597896147E+02 -0.36073227579E+01 -0.24205520231E+03  0.24304362337E+03  0.00000000000E+00 0.  1.
         22    1    3    3    0    0  0.10875378029E+03 -0.69176955351E+02 -0.17616335954E+03  0.21828047353E+03  0.00000000000E+00 0.  1.
</event>
<event>
 7    1  0.6485470E-006  0.9119490E+02  0.7818608E-02  0.1325704E+00
          2   -1    0    0  502    0  0.00000000000E+00  0.00000000000E+00  0.74610370637E+02  0.74610370637E+02  0.00000000000E+00 0. -1.
          1   -1    0    0  501    0 -0.00000000000E+00 -0.00000000000E+00 -0.14071119826E+04  0.14071119826E+04  0.00000000000E+00 0. -1.
         25    2    1    2    0    0  0.94070251178E+02 -0.58209151175E+02 -0.31617211482E+03  0.35752843172E+03  0.12499702340E+03 0.  0.
          2    1    1    2  501    0 -0.90567674998E+02 -0.13991419471E+02 -0.10430945173E+04  0.10471124274E+04  0.00000000000E+00 0. -1.
          1    1    1    2  502    0 -0.35025761800E+01  0.72200570646E+02  0.26765020117E+02  0.77081494169E+02  0.00000000000E+00 0. -1.
         22    1    3    3    0    0  0.36920873507E+02 -0.87321039965E+02 -0.13207514326E+03  0.16257908349E+03  0.00000000000E+00 0.  1.
         22    1    3    3    0    0  0.57149377672E+02  0.29111888790E+02 -0.18409697157E+03  0.19494934823E+03  0.00000000000E+00 0.  1.
</event>
<event>
 7    1  0.6485470E-006  0.7082454E+02  0.7818608E-02  0.1358185E+00
          2   -1    0    0  502    0  0.00000000000E+00  0.00000000000E+00  0.20483048127E+04  0.20483048127E+04  0.00000000000E+00 0. -1.
          1   -1    0    0  501    0 -0.00000000000E+00 -0.00000000000E+00 -0.18698189161E+04  0.18698189161E+04  0.00000000000E+00 0. -1.
         25    2    1    2    0    0  0.20295676791E+02  0.17174070412E+02  0.67634961824E+03  0.68831827633E+03  0.12500552089E+03 0.  0.
          2    1    1    2  501    0  0.59230489245E+02 -0.37875001687E+02 -0.18619346397E+04  0.18632614871E+04  0.00000000000E+00 0. -1.
          1    1    1    2  502    0 -0.79526166037E+02  0.20700931276E+02  0.13640709181E+04  0.13665439654E+04  0.00000000000E+00 0. -1.
         22    1    3    3    0    0  0.76091480818E+01 -0.23559021484E+02  0.23690059732E+02  0.34265807417E+02  0.00000000000E+00 0.  1.
         22    1    3    3    0    0  0.12686528709E+02  0.40733091896E+02  0.65265955851E+03  0.65405246892E+03  0.00000000000E+00 0.  1.
</event>
<event>
 7    1  0.6485470E-006  0.8350280E+02  0.7818608E-02  0.1471714E+00
          2   -1    0    0  502    0  0.00000000000E+00  0.00000000000E+00  0.63501802156E+03  0.63501802156E+03  0.00000000000E+00 0. -1.
          1   -1    0    0  501    0 -0.00000000000E+00 -0.00000000000E+00 -0.37496140306E+03  0.37496140306E+03  0.00000000000E+00 0. -1.
         25    2    1    2    0    0 -0.45536450189E+02  0.97528455308E+02 -0.11710893228E+03  0.20229834905E+03  0.12499900847E+03 0.  0.
          2    1    1    2  501    0  0.83401579664E+01 -0.23259324517E+02 -0.21162384908E+03  0.21306151203E+03  0.00000000000E+00 0. -1.
          1    1    1    2  502    0  0.37196292223E+02 -0.74269130790E+02  0.58878939986E+03  0.59461956353E+03  0.00000000000E+00 0. -1.
         22    1    3    3    0    0 -0.44504882679E+02 -0.17655904939E+01  0.51021218197E+01  0.44831167050E+02  0.00000000000E+00 0.  1.
         22    1    3    3    0    0 -0.10315675108E+01  0.99294045801E+02 -0.12221105410E+03  0.15746718200E+03  0.00000000000E+00 0.  1.
</event>
<event>
 7    1  0.6485470E-006  0.1053944E+03  0.7818608E-02  0.1294577E+00
          2   -1    0    0  502    0  0.00000000000E+00  0.00000000000E+00  0.49038331537E+03  0.49038331537E+03  0.00000000000E+00 0. -1.
          1   -1    0    0  501    0 -0.00000000000E+00 -0.00000000000E+00 -0.57359361186E+03  0.57359361186E+03  0.00000000000E+00 0. -1.
         25    2    1    2    0    0 -0.16445042990E+03  0.66230622111E+02 -0.20179581421E+03  0.29627182858E+03  0.12500002631E+03 0.  0.
          2    1    1    2  501    0  0.90082842234E+02 -0.29466635320E+02 -0.31361022202E+03  0.32761955439E+03  0.00000000000E+00 0. -1.
          1    1    1    2  502    0  0.74367587669E+02 -0.36763986791E+02  0.43219573974E+03  0.44008554426E+03  0.00000000000E+00 0. -1.
         22    1    3    3    0    0 -0.39358908336E+02  0.81809903077E+02 -0.88450960955E+02  0.12674997594E+03  0.00000000000E+00 0. -1.
         22    1    3    3    0    0 -0.12509152157E+03 -0.15579280966E+02 -0.11334485325E+03  0.16952185264E+03  0.00000000000E+00 0. -1.
</event>
<event>
 7    1  0.6485470E-006  0.6999276E+02  0.7818608E-02  0.1419350E+00
          2   -1    0    0  502    0  0.00000000000E+00  0.00000000000E+00  0.11639469171E+04  0.11639469171E+04  0.00000000000E+00 0. -1.
          1   -1    0    0  501    0 -0.00000000000E+00 -0.00000000000E+00 -0.42296107650E+02  0.42296107650E+02  0.00000000000E+00 0. -1.
         25    2    1    2    0    0  0.91249383116E+02  0.14082270518E+02  0.75965309589E+03  0.77538395255E+03  0.12499074978E+03 0.  0.
          2    1    1    2  501    0 -0.56521436484E+02 -0.40225465039E+02  0.32105356656E+01  0.69448314300E+02  0.00000000000E+00 0. -1.
          1    1    1    2  502    0 -0.34727946632E+02  0.26143194521E+02  0.35878717788E+03  0.36141075787E+03  0.00000000000E+00 0. -1.
         22    1    3    3    0    0 -0.58059664303E+01  0.49653132018E+02  0.30979434566E+03  0.31380197477E+03  0.00000000000E+00 0.  1.
         22    1    3    3    0    0  0.97055349546E+02 -0.35570861500E+02  0.44985875023E+03  0.46158197779E+03  0.00000000000E+00 0.  1.
</event>
<event>
 7    1  0.6485470E-006  0.3112922E+02  0.7818608E-02  0.1635305E+00
          2   -1    0    0  502    0  0.00000000000E+00  0.00000000000E+00  0.44250877660E+02  0.44250877660E+02  0.00000000000E+00 0. -1.
          1   -1    0    0  501    0 -0.00000000000E+00 -0.00000000000E+00 -0.16708330370E+04  0.16708330370E+04  0.00000000000E+00 0. -1.
         25    2    1    2    0    0 -0.16201112152E+01 -0.23486362307E+02 -0.29871379057E+03  0.32466762821E+03  0.12499962462E+03 0.  0.
          2    1    1    2  501    0 -0.21588070492E+02  0.22720143492E+02 -0.13546255983E+04  0.13549881038E+04  0.00000000000E+00 0. -1.
          1    1    1    2  502    0  0.23208181707E+02  0.76621881550E+00  0.26757229600E+02  0.35428182641E+02  0.00000000000E+00 0. -1.
         22    1    3    3    0    0  0.49684408068E+02  0.25220770704E+02 -0.14912562190E+03  0.15919509662E+03  0.00000000000E+00 0.  1.
         22    1    3    3    0    0 -0.51304519283E+02 -0.48707133011E+02 -0.14958816867E+03  0.16547253159E+03  0.00000000000E+00 0.  1.
</event>
<event>
 7    1  0.6485470E-006  0.7379188E+02  0.7818608E-02  0.1347757E+00
          2   -1    0    0  502    0  0.00000000000E+00  0.00000000000E+00  0.16783724597E+04  0.16783724597E+04  0.00000000000E+00 0. -1.
          1   -1    0    0  501    0 -0.00000000000E+00 -0.00000000000E+00 -0.22786665957E+04  0.22786665957E+04  0.00000000000E+00 0. -1.
         25    2    1    2    0    0 -0.25876729228E+02  0.85399946851E+02 -0.39660594648E+02  0.15861995235E+03  0.12499828190E+03 0.  0.
          2    1    1    2  501    0 -0.43361477152E+02 -0.59879134633E+02 -0.21780579246E+04  0.21793122886E+04  0.00000000000E+00 0. -1.
          1    1    1    2  502    0  0.69238206380E+02 -0.25520812219E+02  0.16174243833E+04  0.16191068145E+04  0.00000000000E+00 0. -1.
         22    1    3    3    0    0 -0.39034907982E+02  0.16373451202E+02 -0.70221014142E+02  0.81992711704E+02  0.00000000000E+00 0. -1.
         22    1    3    3    0    0  0.13158178754E+02  0.69026495649E+02  0.30560419494E+02  0.76627240648E+02  0.00000000000E+00 0. -1.
</event>
<event>
 7    1  0.6485470E-006  0.1182377E+03  0.7818608E-02  0.1426776E+00
          2   -1    0    0  502    0  0.00000000000E+00  0.00000000000E+00  0.67647469765E+03  0.67647469765E+03  0.00000000000E+00 0. -1.
          1   -1    0    0  501    0 -0.00000000000E+00 -0.00000000000E+00 -0.16250732774E+03  0.16250732774E+03  0.00000000000E+00 0. -1.
         25    2    1    2    0    0 -0.86587042944E+02 -0.89234587587E+02  0.14912928693E+03  0.23091964839E+03  0.12499684861E+03 0.  0.
          2    1    1    2  501    0  0.22478683110E+02 -0.92557101818E+01 -0.11320547113E+03  0.11578617387E+03  0.00000000000E+00 0. -1.
          1    1    1    2  502    0  0.64108359834E+02  0.98490297769E+02  0.47804355411E+03  0.49227620314E+03  0.00000000000E+00 0. -1.
         22    1    3    3    0    0 -0.98093962638E+02 -0.44628141252E+02  0.44493935390E+02  0.11659248168E+03  0.00000000000E+00 0. -1.
         22    1    3    3    0    0  0.11506919694E+02 -0.44606446335E+02  0.10463535154E+03  0.11432716671E+03  0.00000000000E+00 0. -1.
</event>
<event>
 7    1  0.6485470E-006  0.9534454E+02  0.7818608E-02  0.1378110E+00
          2   -1    0    0  502    0  0.00000000000E+00  0.00000000000E+00  0.39252318945E+03  0.39252318945E+03  0.00000000000E+00 0. -1.
          1   -1    0    0  501    0 -0.00000000000E+00 -0.00000000000E+00 -0.60860849635E+03  0.60860849635E+03  0.00000000000E+00 0. -1.
         25    2    1    2    0    0  0.78671875434E+02 -0.95156312809E+02  0.20258805904E+03  0.26816167814E+03  0.12499910443E+03 0.  0.
          2    1    1    2  501    0 -0.40347681106E+02  0.18200908622E+02 -0.56313009672E+03  0.56486698813E+03  0.00000000000E+00 0. -1.
          1    1    1    2  502    0 -0.38324194328E+02  0.76955404186E+02  0.14445673078E+03  0.16810301952E+03  0.00000000000E+00 0. -1.
         22    1    3    3    0    0  0.33895399635E+02 -0.89895339633E+02  0.20130889314E+03  0.22305905196E+03  0.00000000000E+00 0. -1.
         22    1    3    3    0    0  0.44776475799E+02 -0.52609731759E+01  0.12791659033E+01  0.45102626189E+02  0.00000000000E+00 0. -1.
</event>
<event>
 7    1  0.6485470E-006  0.4582563E+02  0.7818608E-02  0.1548234E+00
          2   -1    0    0  502    0  0.00000000000E+00  0.00000000000E+00  0.13181785602E+04  0.13181785602E+04  0.00000000000E+00 0. -1.
          1   -1    0    0  501    0 -0.00000000000E+00 -0.00000000000E+00 -0.36117454464E+02  0.36117454464E+02  0.00000000000E+00 0. -1.
         25    2    1    2    0    0 -0.53489061437E+02  0.36717361339E+02  0.60398106014E+03  0.62018255174E+03  0.12499612860E+03 0.  0.
          2    1    1    2  501    0  0.26767008178E+02 -0.12242820848E+01 -0.20739178311E+02  0.33883404646E+02  0.00000000000E+00 0. -1.
          1    1    1    2  502    0  0.26722053259E+02 -0.35493079254E+02  0.69881922387E+03  0.70023005824E+03  0.00000000000E+00 0. -1.
         22    1    3    3    0    0 -0.72793206934E+02 -0.12777999185E+02  0.20978776571E+03  0.22242534676E+03  0.00000000000E+00 0.  1.
         22    1    3    3    0    0  0.19304145497E+02  0.49495360525E+02  0.39419329443E+03  0.39775720499E+03  0.00000000000E+00 0.  1.
</event>
<event>
 7    1  0.6485470E-006  0.4265239E+02  0.7818608E-02  0.1552080E+00
          2   -1    0    0  502    0  0.00000000000E+00  0.00000000000E+00  0.94670319681E+03  0.94670319681E+03  0.00000000000E+00 0. -1.
          1   -1    0    0  501    0 -0.00000000000E+00 -0.00000000000E+00 -0.51826093883E+02  0.51826093883E+02  0.00000000000E+00 0. -1.
         25    2    1    2    0    0 -0.55957292582E+01 -0.18645701697E+02  0.10038197234E+03  0.16149026510E+03  0.12499436376E+03 0.  0.
          2    1    1    2  501    0  0.15686179934E+02 -0.23297517257E+02 -0.11165567521E+02  0.30224169953E+02  0.00000000000E+00 0. -1.
          1    1    1    2  502    0 -0.10090450676E+02  0.41943218954E+02  0.80566069811E+03  0.80681485564E+03  0.00000000000E+00 0. -1.
         22    1    3    3    0    0 -0.38967152657E+01 -0.13861613693E+02 -0.28805111179E+02  0.32203464939E+02  0.00000000000E+00 0.  1.
         22    1    3    3    0    0 -0.16990139924E+01 -0.47840880036E+01  0.12918708352E+03  0.12928680016E+03  0.00000000000E+00 0.  1.
</event>
<event>
 7    1  0.6485470E-006  0.1902261E+03  0.7818608E-02  0.1359191E+00
          2   -1    0    0  502    0  0.00000000000E+00  0.00000000000E+00  0.98523327357E+02  0.98523327357E+02  0.00000000000E+00 0. -1.
          1   -1    0    0  501    0 -0.00000000000E+00 -0.00000000000E+00 -0.20218733324E+04  0.20218733324E+04  0.00000000000E+00 0. -1.
         25    2    1    2    0    0 -0.77945598911E+01  0.18103153749E+03 -0.92377984403E+02  0.23872850842E+03  0.12499774397E+03 0.  0.
          2    1    1    2  501    0 -0.16480249027E+02 -0.19021786171E+03 -0.18431398273E+04  0.18530026596E+04  0.00000000000E+00 0. -1.
          1    1    1    2  502    0  0.24274808918E+02  0.91863242125E+01  0.12167806622E+02  0.28665491772E+02  0.00000000000E+00 0. -1.
         22    1    3    3    0    0  0.26311020421E+02  0.10159191825E+03 -0.10832042485E+03  0.15081943539E+03  0.00000000000E+00 0.  1.
         22    1    3    3    0    0 -0.34105580312E+02  0.79439619242E+02  0.15942440451E+02  0.87909073032E+02  0.00000000000E+00 0.  1.
</event>
<event>
 7    1  0.6485470E-006  0.4622697E+02  0.7818608E-02  0.1496976E+00
          2   -1    0    0  502    0  0.00000000000E+00  0.00000000000E+00  0.63076720447E+02  0.63076720447E+02  0.00000000000E+00 0. -1.
          1   -1    0    0  501    0 -0.00000000000E+00 -0.00000000000E+00 -0.99892852705E+03  0.99892852705E+03  0.00000000000E+00 0. -1.
         25    2    1    2    0    0 -0.79571976930E+02 -0.81154748302E+00 -0.62296702740E+02  0.16073936659E+03  0.12499562664E+03 0.  0.
          2    1    1    2  501    0  0.44337746955E+02 -0.11669977305E+02 -0.86042735736E+03  0.86164799163E+03  0.00000000000E+00 0. -1.
          1    1    1    2  502    0  0.35234229975E+02  0.12481524788E+02 -0.13127746505E+02  0.39617889283E+02  0.00000000000E+00 0. -1.
         22    1    3    3    0    0 -0.10757107715E+03  0.15089412924E+02 -0.24995696502E+02  0.11146305157E+03  0.00000000000E+00 0.  1.
         22    1    3    3    0    0  0.27999100225E+02 -0.15900960407E+02 -0.37301006239E+02  0.49276315017E+02  0.00000000000E+00 0.  1.
</event>
<event>
 7    1  0.6485470E-006  0.9105562E+02  0.7818608E-02  0.1394295E+00
          2   -1    0    0  502    0  0.00000000000E+00  0.00000000000E+00  0.57968955829E+03  0.57968955829E+03  0.00000000000E+00 0. -1.
          1   -1    0    0  501    0 -0.00000000000E+00 -0.00000000000E+00 -0.24155268664E+03  0.24155268664E+03  0.00000000000E+00 0. -1.
         25    2    1    2    0    0 -0.59560399198E+02 -0.42712157606E+02  0.20342030628E+02  0.14632754005E+03  0.12500472474E+03 0.  0.
          2    1    1    2  501    0  0.47794939067E+02  0.81638601650E+02 -0.16511536849E+03  0.19029530313E+03  0.00000000000E+00 0. -1.
          1    1    1    2  502    0  0.11765460132E+02 -0.38926444044E+02  0.48291020951E+03  0.48461940175E+03  0.00000000000E+00 0. -1.
         22    1    3    3    0    0 -0.62511637587E+02 -0.47846497904E+02 -0.38190802656E+02  0.87495883349E+02  0.00000000000E+00 0.  1.
         22    1    3    3    0    0  0.29512383884E+01  0.51343402977E+01  0.58532833284E+02  0.58831656704E+02  0.00000000000E+00 0.  1.
</event>
<event>
 7    1  0.6485470E-006  0.1036201E+03  0.7818608E-02  0.1281296E+00
          2   -1    0    0  502    0  0.00000000000E+00  0.00000000000E+00  0.11870183559E+04  0.11870183559E+04  0.00000000000E+00 0. -1.
          1   -1    0    0  501    0 -0.00000000000E+00 -0.00000000000E+00 -0.22674261255E+03  0.22674261255E+03  0.00000000000E+00 0. -1.
         25    2    1    2    0    0 -0.85002254061E+02  0.86813848535E+02  0.65979385976E+03  0.68243304246E+03  0.12499957027E+03 0.  0.
          2    1    1    2  501    0  0.93174453670E+02  0.21370762615E+02 -0.19869623933E+03  0.22049576830E+03  0.00000000000E+00 0. -1.
          1    1    1    2  502    0 -0.81721996090E+01 -0.10818461115E+03  0.49917812289E+03  0.51083215767E+03  0.00000000000E+00 0. -1.
         22    1    3    3    0    0 -0.96689397368E+02  0.11054227557E+03  0.58292914091E+03  0.60114458958E+03  0.00000000000E+00 0.  1.
         22    1    3    3    0    0  0.11687143307E+02 -0.23728427036E+02  0.76864718850E+02  0.81288452883E+02  0.00000000000E+00 0.  1.
</event>
<event>
 7    1  0.6485470E-006  0.9992117E+02  0.7818608E-02  0.1321498E+00
          2   -1    0    0  502    0  0.00000000000E+00  0.00000000000E+00  0.61380923192E+03  0.61380923192E+03  0.00000000000E+00 0. -1.
          1   -1    0    0  501    0 -0.00000000000E+00 -0.00000000000E+00 -0.91420167456E+03  0.91420167456E+03  0.00000000000E+00 0. -1.
         25    2    1    2    0    0  0.61204331557E+02 -0.83296576037E+02  0.50834522738E+03  0.53359518399E+03  0.12499864157E+03 0.  0.
          2    1    1    2  501    0 -0.64033280721E+02 -0.24285990850E+02 -0.86858097840E+03  0.87127664174E+03  0.00000000000E+00 0. -1.
          1    1    1    2  502    0  0.28289491636E+01  0.10758256689E+03  0.59843308386E+02  0.12313908076E+03  0.00000000000E+00 0. -1.
         22    1    3    3    0    0  0.13316931155E+01  0.31854349894E+02  0.11847015179E+03  0.12268516568E+03  0.00000000000E+00 0. -1.
         22    1    3    3    0    0  0.59872638442E+02 -0.11515092593E+03  0.38987507559E+03  0.41091001830E+03  0.00000000000E+00 0. -1.
</event>
<event>
 7    1  0.6485470E-006  0.7994432E+02  0.7818608E-02  0.1474695E+00
          2   -1    0    0  502    0  0.00000000000E+00  0.00000000000E+00  0.81740532622E+03  0.81740532622E+03  0.00000000000E+00 0. -1.
          1   -1    0    0  501    0 -0.00000000000E+00 -0.00000000000E+00 -0.17393310212E+04  0.17393310212E+04  0.00000000000E+00 0. -1.
         25    2    1    2    0    0  0.67405747991E+01  0.97167298557E+02 -0.26367786669E+02  0.16064356129E+03  0.12499669736E+03 0.  0.
          2    1    1    2  501    0  0.14735247801E+02 -0.20524765048E+02 -0.16436169676E+04  0.16438111600E+04  0.00000000000E+00 0. -1.
          1    1    1    2  502    0 -0.21475822600E+02 -0.76642533509E+02  0.74805905928E+03  0.75228162617E+03  0.00000000000E+00 0. -1.
         22    1    3    3    0    0  0.54642785507E+02  0.62554376778E+02 -0.50052968378E+02  0.96975170562E+02  0.00000000000E+00 0.  1.
         22    1    3    3    0    0 -0.47902210708E+02  0.34612921779E+02  0.23685181708E+02  0.63668390723E+02  0.00000000000E+00 0.  1.
</event>
<event>
 7    1  0.6485470E-006  0.5581303E+02  0.7818608E-02  0.1503128E+00
          2   -1    0    0  502    0  0.00000000000E+00  0.00000000000E+00  0.80357749047E+03  0.80357749047E+03  0.00000000000E+00 0. -1.
          1   -1    0    0  501    0 -0.00000000000E+00 -0.00000000000E+00 -0.23533502075E+03  0.23533502075E+03  0.00000000000E+00 0. -1.
         25    2    1    2    0    0  0.35820397979E+02 -0.64306202574E+02  0.61866170620E+03  0.63544126606E+03  0.12499962917E+03 0.  0.
          2    1    1    2  501    0 -0.24785714559E+02  0.16323665396E+02 -0.22250766633E+03  0.22447818440E+03  0.00000000000E+00 0. -1.
          1    1    1    2  502    0 -0.11034683420E+02  0.47982537178E+02  0.17208842985E+03  0.17899306076E+03  0.00000000000E+00 0. -1.
         22    1    3    3    0    0  0.49764524869E+01 -0.96313139479E+02  0.48762979703E+03  0.49707525071E+03  0.00000000000E+00 0.  1.
         22    1    3    3    0    0  0.30843945492E+02  0.32006936906E+02  0.13103190918E+03  0.13836601536E+03  0.00000000000E+00 0.  1.
</event>
<event>
 7    1  0.6485470E-006  0.5187776E+02  0.7818608E-02  0.1553137E+00
          2   -1    0    0  502    0  0.00000000000E+00  0.00000000000E+00  0.23791361840E+04  0.23791361840E+04  0.00000000000E+00 0. -1.
          1   -1    0    0  501    0 -0.00000000000E+00 -0.00000000000E+00 -0.31422816023E+02  0.31422816023E+02  0.00000000000E+00 0. -1.
         25    2    1    2    0    0 -0.18479909974E+02 -0.31150334371E+02  0.96407223889E+03  0.97281572930E+03  0.12499324369E+03 0.  0.
          2    1    1    2  501    0  0.82829683650E+01  0.51694857646E+02 -0.15355196658E+01  0.52376747633E+02  0.00000000000E+00 0. -1.
          1    1    1    2  502    0  0.10196941609E+02 -0.20544523275E+02  0.13851766488E+04  0.13853665231E+04  0.00000000000E+00 0. -1.
         22    1    3    3    0    0  0.40670655003E+02 -0.46349271144E+02  0.32241937871E+03  0.32826302393E+03  0.00000000000E+00 0.  1.
         22    1    3    3    0    0 -0.59150564977E+02  0.15198936773E+02  0.64165286019E+03  0.64455270537E+03  0.00000000000E+00 0.  1.
</event>
<event>
 7    1  0.6485470E-006  0.8636048E+02  0.7818608E-02  0.1313231E+00
          2   -1    0    0  502    0  0.00000000000E+00  0.00000000000E+00  0.12154068662E+04  0.12154068662E+04  0.00000000000E+00 0. -1.
          1   -1    0    0  501    0 -0.00000000000E+00 -0.00000000000E+00 -0.76242421089E+03  0.76242421089E+03  0.00000000000E+00 0. -1.
         25    2    1    2    0    0  0.92721631206E+02 -0.16895924380E+02 -0.10027391168E+03  0.18590697688E+03  0.12499509405E+03 0.  0.
          2    1    1    2  501    0 -0.58008508408E+02 -0.62590237561E+02 -0.61477847353E+03  0.62067309947E+03  0.00000000000E+00 0. -1.
          1    1    1    2  502    0 -0.34713122798E+02  0.79486161942E+02  0.11680350405E+04  0.11712510007E+04  0.00000000000E+00 0. -1.
         22    1    3    3    0    0 -0.55870625743E+01  0.28246847799E+01 -0.84113139188E+02  0.84345801890E+02  0.00000000000E+00 0.  1.
         22    1    3    3    0    0  0.98308693780E+02 -0.19720609160E+02 -0.16160772494E+02  0.10156117499E+03  0.00000000000E+00 0.  1.
</event>
<event>
 7    1  0.6485470E-006  0.8313689E+02  0.7818608E-02  0.1412517E+00
          2   -1    0    0  502    0  0.00000000000E+00  0.00000000000E+00  0.69571879752E+03  0.69571879752E+03  0.00000000000E+00 0. -1.
          1   -1    0    0  501    0 -0.00000000000E+00 -0.00000000000E+00 -0.49907252593E+03  0.49907252593E+03  0.00000000000E+00 0. -1.
         25    2    1    2    0    0 -0.18030235430E+02 -0.82622835875E+02 -0.53699653453E+02  0.16018775938E+03  0.12499937230E+03 0.  0.
          2    1    1    2  501    0 -0.34256926407E+02  0.17750214491E+02 -0.38846771616E+03  0.39037901278E+03  0.00000000000E+00 0. -1.
          1    1    1    2  502    0  0.52287161838E+02  0.64872621384E+02  0.63881364121E+03  0.64422455129E+03  0.00000000000E+00 0. -1.
         22    1    3    3    0    0 -0.16087256347E+00 -0.94944205024E+02 -0.81354616646E+02  0.12503200229E+03  0.00000000000E+00 0.  1.
         22    1    3    3    0    0 -0.17869362867E+02  0.12321369149E+02  0.27654963192E+02  0.35155757084E+02  0.00000000000E+00 0.  1.
</event>
<event>
 7    1  0.6485470E-006  0.4492020E+02  0.7818608E-02  0.1515648E+00
          2   -1    0    0  502    0  0.00000000000E+00  0.00000000000E+00  0.10384910352E+04  0.10384910352E+04  0.00000000000E+00 0. -1.
          1   -1    0    0  501    0 -0.00000000000E+00 -0.00000000000E+00 -0.14867498792E+04  0.14867498792E+04  0.00000000000E+00 0. -1.
         25    2    1    2    0    0  0.30806094454E+01  0.11749589246E+02 -0.98363361106E+00  0.12559208037E+03  0.12499944046E+03 0.  0.
          2    1    1    2  501    0  0.21478604372E+02  0.26191688112E+02 -0.14227372044E+04  0.14231403612E+04  0.00000000000E+00 0. -1.
          1    1    1    2  502    0 -0.24559213818E+02 -0.37941277357E+02  0.97546199406E+03  0.97650847276E+03  0.00000000000E+00 0. -1.
         22    1    3    3    0    0  0.60967095021E+02  0.57495706633E+01 -0.19913704757E+02  0.64394098140E+02  0.00000000000E+00 0.  1.
         22    1    3    3    0    0 -0.57886485575E+02  0.60000185823E+01  0.18930071146E+02  0.61197982228E+02  0.00000000000E+00 0.  1.
</event>
<event>
 7    1  0.6485470E-006  0.1241187E+03  0.7818608E-02  0.1442805E+00
          2   -1    0    0  502    0  0.00000000000E+00  0.00000000000E+00  0.93972473324E+03  0.93972473324E+03  0.00000000000E+00 0. -1.
          1   -1    0    0  501    0 -0.00000000000E+00 -0.00000000000E+00 -0.20147673569E+03  0.20147673569E+03  0.00000000000E+00 0. -1.
         25    2    1    2    0    0 -0.31117438897E+02  0.10870003403E+03  0.51273279186E+03  0.53972469574E+03  0.12499535567E+03 0.  0.
          2    1    1    2  501    0 -0.10828902543E+02  0.17436198593E+02 -0.17668812087E+03  0.17787630030E+03  0.00000000000E+00 0. -1.
          1    1    1    2  502    0  0.41946341441E+02 -0.12613623262E+03  0.40220332656E+03  0.42360047290E+03  0.00000000000E+00 0. -1.
         22    1    3    3    0    0 -0.79874697141E+02  0.64310710813E+02  0.31920552313E+03  0.33527302421E+03  0.00000000000E+00 0.  1.
         22    1    3    3    0    0  0.48757258244E+02  0.44389323213E+02  0.19352726874E+03  0.20445167153E+03  0.00000000000E+00 0.  1.
</event>
<event>
 7    1  0.6485470E-006  0.1175617E+03  0.7818608E-02  0.1286240E+00
          2   -1    0    0  502    0  0.00000000000E+00  0.00000000000E+00  0.14054953932E+04  0.14054953932E+04  0.00000000000E+00 0. -1.
          1   -1    0    0  501    0 -0.00000000000E+00 -0.00000000000E+00 -0.15290839701E+04  0.15290839701E+04  0.00000000000E+00 0. -1.
         25    2    1    2    0    0 -0.12505814743E+03 -0.14865065770E+03  0.47949305063E+02  0.23592333396E+03  0.12499650146E+03 0.  0.
          2    1    1    2  501    0  0.60523376570E+02  0.52937096198E+02 -0.14313296562E+04  0.14335864118E+04  0.00000000000E+00 0. -1.
          1    1    1    2  502    0  0.64534770863E+02  0.95713561504E+02  0.12597917743E+04  0.12650696175E+04  0.00000000000E+00 0. -1.
         22    1    3    3    0    0 -0.11272469713E+03 -0.15020971376E+03  0.14680346075E+01  0.18780833469E+03  0.00000000000E+00 0. -1.
         22    1    3    3    0    0 -0.12333450299E+02  0.15590560594E+01  0.46481270455E+02  0.48114999275E+02  0.00000000000E+00 0. -1.
</event>
<event>
 7    1  0.6485470E-006  0.1004456E+03  0.7818608E-02  0.1332599E+00
          2   -1    0    0  502    0  0.00000000000E+00  0.00000000000E+00  0.25460806213E+04  0.25460806213E+04  0.00000000000E+00 0. -1.
          1   -1    0    0  501    0 -0.00000000000E+00 -0.00000000000E+00 -0.89236025428E+03  0.89236025428E+03  0.00000000000E+00 0. -1.
         25    2    1    2    0    0  0.33777710401E+02 -0.13975092600E+03  0.16704432949E+04  0.16812721000E+04  0.12499527161E+03 0.  0.
          2    1    1    2  501    0 -0.26896359170E+02  0.55596610193E+02 -0.88381754614E+03  0.88597282806E+03  0.00000000000E+00 0. -1.
          1    1    1    2  502    0 -0.68813512318E+01  0.84154315806E+02  0.86709461833E+03  0.87119594754E+03  0.00000000000E+00 0. -1.
         22    1    3    3    0    0 -0.25295029935E+01 -0.20752246549E+02  0.32711162440E+02  0.38821054473E+02  0.00000000000E+00 0. -1.
         22    1    3    3    0    0  0.36307213395E+02 -0.11899867945E+03  0.16377321324E+04  0.16424510456E+04  0.00000000000E+00 0. -1.
</event>
<event>
 7    1  0.6485470E-006  0.1353899E+03  0.7818608E-02  0.1236621E+00
          2   -1    0    0  502    0  0.00000000000E+00  0.00000000000E+00  0.22222284291E+03  0.22222284291E+03  0.00000000000E+00 0. -1.
          1   -1    0    0  501    0 -0.00000000000E+00 -0.00000000000E+00 -0.51418483650E+03  0.51418483650E+03  0.00000000000E+00 0. -1.
         25    2    1    2    0    0  0.12136438524E+03 -0.95208160969E+02 -0.26458894566E+03  0.33079438612E+03  0.12499483110E+03 0.  0.
          2    1    1    2  501    0 -0.13952136129E+03 -0.16921704074E+02 -0.17173948788E+03  0.22191666459E+03  0.00000000000E+00 0. -1.
          1    1    1    2  502    0  0.18156976049E+02  0.11212986504E+03  0.14436643995E+03  0.18369662870E+03  0.00000000000E+00 0. -1.
         22    1    3    3    0    0  0.70156926564E+01 -0.72812691907E+02 -0.15238345913E+03  0.16903143691E+03  0.00000000000E+00 0.  1.
         22    1    3    3    0    0  0.11434869258E+03 -0.22395469062E+02 -0.11220548653E+03  0.16176294921E+03  0.00000000000E+00 0.  1.
</event>
<event>
 7    1  0.9028330E-006  0.1350180E+03  0.7818608E-02  0.1294676E+00
          2   -1    0    0  502    0  0.00000000000E+00  0.00000000000E+00  0.66182579584E+03  0.66182579584E+03  0.00000000000E+00 0. -1.
          1   -1    0    0  501    0 -0.00000000000E+00 -0.00000000000E+00 -0.14061056341E+04  0.14061056341E+04  0.00000000000E+00 0. -1.
         25    2    1    2    0    0 -0.88072100464E+02 -0.53412126042E+01 -0.26119219475E+03  0.30270862471E+03  0.12500370172E+03 0.  0.
          2    1    1    2  501    0 -0.34332137209E+02 -0.54836533649E+02 -0.11159525391E+04  0.11178263776E+04  0.00000000000E+00 0. -1.
          1    1    1    2  502    0  0.12240423767E+03  0.60177746253E+02  0.63286489552E+03  0.64739642764E+03  0.00000000000E+00 0. -1.
         22    1    3    3    0    0 -0.11355938426E+03 -0.26376939190E+01 -0.14753207590E+03  0.18619453429E+03  0.00000000000E+00 0.  1.
         22    1    3    3    0    0  0.25487283792E+02 -0.27035186852E+01 -0.11366011885E+03  0.11651409041E+03  0.00000000000E+00 0.  1.
</event>
<event>
 7    1  0.6485470E-006  0.5560560E+02  0.7818608E-02  0.1544323E+00
          2   -1    0    0  502    0  0.00000000000E+00  0.00000000000E+00  0.34631789475E+03  0.34631789475E+03  0.00000000000E+00 0. -1.
          1   -1    0    0  501    0 -0.00000000000E+00 -0.00000000000E+00 -0.32327813967E+03  0.32327813967E+03  0.00000000000E+00 0. -1.
         25    2    1    2    0    0 -0.73120811052E+02 -0.21589348836E+02 -0.93576156880E+02  0.17376386027E+03  0.12499851602E+03 0.  0.
          2    1    1    2  501    0  0.18565663722E+02  0.12968773390E+02 -0.18642681801E+03  0.18779731475E+03  0.00000000000E+00 0. -1.
          1    1    1    2  502    0  0.54555147330E+02  0.86205754461E+01  0.30304272997E+03  0.30803485940E+03  0.00000000000E+00 0. -1.
         22    1    3    3    0    0 -0.22247360621E+02 -0.70582949310E+02 -0.34351865738E+02  0.81590124817E+02  0.00000000000E+00 0.  1.
         22    1    3    3    0    0 -0.50873450431E+02  0.48993600473E+02 -0.59224291142E+02  0.92173735453E+02  0.00000000000E+00 0.  1.
</event>
<event>
 7    1  0.6485470E-006  0.1000019E+03  0.7818608E-02  0.1340768E+00
          2   -1    0    0  502    0  0.00000000000E+00  0.00000000000E+00  0.38279864247E+03  0.38279864247E+03  0.00000000000E+00 0. -1.
          1   -1    0    0  501    0 -0.00000000000E+00 -0.00000000000E+00 -0.59186535911E+03  0.59186535911E+03  0.00000000000E+00 0. -1.
         25    2    1    2    0    0 -0.66039555302E+02 -0.73719659770E+01 -0.39955168817E+02  0.14709189465E+03  0.12499616478E+03 0.  0.
          2    1    1    2  501    0 -0.16586561493E+02 -0.55343737628E+02 -0.48842588797E+03  0.49183116143E+03  0.00000000000E+00 0. -1.
          1    1    1    2  502    0  0.82626116795E+02  0.62715703605E+02  0.31931434014E+03  0.33574094549E+03  0.00000000000E+00 0. -1.
         22    1    3    3    0    0 -0.24581212516E+02 -0.65603877964E+02 -0.21041693551E+02  0.73149556938E+02  0.00000000000E+00 0.  1.
         22    1    3    3    0    0 -0.41458342786E+02  0.58231911987E+02 -0.18913475266E+02  0.73942337716E+02  0.00000000000E+00 0.  1.
</event>
<event>
 7    1  0.6485470E-006  0.1752736E+03  0.7818608E-02  0.1261333E+00
          2   -1    0    0  502    0  0.00000000000E+00  0.00000000000E+00  0.12153708722E+04  0.12153708722E+04  0.00000000000E+00 0. -1.
          1   -1    0    0  501    0 -0.00000000000E+00 -0.00000000000E+00 -0.94686559115E+03  0.94686559115E+03  0.00000000000E+00 0. -1.
         25    2    1    2    0    0  0.94968055615E+01  0.14076278335E+03 -0.33476299759E+03  0.38418367889E+03  0.12500593615E+03 0.  0.
          2    1    1    2  501    0  0.66035989736E+02  0.18282739398E+02 -0.57885137900E+03  0.58289272553E+03  0.00000000000E+00 0. -1.
          1    1    1    2  502    0 -0.75532795298E+02 -0.15904552275E+03  0.11821196576E+04  0.11951600589E+04  0.00000000000E+00 0. -1.
         22    1    3    3    0    0  0.33400142454E+02  0.15325034281E+03 -0.31067715310E+03  0.34802518665E+03  0.00000000000E+00 0. -1.
         22    1    3    3    0    0 -0.23903336893E+02 -0.12487559454E+02 -0.24085844493E+02  0.36158492235E+02  0.00000000000E+00 0. -1.
</event>
<event>
 7    1  0.6485470E-006  0.1443502E+03  0.7818608E-02  0.1236717E+00
          2   -1    0    0  502    0  0.00000000000E+00  0.00000000000E+00  0.88298016026E+03  0.88298016026E+03  0.00000000000E+00 0. -1.
          1   -1    0    0  501    0 -0.00000000000E+00 -0.00000000000E+00 -0.18867579966E+03  0.18867579966E+03  0.00000000000E+00 0. -1.
         25    2    1    2    0    0  0.14463410291E+03 -0.14183607049E+03  0.22895600300E+03  0.33028551594E+03  0.12502470202E+03 0.  0.
          2    1    1    2  501    0 -0.38470129168E+02  0.13424627927E+03 -0.96359378162E+02  0.16966774619E+03  0.00000000000E+00 0. -1.
          1    1    1    2  502    0 -0.10616397374E+03  0.75897912229E+01  0.56170773576E+03  0.57170269779E+03  0.00000000000E+00 0. -1.
         22    1    3    3    0    0  0.14814942871E+03 -0.75696641205E+02  0.12965771642E+03  0.21092500597E+03  0.00000000000E+00 0.  1.
         22    1    3    3    0    0 -0.35153258041E+01 -0.66139429290E+02  0.99298286586E+02  0.11936050997E+03  0.00000000000E+00 0.  1.
</event>
<event>
 7    1  0.6485470E-006  0.5163761E+02  0.7818608E-02  0.1457180E+00
          2   -1    0    0  502    0  0.00000000000E+00  0.00000000000E+00  0.97341844659E+03  0.97341844659E+03  0.00000000000E+00 0. -1.
          1   -1    0    0  501    0 -0.00000000000E+00 -0.00000000000E+00 -0.97881281288E+03  0.97881281288E+03  0.00000000000E+00 0. -1.
         25    2    1    2    0    0 -0.18921397903E+02  0.27454030202E+02  0.19870801658E+03  0.23711045435E+03  0.12499899455E+03 0.  0.
          2    1    1    2  501    0  0.51687380924E+02  0.24753075535E+01 -0.95826124223E+03  0.95965739764E+03  0.00000000000E+00 0. -1.
          1    1    1    2  502    0 -0.32765983021E+02 -0.29929337756E+02  0.75415885935E+03  0.75546340748E+03  0.00000000000E+00 0. -1.
         22    1    3    3    0    0 -0.59623229165E+02 -0.14380780476E+02  0.56501392633E+02  0.83391508396E+02  0.00000000000E+00 0.  1.
         22    1    3    3    0    0  0.40701831262E+02  0.41834810678E+02  0.14220662394E+03  0.15371894596E+03  0.00000000000E+00 0.  1.
</event>
<event>
 7    1  0.6485470E-006  0.9499720E+02  0.7818608E-02  0.1439079E+00
          2   -1    0    0  502    0  0.00000000000E+00  0.00000000000E+00  0.14096824578E+04  0.14096824578E+04  0.00000000000E+00 0. -1.
          1   -1    0    0  501    0 -0.00000000000E+00 -0.00000000000E+00 -0.12167473575E+03  0.12167473575E+03  0.00000000000E+00 0. -1.
         25    2    1    2    0    0  0.20939319808E+02  0.11848742675E+03  0.30759672362E+03  0.35315434603E+03  0.12499808929E+03 0.  0.
          2    1    1    2  501    0 -0.58492471670E+01 -0.26945789215E+02 -0.94936958615E+02  0.98860079708E+02  0.00000000000E+00 0. -1.
          1    1    1    2  502    0 -0.15090072641E+02 -0.91541637536E+02  0.10753479570E+04  0.10793427678E+04  0.00000000000E+00 0. -1.
         22    1    3    3    0    0  0.58986430802E+01 -0.23191576722E+02  0.16518155003E+02  0.29077356581E+02  0.00000000000E+00 0. -1.
         22    1    3    3    0    0  0.15040676728E+02  0.14167900347E+03  0.29107856862E+03  0.32407698945E+03  0.00000000000E+00 0. -1.
</event>
<event>
 7    1  0.6485470E-006  0.3742340E+02  0.7818608E-02  0.1562552E+00
          2   -1    0    0  502    0  0.00000000000E+00  0.00000000000E+00  0.12282110794E+04  0.12282110794E+04  0.00000000000E+00 0. -1.
          1   -1    0    0  501    0 -0.00000000000E+00 -0.00000000000E+00 -0.11472610144E+04  0.11472610144E+04  0.00000000000E+00 0. -1.
         25    2    1    2    0    0  0.52684144370E+02  0.36088852238E+02  0.97463926708E+02  0.17088633150E+03  0.12499958784E+03 0.  0.
          2    1    1    2  501    0 -0.29030211921E+02 -0.73559192696E+01 -0.11100312906E+04  0.11104351980E+04  0.00000000000E+00 0. -1.
          1    1    1    2  502    0 -0.23653932449E+02 -0.28732932968E+02  0.10935174290E+04  0.10941505643E+04  0.00000000000E+00 0. -1.
         22    1    3    3    0    0  0.47426573284E+02  0.18942207365E+02  0.12669016407E+03  0.13659606416E+03  0.00000000000E+00 0.  1.
         22    1    3    3    0    0  0.52575710863E+01  0.17146644873E+02 -0.29226237358E+02  0.34290267340E+02  0.00000000000E+00 0.  1.
</event>
<event>
 7    1  0.6485470E-006  0.1310223E+03  0.7818608E-02  0.1285028E+00
          2   -1    0    0  502    0  0.00000000000E+00  0.00000000000E+00  0.89275221795E+03  0.89275221795E+03  0.00000000000E+00 0. -1.
          1   -1    0    0  501    0 -0.00000000000E+00 -0.00000000000E+00 -0.23114095657E+03  0.23114095657E+03  0.00000000000E+00 0. -1.
         25    2    1    2    0    0  0.80729343089E+02 -0.11702278439E+03  0.16751400913E+03  0.25278092435E+03  0.12500277419E+03 0.  0.
          2    1    1    2  501    0 -0.11960895236E+03  0.55265931521E+02 -0.16321512037E+03  0.20976129336E+03  0.00000000000E+00 0. -1.
          1    1    1    2  502    0  0.38879609273E+02  0.61756852865E+02  0.65731237261E+03  0.66135095682E+03  0.00000000000E+00 0. -1.
         22    1    3    3    0    0  0.96515821679E+02 -0.54129105717E+02  0.14851958231E+03  0.18521158238E+03  0.00000000000E+00 0. -1.
         22    1    3    3    0    0 -0.15786478590E+02 -0.62893678669E+02  0.18994426827E+02  0.67569341963E+02  0.00000000000E+00 0. -1.
</event>
<event>
 7    1  0.6485470E-006  0.1029763E+03  0.7818608E-02  0.1364121E+00
          2   -1    0    0  502    0  0.00000000000E+00  0.00000000000E+00  0.16509559108E+03  0.16509559108E+03  0.00000000000E+00 0. -1.
          1   -1    0    0  501    0 -0.00000000000E+00 -0.00000000000E+00 -0.24781430180E+03  0.24781430180E+03  0.00000000000E+00 0. -1.
         25    2    1    2    0    0  0.81424318965E+02  0.98881292406E+01 -0.41877936481E+02  0.15526190784E+03  0.12499921457E+03 0.  0.
          2    1    1    2  501    0  0.25554276359E+02 -0.38255061147E+02 -0.11537884065E+03  0.12421250989E+03  0.00000000000E+00 0. -1.
          1    1    1    2  502    0 -0.10697859532E+03  0.28366931906E+02  0.74538066417E+02  0.13343547515E+03  0.00000000000E+00 0. -1.
         22    1    3    3    0    0  0.25889683951E+02  0.62672641788E+02 -0.39777102382E+02  0.78615225228E+02  0.00000000000E+00 0.  1.
         22    1    3    3    0    0  0.55534635014E+02 -0.52784512548E+02 -0.21008340990E+01  0.76646682609E+02  0.00000000000E+00 0.  1.
</event>
<event>
 7    1  0.6485470E-006  0.7837091E+02  0.7818608E-02  0.1402361E+00
          2   -1    0    0  502    0  0.00000000000E+00  0.00000000000E+00  0.25031874961E+03  0.25031874961E+03  0.00000000000E+00 0. -1.
          1   -1    0    0  501    0 -0.00000000000E+00 -0.00000000000E+00 -0.15183898303E+03  0.15183898303E+03  0.00000000000E+00 0. -1.
         25    2    1    2    0    0 -0.56040844936E+02 -0.64477461307E+02 -0.83793736588E+01  0.15160689199E+03  0.12496606130E+03 0.  0.
          2    1    1    2  501    0 -0.18899628409E+02  0.40085533597E+02 -0.54935317036E+02  0.70582823800E+02  0.00000000000E+00 0. -1.
          1    1    1    2  502    0  0.74940473345E+02  0.24391927711E+02  0.16179445728E+03  0.17996801685E+03  0.00000000000E+00 0. -1.
         22    1    3    3    0    0 -0.88314070870E+02 -0.60989503273E+02 -0.31383075664E+02  0.11182125049E+03  0.00000000000E+00 0. -1.
         22    1    3    3    0    0  0.32273225934E+02 -0.34879580349E+01  0.23003702006E+02  0.39785641498E+02  0.00000000000E+00 0. -1.
</event>
<event>
 7    1  0.6485470E-006  0.2656363E+03  0.7818608E-02  0.1268626E+00
          2   -1    0    0  502    0  0.00000000000E+00  0.00000000000E+00  0.75140786484E+03  0.75140786484E+03  0.00000000000E+00 0. -1.
          1   -1    0    0  501    0 -0.00000000000E+00 -0.00000000000E+00 -0.39159166318E+03  0.39159166318E+03  0.00000000000E+00 0. -1.
         25    2    1    2    0    0 -0.22919513436E+03 -0.85141413445E+02  0.13541603022E+03  0.30615433515E+03  0.12495401472E+03 0.  0.
          2    1    1    2  501    0 -0.16204252540E+02 -0.38865863361E+02 -0.26885547606E+03  0.27213305596E+03  0.00000000000E+00 0. -1.
          1    1    1    2  502    0  0.24539938690E+03  0.12400727681E+03  0.49325564750E+03  0.56471213692E+03  0.00000000000E+00 0. -1.
         22    1    3    3    0    0 -0.14644717206E+03 -0.10208035573E+03  0.13128069730E+03  0.22158924774E+03  0.00000000000E+00 0. -1.
         22    1    3    3    0    0 -0.82747962293E+02  0.16938942285E+02  0.41353329123E+01  0.84565087404E+02  0.00000000000E+00 0. -1.
</event>
<event>
 7    1  0.9809962E-006  0.1143752E+03  0.7818608E-02  0.1324989E+00
          2   -1    0    0  502    0  0.00000000000E+00  0.00000000000E+00  0.95889055889E+03  0.95889055889E+03  0.00000000000E+00 0. -1.
          1   -1    0    0  501    0 -0.00000000000E+00 -0.00000000000E+00 -0.17253588254E+04  0.17253588254E+04  0.00000000000E+00 0. -1.
         25    2    1    2    0    0  0.27801784954E+02 -0.16159502601E+03 -0.10757421026E+04  0.10953232993E+04  0.12500466714E+03 0.  0.
          2    1    1    2  501    0  0.15502616247E+02  0.55891263188E+02 -0.63506265153E+03  0.63770583797E+03  0.00000000000E+00 0. -1.
          1    1    1    2  502    0 -0.43304401201E+02  0.10570376282E+03  0.94433648763E+03  0.95122024711E+03  0.00000000000E+00 0. -1.
         22    1    3    3    0    0 -0.32776649824E+02 -0.48538532849E+02 -0.15511130078E+03  0.16580052344E+03  0.00000000000E+00 0. -1.
         22    1    3    3    0    0  0.60578434778E+02 -0.11305649316E+03 -0.92063080186E+03  0.92952277581E+03  0.00000000000E+00 0. -1.
</event>
<event>
 7    1  0.6485470E-006  0.1397062E+03  0.7818608E-02  0.1234237E+00
          2   -1    0    0  502    0  0.00000000000E+00  0.00000000000E+00  0.56834101238E+03  0.56834101238E+03  0.00000000000E+00 0. -1.
          1   -1    0    0  501    0 -0.00000000000E+00 -0.00000000000E+00 -0.29381516019E+03  0.29381516019E+03  0.00000000000E+00 0. -1.
         25    2    1    2    0    0  0.47401045353E+02  0.16978008488E+02 -0.83803947374E+02  0.15869311369E+03  0.12500116345E+03 0.  0.
          2    1    1    2  501    0  0.33229695853E+02  0.10779414718E+03 -0.14211153408E+03  0.18143725905E+03  0.00000000000E+00 0. -1.
          1    1    1    2  502    0 -0.80630741206E+02 -0.12477215567E+03  0.50044133365E+03  0.52202579982E+03  0.00000000000E+00 0. -1.
         22    1    3    3    0    0  0.70646356117E+02  0.74851426103E+01 -0.10435823390E+03  0.12624411263E+03  0.00000000000E+00 0.  1.
         22    1    3    3    0    0 -0.23245310764E+02  0.94928658775E+01  0.20554286523E+02  0.32449001056E+02  0.00000000000E+00 0.  1.
</event>
<event>
 7    1  0.6485470E-006  0.6503593E+02  0.7818608E-02  0.1401514E+00
          2   -1    0    0  502    0  0.00000000000E+00  0.00000000000E+00  0.51528459505E+03  0.51528459505E+03  0.00000000000E+00 0. -1.
          1   -1    0    0  501    0 -0.00000000000E+00 -0.00000000000E+00 -0.41356314067E+03  0.41356314067E+03  0.00000000000E+00 0. -1.
         25    2    1    2    0    0  0.10983013472E+03  0.39537530030E+02 -0.22801346470E+03  0.28502792502E+03  0.12499961273E+03 0.  0.
          2    1    1    2  501    0 -0.46424873937E+02 -0.27114136806E+02 -0.15021202558E+03  0.15954340464E+03  0.00000000000E+00 0. -1.
          1    1    1    2  502    0 -0.63405260787E+02 -0.12423393224E+02  0.47994694466E+03  0.48427640607E+03  0.00000000000E+00 0. -1.
         22    1    3    3    0    0  0.27967423006E+02 -0.39732372799E+02 -0.31625981285E+02  0.57974484819E+02  0.00000000000E+00 0. -1.
         22    1    3    3    0    0  0.81862711718E+02  0.79269902829E+02 -0.19638748341E+03  0.22705344020E+03  0.00000000000E+00 0. -1.
</event>
<event>
 7    1  0.6485470E-006  0.1516721E+03  0.7818608E-02  0.1222487E+00
          2   -1    0    0  502    0  0.00000000000E+00  0.00000000000E+00  0.40600701798E+03  0.40600701798E+03  0.00000000000E+00 0. -1.
          1   -1    0    0  501    0 -0.00000000000E+00 -0.00000000000E+00 -0.45316416102E+03  0.45316416102E+03  0.00000000000E+00 0. -1.
         25    2    1    2    0    0  0.26702385390E+02  0.14379113195E+03  0.58484030561E+02  0.20108257347E+03  0.12499965004E+03 0.  0.
          2    1    1    2  501    0 -0.11719361490E+03 -0.58659391658E+01 -0.34668405224E+03  0.36600353099E+03  0.00000000000E+00 0. -1.
          1    1    1    2  502    0  0.90491229506E+02 -0.13792519279E+03  0.24104287864E+03  0.29208507453E+03  0.00000000000E+00 0. -1.
         22    1    3    3    0    0  0.59905850345E+02  0.14649764925E+03  0.55134700796E+02  0.16760103631E+03  0.00000000000E+00 0. -1.
         22    1    3    3    0    0 -0.33203464955E+02 -0.27065172927E+01  0.33493297657E+01  0.33481537162E+02  0.00000000000E+00 0. -1.
</event>
<event>
 7    1  0.6485470E-006  0.5972045E+02  0.7818608E-02  0.1453699E+00
          2   -1    0    0  502    0  0.00000000000E+00  0.00000000000E+00  0.16681678483E+04  0.16681678483E+04  0.00000000000E+00 0. -1.
          1   -1    0    0  501    0 -0.00000000000E+00 -0.00000000000E+00 -0.11450724298E+03  0.11450724298E+03  0.00000000000E+00 0. -1.
         25    2    1    2    0    0 -0.41377347467E+02  0.69676255425E+02  0.94665272834E+03  0.95830203785E+03  0.12499816889E+03 0.  0.
          2    1    1    2  501    0  0.50658774402E+02 -0.31425927542E+02 -0.99918795857E+02  0.11635147662E+03  0.00000000000E+00 0. -1.
          1    1    1    2  502    0 -0.92814269353E+01 -0.38250327883E+02  0.70692667282E+03  0.70802157680E+03  0.00000000000E+00 0. -1.
         22    1    3    3    0    0 -0.36103625589E+01  0.53402319854E+02  0.12963577987E+03  0.14025076793E+03  0.00000000000E+00 0.  1.
         22    1    3    3    0    0 -0.37766984908E+02  0.16273935571E+02  0.81701694847E+03  0.81805126992E+03  0.00000000000E+00 0.  1.
</event>
<event>
 7    1  0.6485470E-006  0.8238582E+02  0.7818608E-02  0.1462862E+00
          2   -1    0    0  502    0  0.00000000000E+00  0.00000000000E+00  0.55339582930E+03  0.55339582930E+03  0.00000000000E+00 0. -1.
          1   -1    0    0  501    0 -0.00000000000E+00 -0.00000000000E+00 -0.45871147641E+03  0.45871147641E+03  0.00000000000E+00 0. -1.
         25    2    1    2    0    0 -0.56368018531E+02 -0.32279560428E+01 -0.93665288757E+02  0.16609095184E+03  0.12500097901E+03 0.  0.
          2    1    1    2  501    0 -0.26661185964E+02  0.12445795593E+01 -0.32494837931E+03  0.32604266137E+03  0.00000000000E+00 0. -1.
          1    1    1    2  502    0  0.83029204496E+02  0.19833764835E+01  0.51329802095E+03  0.51997369250E+03  0.00000000000E+00 0. -1.
         22    1    3    3    0    0  0.85188112667E-01  0.50660701773E+02 -0.66187607236E+02  0.83350544766E+02  0.00000000000E+00 0.  1.
         22    1    3    3    0    0 -0.56453206644E+02 -0.53888657816E+02 -0.27477681521E+02  0.82740407078E+02  0.00000000000E+00 0.  1.
</event>
<event>
 7    1  0.6485470E-006  0.1363400E+03  0.7818608E-02  0.1327287E+00
          2   -1    0    0  502    0  0.00000000000E+00  0.00000000000E+00  0.20086672339E+04  0.20086672339E+04  0.00000000000E+00 0. -1.
          1   -1    0    0  501    0 -0.00000000000E+00 -0.00000000000E+00 -0.58990667735E+03  0.58990667735E+03  0.00000000000E+00 0. -1.
         25    2    1    2    0    0  0.28325214639E+02  0.17720719505E+03 -0.15067699079E+02  0.21922122527E+03  0.12500480908E+03 0.  0.
          2    1    1    2  501    0  0.86815156674E+01 -0.46880790213E+02 -0.46914574846E+03  0.47156220216E+03  0.00000000000E+00 0. -1.
          1    1    1    2  502    0 -0.37006730306E+02 -0.13032640484E+03  0.19029740041E+04  0.19077904838E+04  0.00000000000E+00 0. -1.
         22    1    3    3    0    0 -0.41642398078E+02  0.11627059842E+03 -0.24669163836E+02  0.12594248298E+03  0.00000000000E+00 0.  1.
         22    1    3    3    0    0  0.69967612717E+02  0.60936596634E+02  0.96014647572E+01  0.93278742295E+02  0.00000000000E+00 0.  1.
</event>
<event>
 7    1  0.6485470E-006  0.9931731E+02  0.7818608E-02  0.1435622E+00
          2   -1    0    0  502    0  0.00000000000E+00  0.00000000000E+00  0.48231006265E+03  0.48231006265E+03  0.00000000000E+00 0. -1.
          1   -1    0    0  501    0 -0.00000000000E+00 -0.00000000000E+00 -0.29202563298E+03  0.29202563298E+03  0.00000000000E+00 0. -1.
         25    2    1    2    0    0  0.11036198068E+03 -0.40512896057E+02  0.10313805165E+03  0.20020655142E+03  0.12499657599E+03 0.  0.
          2    1    1    2  501    0 -0.84838100192E+02  0.49521144097E+02 -0.23298920341E+03  0.25285137109E+03  0.00000000000E+00 0. -1.
          1    1    1    2  502    0 -0.25523880491E+02 -0.90082480405E+01  0.32013558142E+03  0.32127777312E+03  0.00000000000E+00 0. -1.
         22    1    3    3    0    0 -0.17867668478E+02 -0.39080163225E+02  0.20168572630E+02  0.47468769275E+02  0.00000000000E+00 0.  1.
         22    1    3    3    0    0  0.12822964916E+03 -0.14327328324E+01  0.82969479018E+02  0.15273778215E+03  0.00000000000E+00 0.  1.
</event>
<event>
 7    1  0.6485470E-006  0.1344120E+03  0.7818608E-02  0.1352343E+00
          2   -1    0    0  502    0  0.00000000000E+00  0.00000000000E+00  0.73783653751E+03  0.73783653751E+03  0.00000000000E+00 0. -1.
          1   -1    0    0  501    0 -0.00000000000E+00 -0.00000000000E+00 -0.89563382981E+03  0.89563382981E+03  0.00000000000E+00 0. -1.
         25    2    1    2    0    0 -0.17138082155E+03 -0.34241671936E+01  0.27627993049E+03  0.34833988668E+03  0.12500786272E+03 0.  0.
          2    1    1    2  501    0  0.13365836516E+03 -0.61678090304E+01 -0.85349064049E+03  0.86391485336E+03  0.00000000000E+00 0. -1.
          1    1    1    2  502    0  0.37722456396E+02  0.95919762240E+01  0.41941341770E+03  0.42121562729E+03  0.00000000000E+00 0. -1.
         22    1    3    3    0    0 -0.11608395081E+03 -0.26379466774E+01  0.71814485700E+02  0.13652751647E+03  0.00000000000E+00 0. -1.
         22    1    3    3    0    0 -0.55296870742E+02 -0.78622051628E+00  0.20446544479E+03  0.21181237020E+03  0.00000000000E+00 0. -1.
</event>
<event>
 7    1  0.6485470E-006  0.4958678E+02  0.7818608E-02  0.1560467E+00
          2   -1    0    0  502    0  0.00000000000E+00  0.00000000000E+00  0.55476266763E+03  0.55476266763E+03  0.00000000000E+00 0. -1.
          1   -1    0    0  501    0 -0.00000000000E+00 -0.00000000000E+00 -0.36896232280E+03  0.36896232280E+03  0.00000000000E+00 0. -1.
         25    2    1    2    0    0 -0.43404139682E+02 -0.14007387628E+02 -0.29054490071E+03  0.31955952050E+03  0.12498728561E+03 0.  0.
          2    1    1    2  501    0  0.85028350599E+01 -0.21264802923E+02 -0.60677248665E+02  0.64855366416E+02  0.00000000000E+00 0. -1.
          1    1    1    2  502    0  0.34901304623E+02  0.35272190551E+02  0.53702249420E+03  0.53931010353E+03  0.00000000000E+00 0. -1.
         22    1    3    3    0    0 -0.75370501609E+02  0.23888394325E+02 -0.13664180845E+03  0.15786814660E+03  0.00000000000E+00 0. -1.
         22    1    3    3    0    0  0.31966361927E+02 -0.37895781953E+02 -0.15390309226E+03  0.16169137389E+03  0.00000000000E+00 0. -1.
</event>
<event>
 7    1  0.6485470E-006  0.3179971E+03  0.7818608E-02  0.1249783E+00
          2   -1    0    0  502    0  0.00000000000E+00  0.00000000000E+00  0.16391653478E+04  0.16391653478E+04  0.00000000000E+00 0. -1.
          1   -1    0    0  501    0 -0.00000000000E+00 -0.00000000000E+00 -0.12230047750E+03  0.12230047750E+03  0.00000000000E+00 0. -1.
         25    2    1    2    0    0 -0.28393055167E+03 -0.16469739253E+03  0.77131243462E+03  0.84751937243E+03  0.12499770223E+03 0.  0.
          2    1    1    2  501    0  0.25056235814E+03  0.19076144171E+03  0.21408177166E+03  0.38079184329E+03  0.00000000000E+00 0. -1.
          1    1    1    2  502    0  0.33368193531E+02 -0.26064049186E+02  0.53147066405E+03  0.53315460961E+03  0.00000000000E+00 0. -1.
         22    1    3    3    0    0 -0.18878201289E+03 -0.15230499948E+03  0.64350527221E+03  0.68770233140E+03  0.00000000000E+00 0.  1.
         22    1    3    3    0    0 -0.95148538784E+02 -0.12392393047E+02  0.12780716241E+03  0.15981704102E+03  0.00000000000E+00 0.  1.
</event>
<event>
 7    1  0.6485470E-006  0.7958973E+02  0.7818608E-02  0.1458961E+00
          2   -1    0    0  502    0  0.00000000000E+00  0.00000000000E+00  0.92830006240E+03  0.92830006240E+03  0.00000000000E+00 0. -1.
          1   -1    0    0  501    0 -0.00000000000E+00 -0.00000000000E+00 -0.50904133690E+03  0.50904133690E+03  0.00000000000E+00 0. -1.
         25    2    1    2    0    0 -0.59558907905E+02 -0.26088084786E+02  0.24472040541E+03  0.28238404738E+03  0.12499928685E+03 0.  0.
          2    1    1    2  501    0 -0.21974093588E+02  0.18024761558E+02 -0.48726935702E+03  0.48809750983E+03  0.00000000000E+00 0. -1.
          1    1    1    2  502    0  0.81533001493E+02  0.80633232280E+01  0.66180767710E+03  0.66685984209E+03  0.00000000000E+00 0. -1.
         22    1    3    3    0    0 -0.46876162844E+02 -0.75801318116E+02  0.14400249054E+03  0.16935150355E+03  0.00000000000E+00 0.  1.
         22    1    3    3    0    0 -0.12682745061E+02  0.49713233330E+02  0.10071791487E+03  0.11303254383E+03  0.00000000000E+00 0.  1.
</event>
<event>
 7    1  0.7750140E-006  0.4288969E+02  0.7818608E-02  0.1498278E+00
          2   -1    0    0  502    0  0.00000000000E+00  0.00000000000E+00  0.82505988880E+03  0.82505988880E+03  0.00000000000E+00 0. -1.
          1   -1    0    0  501    0 -0.00000000000E+00 -0.00000000000E+00 -0.12379561177E+04  0.12379561177E+04  0.00000000000E+00 0. -1.
         25    2    1    2    0    0 -0.22906219094E+02 -0.38264979315E+02 -0.29534448580E+03  0.32379315698E+03  0.12499895881E+03 0.  0.
          2    1    1    2  501    0  0.43287548143E+02  0.39303807945E+01 -0.92738642059E+03  0.92840445541E+03  0.00000000000E+00 0. -1.
          1    1    1    2  502    0 -0.20381329048E+02  0.34334598521E+02  0.80983467753E+03  0.81081839407E+03  0.00000000000E+00 0. -1.
         22    1    3    3    0    0 -0.16883371223E+02  0.15314327436E+02 -0.25608485146E+03  0.25709731231E+03  0.00000000000E+00 0.  1.
         22    1    3    3    0    0 -0.60228478715E+01 -0.53579306751E+02 -0.39259634332E+02  0.66695844670E+02  0.00000000000E+00 0.  1.
</event>
<event>
 7    1  0.6485470E-006  0.3706276E+02  0.7818608E-02  0.1601974E+00
          2   -1    0    0  502    0  0.00000000000E+00  0.00000000000E+00  0.14267603102E+04  0.14267603102E+04  0.00000000000E+00 0. -1.
          1   -1    0    0  501    0 -0.00000000000E+00 -0.00000000000E+00 -0.23965469576E+02  0.23965469576E+02  0.00000000000E+00 0. -1.
         25    2    1    2    0    0  0.63498426970E+01 -0.13347085067E+02  0.57251409068E+03  0.58618551602E+03  0.12499043959E+03 0.  0.
          2    1    1    2  501    0  0.10205362547E+02 -0.21414717164E+02 -0.82577172510E+01  0.25118308664E+02  0.00000000000E+00 0. -1.
          1    1    1    2  502    0 -0.16555205244E+02  0.34761802232E+02  0.83853846717E+03  0.83942195506E+03  0.00000000000E+00 0. -1.
         22    1    3    3    0    0 -0.55278135907E+02 -0.28151585196E+02  0.30786405660E+03  0.31405168588E+03  0.00000000000E+00 0. -1.
         22    1    3    3    0    0  0.61627978604E+02  0.14804500129E+02  0.26465003408E+03  0.27213383014E+03  0.00000000000E+00 0. -1.
</event>
<event>
 7    1  0.6485470E-006  0.4505726E+02  0.7818608E-02  0.1519831E+00
          2   -1    0    0  502    0  0.00000000000E+00  0.00000000000E+00  0.50151102500E+02  0.50151102500E+02  0.00000000000E+00 0. -1.
          1   -1    0    0  501    0 -0.00000000000E+00 -0.00000000000E+00 -0.64132859782E+03  0.64132859782E+03  0.00000000000E+00 0. -1.
         25    2    1    2    0    0 -0.22798920053E+02  0.72349063618E+02 -0.18088707468E+03  0.23259353916E+03  0.12500177163E+03 0.  0.
          2    1    1    2  501    0  0.17964775603E+02 -0.39871758653E+02 -0.42182358935E+03  0.42408446191E+03  0.00000000000E+00 0. -1.
          1    1    1    2  502    0  0.48341444507E+01 -0.32477304965E+02  0.11533168708E+02  0.34801699252E+02  0.00000000000E+00 0. -1.
         22    1    3    3    0    0 -0.61000464472E+02  0.37628531625E+02 -0.16282667640E+03  0.17790303428E+03  0.00000000000E+00 0.  1.
         22    1    3    3    0    0  0.38201544419E+02  0.34720531993E+02 -0.18060398275E+02  0.54690504877E+02  0.00000000000E+00 0.  1.
</event>
<event>
 7    1  0.6485470E-006  0.2505903E+02  0.7818608E-02  0.1669247E+00
          2   -1    0    0  502    0  0.00000000000E+00  0.00000000000E+00  0.10862152615E+04  0.10862152615E+04  0.00000000000E+00 0. -1.
          1   -1    0    0  501    0 -0.00000000000E+00 -0.00000000000E+00 -0.30696618720E+02  0.30696618720E+02  0.00000000000E+00 0. -1.
         25    2    1    2    0    0 -0.24753008900E+02 -0.37251880052E+02  0.58035912516E+03  0.59535256625E+03  0.12501019949E+03 0.  0.
          2    1    1    2  501    0  0.46696184909E+01  0.24430200512E+02 -0.16160768573E+02  0.29661599329E+02  0.00000000000E+00 0. -1.
          1    1    1    2  502    0  0.20083390409E+02  0.12821679539E+02  0.49132028621E+03  0.49189771465E+03  0.00000000000E+00 0. -1.
         22    1    3    3    0    0 -0.59033676225E+02 -0.28154375546E+01  0.13524867674E+03  0.14759778514E+03  0.00000000000E+00 0. -1.
         22    1    3    3    0    0  0.34280667325E+02 -0.34436442497E+02  0.44511044841E+03  0.44775478111E+03  0.00000000000E+00 0. -1.
</event>
<event>
 7    1  0.6485470E-006  0.4818976E+03  0.7818608E-02  0.1187182E+00
          2   -1    0    0  502    0  0.00000000000E+00  0.00000000000E+00  0.14528068863E+03  0.14528068863E+03  0.00000000000E+00 0. -1.
          1   -1    0    0  501    0 -0.00000000000E+00 -0.00000000000E+00 -0.27849906101E+04  0.27849906101E+04  0.00000000000E+00 0. -1.
         25    2    1    2    0    0  0.36808907981E+03  0.33498918118E+03 -0.17791446493E+04  0.18516722598E+04  0.12500861016E+03 0.  0.
          2    1    1    2  501    0 -0.36246283689E+03 -0.28126011392E+03 -0.90102517826E+03  0.10111048075E+04  0.00000000000E+00 0. -1.
          1    1    1    2  502    0 -0.56262429241E+01 -0.53729067259E+02  0.40459906065E+02  0.67494231433E+02  0.00000000000E+00 0. -1.
         22    1    3    3    0    0  0.32202952562E+03  0.29389704210E+03 -0.16730995002E+04  0.17289709148E+04  0.00000000000E+00 0. -1.
         22    1    3    3    0    0  0.46059554194E+02  0.41092139071E+02 -0.10604514909E+03  0.12270134502E+03  0.00000000000E+00 0. -1.
</event>
<event>
 7    1  0.6485470E-006  0.2246206E+03  0.7818608E-02  0.1310316E+00
          2   -1    0    0  502    0  0.00000000000E+00  0.00000000000E+00  0.47118870739E+03  0.47118870739E+03  0.00000000000E+00 0. -1.
          1   -1    0    0  501    0 -0.00000000000E+00 -0.00000000000E+00 -0.61740027253E+03  0.61740027253E+03  0.00000000000E+00 0. -1.
         25    2    1    2    0    0 -0.21004920830E+03 -0.50191050002E+02 -0.25784666242E+03  0.35881886155E+03  0.12500505060E+03 0.  0.
          2    1    1    2  501    0  0.53398279059E+00 -0.33682642889E+02 -0.27771057262E+03  0.27974625594E+03  0.00000000000E+00 0. -1.
          1    1    1    2  502    0  0.20951522550E+03  0.83873692890E+02  0.38934566990E+03  0.45002386242E+03  0.00000000000E+00 0. -1.
         22    1    3    3    0    0 -0.46705973850E+01  0.16539897397E+02 -0.71650967178E+02  0.73683402360E+02  0.00000000000E+00 0.  1.
         22    1    3    3    0    0 -0.20537861091E+03 -0.66730947399E+02 -0.18619569524E+03  0.28513545919E+03  0.00000000000E+00 0.  1.
</event>
<event>
 7    1  0.6485470E-006  0.7801053E+02  0.7818608E-02  0.1390778E+00
          2   -1    0    0  502    0  0.00000000000E+00  0.00000000000E+00  0.69433097064E+03  0.69433097064E+03  0.00000000000E+00 0. -1.
          1   -1    0    0  501    0 -0.00000000000E+00 -0.00000000000E+00 -0.31828254768E+03  0.31828254768E+03  0.00000000000E+00 0. -1.
         25    2    1    2    0    0 -0.67722145716E+02  0.43731253290E+02  0.36425884777E+02  0.15313575838E+03  0.12500001551E+03 0.  0.
          2    1    1    2  501    0  0.78653329036E+02  0.38506818601E+01 -0.25293624912E+03  0.26491115499E+03  0.00000000000E+00 0. -1.
          1    1    1    2  502    0 -0.10931183320E+02 -0.47581935150E+02  0.59255878730E+03  0.59456660495E+03  0.00000000000E+00 0. -1.
         22    1    3    3    0    0  0.17157537210E+02 -0.83309896461E+01 -0.28478924126E+02  0.34275874766E+02  0.00000000000E+00 0. -1.
         22    1    3    3    0    0 -0.84879682926E+02  0.52062242936E+02  0.64904808903E+02  0.11885988361E+03  0.00000000000E+00 0. -1.
</event>
<event>
 7    1  0.6485470E-006  0.1327340E+03  0.7818608E-02  0.1244487E+00
          2   -1    0    0  502    0  0.00000000000E+00  0.00000000000E+00  0.84977570086E+03  0.84977570086E+03  0.00000000000E+00 0. -1.
          1   -1    0    0  501    0 -0.00000000000E+00 -0.00000000000E+00 -0.15872490064E+04  0.15872490064E+04  0.00000000000E+00 0. -1.
         25    2    1    2    0    0  0.43468872248E+02 -0.24351309676E+02 -0.20818800886E+02  0.13616414901E+03  0.12499889546E+03 0.  0.
          2    1    1    2  501    0 -0.42402229018E+02  0.13132212266E+03 -0.15019680926E+04  0.15082942684E+04  0.00000000000E+00 0. -1.
          1    1    1    2  502    0 -0.10666432301E+01 -0.10697081299E+03  0.78531358789E+03  0.79256628990E+03  0.00000000000E+00 0. -1.
         22    1    3    3    0    0 -0.28388734328E+02 -0.16650587083E+01 -0.48221794656E+02  0.55982444901E+02  0.00000000000E+00 0.  1.
         22    1    3    3    0    0  0.71857606576E+02 -0.22686250968E+02  0.27402993770E+02  0.80181704106E+02  0.00000000000E+00 0.  1.
</event>
<event>
 7    1  0.6485470E-006  0.8615805E+02  0.7818608E-02  0.1319258E+00
          2   -1    0    0  502    0  0.00000000000E+00  0.00000000000E+00  0.25070302147E+03  0.25070302147E+03  0.00000000000E+00 0. -1.
          1   -1    0    0  501    0 -0.00000000000E+00 -0.00000000000E+00 -0.31652973810E+03  0.31652973810E+03  0.00000000000E+00 0. -1.
         25    2    1    2    0    0 -0.19145186198E+01 -0.21271258796E+02  0.19908997795E+03  0.23604730999E+03  0.12500152561E+03 0.  0.
          2    1    1    2  501    0 -0.83572610762E+02  0.32002526129E+02 -0.56941466861E+02  0.10607013527E+03  0.00000000000E+00 0. -1.
          1    1    1    2  502    0  0.85487129381E+02 -0.10731267333E+02 -0.20797522772E+03  0.22511531430E+03  0.00000000000E+00 0. -1.
         22    1    3    3    0    0  0.43250249253E+02 -0.47784370894E+02  0.15398693955E+03  0.16693084710E+03  0.00000000000E+00 0. -1.
         22    1    3    3    0    0 -0.45164767873E+02  0.26513112098E+02  0.45103038396E+02  0.69116462892E+02  0.00000000000E+00 0. -1.
</event>
<event>
 7    1  0.6485470E-006  0.1157372E+03  0.7818608E-02  0.1300353E+00
          2   -1    0    0  502    0  0.00000000000E+00  0.00000000000E+00  0.14520695556E+04  0.14520695556E+04  0.00000000000E+00 0. -1.
          1   -1    0    0  501    0 -0.00000000000E+00 -0.00000000000E+00 -0.21721508679E+03  0.21721508679E+03  0.00000000000E+00 0. -1.
         25    2    1    2    0    0 -0.10254101151E+03 -0.93077634907E+02  0.10627029285E+03  0.21469509061E+03  0.12499000612E+03 0.  0.
          2    1    1    2  501    0 -0.10841387781E+02  0.70787020580E+02 -0.15240915006E+03  0.16839503256E+03  0.00000000000E+00 0. -1.
          1    1    1    2  502    0  0.11338239929E+03  0.22290614327E+02  0.12809933260E+04  0.12861945192E+04  0.00000000000E+00 0. -1.
         22    1    3    3    0    0 -0.76041693219E+01 -0.69668985057E+02 -0.27363088486E+00  0.70083277205E+02  0.00000000000E+00 0. -1.
         22    1    3    3    0    0 -0.94936842185E+02 -0.23408649850E+02  0.10654392374E+03  0.14461181341E+03  0.00000000000E+00 0. -1.
</event>
<event>
 7    1  0.6485470E-006  0.2450965E+03  0.7818608E-02  0.1191768E+00
          2   -1    0    0  502    0  0.00000000000E+00  0.00000000000E+00  0.11728121005E+04  0.11728121005E+04  0.00000000000E+00 0. -1.
          1   -1    0    0  501    0 -0.00000000000E+00 -0.00000000000E+00 -0.76353453295E+03  0.76353453295E+03  0.00000000000E+00 0. -1.
         25    2    1    2    0    0 -0.12111004274E+03  0.14604120141E+03 -0.48572167511E+02  0.23234700847E+03  0.12502080598E+03 0.  0.
          2    1    1    2  501    0  0.99726605319E+02 -0.24471699250E+03 -0.59252590579E+03  0.64878251460E+03  0.00000000000E+00 0. -1.
          1    1    1    2  502    0  0.21383437421E+02  0.98675791087E+02  0.10503756409E+04  0.10552171104E+04  0.00000000000E+00 0. -1.
         22    1    3    3    0    0 -0.75559600818E+02  0.13356523081E+03 -0.82469908083E+02  0.17421311631E+03  0.00000000000E+00 0. -1.
         22    1    3    3    0    0 -0.45550441922E+02  0.12475970601E+02  0.33897740572E+02  0.58133892159E+02  0.00000000000E+00 0. -1.
</event>
<event>
 7    1  0.6485470E-006  0.1021323E+03  0.7818608E-02  0.1432083E+00
          2   -1    0    0  502    0  0.00000000000E+00  0.00000000000E+00  0.22325583065E+03  0.22325583065E+03  0.00000000000E+00 0. -1.
          1   -1    0    0  501    0 -0.00000000000E+00 -0.00000000000E+00 -0.10265448032E+04  0.10265448032E+04  0.00000000000E+00 0. -1.
         25    2    1    2    0    0 -0.81430401371E+02 -0.15242548826E+02  0.56464523944E+02  0.16023722983E+03  0.12499792717E+03 0.  0.
          2    1    1    2  501    0  0.95146804436E+02  0.38536609178E+02 -0.97032265820E+03  0.97573769306E+03  0.00000000000E+00 0. -1.
          1    1    1    2  502    0 -0.13716403066E+02 -0.23294060351E+02  0.11056916169E+03  0.11382571097E+03  0.00000000000E+00 0. -1.
         22    1    3    3    0    0 -0.87766868387E+02  0.36217725907E+02  0.20494016890E+02  0.97132649426E+02  0.00000000000E+00 0. -1.
         22    1    3    3    0    0  0.63364670159E+01 -0.51460274734E+02  0.35970507054E+02  0.63104580401E+02  0.00000000000E+00 0. -1.
</event>
<event>
 7    1  0.6485470E-006  0.1026035E+03  0.7818608E-02  0.1300490E+00
          2   -1    0    0  502    0  0.00000000000E+00  0.00000000000E+00  0.59832005220E+03  0.59832005220E+03  0.00000000000E+00 0. -1.
          1   -1    0    0  501    0 -0.00000000000E+00 -0.00000000000E+00 -0.71274388566E+03  0.71274388566E+03  0.00000000000E+00 0. -1.
         25    2    1    2    0    0 -0.79058777369E+02 -0.28857331441E+02  0.40656044315E+02  0.15607960332E+03  0.12499957110E+03 0.  0.
          2    1    1    2  501    0  0.91393690264E+02 -0.50871918529E+02 -0.64755310447E+03  0.65594647787E+03  0.00000000000E+00 0. -1.
          1    1    1    2  502    0 -0.12334912895E+02  0.79729249970E+02  0.49247322670E+03  0.49903785667E+03  0.00000000000E+00 0. -1.
         22    1    3    3    0    0 -0.13362655758E+02  0.37129620207E+02  0.48628066950E+02  0.62624740805E+02  0.00000000000E+00 0. -1.
         22    1    3    3    0    0 -0.65696121611E+02 -0.65986951648E+02 -0.79720226346E+01  0.93454862514E+02  0.00000000000E+00 0. -1.
</event>
<event>
 7    1  0.6485470E-006  0.2999343E+03  0.7818608E-02  0.1188186E+00
          2   -1    0    0  502    0  0.00000000000E+00  0.00000000000E+00  0.17138863705E+03  0.17138863705E+03  0.00000000000E+00 0. -1.
          1   -1    0    0  501    0 -0.00000000000E+00 -0.00000000000E+00 -0.12793852369E+04  0.12793852369E+04  0.00000000000E+00 0. -1.
         25    2    1    2    0    0 -0.20384075285E+03 -0.17519016407E+03 -0.28663847223E+03  0.41234627206E+03  0.12500075285E+03 0.  0.
          2    1    1    2  501    0  0.18236209240E+03  0.25829531797E+03 -0.87959680382E+03  0.93469938553E+03  0.00000000000E+00 0. -1.
          1    1    1    2  502    0  0.21478660447E+02 -0.83105153900E+02  0.58238676213E+02  0.10372821635E+03  0.00000000000E+00 0. -1.
         22    1    3    3    0    0 -0.12828418508E+03 -0.13636796530E+03 -0.11206110584E+03  0.21819886696E+03  0.00000000000E+00 0.  1.
         22    1    3    3    0    0 -0.75556567767E+02 -0.38822198766E+02 -0.17457736640E+03  0.19414740510E+03  0.00000000000E+00 0.  1.
</event>
<event>
 7    1  0.6485470E-006  0.8747670E+02  0.7818608E-02  0.1352541E+00
          2   -1    0    0  502    0  0.00000000000E+00  0.00000000000E+00  0.36898873487E+04  0.36898873487E+04  0.00000000000E+00 0. -1.
          1   -1    0    0  501    0 -0.00000000000E+00 -0.00000000000E+00 -0.11123567994E+03  0.11123567994E+03  0.00000000000E+00 0. -1.
         25    2    1    2    0    0 -0.14321719184E+03 -0.38285807645E+01  0.64229210092E+03  0.66984312247E+03  0.12499937503E+03 0.  0.
          2    1    1    2  501    0  0.58506095629E+02  0.11909180533E+02 -0.87660910645E+02  0.10606237345E+03  0.00000000000E+00 0. -1.
          1    1    1    2  502    0  0.84711096213E+02 -0.80805997686E+01  0.30240204785E+04  0.30252175327E+04  0.00000000000E+00 0. -1.
         22    1    3    3    0    0 -0.74380295325E+02  0.39795768209E+02  0.48911019244E+03  0.49633145361E+03  0.00000000000E+00 0. -1.
         22    1    3    3    0    0 -0.68836896517E+02 -0.43624348974E+02  0.15318190848E+03  0.17351166886E+03  0.00000000000E+00 0. -1.
</event>
<event>
 7    1  0.6485470E-006  0.7721387E+02  0.7818608E-02  0.1450553E+00
          2   -1    0    0  502    0  0.00000000000E+00  0.00000000000E+00  0.11581997058E+04  0.11581997058E+04  0.00000000000E+00 0. -1.
          1   -1    0    0  501    0 -0.00000000000E+00 -0.00000000000E+00 -0.17380051697E+04  0.17380051697E+04  0.00000000000E+00 0. -1.
         25    2    1    2    0    0  0.80205587658E+02  0.31516450666E+02 -0.29416947005E+03  0.33103898583E+03  0.12499964030E+03 0.  0.
          2    1    1    2  501    0 -0.56769119467E+02 -0.52042889098E+02 -0.14241474285E+04  0.14262282753E+04  0.00000000000E+00 0. -1.
          1    1    1    2  502    0 -0.23436468191E+02  0.20526438432E+02  0.11385114346E+04  0.11389376143E+04  0.00000000000E+00 0. -1.
         22    1    3    3    0    0  0.11020097669E+03  0.11648963950E+02 -0.25395354437E+03  0.27707824946E+03  0.00000000000E+00 0. -1.
         22    1    3    3    0    0 -0.29995389030E+02  0.19867486717E+02 -0.40215925679E+02  0.53960736371E+02  0.00000000000E+00 0. -1.
</event>
<event>
 7    1  0.6485470E-006  0.3256204E+03  0.7818608E-02  0.1284393E+00
          2   -1    0    0  502    0  0.00000000000E+00  0.00000000000E+00  0.39781240988E+03  0.39781240988E+03  0.00000000000E+00 0. -1.
          1   -1    0    0  501    0 -0.00000000000E+00 -0.00000000000E+00 -0.43466757746E+03  0.43466757746E+03  0.00000000000E+00 0. -1.
         25    2    1    2    0    0  0.30409833638E+03  0.49865060190E+02  0.12998307789E+03  0.35704438787E+03  0.12499108752E+03 0.  0.
          2    1    1    2  501    0 -0.32415374074E+03 -0.71554708844E+02 -0.23125573972E+03  0.40456759775E+03  0.00000000000E+00 0. -1.
          1    1    1    2  502    0  0.20055404360E+02  0.21689648654E+02  0.64417494251E+02  0.70868001724E+02  0.00000000000E+00 0. -1.
         22    1    3    3    0    0  0.11886325848E+03 -0.36827529787E+02  0.24126907923E+02  0.12675507427E+03  0.00000000000E+00 0.  1.
         22    1    3    3    0    0  0.18523507790E+03  0.86692589978E+02  0.10585616996E+03  0.23028931360E+03  0.00000000000E+00 0.  1.
</event>
<event>
 7    1  0.6485470E-006  0.9234893E+02  0.7818608E-02  0.1343391E+00
          2   -1    0    0  502    0  0.00000000000E+00  0.00000000000E+00  0.30339629042E+03  0.30339629042E+03  0.00000000000E+00 0. -1.
          1   -1    0    0  501    0 -0.00000000000E+00 -0.00000000000E+00 -0.96811117374E+03  0.96811117374E+03  0.00000000000E+00 0. -1.
         25    2    1    2    0    0 -0.84034321205E+02 -0.10460459387E+03 -0.57757764710E+03  0.60598873685E+03  0.12499008987E+03 0.  0.
          2    1    1    2  501    0  0.66131045648E+02  0.46120901806E+02 -0.36868825857E+03  0.37740096024E+03  0.00000000000E+00 0. -1.
          1    1    1    2  502    0  0.17903275557E+02  0.58483692069E+02  0.28155102235E+03  0.28811776707E+03  0.00000000000E+00 0. -1.
         22    1    3    3    0    0 -0.10334920003E+03 -0.11843689252E+03 -0.52985828267E+03  0.55268268868E+03  0.00000000000E+00 0.  1.
         22    1    3    3    0    0  0.19314878828E+02  0.13832298644E+02 -0.47719364426E+02  0.53306048166E+02  0.00000000000E+00 0.  1.
</event>
<event>
 7    1  0.6485470E-006  0.9776213E+02  0.7818608E-02  0.1345024E+00
          2   -1    0    0  502    0  0.00000000000E+00  0.00000000000E+00  0.15732231667E+04  0.15732231667E+04  0.00000000000E+00 0. -1.
          1   -1    0    0  501    0 -0.00000000000E+00 -0.00000000000E+00 -0.30521530763E+03  0.30521530763E+03  0.00000000000E+00 0. -1.
         25    2    1    2    0    0 -0.48042296646E+02 -0.44588844084E+02  0.67886890939E+03  0.69338616101E+03  0.12500057940E+03 0.  0.
          2    1    1    2  501    0 -0.56769514033E+02 -0.47694892209E+01 -0.29140410565E+03  0.29692066035E+03  0.00000000000E+00 0. -1.
          1    1    1    2  502    0  0.10481181068E+03  0.49358333305E+02  0.88054305532E+03  0.88813165296E+03  0.00000000000E+00 0. -1.
         22    1    3    3    0    0 -0.41469984808E+02  0.77295018326E+01  0.66499874388E+02  0.78751115117E+02  0.00000000000E+00 0.  1.
         22    1    3    3    0    0 -0.65723118381E+01 -0.52318345916E+02  0.61236903501E+03  0.61463504589E+03  0.00000000000E+00 0.  1.
</event>
<event>
 7    1  0.6485470E-006  0.5082609E+02  0.7818608E-02  0.1454388E+00
          2   -1    0    0  502    0  0.00000000000E+00  0.00000000000E+00  0.70976133204E+03  0.70976133204E+03  0.00000000000E+00 0. -1.
          1   -1    0    0  501    0 -0.00000000000E+00 -0.00000000000E+00 -0.14383889477E+03  0.14383889477E+03  0.00000000000E+00 0. -1.
         25    2    1    2    0    0 -0.78795542806E+02  0.19694764387E+02  0.46943209233E+03  0.49253135174E+03  0.12499608724E+03 0.  0.
          2    1    1    2  501    0  0.35721622081E+02 -0.35883035588E+02 -0.12499153376E+03  0.13485736924E+03  0.00000000000E+00 0. -1.
          1    1    1    2  502    0  0.43073920725E+02  0.16188271201E+02  0.22148187870E+03  0.22621150582E+03  0.00000000000E+00 0. -1.
         22    1    3    3    0    0 -0.50175137739E+02  0.18582743430E+02  0.53673192039E+02  0.75787032824E+02  0.00000000000E+00 0. -1.
         22    1    3    3    0    0 -0.28620405067E+02  0.11120209570E+01  0.41575890029E+03  0.41674431892E+03  0.00000000000E+00 0. -1.
</event>
<event>
 7    1  0.6485470E-006  0.3190517E+02  0.7818608E-02  0.1600180E+00
          2   -1    0    0  502    0  0.00000000000E+00  0.00000000000E+00  0.85738395320E+03  0.85738395320E+03  0.00000000000E+00 0. -1.
          1   -1    0    0  501    0 -0.00000000000E+00 -0.00000000000E+00 -0.56478865919E+02  0.56478865919E+02  0.00000000000E+00 0. -1.
         25    2    1    2    0    0  0.44493510407E+01  0.29552735558E+02  0.82284683235E+02  0.15260959624E+03  0.12500303542E+03 0.  0.
          2    1    1    2  501    0 -0.29004767756E+02 -0.16401152952E+02 -0.78630154926E+01  0.34235966225E+02  0.00000000000E+00 0. -1.
          1    1    1    2  502    0  0.24555416715E+02 -0.13151582605E+02  0.72648341954E+03  0.72701725666E+03  0.00000000000E+00 0. -1.
         22    1    3    3    0    0  0.51732383387E+02 -0.21575396491E+02  0.52735642350E+02  0.76959633566E+02  0.00000000000E+00 0. -1.
         22    1    3    3    0    0 -0.47283032346E+02  0.51128132049E+02  0.29549040885E+02  0.75649962670E+02  0.00000000000E+00 0. -1.
</event>
<event>
 7    1  0.6485470E-006  0.2168869E+03  0.7818608E-02  0.1258203E+00
          2   -1    0    0  502    0  0.00000000000E+00  0.00000000000E+00  0.15375603761E+04  0.15375603761E+04  0.00000000000E+00 0. -1.
          1   -1    0    0  501    0 -0.00000000000E+00 -0.00000000000E+00 -0.39622191489E+03  0.39622191489E+03  0.00000000000E+00 0. -1.
         25    2    1    2    0    0  0.24534020972E+03  0.30843007225E+02  0.28474889839E+03  0.39730724076E+03  0.12501199475E+03 0.  0.
          2    1    1    2  501    0 -0.33439647767E+02 -0.46288700405E+02 -0.32802508395E+03  0.33295842012E+03  0.00000000000E+00 0. -1.
          1    1    1    2  502    0 -0.21190056195E+03  0.15445693180E+02  0.11846146468E+04  0.12035166301E+04  0.00000000000E+00 0. -1.
         22    1    3    3    0    0  0.23454562471E+03  0.51854143407E+02  0.21049964484E+03  0.31939098725E+03  0.00000000000E+00 0.  1.
         22    1    3    3    0    0  0.10794585010E+02 -0.21011136182E+02  0.74249253550E+02  0.77916253516E+02  0.00000000000E+00 0.  1.
</event>
<event>
 7    1  0.6485470E-006  0.1769917E+03  0.7818608E-02  0.1396095E+00
          2   -1    0    0  502    0  0.00000000000E+00  0.00000000000E+00  0.22389352515E+03  0.22389352515E+03  0.00000000000E+00 0. -1.
          1   -1    0    0  501    0 -0.00000000000E+00 -0.00000000000E+00 -0.34842003203E+03  0.34842003203E+03  0.00000000000E+00 0. -1.
         25    2    1    2    0    0 -0.16134158935E+03 -0.10236361458E+03 -0.73437411294E+02  0.23985004966E+03  0.12500229959E+03 0.  0.
          2    1    1    2  501    0  0.11719645144E+02  0.16969149773E+02 -0.13798190688E+03  0.13951454675E+03  0.00000000000E+00 0. -1.
          1    1    1    2  502    0  0.14962194420E+03  0.85394464812E+02  0.86892811303E+02  0.19294896077E+03  0.00000000000E+00 0. -1.
         22    1    3    3    0    0 -0.48882850823E+02 -0.98377173723E+02 -0.91048556740E+01  0.11022930559E+03  0.00000000000E+00 0. -1.
         22    1    3    3    0    0 -0.11245873853E+03 -0.39864408611E+01 -0.64332555620E+02  0.12962074407E+03  0.00000000000E+00 0. -1.
</event>
<event>
 7    1  0.6485470E-006  0.7984560E+02  0.7818608E-02  0.1384530E+00
          2   -1    0    0  502    0  0.00000000000E+00  0.00000000000E+00  0.28563439050E+03  0.28563439050E+03  0.00000000000E+00 0. -1.
          1   -1    0    0  501    0 -0.00000000000E+00 -0.00000000000E+00 -0.13692459350E+04  0.13692459350E+04  0.00000000000E+00 0. -1.
         25    2    1    2    0    0  0.77325580452E+02  0.58201347891E+02 -0.27049030559E+03  0.31330124975E+03  0.12500410148E+03 0.  0.
          2    1    1    2  501    0 -0.79160396513E+02 -0.80709435580E+01 -0.10734833975E+04  0.10764284060E+04  0.00000000000E+00 0. -1.
          1    1    1    2  502    0  0.18348160617E+01 -0.50130404333E+02  0.26036215865E+03  0.26515066970E+03  0.00000000000E+00 0. -1.
         22    1    3    3    0    0  0.14551619793E+02 -0.28463673771E+02 -0.13092084553E+02  0.34544652858E+02  0.00000000000E+00 0. -1.
         22    1    3    3    0    0  0.62773960658E+02  0.86665021662E+02 -0.25739822104E+03  0.27875659689E+03  0.00000000000E+00 0. -1.
</event>
<event>
 7    1  0.6485470E-006  0.1226440E+03  0.7818608E-02  0.1403322E+00
          2   -1    0    0  502    0  0.00000000000E+00  0.00000000000E+00  0.11737179413E+04  0.11737179413E+04  0.00000000000E+00 0. -1.
          1   -1    0    0  501    0 -0.00000000000E+00 -0.00000000000E+00 -0.60854997539E+03  0.60854997539E+03  0.00000000000E+00 0. -1.
         25    2    1    2    0    0  0.13779626667E+03 -0.29799773377E+02  0.81817340406E+01  0.18859294480E+03  0.12499808181E+03 0.  0.
          2    1    1    2  501    0 -0.24101605487E+02 -0.14457937374E+02 -0.51449897675E+03  0.51526606371E+03  0.00000000000E+00 0. -1.
          1    1    1    2  502    0 -0.11369466118E+03  0.44257710752E+02  0.10714852087E+04  0.10784089082E+04  0.00000000000E+00 0. -1.
         22    1    3    3    0    0  0.85441393786E+02  0.39954078278E+02 -0.20987627587E+02  0.96628363615E+02  0.00000000000E+00 0. -1.
         22    1    3    3    0    0  0.52354872879E+02 -0.69753851656E+02  0.29169361627E+02  0.91964581186E+02  0.00000000000E+00 0. -1.
</event>
<event>
 7    1  0.6485470E-006  0.4921933E+02  0.7818608E-02  0.1451957E+00
          2   -1    0    0  502    0  0.00000000000E+00  0.00000000000E+00  0.46831024257E+03  0.46831024257E+03  0.00000000000E+00 0. -1.
          1   -1    0    0  501    0 -0.00000000000E+00 -0.00000000000E+00 -0.58573645004E+03  0.58573645004E+03  0.00000000000E+00 0. -1.
         25    2    1    2    0    0 -0.12797425714E+02  0.29567087899E+02 -0.14777019541E+02  0.12992047163E+03  0.12499192714E+03 0.  0.
          2    1    1    2  501    0 -0.37184537047E+02 -0.30938436148E+02 -0.51071893593E+03  0.51300458881E+03  0.00000000000E+00 0. -1.
          1    1    1    2  502    0  0.49981962761E+02  0.13713482487E+01  0.40806974800E+03  0.41112163216E+03  0.00000000000E+00 0. -1.
         22    1    3    3    0    0 -0.19488778655E+02  0.76836592095E+02  0.20636313884E+01  0.79296487644E+02  0.00000000000E+00 0. -1.
         22    1    3    3    0    0  0.66913529407E+01 -0.47269504196E+02 -0.16840650929E+02  0.50623983988E+02  0.00000000000E+00 0. -1.
</event>
<event>
 7    1  0.6485470E-006  0.1141752E+03  0.7818608E-02  0.1284515E+00
          2   -1    0    0  502    0  0.00000000000E+00  0.00000000000E+00  0.20495476853E+04  0.20495476853E+04  0.00000000000E+00 0. -1.
          1   -1    0    0  501    0 -0.00000000000E+00 -0.00000000000E+00 -0.24338318814E+03  0.24338318814E+03  0.00000000000E+00 0. -1.
         25    2    1    2    0    0 -0.37650555898E+02 -0.10453927881E+01  0.53249125206E+03  0.54826125638E+03  0.12499925808E+03 0.  0.
          2    1    1    2  501    0  0.10298403572E+03  0.54082162345E+02 -0.21987740085E+03  0.24875020261E+03  0.00000000000E+00 0. -1.
          1    1    1    2  502    0 -0.65333479823E+02 -0.53036769557E+02  0.14935506460E+04  0.14959194145E+04  0.00000000000E+00 0. -1.
         22    1    3    3    0    0 -0.30871062227E+01  0.35200228344E+02  0.45254626671E+03  0.45392368280E+03  0.00000000000E+00 0.  1.
         22    1    3    3    0    0 -0.34563449676E+02 -0.36245621132E+02  0.79944985354E+02  0.94337573575E+02  0.00000000000E+00 0.  1.
</event>
<event>
 7    1  0.6485470E-006  0.1762847E+03  0.7818608E-02  0.1310702E+00
          2   -1    0    0  502    0  0.00000000000E+00  0.00000000000E+00  0.32575591571E+04  0.32575591571E+04  0.00000000000E+00 0. -1.
          1   -1    0    0  501    0 -0.00000000000E+00 -0.00000000000E+00 -0.13955195163E+03  0.13955195163E+03  0.00000000000E+00 0. -1.
         25    2    1    2    0    0 -0.16403054973E+03 -0.13019824050E+03  0.22845632538E+03  0.33417738302E+03  0.12499851055E+03 0.  0.
          2    1    1    2  501    0  0.12849252674E+03  0.10639389647E+03 -0.61310860559E+01  0.16693585849E+03  0.00000000000E+00 0. -1.
          1    1    1    2  502    0  0.35538022993E+02  0.23804344038E+02  0.28956819661E+04  0.28959978672E+04  0.00000000000E+00 0. -1.
         22    1    3    3    0    0 -0.74097264881E+02 -0.32574460625E+01  0.25443748210E+02  0.78411733437E+02  0.00000000000E+00 0.  1.
         22    1    3    3    0    0 -0.89933284850E+02 -0.12694079444E+03  0.20301257717E+03  0.25576564958E+03  0.00000000000E+00 0.  1.
</event>
<event>
 7    1  0.6485470E-006  0.1418992E+03  0.7818608E-02  0.1233390E+00
          2   -1    0    0  502    0  0.00000000000E+00  0.00000000000E+00  0.25810873507E+03  0.25810873507E+03  0.00000000000E+00 0. -1.
          1   -1    0    0  501    0 -0.00000000000E+00 -0.00000000000E+00 -0.51945815496E+03  0.51945815496E+03  0.00000000000E+00 0. -1.
         25    2    1    2    0    0 -0.15132684421E+03 -0.16237934906E+03 -0.27753501315E+03  0.37671657176E+03  0.12499130022E+03 0.  0.
          2    1    1    2  501    0  0.24886950191E+02  0.10922567266E+03 -0.14882734986E+03  0.18627718036E+03  0.00000000000E+00 0. -1.
          1    1    1    2  502    0  0.12643989402E+03  0.53153676405E+02  0.16501294313E+03  0.21457313791E+03  0.00000000000E+00 0. -1.
         22    1    3    3    0    0 -0.13654023389E+03 -0.56668205735E+02 -0.15451995420E+03  0.21384793022E+03  0.00000000000E+00 0. -1.
         22    1    3    3    0    0 -0.14786610323E+02 -0.10571114333E+03 -0.12301505895E+03  0.16286864154E+03  0.00000000000E+00 0. -1.
</event>
<event>
 7    1  0.6485470E-006  0.1209689E+03  0.7818608E-02  0.1366241E+00
          2   -1    0    0  502    0  0.00000000000E+00  0.00000000000E+00  0.30840356397E+03  0.30840356397E+03  0.00000000000E+00 0. -1.
          1   -1    0    0  501    0 -0.00000000000E+00 -0.00000000000E+00 -0.62916895042E+03  0.62916895042E+03  0.00000000000E+00 0. -1.
         25    2    1    2    0    0 -0.18279732257E+02  0.14039244558E+03 -0.18355139771E+02  0.18975183322E+03  0.12499863866E+03 0.  0.
          2    1    1    2  501    0  0.31046202601E+02 -0.22727558957E+02 -0.50861252591E+03  0.51006579002E+03  0.00000000000E+00 0. -1.
          1    1    1    2  502    0 -0.12766470344E+02 -0.11766488662E+03  0.20620227923E+03  0.23775489115E+03  0.00000000000E+00 0. -1.
         22    1    3    3    0    0 -0.17455792791E+02 -0.30353856624E+01 -0.40888699142E+02  0.44562360637E+02  0.00000000000E+00 0.  1.
         22    1    3    3    0    0 -0.82393946659E+00  0.14342783124E+03  0.22533559370E+02  0.14518947258E+03  0.00000000000E+00 0.  1.
</event>
<event>
 7    1  0.6485470E-006  0.5684138E+02  0.7818608E-02  0.1524513E+00
          2   -1    0    0  502    0  0.00000000000E+00  0.00000000000E+00  0.57378861248E+03  0.57378861248E+03  0.00000000000E+00 0. -1.
          1   -1    0    0  501    0 -0.00000000000E+00 -0.00000000000E+00 -0.24013577842E+04  0.24013577842E+04  0.00000000000E+00 0. -1.
         25    2    1    2    0    0  0.73205876396E+02  0.11313668164E+02  0.38767774726E+02  0.15038380420E+03  0.12500099512E+03 0.  0.
          2    1    1    2  501    0 -0.51438146780E+02 -0.24065804288E+02 -0.23448737120E+04  0.23455612913E+04  0.00000000000E+00 0. -1.
          1    1    1    2  502    0 -0.21767729616E+02  0.12752136124E+02  0.47853676559E+03  0.47920130118E+03  0.00000000000E+00 0. -1.
         22    1    3    3    0    0  0.64819911622E+02  0.22190866061E+02  0.80932632784E+02  0.10603842006E+03  0.00000000000E+00 0.  1.
         22    1    3    3    0    0  0.83859647742E+01 -0.10877197896E+02 -0.42164858058E+02  0.44345384137E+02  0.00000000000E+00 0.  1.
</event>
<event>
 7    1  0.6485470E-006  0.1678048E+03  0.7818608E-02  0.1320883E+00
          2   -1    0    0  502    0  0.00000000000E+00  0.00000000000E+00  0.17142225732E+04  0.17142225732E+04  0.00000000000E+00 0. -1.
          1   -1    0    0  501    0 -0.00000000000E+00 -0.00000000000E+00 -0.86533044674E+03  0.86533044674E+03  0.00000000000E+00 0. -1.
         25    2    1    2    0    0  0.72232216772E+01 -0.17341957644E+03 -0.22732063409E+03  0.31213212741E+03  0.12500107940E+03 0.  0.
          2    1    1    2  501    0  0.39157242044E+02  0.12166913092E+02 -0.59068150148E+03  0.59210299743E+03  0.00000000000E+00 0. -1.
          1    1    1    2  502    0 -0.46380463721E+02  0.16125266335E+03  0.16668942620E+04  0.16753178951E+04  0.00000000000E+00 0. -1.
         22    1    3    3    0    0 -0.42726099902E+02 -0.71907614627E+02 -0.38651680491E+02  0.92142156796E+02  0.00000000000E+00 0.  1.
         22    1    3    3    0    0  0.49949321579E+02 -0.10151196182E+03 -0.18866895360E+03  0.21998997061E+03  0.00000000000E+00 0.  1.
</event>
<event>
 7    1  0.6485470E-006  0.1231903E+03  0.7818608E-02  0.1352382E+00
          2   -1    0    0  502    0  0.00000000000E+00  0.00000000000E+00  0.61886661295E+03  0.61886661295E+03  0.00000000000E+00 0. -1.
          1   -1    0    0  501    0 -0.00000000000E+00 -0.00000000000E+00 -0.36557341371E+03  0.36557341371E+03  0.00000000000E+00 0. -1.
         25    2    1    2    0    0 -0.12761433734E+03 -0.19600386806E+02  0.28373665482E+03  0.33585965654E+03  0.12500250136E+03 0.  0.
          2    1    1    2  501    0  0.12118011172E+03 -0.22363476689E+02 -0.32676768259E+03  0.34923038663E+03  0.00000000000E+00 0. -1.
          1    1    1    2  502    0  0.64342256251E+01  0.41963863495E+02  0.29632422700E+03  0.29934998348E+03  0.00000000000E+00 0. -1.
         22    1    3    3    0    0 -0.96724391902E+01 -0.55282826983E+02  0.98924666049E+02  0.11373581930E+03  0.00000000000E+00 0. -1.
         22    1    3    3    0    0 -0.11794189815E+03  0.35682440177E+02  0.18481198877E+03  0.22212383724E+03  0.00000000000E+00 0. -1.
</event>
<event>
 7    1  0.6485470E-006  0.8262186E+02  0.7818608E-02  0.1428554E+00
          2   -1    0    0  502    0  0.00000000000E+00  0.00000000000E+00  0.39457269510E+03  0.39457269510E+03  0.00000000000E+00 0. -1.
          1   -1    0    0  501    0 -0.00000000000E+00 -0.00000000000E+00 -0.60350872901E+02  0.60350872901E+02  0.00000000000E+00 0. -1.
         25    2    1    2    0    0 -0.33045538828E+02  0.10518452479E+03  0.16943564536E+03  0.23767924842E+03  0.12500878096E+03 0.  0.
          2    1    1    2  501    0  0.98007783021E+01 -0.32892369329E+02 -0.15894197337E+01  0.34358251855E+02  0.00000000000E+00 0. -1.
          1    1    1    2  502    0  0.23244760526E+02 -0.72292155464E+02  0.16637559657E+03  0.18288606772E+03  0.00000000000E+00 0. -1.
         22    1    3    3    0    0  0.26812844451E+02 -0.10916652082E+02  0.80370206811E+01  0.30044893437E+02  0.00000000000E+00 0.  1.
         22    1    3    3    0    0 -0.59858383279E+02  0.11610117688E+03  0.16139862468E+03  0.20763435498E+03  0.00000000000E+00 0.  1.
</event>
<event>
 7    1  0.6485470E-006  0.8311160E+02  0.7818608E-02  0.1361313E+00
          2   -1    0    0  502    0  0.00000000000E+00  0.00000000000E+00  0.50762849987E+03  0.50762849987E+03  0.00000000000E+00 0. -1.
          1   -1    0    0  501    0 -0.00000000000E+00 -0.00000000000E+00 -0.98276417930E+02  0.98276417930E+02  0.00000000000E+00 0. -1.
         25    2    1    2    0    0  0.31709959176E+02 -0.36033270255E+02  0.26854524047E+03  0.30007541158E+03  0.12499915351E+03 0.  0.
          2    1    1    2  501    0 -0.31534940849E+01  0.86924978672E+02 -0.54059728503E+02  0.10241264906E+03  0.00000000000E+00 0. -1.
          1    1    1    2  502    0 -0.28556465091E+02 -0.50891708416E+02  0.19486656997E+03  0.20341685716E+03  0.00000000000E+00 0. -1.
         22    1    3    3    0    0  0.66420687156E+01 -0.43499414422E+02  0.27030202150E+03  0.27386036398E+03  0.00000000000E+00 0.  1.
         22    1    3    3    0    0  0.25067890460E+02  0.74661441664E+01 -0.17567810319E+01  0.26215047596E+02  0.00000000000E+00 0.  1.
</event>
<event>
 7    1  0.6485470E-006  0.8505388E+02  0.7818608E-02  0.1337435E+00
          2   -1    0    0  502    0  0.00000000000E+00  0.00000000000E+00  0.36584605124E+02  0.36584605124E+02  0.00000000000E+00 0. -1.
          1   -1    0    0  501    0 -0.00000000000E+00 -0.00000000000E+00 -0.97101197807E+03  0.97101197807E+03  0.00000000000E+00 0. -1.
         25    2    1    2    0    0 -0.25392707781E+02 -0.96612401879E+02 -0.54803465736E+03  0.57091653413E+03  0.12499982989E+03 0.  0.
          2    1    1    2  501    0  0.73506694037E+02  0.45875981945E+02 -0.34436562306E+03  0.35509931306E+03  0.00000000000E+00 0. -1.
          1    1    1    2  502    0 -0.48113986256E+02  0.50736419934E+02 -0.42027092529E+02  0.81580736008E+02  0.00000000000E+00 0. -1.
         22    1    3    3    0    0 -0.35024820299E+02 -0.78120387207E+02 -0.15293702280E+03  0.17526912414E+03  0.00000000000E+00 0.  1.
         22    1    3    3    0    0  0.96321125181E+01 -0.18492014671E+02 -0.39509763455E+03  0.39564740999E+03  0.00000000000E+00 0.  1.
</event>
<event>
 7    1  0.6485470E-006  0.6989989E+02  0.7818608E-02  0.1367275E+00
          2   -1    0    0  502    0  0.00000000000E+00  0.00000000000E+00  0.63399517450E+03  0.63399517450E+03  0.00000000000E+00 0. -1.
          1   -1    0    0  501    0 -0.00000000000E+00 -0.00000000000E+00 -0.19634369832E+04  0.19634369832E+04  0.00000000000E+00 0. -1.
         25    2    1    2    0    0  0.68355261919E+02 -0.11663042358E+03 -0.19452050779E+03  0.26783969781E+03  0.12499911294E+03 0.  0.
          2    1    1    2  501    0 -0.36207813804E+02  0.55201325861E+02 -0.17296132016E+04  0.17308726179E+04  0.00000000000E+00 0. -1.
          1    1    1    2  502    0 -0.32147448115E+02  0.61429097721E+02  0.59469190069E+03  0.59871984201E+03  0.00000000000E+00 0. -1.
         22    1    3    3    0    0  0.39498350345E+02 -0.12820206727E+03 -0.97166828046E+02  0.16564203031E+03  0.00000000000E+00 0. -1.
         22    1    3    3    0    0  0.28856911574E+02  0.11571643688E+02 -0.97353679749E+02  0.10219766751E+03  0.00000000000E+00 0. -1.
</event>
<event>
 7    1  0.6485470E-006  0.2144854E+03  0.7818608E-02  0.1319274E+00
          2   -1    0    0  502    0  0.00000000000E+00  0.00000000000E+00  0.28841514430E+04  0.28841514430E+04  0.00000000000E+00 0. -1.
          1   -1    0    0  501    0 -0.00000000000E+00 -0.00000000000E+00 -0.28793802485E+03  0.28793802485E+03  0.00000000000E+00 0. -1.
         25    2    1    2    0    0 -0.83518565495E+02  0.21893432164E+03  0.14623274229E+02  0.26598388859E+03  0.12500400340E+03 0.  0.
          2    1    1    2  501    0  0.30338961528E+02 -0.11776211421E+02 -0.15641251981E+03  0.15976234880E+03  0.00000000000E+00 0. -1.
          1    1    1    2  502    0  0.53179603967E+02 -0.20715811022E+03  0.27380026638E+04  0.27463432305E+04  0.00000000000E+00 0. -1.
         22    1    3    3    0    0 -0.99304329998E+02  0.22651197532E+03  0.86228636140E+01  0.24747399600E+03  0.00000000000E+00 0. -1.
         22    1    3    3    0    0  0.15785764503E+02 -0.75776536757E+01  0.60004106146E+01  0.18509892591E+02  0.00000000000E+00 0. -1.
</event>
<event>
 7    1  0.6485470E-006  0.1344387E+03  0.7818608E-02  0.1257078E+00
          2   -1    0    0  502    0  0.00000000000E+00  0.00000000000E+00  0.11571137553E+04  0.11571137553E+04  0.00000000000E+00 0. -1.
          1   -1    0    0  501    0 -0.00000000000E+00 -0.00000000000E+00 -0.68134407052E+02  0.68134407052E+02  0.00000000000E+00 0. -1.
         25    2    1    2    0    0 -0.71956835277E+02  0.74396272491E+02  0.77610598370E+03  0.79289154821E+03  0.12499567105E+03 0.  0.
          2    1    1    2  501    0  0.68044837566E+01 -0.14097322481E+03  0.44050894634E+02  0.14785206265E+03  0.00000000000E+00 0. -1.
          1    1    1    2  502    0  0.65152351520E+02  0.66576952318E+02  0.26882246990E+03  0.28450455148E+03  0.00000000000E+00 0. -1.
         22    1    3    3    0    0 -0.79705494341E+01 -0.34680539111E+02  0.18897679209E+03  0.19229793915E+03  0.00000000000E+00 0.  1.
         22    1    3    3    0    0 -0.63986285843E+02  0.10907681160E+03  0.58712919161E+03  0.60059360906E+03  0.00000000000E+00 0.  1.
</event>
<event>
 7    1  0.6485470E-006  0.4361391E+02  0.7818608E-02  0.1583618E+00
          2   -1    0    0  502    0  0.00000000000E+00  0.00000000000E+00  0.47885216901E+03  0.47885216901E+03  0.00000000000E+00 0. -1.
          1   -1    0    0  501    0 -0.00000000000E+00 -0.00000000000E+00 -0.22533819201E+03  0.22533819201E+03  0.00000000000E+00 0. -1.
         25    2    1    2    0    0  0.94418503466E+01 -0.30388170562E+02 -0.25179514220E+02  0.13140565913E+03  0.12498339836E+03 0.  0.
          2    1    1    2  501    0  0.87101660281E+01  0.43743983895E+02 -0.14335576337E+03  0.15013420000E+03  0.00000000000E+00 0. -1.
          1    1    1    2  502    0 -0.18152016375E+02 -0.13355813333E+02  0.42204925459E+03  0.42265050189E+03  0.00000000000E+00 0. -1.
         22    1    3    3    0    0  0.64833339870E+02  0.16104501086E+01 -0.15818358544E+02  0.66754595162E+02  0.00000000000E+00 0.  1.
         22    1    3    3    0    0 -0.55391489523E+02 -0.31998620671E+02 -0.93611556754E+01  0.64651063967E+02  0.00000000000E+00 0.  1.
</event>
<event>
 7    1  0.6485470E-006  0.1819887E+03  0.7818608E-02  0.1330248E+00
          2   -1    0    0  502    0  0.00000000000E+00  0.00000000000E+00  0.97548596393E+03  0.97548596393E+03  0.00000000000E+00 0. -1.
          1   -1    0    0  501    0 -0.00000000000E+00 -0.00000000000E+00 -0.20048606670E+03  0.20048606670E+03  0.00000000000E+00 0. -1.
         25    2    1    2    0    0  0.15967634698E+03  0.11077081540E+03  0.56627141179E+03  0.61159851910E+03  0.12499090941E+03 0.  0.
          2    1    1    2  501    0 -0.51208307249E+01 -0.34419812779E+02 -0.15659791369E+03  0.16041774525E+03  0.00000000000E+00 0. -1.
          1    1    1    2  502    0 -0.15455551626E+03 -0.76351002616E+02  0.36532639913E+03  0.40395576628E+03  0.00000000000E+00 0. -1.
         22    1    3    3    0    0 -0.84988821264E+00  0.59553077633E+02  0.10803971499E+03  0.12336884282E+03  0.00000000000E+00 0.  1.
         22    1    3    3    0    0  0.16052623519E+03  0.51217737762E+02  0.45823169680E+03  0.48822967628E+03  0.00000000000E+00 0.  1.
</event>
<event>
 7    1  0.6485470E-006  0.3560208E+02  0.7818608E-02  0.1627598E+00
          2   -1    0    0  502    0  0.00000000000E+00  0.00000000000E+00  0.67623395554E+02  0.67623395554E+02  0.00000000000E+00 0. -1.
          1   -1    0    0  501    0 -0.00000000000E+00 -0.00000000000E+00 -0.14199649955E+04  0.14199649955E+04  0.00000000000E+00 0. -1.
         25    2    1    2    0    0  0.57389028111E+01  0.20794827603E+02 -0.79566602503E+03  0.80570882959E+03  0.12496773519E+03 0.  0.
          2    1    1    2  501    0 -0.16604667106E+02  0.13226023758E+02 -0.61398554265E+03  0.61435241455E+03  0.00000000000E+00 0. -1.
          1    1    1    2  502    0  0.10865764295E+02 -0.34020851360E+02  0.57309967766E+02  0.67527146884E+02  0.00000000000E+00 0. -1.
         22    1    3    3    0    0  0.28479342355E+02 -0.24058664216E+02 -0.65950527043E+03  0.66055816851E+03  0.00000000000E+00 0. -1.
         22    1    3    3    0    0 -0.22740439544E+02  0.44853491819E+02 -0.13616075460E+03  0.14515066108E+03  0.00000000000E+00 0. -1.
</event>
<event>
 7    1  0.6485470E-006  0.1014055E+03  0.7818608E-02  0.1433115E+00
          2   -1    0    0  502    0  0.00000000000E+00  0.00000000000E+00  0.56695586553E+03  0.56695586553E+03  0.00000000000E+00 0. -1.
          1   -1    0    0  501    0 -0.00000000000E+00 -0.00000000000E+00 -0.18980330551E+03  0.18980330551E+03  0.00000000000E+00 0. -1.
         25    2    1    2    0    0 -0.83353787822E+02  0.21815286765E+02  0.26779456005E+03  0.30783586285E+03  0.12500092553E+03 0.  0.
          2    1    1    2  501    0  0.90452177484E+02 -0.47880953695E+02 -0.15360459825E+03  0.18457669068E+03  0.00000000000E+00 0. -1.
          1    1    1    2  502    0 -0.70983896617E+01  0.26065666930E+02  0.26296259822E+03  0.26434661751E+03  0.00000000000E+00 0. -1.
         22    1    3    3    0    0 -0.10307486369E+03  0.22247990405E+02  0.12434784888E+03  0.16303922265E+03  0.00000000000E+00 0.  1.
         22    1    3    3    0    0  0.19721075871E+02 -0.43270363958E+00  0.14344671117E+03  0.14479664020E+03  0.00000000000E+00 0.  1.
</event>
<event>
 7    1  0.6485470E-006  0.1022460E+03  0.7818608E-02  0.1447851E+00
          2   -1    0    0  502    0  0.00000000000E+00  0.00000000000E+00  0.85609940661E+03  0.85609940661E+03  0.00000000000E+00 0. -1.
          1   -1    0    0  501    0 -0.00000000000E+00 -0.00000000000E+00 -0.32883656011E+03  0.32883656011E+03  0.00000000000E+00 0. -1.
         25    2    1    2    0    0 -0.50291876492E+01  0.84308269198E+02  0.29897250533E+02  0.15379510408E+03  0.12500364581E+03 0.  0.
          2    1    1    2  501    0  0.15307110167E+02  0.18485940787E+02 -0.26284730611E+03  0.26394079631E+03  0.00000000000E+00 0. -1.
          1    1    1    2  502    0 -0.10277922518E+02 -0.10279420999E+03  0.76021290208E+03  0.76720006634E+03  0.00000000000E+00 0. -1.
         22    1    3    3    0    0 -0.41124421326E+02 -0.20132903764E+01 -0.22124211973E+02  0.46741332062E+02  0.00000000000E+00 0. -1.
         22    1    3    3    0    0  0.36095233677E+02  0.86321559575E+02  0.52021462506E+02  0.10705377202E+03  0.00000000000E+00 0. -1.
</event>
<event>
 7    1  0.6485470E-006  0.4471919E+02  0.7818608E-02  0.1505861E+00
          2   -1    0    0  502    0  0.00000000000E+00  0.00000000000E+00  0.16863633248E+04  0.16863633248E+04  0.00000000000E+00 0. -1.
          1   -1    0    0  501    0 -0.00000000000E+00 -0.00000000000E+00 -0.43471825446E+02  0.43471825446E+02  0.00000000000E+00 0. -1.
         25    2    1    2    0    0 -0.40718990076E+01 -0.84628822366E+01  0.18047862149E+03  0.21974063591E+03  0.12500085407E+03 0.  0.
          2    1    1    2  501    0 -0.25415164949E+02 -0.25996359189E+02 -0.94253675781E+01  0.37557673709E+02  0.00000000000E+00 0. -1.
          1    1    1    2  502    0  0.29487063957E+02  0.34459241426E+02  0.14718382454E+04  0.14725368406E+04  0.00000000000E+00 0. -1.
         22    1    3    3    0    0 -0.47960666267E+02 -0.33606086930E+02  0.41313796531E+02  0.71668852170E+02  0.00000000000E+00 0. -1.
         22    1    3    3    0    0  0.43888767259E+02  0.25143204694E+02  0.13916482496E+03  0.14807178374E+03  0.00000000000E+00 0. -1.
</event>
<event>
 7    1  0.6485470E-006  0.2169225E+03  0.7818608E-02  0.1260503E+00
          2   -1    0    0  502    0  0.00000000000E+00  0.00000000000E+00  0.13893791053E+04  0.13893791053E+04  0.00000000000E+00 0. -1.
          1   -1    0    0  501    0 -0.00000000000E+00 -0.00000000000E+00 -0.95739920037E+02  0.95739920037E+02  0.00000000000E+00 0. -1.
         25    2    1    2    0    0  0.21608126552E+03  0.13057003776E+03  0.71082597937E+03  0.76461659202E+03  0.12500124713E+03 0.  0.
          2    1    1    2  501    0 -0.45502848434E+02 -0.32326829694E+02 -0.39119922924E+02  0.68160850224E+02  0.00000000000E+00 0. -1.
          1    1    1    2  502    0 -0.17057841708E+03 -0.98243208071E+02  0.62193312882E+03  0.65234158309E+03  0.00000000000E+00 0. -1.
         22    1    3    3    0    0  0.12049761286E+03  0.12258677372E+02  0.41014931102E+03  0.42765921855E+03  0.00000000000E+00 0. -1.
         22    1    3    3    0    0  0.95583652655E+02  0.11831136039E+03  0.30067666835E+03  0.33695737348E+03  0.00000000000E+00 0. -1.
</event>
<event>
 7    1  0.6485470E-006  0.2987904E+02  0.7818608E-02  0.1644061E+00
          2   -1    0    0  502    0  0.00000000000E+00  0.00000000000E+00  0.38617124040E+03  0.38617124040E+03  0.00000000000E+00 0. -1.
          1   -1    0    0  501    0 -0.00000000000E+00 -0.00000000000E+00 -0.15575954415E+04  0.15575954415E+04  0.00000000000E+00 0. -1.
         25    2    1    2    0    0  0.29619375090E+02  0.42468431736E+02 -0.71350422899E+03  0.72621916552E+03  0.12500046599E+03 0.  0.
          2    1    1    2  501    0 -0.17160704449E+02 -0.15329686635E+02 -0.83698842449E+03  0.83730467084E+03  0.00000000000E+00 0. -1.
          1    1    1    2  502    0 -0.12458670641E+02 -0.27138745101E+02  0.37906845240E+03  0.38024284552E+03  0.00000000000E+00 0. -1.
         22    1    3    3    0    0  0.69398606245E+02  0.69830767616E+01 -0.54600677004E+03  0.55044375085E+03  0.00000000000E+00 0.  1.
         22    1    3    3    0    0 -0.39779231155E+02  0.35485354974E+02 -0.16749745895E+03  0.17577541467E+03  0.00000000000E+00 0.  1.
</event>
<event>
 7    1  0.6485470E-006  0.1178140E+03  0.7818608E-02  0.1315958E+00
          2   -1    0    0  502    0  0.00000000000E+00  0.00000000000E+00  0.14141734305E+04  0.14141734305E+04  0.00000000000E+00 0. -1.
          1   -1    0    0  501    0 -0.00000000000E+00 -0.00000000000E+00 -0.19778154651E+04  0.19778154651E+04  0.00000000000E+00 0. -1.
         25    2    1    2    0    0  0.16582412454E+03 -0.11418260374E+02  0.52836186840E+03  0.56781908129E+03  0.12499691255E+03 0.  0.
          2    1    1    2  501    0 -0.11116926463E+03  0.38589591562E+02 -0.19552402933E+04  0.19587782842E+04  0.00000000000E+00 0. -1.
          1    1    1    2  502    0 -0.54654859908E+02 -0.27171331188E+02  0.86323639032E+03  0.86539153019E+03  0.00000000000E+00 0. -1.
         22    1    3    3    0    0  0.56834032955E+02  0.48619316273E+02  0.12466050615E+03  0.14537601938E+03  0.00000000000E+00 0.  1.
         22    1    3    3    0    0  0.10899009159E+03 -0.60037576647E+02  0.40370136225E+03  0.42244306191E+03  0.00000000000E+00 0.  1.
</event>
<event>
 7    1  0.6485470E-006  0.5025112E+02  0.7818608E-02  0.1444325E+00
          2   -1    0    0  502    0  0.00000000000E+00  0.00000000000E+00  0.14917536546E+03  0.14917536546E+03  0.00000000000E+00 0. -1.
          1   -1    0    0  501    0 -0.00000000000E+00 -0.00000000000E+00 -0.10586455231E+04  0.10586455231E+04  0.00000000000E+00 0. -1.
         25    2    1    2    0    0  0.30768146429E+01 -0.15177864696E+02 -0.24487278519E+03  0.27536757084E+03  0.12499913511E+03 0.  0.
          2    1    1    2  501    0  0.48050977220E+02  0.14275519970E+02 -0.79282368999E+03  0.79440675368E+03  0.00000000000E+00 0. -1.
          1    1    1    2  502    0 -0.51127791863E+02  0.90234472548E+00  0.12822631756E+03  0.13804656403E+03  0.00000000000E+00 0. -1.
         22    1    3    3    0    0 -0.16055113341E+01 -0.24951665619E+01  0.14925602104E+02  0.15217658196E+02  0.00000000000E+00 0.  1.
         22    1    3    3    0    0  0.46823259769E+01 -0.12682698134E+02 -0.25979838729E+03  0.26014991264E+03  0.00000000000E+00 0.  1.
</event>
<event>
 7    1  0.6485470E-006  0.5442709E+02  0.7818608E-02  0.1508754E+00
          2   -1    0    0  502    0  0.00000000000E+00  0.00000000000E+00  0.14724440453E+02  0.14724440453E+02  0.00000000000E+00 0. -1.
          1   -1    0    0  501    0 -0.00000000000E+00 -0.00000000000E+00 -0.12136581720E+04  0.12136581720E+04  0.00000000000E+00 0. -1.
         25    2    1    2    0    0 -0.31454665684E+02  0.27944093533E+02 -0.45445751502E+03  0.47320920828E+03  0.12500021396E+03 0.  0.
          2    1    1    2  501    0  0.82022247912E+01  0.28117152334E+02 -0.56410653549E+03  0.56486638609E+03  0.00000000000E+00 0. -1.
          1    1    1    2  502    0  0.23252440893E+02 -0.56061245867E+02 -0.18036968107E+03  0.19030701812E+03  0.00000000000E+00 0. -1.
         22    1    3    3    0    0 -0.55399687090E+02 -0.67299719738E+01 -0.87113260261E+02  0.10345597115E+03  0.00000000000E+00 0.  1.
         22    1    3    3    0    0  0.23945021406E+02  0.34674065506E+02 -0.36734425476E+03  0.36975323714E+03  0.00000000000E+00 0.  1.
</event>
<event>
 7    1  0.6485470E-006  0.4252318E+02  0.7818608E-02  0.1592943E+00
          2   -1    0    0  502    0  0.00000000000E+00  0.00000000000E+00  0.43061272830E+03  0.43061272830E+03  0.00000000000E+00 0. -1.
          1   -1    0    0  501    0 -0.00000000000E+00 -0.00000000000E+00 -0.32915786794E+03  0.32915786794E+03  0.00000000000E+00 0. -1.
         25    2    1    2    0    0  0.15881639106E+01  0.64018871398E+02  0.20401663097E+03  0.24768792764E+03  0.12500234247E+03 0.  0.
          2    1    1    2  501    0  0.12254501779E+01 -0.42366569551E+02 -0.30527181034E+03  0.30820010729E+03  0.00000000000E+00 0. -1.
          1    1    1    2  502    0 -0.28136140885E+01 -0.21652301848E+02  0.20271003973E+03  0.20388256132E+03  0.00000000000E+00 0. -1.
         22    1    3    3    0    0  0.30711589731E+02  0.72945344209E+02  0.20223980633E+03  0.21717542275E+03  0.00000000000E+00 0.  1.
         22    1    3    3    0    0 -0.29123425820E+02 -0.89264728108E+01  0.17768246468E+01  0.30512504882E+02  0.00000000000E+00 0.  1.
</event>
<event>
 7    1  0.6485470E-006  0.6892103E+02  0.7818608E-02  0.1392083E+00
          2   -1    0    0  502    0  0.00000000000E+00  0.00000000000E+00  0.40626224086E+03  0.40626224086E+03  0.00000000000E+00 0. -1.
          1   -1    0    0  501    0 -0.00000000000E+00 -0.00000000000E+00 -0.10506467529E+04  0.10506467529E+04  0.00000000000E+00 0. -1.
         25    2    1    2    0    0 -0.60990891714E+02  0.84157621724E+02 -0.45355670787E+03  0.48181006298E+03  0.12499942148E+03 0.  0.
          2    1    1    2  501    0 -0.11444709026E+01 -0.54672509602E+02 -0.57864866984E+03  0.58122687156E+03  0.00000000000E+00 0. -1.
          1    1    1    2  502    0  0.62135362616E+02 -0.29485112121E+02  0.38782086571E+03  0.39387205918E+03  0.00000000000E+00 0. -1.
         22    1    3    3    0    0 -0.55688680020E+02 -0.78534858870E+01 -0.85121626944E+02  0.10202253524E+03  0.00000000000E+00 0.  1.
         22    1    3    3    0    0 -0.53022116935E+01  0.92011107611E+02 -0.36843508093E+03  0.37978752774E+03  0.00000000000E+00 0.  1.
</event>
<event>
 7    1  0.6485470E-006  0.6507038E+02  0.7818608E-02  0.1413266E+00
          2   -1    0    0  502    0  0.00000000000E+00  0.00000000000E+00  0.16343307874E+03  0.16343307874E+03  0.00000000000E+00 0. -1.
          1   -1    0    0  501    0 -0.00000000000E+00 -0.00000000000E+00 -0.30466097388E+03  0.30466097388E+03  0.00000000000E+00 0. -1.
         25    2    1    2    0    0 -0.42942158214E+02 -0.89315402181E+02 -0.20141140483E+03  0.25693544916E+03  0.12501200351E+03 0.  0.
          2    1    1    2  501    0 -0.66282470712E+01  0.48558543306E+02 -0.58451432215E+02  0.76278671431E+02  0.00000000000E+00 0. -1.
          1    1    1    2  502    0  0.49570405285E+02  0.40756858875E+02  0.11863494190E+03  0.13487993203E+03  0.00000000000E+00 0. -1.
         22    1    3    3    0    0 -0.61298791457E+02 -0.68178550960E+02 -0.52986525477E+02  0.10589347726E+03  0.00000000000E+00 0.  1.
         22    1    3    3    0    0  0.18356633243E+02 -0.21136851221E+02 -0.14842487935E+03  0.15104197189E+03  0.00000000000E+00 0.  1.
</event>
<event>
 7    1  0.6485470E-006  0.9939420E+02  0.7818608E-02  0.1454439E+00
          2   -1    0    0  502    0  0.00000000000E+00  0.00000000000E+00  0.15460416259E+04  0.15460416259E+04  0.00000000000E+00 0. -1.
          1   -1    0    0  501    0 -0.00000000000E+00 -0.00000000000E+00 -0.89539732248E+02  0.89539732248E+02  0.00000000000E+00 0. -1.
         25    2    1    2    0    0 -0.75434044499E+02 -0.68731232783E+02  0.66617327818E+03  0.68543826420E+03  0.12499800012E+03 0.  0.
          2    1    1    2  501    0  0.56062255190E+02  0.82072857558E+02 -0.48771059995E+02  0.11071380536E+03  0.00000000000E+00 0. -1.
          1    1    1    2  502    0  0.19371789309E+02 -0.13341624774E+02  0.83909967544E+03  0.83942928856E+03  0.00000000000E+00 0. -1.
         22    1    3    3    0    0 -0.10476976257E+03 -0.36994142344E+02  0.37629525281E+03  0.39235619914E+03  0.00000000000E+00 0.  1.
         22    1    3    3    0    0  0.29335718076E+02 -0.31737090439E+02  0.28987802538E+03  0.29308206506E+03  0.00000000000E+00 0.  1.
</event>
<event>
 7    1  0.6485470E-006  0.3425945E+02  0.7818608E-02  0.1556355E+00
          2   -1    0    0  502    0  0.00000000000E+00  0.00000000000E+00  0.11682063281E+04  0.11682063281E+04  0.00000000000E+00 0. -1.
          1   -1    0    0  501    0 -0.00000000000E+00 -0.00000000000E+00 -0.12183306246E+03  0.12183306246E+03  0.00000000000E+00 0. -1.
         25    2    1    2    0    0 -0.53532392943E+02  0.14476402178E+02  0.37027580223E+02  0.14167870268E+03  0.12500611898E+03 0.  0.
          2    1    1    2  501    0  0.21473049293E+02 -0.26393133827E+02 -0.65055102457E+02  0.73415636719E+02  0.00000000000E+00 0. -1.
          1    1    1    2  502    0  0.32059343650E+02  0.11916731649E+02  0.10744007879E+04  0.10749450512E+04  0.00000000000E+00 0. -1.
         22    1    3    3    0    0 -0.11627908439E+02 -0.48672454195E+02  0.42555034029E+02  0.65689778302E+02  0.00000000000E+00 0. -1.
         22    1    3    3    0    0 -0.41904484504E+02  0.63148856374E+02 -0.55274538067E+01  0.75988924380E+02  0.00000000000E+00 0. -1.
</event>
<event>
 7    1  0.6485470E-006  0.4812228E+02  0.7818608E-02  0.1519166E+00
          2   -1    0    0  502    0  0.00000000000E+00  0.00000000000E+00  0.13896846109E+03  0.13896846109E+03  0.00000000000E+00 0. -1.
          1   -1    0    0  501    0 -0.00000000000E+00 -0.00000000000E+00 -0.82873182040E+03  0.82873182040E+03  0.00000000000E+00 0. -1.
         25    2    1    2    0    0 -0.90281490693E+01  0.16713398927E+02  0.74785580109E+02  0.14690750834E+03  0.12501235072E+03 0.  0.
          2    1    1    2  501    0  0.35190676672E+02 -0.33118996264E+02 -0.78321799647E+03  0.78470738600E+03  0.00000000000E+00 0. -1.
          1    1    1    2  502    0 -0.26162527603E+02  0.16405597337E+02  0.18669057060E+02  0.36085387155E+02  0.00000000000E+00 0. -1.
         22    1    3    3    0    0 -0.34665337794E+02  0.60950910527E+02  0.22168477469E+02  0.73540060727E+02  0.00000000000E+00 0. -1.
         22    1    3    3    0    0  0.25637188724E+02 -0.44237511601E+02  0.52617102640E+02  0.73367447608E+02  0.00000000000E+00 0. -1.
</event>
<event>
 7    1  0.6485470E-006  0.6787918E+02  0.7818608E-02  0.1488032E+00
          2   -1    0    0  502    0  0.00000000000E+00  0.00000000000E+00  0.12007414196E+03  0.12007414196E+03  0.00000000000E+00 0. -1.
          1   -1    0    0  501    0 -0.00000000000E+00 -0.00000000000E+00 -0.47774879414E+03  0.47774879414E+03  0.00000000000E+00 0. -1.
         25    2    1    2    0    0 -0.49022235478E+02 -0.16504085238E+02 -0.12090532811E+02  0.13582445639E+03  0.12500615012E+03 0.  0.
          2    1    1    2  501    0  0.53534925822E+02  0.43212440259E+02 -0.39751669712E+03  0.40342635978E+03  0.00000000000E+00 0. -1.
          1    1    1    2  502    0 -0.45126903438E+01 -0.26708355021E+02  0.51932577748E+02  0.58572119935E+02  0.00000000000E+00 0. -1.
         22    1    3    3    0    0 -0.70255594222E+00 -0.58462894877E+02 -0.34657503641E+02  0.67967243735E+02  0.00000000000E+00 0. -1.
         22    1    3    3    0    0 -0.48319679536E+02  0.41958809639E+02  0.22566970830E+02  0.67857212654E+02  0.00000000000E+00 0. -1.
</event>
<event>
 7    1  0.6485470E-006  0.8876989E+02  0.7818608E-02  0.1390195E+00
          2   -1    0    0  502    0  0.00000000000E+00  0.00000000000E+00  0.56528667130E+03  0.56528667130E+03  0.00000000000E+00 0. -1.
          1   -1    0    0  501    0 -0.00000000000E+00 -0.00000000000E+00 -0.87202331291E+03  0.87202331291E+03  0.00000000000E+00 0. -1.
         25    2    1    2    0    0 -0.12115863070E+02  0.48440226101E+02 -0.25185975877E+02  0.13694657613E+03  0.12500712656E+03 0.  0.
          2    1    1    2  501    0  0.85456220943E+01  0.42249605553E+02 -0.78631940216E+03  0.78750000574E+03  0.00000000000E+00 0. -1.
          1    1    1    2  502    0  0.35702409757E+01 -0.90689831653E+02  0.50476873643E+03  0.51286340234E+03  0.00000000000E+00 0. -1.
         22    1    3    3    0    0 -0.39451787791E+02 -0.74244077856E+01  0.32856370543E+02  0.51875875666E+02  0.00000000000E+00 0.  1.
         22    1    3    3    0    0  0.27335924721E+02  0.55864633886E+02 -0.58042346419E+02  0.85070700464E+02  0.00000000000E+00 0.  1.
</event>
<event>
 7    1  0.6485470E-006  0.7875199E+02  0.7818608E-02  0.1423846E+00
          2   -1    0    0  502    0  0.00000000000E+00  0.00000000000E+00  0.16811649763E+04  0.16811649763E+04  0.00000000000E+00 0. -1.
          1   -1    0    0  501    0 -0.00000000000E+00 -0.00000000000E+00 -0.33770964507E+02  0.33770964507E+02  0.00000000000E+00 0. -1.
         25    2    1    2    0    0  0.84834952094E+02  0.10040677572E+02  0.12035226861E+04  0.12130072897E+04  0.12498817784E+03 0.  0.
          2    1    1    2  501    0 -0.74472811363E+02  0.25815790843E+02  0.26891134966E+02  0.83281377444E+02  0.00000000000E+00 0. -1.
          1    1    1    2  502    0 -0.10362140731E+02 -0.35856468415E+02  0.41698019069E+03  0.41864727362E+03  0.00000000000E+00 0. -1.
         22    1    3    3    0    0  0.79647447711E+02 -0.33890585732E+02  0.10403488813E+04  0.10439435246E+04  0.00000000000E+00 0. -1.
         22    1    3    3    0    0  0.51875043828E+01  0.43931263304E+02  0.16317380484E+03  0.16906376514E+03  0.00000000000E+00 0. -1.
</event>
<event>
 7    1  0.6485470E-006  0.1605900E+03  0.7818608E-02  0.1405621E+00
          2   -1    0    0  502    0  0.00000000000E+00  0.00000000000E+00  0.10243847043E+04  0.10243847043E+04  0.00000000000E+00 0. -1.
          1   -1    0    0  501    0 -0.00000000000E+00 -0.00000000000E+00 -0.99187951896E+03  0.99187951896E+03  0.00000000000E+00 0. -1.
         25    2    1    2    0    0 -0.13403128271E+03 -0.49159899134E+02  0.90436941709E+03  0.92406204439E+03  0.12500215553E+03 0.  0.
          2    1    1    2  501    0  0.14646081760E+03  0.66185348448E+02 -0.97437760685E+03  0.98754391911E+03  0.00000000000E+00 0. -1.
          1    1    1    2  502    0 -0.12429534891E+02 -0.17025449314E+02  0.10251337513E+03  0.10465825979E+03  0.00000000000E+00 0. -1.
         22    1    3    3    0    0 -0.49579374784E+02 -0.26450027630E+02  0.69356435824E+03  0.69583707675E+03  0.00000000000E+00 0.  1.
         22    1    3    3    0    0 -0.84451907923E+02 -0.22709871504E+02  0.21080505885E+03  0.22822496764E+03  0.00000000000E+00 0.  1.
</event>
<event>
 7    1  0.6485470E-006  0.8432541E+02  0.7818608E-02  0.1351932E+00
          2   -1    0    0  502    0  0.00000000000E+00  0.00000000000E+00  0.22091708649E+03  0.22091708649E+03  0.00000000000E+00 0. -1.
          1   -1    0    0  501    0 -0.00000000000E+00 -0.00000000000E+00 -0.12712004581E+04  0.12712004581E+04  0.00000000000E+00 0. -1.
         25    2    1    2    0    0 -0.15646247126E+02 -0.13211647207E+03 -0.44195445094E+03  0.47816885679E+03  0.12498860610E+03 0.  0.
          2    1    1    2  501    0  0.35713939332E+02  0.50997012122E+02 -0.80127176758E+03  0.80368689564E+03  0.00000000000E+00 0. -1.
          1    1    1    2  502    0 -0.20067692206E+02  0.81119459947E+02  0.19294284693E+03  0.21026179214E+03  0.00000000000E+00 0. -1.
         22    1    3    3    0    0  0.10621897465E+02 -0.12650060632E+03 -0.21537918281E+03  0.25000684089E+03  0.00000000000E+00 0.  1.
         22    1    3    3    0    0 -0.26268144591E+02 -0.56158657464E+01 -0.22657526813E+03  0.22816201589E+03  0.00000000000E+00 0.  1.
</event>
<event>
 7    1  0.6485470E-006  0.5584546E+03  0.7818608E-02  0.1155288E+00
          2   -1    0    0  502    0  0.00000000000E+00  0.00000000000E+00  0.35492891069E+04  0.35492891069E+04  0.00000000000E+00 0. -1.
          1   -1    0    0  501    0 -0.00000000000E+00 -0.00000000000E+00 -0.10145447197E+04  0.10145447197E+04  0.00000000000E+00 0. -1.
         25    2    1    2    0    0  0.37031629359E+03  0.37129012033E+03  0.15688678479E+03  0.56145273845E+03  0.12500081405E+03 0.  0.
          2    1    1    2  501    0  0.65418001485E+02 -0.14878274501E+02 -0.78598760550E+03  0.78884560844E+03  0.00000000000E+00 0. -1.
          1    1    1    2  502    0 -0.43573429508E+03 -0.35641184583E+03  0.31638452079E+04  0.32135354797E+04  0.00000000000E+00 0. -1.
         22    1    3    3    0    0  0.13405000304E+03  0.15317028892E+03 -0.27504760173E+00  0.20354512123E+03  0.00000000000E+00 0. -1.
         22    1    3    3    0    0  0.23626629055E+03  0.21811983141E+03  0.15716183239E+03  0.35790761722E+03  0.00000000000E+00 0. -1.
</event>
<event>
 7    1  0.6485470E-006  0.9047297E+02  0.7818608E-02  0.1463411E+00
          2   -1    0    0  502    0  0.00000000000E+00  0.00000000000E+00  0.84363297850E+03  0.84363297850E+03  0.00000000000E+00 0. -1.
          1   -1    0    0  501    0 -0.00000000000E+00 -0.00000000000E+00 -0.28824525676E+02  0.28824525676E+02  0.00000000000E+00 0. -1.
         25    2    1    2    0    0 -0.73054100930E+01 -0.80739113461E+02  0.24164532348E+03  0.28388257970E+03  0.12499873294E+03 0.  0.
          2    1    1    2  501    0  0.38545343905E+01  0.10470007856E+03  0.39034932717E+03  0.40416526460E+03  0.00000000000E+00 0. -1.
          1    1    1    2  502    0  0.34508757025E+01 -0.23960965098E+02  0.18281380217E+03  0.18440965987E+03  0.00000000000E+00 0. -1.
         22    1    3    3    0    0 -0.64381353687E+02 -0.24601221825E+02  0.11036897792E+03  0.13012105942E+03  0.00000000000E+00 0.  1.
         22    1    3    3    0    0  0.57075943594E+02 -0.56137891636E+02  0.13127634556E+03  0.15376152028E+03  0.00000000000E+00 0.  1.
</event>
<event>
 7    1  0.6485470E-006  0.9446131E+02  0.7818608E-02  0.1334903E+00
          2   -1    0    0  502    0  0.00000000000E+00  0.00000000000E+00  0.69436340876E+03  0.69436340876E+03  0.00000000000E+00 0. -1.
          1   -1    0    0  501    0 -0.00000000000E+00 -0.00000000000E+00 -0.13389056937E+03  0.13389056937E+03  0.00000000000E+00 0. -1.
         25    2    1    2    0    0 -0.12623422540E+03 -0.60011505350E+02  0.40771277682E+03  0.44876252146E+03  0.12498652668E+03 0.  0.
          2    1    1    2  501    0  0.63855150128E+02  0.80722625226E+01 -0.97258080442E+02  0.11662665146E+03  0.00000000000E+00 0. -1.
          1    1    1    2  502    0  0.62379075273E+02  0.51939242827E+02  0.25001814301E+03  0.26286480520E+03  0.00000000000E+00 0. -1.
         22    1    3    3    0    0 -0.95677387831E+02 -0.93588268710E+02  0.35386829862E+03  0.37833278916E+03  0.00000000000E+00 0. -1.
         22    1    3    3    0    0 -0.30556837570E+02  0.33576763360E+02  0.53844478193E+02  0.70429732300E+02  0.00000000000E+00 0. -1.
</event>
<event>
 7    1  0.6485470E-006  0.7832423E+02  0.7818608E-02  0.1389645E+00
          2   -1    0    0  502    0  0.00000000000E+00  0.00000000000E+00  0.19174846900E+03  0.19174846900E+03  0.00000000000E+00 0. -1.
          1   -1    0    0  501    0 -0.00000000000E+00 -0.00000000000E+00 -0.33991408656E+04  0.33991408656E+04  0.00000000000E+00 0. -1.
         25    2    1    2    0    0 -0.88668034303E+02  0.10707834959E+02 -0.29978699014E+03  0.33685921163E+03  0.12500084385E+03 0.  0.
          2    1    1    2  501    0  0.70273088158E+02  0.34783959859E+02 -0.30768329113E+04  0.30778318659E+04  0.00000000000E+00 0. -1.
          1    1    1    2  502    0  0.18394946145E+02 -0.45491794818E+02  0.16922750478E+03  0.17619825712E+03  0.00000000000E+00 0. -1.
         22    1    3    3    0    0 -0.22173240345E+01 -0.41722092281E+02 -0.38984367642E+02  0.57143944829E+02  0.00000000000E+00 0.  1.
         22    1    3    3    0    0 -0.86450710269E+02  0.52429927240E+02 -0.26080262250E+03  0.27971526680E+03  0.00000000000E+00 0.  1.
</event>
<event>
 7    1  0.6485470E-006  0.6235310E+02  0.7818608E-02  0.1419070E+00
          2   -1    0    0  502    0  0.00000000000E+00  0.00000000000E+00  0.35183521578E+03  0.35183521578E+03  0.00000000000E+00 0. -1.
          1   -1    0    0  501    0 -0.00000000000E+00 -0.00000000000E+00 -0.65437986625E+02  0.65437986625E+02  0.00000000000E+00 0. -1.
         25    2    1    2    0    0 -0.69925771571E+02 -0.91544684958E+00  0.10872939885E+03  0.17982708945E+03  0.12500099341E+03 0.  0.
          2    1    1    2  501    0  0.47935471740E+02 -0.42760576140E+02  0.12825731703E+02  0.65504012980E+02  0.00000000000E+00 0. -1.
          1    1    1    2  502    0  0.21990299831E+02  0.43676022989E+02  0.16484209860E+03  0.17194209997E+03  0.00000000000E+00 0. -1.
         22    1    3    3    0    0 -0.43259997434E+02  0.61560748636E+02  0.59811576931E+02  0.96117521220E+02  0.00000000000E+00 0.  1.
         22    1    3    3    0    0 -0.26665774137E+02 -0.62476195485E+02  0.48917821919E+02  0.83709568234E+02  0.00000000000E+00 0.  1.
</event>
<event>
 7    1  0.6485470E-006  0.2432690E+03  0.7818608E-02  0.1281598E+00
          2   -1    0    0  502    0  0.00000000000E+00  0.00000000000E+00  0.55319157218E+03  0.55319157218E+03  0.00000000000E+00 0. -1.
          1   -1    0    0  501    0 -0.00000000000E+00 -0.00000000000E+00 -0.12203634120E+04  0.12203634120E+04  0.00000000000E+00 0. -1.
         25    2    1    2    0    0  0.21906425417E+03  0.15672794761E+03  0.18914944006E+03  0.35207345689E+03  0.12500164541E+03 0.  0.
          2    1    1    2  501    0 -0.21211592538E+03 -0.11672540079E+03 -0.11244887991E+04  0.11502578164E+04  0.00000000000E+00 0. -1.
          1    1    1    2  502    0 -0.69483287937E+01 -0.40002546825E+02  0.26816751916E+03  0.27122371090E+03  0.00000000000E+00 0. -1.
         22    1    3    3    0    0  0.14144556179E+03  0.99657610293E+02  0.18830414342E+03  0.25572824770E+03  0.00000000000E+00 0. -1.
         22    1    3    3    0    0  0.77618692378E+02  0.57070337319E+02  0.84529663474E+00  0.96345209193E+02  0.00000000000E+00 0. -1.
</event>
<event>
 7    1  0.6485470E-006  0.1088287E+03  0.7818608E-02  0.1427141E+00
          2   -1    0    0  502    0  0.00000000000E+00  0.00000000000E+00  0.11529147850E+04  0.11529147850E+04  0.00000000000E+00 0. -1.
          1   -1    0    0  501    0 -0.00000000000E+00 -0.00000000000E+00 -0.28258135992E+03  0.28258135992E+03  0.00000000000E+00 0. -1.
         25    2    1    2    0    0 -0.11354450794E+03 -0.52215472486E+02 -0.13905290888E+03  0.22489684940E+03  0.12499628214E+03 0.  0.
          2    1    1    2  501    0  0.24417803637E+02 -0.98723696560E+01 -0.96174284998E+02  0.99715524930E+02  0.00000000000E+00 0. -1.
          1    1    1    2  502    0  0.89126704307E+02  0.62087842142E+02  0.11055606189E+04  0.11108837706E+04  0.00000000000E+00 0. -1.
         22    1    3    3    0    0  0.20362353069E+02 -0.19489799099E+02 -0.59256913064E+02  0.65619047823E+02  0.00000000000E+00 0. -1.
         22    1    3    3    0    0 -0.13390686101E+03 -0.32725673388E+02 -0.79795995817E+02  0.15927780157E+03  0.00000000000E+00 0. -1.
</event>
<event>
 7    1  0.6485470E-006  0.9954981E+02  0.7818608E-02  0.1412943E+00
          2   -1    0    0  502    0  0.00000000000E+00  0.00000000000E+00  0.20034494763E+04  0.20034494763E+04  0.00000000000E+00 0. -1.
          1   -1    0    0  501    0 -0.00000000000E+00 -0.00000000000E+00 -0.16683368718E+03  0.16683368718E+03  0.00000000000E+00 0. -1.
         25    2    1    2    0    0 -0.12837837819E+03 -0.16517415260E+02  0.81193673022E+02  0.19741188708E+03  0.12500083051E+03 0.  0.
          2    1    1    2  501    0  0.31779849477E+02 -0.46258364454E+01 -0.10501104273E+03  0.10981200431E+03  0.00000000000E+00 0. -1.
          1    1    1    2  502    0  0.96598528709E+02  0.21143251705E+02  0.18604331589E+04  0.18630592721E+04  0.00000000000E+00 0. -1.
         22    1    3    3    0    0 -0.82785291276E+02 -0.66473538544E+02  0.73961156272E+02  0.12939238160E+03  0.00000000000E+00 0. -1.
         22    1    3    3    0    0 -0.45593086910E+02  0.49956123284E+02  0.72325167504E+01  0.68019505482E+02  0.00000000000E+00 0. -1.
</event>
<event>
 7    1  0.6485470E-006  0.3476806E+02  0.7818608E-02  0.1617480E+00
          2   -1    0    0  502    0  0.00000000000E+00  0.00000000000E+00  0.12425118433E+04  0.12425118433E+04  0.00000000000E+00 0. -1.
          1   -1    0    0  501    0 -0.00000000000E+00 -0.00000000000E+00 -0.98698904716E+03  0.98698904716E+03  0.00000000000E+00 0. -1.
         25    2    1    2    0    0  0.22528219727E+02  0.52082105103E+02  0.41839907036E+03  0.44034372486E+03  0.12499899034E+03 0.  0.
          2    1    1    2  501    0 -0.61137402680E+01 -0.22236878257E+02 -0.97552368383E+03  0.97579624630E+03  0.00000000000E+00 0. -1.
          1    1    1    2  502    0 -0.16414479459E+02 -0.29845226845E+02  0.81264740959E+03  0.81336091928E+03  0.00000000000E+00 0. -1.
         22    1    3    3    0    0 -0.10398552677E+02  0.65005330247E+02  0.98370481631E+02  0.11836627271E+03  0.00000000000E+00 0.  1.
         22    1    3    3    0    0  0.32926772404E+02 -0.12923225145E+02  0.32002858873E+03  0.32197745215E+03  0.00000000000E+00 0.  1.
</event>
<event>
 7    1  0.6485470E-006  0.9324046E+02  0.7818608E-02  0.1389120E+00
          2   -1    0    0  502    0  0.00000000000E+00  0.00000000000E+00  0.22397607320E+04  0.22397607320E+04  0.00000000000E+00 0. -1.
          1   -1    0    0  501    0 -0.00000000000E+00 -0.00000000000E+00 -0.31907835122E+03  0.31907835122E+03  0.00000000000E+00 0. -1.
         25    2    1    2    0    0  0.12616058418E+03  0.24563989161E+02  0.91201431292E+03  0.92947077668E+03  0.12500374056E+03 0.  0.
          2    1    1    2  501    0 -0.39723330370E+02 -0.11644030408E+02 -0.30751407335E+03  0.31028765964E+03  0.00000000000E+00 0. -1.
          1    1    1    2  502    0 -0.86437253808E+02 -0.12919958753E+02  0.13161821412E+04  0.13190806469E+04  0.00000000000E+00 0. -1.
         22    1    3    3    0    0  0.11677390369E+03 -0.21521339535E+02  0.46236599028E+03  0.47736948123E+03  0.00000000000E+00 0.  1.
         22    1    3    3    0    0  0.93866804873E+01  0.46085328696E+02  0.44964832264E+03  0.45210129545E+03  0.00000000000E+00 0.  1.
</event>
<event>
 7    1  0.6485470E-006  0.5687830E+02  0.7818608E-02  0.1424242E+00
          2   -1    0    0  502    0  0.00000000000E+00  0.00000000000E+00  0.18436431937E+04  0.18436431937E+04  0.00000000000E+00 0. -1.
          1   -1    0    0  501    0 -0.00000000000E+00 -0.00000000000E+00 -0.35930390895E+02  0.35930390895E+02  0.00000000000E+00 0. -1.
         25    2    1    2    0    0  0.11764062035E+02  0.63646571590E+02  0.11680037777E+04  0.11764549652E+04  0.12499672488E+03 0.  0.
          2    1    1    2  501    0 -0.49537469845E+02 -0.28609796116E+02 -0.40054359828E+01  0.57345661299E+02  0.00000000000E+00 0. -1.
          1    1    1    2  502    0  0.37773407810E+02 -0.35036775474E+02  0.64371446115E+03  0.64577295814E+03  0.00000000000E+00 0. -1.
         22    1    3    3    0    0 -0.41673429609E+02 -0.35287641914E+01  0.18300390893E+03  0.18772202214E+03  0.00000000000E+00 0.  1.
         22    1    3    3    0    0  0.53437491644E+02  0.67175335782E+02  0.98499986875E+03  0.98873294306E+03  0.00000000000E+00 0.  1.
</event>
<event>
 7    1  0.6485470E-006  0.1338783E+03  0.7818608E-02  0.1321308E+00
          2   -1    0    0  502    0  0.00000000000E+00  0.00000000000E+00  0.46052017949E+03  0.46052017949E+03  0.00000000000E+00 0. -1.
          1   -1    0    0  501    0 -0.00000000000E+00 -0.00000000000E+00 -0.11595958861E+04  0.11595958861E+04  0.00000000000E+00 0. -1.
         25    2    1    2    0    0  0.98847784274E+02 -0.38368524860E+02  0.96631973721E+02  0.19028222042E+03  0.12500622748E+03 0.  0.
          2    1    1    2  501    0  0.45250704011E+02  0.23954846778E+02 -0.10956054305E+04  0.10968011306E+04  0.00000000000E+00 0. -1.
          1    1    1    2  502    0 -0.14409848829E+03  0.14413678083E+02  0.29989775012E+03  0.33303271456E+03  0.00000000000E+00 0. -1.
         22    1    3    3    0    0  0.12816854066E+03 -0.37841093454E+02  0.86797649549E+02  0.15935167127E+03  0.00000000000E+00 0.  1.
         22    1    3    3    0    0 -0.29320756387E+02 -0.52743140661E+00  0.98343241718E+01  0.30930549153E+02  0.00000000000E+00 0.  1.
</event>
<event>
 7    1  0.6485470E-006  0.7628646E+02  0.7818608E-02  0.1370633E+00
          2   -1    0    0  502    0  0.00000000000E+00  0.00000000000E+00  0.16625606649E+03  0.16625606649E+03  0.00000000000E+00 0. -1.
          1   -1    0    0  501    0 -0.00000000000E+00 -0.00000000000E+00 -0.38125625428E+03  0.38125625428E+03  0.00000000000E+00 0. -1.
         25    2    1    2    0    0  0.99369848293E+02  0.77812769975E+02 -0.17623743748E+03  0.25022526948E+03  0.12499542870E+03 0.  0.
          2    1    1    2  501    0 -0.30820787953E+02 -0.50109233818E+02 -0.15147003689E+03  0.16249316404E+03  0.00000000000E+00 0. -1.
          1    1    1    2  502    0 -0.68549060340E+02 -0.27703536157E+02  0.11270728658E+03  0.13479388724E+03  0.00000000000E+00 0. -1.
         22    1    3    3    0    0 -0.24737153320E+02  0.35575630662E+02 -0.24799719358E+02  0.49925728153E+02  0.00000000000E+00 0.  1.
         22    1    3    3    0    0  0.12410700161E+03  0.42237139313E+02 -0.15143771812E+03  0.20029954133E+03  0.00000000000E+00 0.  1.
</event>
<event>
 7    1  0.6485470E-006  0.6702947E+02  0.7818608E-02  0.1402675E+00
          2   -1    0    0  502    0  0.00000000000E+00  0.00000000000E+00  0.10725652199E+04  0.10725652199E+04  0.00000000000E+00 0. -1.
          1   -1    0    0  501    0 -0.00000000000E+00 -0.00000000000E+00 -0.34565327899E+03  0.34565327899E+03  0.00000000000E+00 0. -1.
         25    2    1    2    0    0  0.18531704437E+02 -0.14865232191E+02 -0.42646950697E+02  0.13419378521E+03  0.12499924155E+03 0.  0.
          2    1    1    2  501    0 -0.70199960650E+02  0.16282816711E+02 -0.25151921122E+03  0.26163921382E+03  0.00000000000E+00 0. -1.
          1    1    1    2  502    0  0.51668256213E+02 -0.14175845193E+01  0.10210781029E+04  0.10223854999E+04  0.00000000000E+00 0. -1.
         22    1    3    3    0    0 -0.31869516701E+02  0.40302444072E+02 -0.86680554563E+01  0.52106508982E+02  0.00000000000E+00 0.  1.
         22    1    3    3    0    0  0.50401221138E+02 -0.55167676264E+02 -0.33978895241E+02  0.82087276227E+02  0.00000000000E+00 0.  1.
</event>
<event>
 7    1  0.6485470E-006  0.5458716E+02  0.7818608E-02  0.1478328E+00
          2   -1    0    0  502    0  0.00000000000E+00  0.00000000000E+00  0.23778295464E+03  0.23778295464E+03  0.00000000000E+00 0. -1.
          1   -1    0    0  501    0 -0.00000000000E+00 -0.00000000000E+00 -0.11786705992E+03  0.11786705992E+03  0.00000000000E+00 0. -1.
         25    2    1    2    0    0  0.13935101903E+02  0.42321596590E+02  0.10460810869E+03  0.16897647308E+03  0.12499954979E+03 0.  0.
          2    1    1    2  501    0 -0.33200407944E+02  0.14077068977E+02 -0.72254277374E+02  0.80753399665E+02  0.00000000000E+00 0. -1.
          1    1    1    2  502    0  0.19265306041E+02 -0.56398665568E+02  0.87562063404E+02  0.10592014182E+03  0.00000000000E+00 0. -1.
         22    1    3    3    0    0  0.50713822489E+02 -0.15825620724E+02  0.79742492697E+02  0.95818616168E+02  0.00000000000E+00 0. -1.
         22    1    3    3    0    0 -0.36778720586E+02  0.58147217314E+02  0.24865615989E+02  0.73157856911E+02  0.00000000000E+00 0. -1.
</event>
<event>
 7    1  0.6485470E-006  0.5710074E+02  0.7818608E-02  0.1440849E+00
          2   -1    0    0  502    0  0.00000000000E+00  0.00000000000E+00  0.25969423757E+04  0.25969423757E+04  0.00000000000E+00 0. -1.
          1   -1    0    0  501    0 -0.00000000000E+00 -0.00000000000E+00 -0.36272286644E+03  0.36272286644E+03  0.00000000000E+00 0. -1.
         25    2    1    2    0    0 -0.82532546509E+02 -0.36334759455E+02 -0.10870518187E+03  0.18861094189E+03  0.12500173941E+03 0.  0.
          2    1    1    2  501    0  0.37409745063E+02  0.39986698442E+02 -0.21035909880E+03  0.21736921476E+03  0.00000000000E+00 0. -1.
          1    1    1    2  502    0  0.45122801446E+02 -0.36519389870E+01  0.25532837900E+04  0.25536850855E+04  0.00000000000E+00 0. -1.
         22    1    3    3    0    0  0.45620668668E+00  0.40809972775E+02 -0.27647181087E+02  0.49295320513E+02  0.00000000000E+00 0. -1.
         22    1    3    3    0    0 -0.82988753196E+02 -0.77144732229E+02 -0.81058000784E+02  0.13931562137E+03  0.00000000000E+00 0. -1.
</event>
<event>
 7    1  0.6485470E-006  0.5910592E+02  0.7818608E-02  0.1462702E+00
          2   -1    0    0  502    0  0.00000000000E+00  0.00000000000E+00  0.36235946328E+02  0.36235946328E+02  0.00000000000E+00 0. -1.
          1   -1    0    0  501    0 -0.00000000000E+00 -0.00000000000E+00 -0.11899512932E+04  0.11899512932E+04  0.00000000000E+00 0. -1.
         25    2    1    2    0    0  0.69553817258E+02  0.12201984027E+02 -0.61196598198E+03  0.62858087167E+03  0.12499970886E+03 0.  0.
          2    1    1    2  501    0 -0.14772039314E+02 -0.34191104054E+02 -0.53710378631E+03  0.53839364968E+03  0.00000000000E+00 0. -1.
          1    1    1    2  502    0 -0.54781777945E+02  0.21989120027E+02 -0.46455785798E+01  0.59212718184E+02  0.00000000000E+00 0. -1.
         22    1    3    3    0    0  0.92098326116E+02  0.41679118801E+02 -0.36103687465E+03  0.37492249263E+03  0.00000000000E+00 0.  1.
         22    1    3    3    0    0 -0.22544508858E+02 -0.29477134774E+02 -0.25092910733E+03  0.25365837905E+03  0.00000000000E+00 0.  1.
</event>
<event>
 7    1  0.6485470E-006  0.1668458E+03  0.7818608E-02  0.1264037E+00
          2   -1    0    0  502    0  0.00000000000E+00  0.00000000000E+00  0.14313304237E+04  0.14313304237E+04  0.00000000000E+00 0. -1.
          1   -1    0    0  501    0 -0.00000000000E+00 -0.00000000000E+00 -0.59001974413E+03  0.59001974413E+03  0.00000000000E+00 0. -1.
         25    2    1    2    0    0 -0.78130785339E+02  0.67239733762E+02 -0.81833904473E+02  0.18151311069E+03  0.12499848007E+03 0.  0.
          2    1    1    2  501    0 -0.29534809767E+02  0.63576314200E+02 -0.45043029047E+03  0.45585271666E+03  0.00000000000E+00 0. -1.
          1    1    1    2  502    0  0.10766559511E+03 -0.13081604796E+03  0.13735748745E+04  0.13839843404E+04  0.00000000000E+00 0. -1.
         22    1    3    3    0    0 -0.33605015654E+02 -0.72167532428E+01  0.26011676742E+02  0.43104360932E+02  0.00000000000E+00 0. -1.
         22    1    3    3    0    0 -0.44525769686E+02  0.74456487004E+02 -0.10784558122E+03  0.13840874976E+03  0.00000000000E+00 0. -1.
</event>
<event>
 7    1  0.6485470E-006  0.2836670E+03  0.7818608E-02  0.1266509E+00
          2   -1    0    0  502    0  0.00000000000E+00  0.00000000000E+00  0.15227148073E+04  0.15227148073E+04  0.00000000000E+00 0. -1.
          1   -1    0    0  501    0 -0.00000000000E+00 -0.00000000000E+00 -0.13284867010E+04  0.13284867010E+04  0.00000000000E+00 0. -1.
         25    2    1    2    0    0 -0.24654614664E+03 -0.11036249837E+03  0.11103057591E+04  0.11495085872E+04  0.12500491888E+03 0.  0.
          2    1    1    2  501    0  0.27249874595E+03  0.79595903895E+02 -0.12924063744E+04  0.13232177867E+04  0.00000000000E+00 0. -1.
          1    1    1    2  502    0 -0.25952599314E+02  0.30766594480E+02  0.37632872149E+03  0.37847513441E+03  0.00000000000E+00 0. -1.
         22    1    3    3    0    0 -0.16301970996E+03 -0.21207810369E+02  0.47718569834E+03  0.50470921108E+03  0.00000000000E+00 0. -1.
         22    1    3    3    0    0 -0.83526436676E+02 -0.89154688006E+02  0.63312006080E+03  0.64479937609E+03  0.00000000000E+00 0. -1.
</event>
<event>
 7    1  0.6485470E-006  0.7431653E+02  0.7818608E-02  0.1377265E+00
          2   -1    0    0  502    0  0.00000000000E+00  0.00000000000E+00  0.18781344999E+04  0.18781344999E+04  0.00000000000E+00 0. -1.
          1   -1    0    0  501    0 -0.00000000000E+00 -0.00000000000E+00 -0.41861814705E+03  0.41861814705E+03  0.00000000000E+00 0. -1.
         25    2    1    2    0    0  0.11143350373E+03 -0.68079715814E+02 -0.35923967293E+03  0.40215492661E+03  0.12499267553E+03 0.  0.
          2    1    1    2  501    0 -0.44658250598E+02  0.35711218958E+02 -0.15179592977E+02  0.59161394075E+02  0.00000000000E+00 0. -1.
          1    1    1    2  502    0 -0.66775253128E+02  0.32368496856E+02  0.18339356188E+04  0.18354363263E+04  0.00000000000E+00 0. -1.
         22    1    3    3    0    0  0.21187084584E+02  0.15200961112E+02 -0.19680554150E+03  0.19852552213E+03  0.00000000000E+00 0.  1.
         22    1    3    3    0    0  0.90246419142E+02 -0.83280676926E+02 -0.16243413143E+03  0.20362940448E+03  0.00000000000E+00 0.  1.
</event>
<event>
 7    1  0.6485470E-006  0.9037277E+02  0.7818608E-02  0.1317451E+00
          2   -1    0    0  502    0  0.00000000000E+00  0.00000000000E+00  0.11297263897E+03  0.11297263897E+03  0.00000000000E+00 0. -1.
          1   -1    0    0  501    0 -0.00000000000E+00 -0.00000000000E+00 -0.42206734651E+03  0.42206734651E+03  0.00000000000E+00 0. -1.
         25    2    1    2    0    0  0.55559969258E+01  0.76886978970E+02 -0.16757249934E+03  0.22278664127E+03  0.12494346065E+03 0.  0.
          2    1    1    2  501    0 -0.83340571947E+02 -0.66237215643E+02 -0.19155978775E+03  0.21915330696E+03  0.00000000000E+00 0. -1.
          1    1    1    2  502    0  0.77784575021E+02 -0.10649763327E+02  0.50037579537E+02  0.93100037251E+02  0.00000000000E+00 0. -1.
         22    1    3    3    0    0  0.23582283714E+02 -0.32671464282E+01  0.10996844431E+02  0.26224586525E+02  0.00000000000E+00 0.  1.
         22    1    3    3    0    0 -0.18026286789E+02  0.80154125398E+02 -0.17856934377E+03  0.19656205475E+03  0.00000000000E+00 0.  1.
</event>
<event>
 7    1  0.6485470E-006  0.8300533E+02  0.7818608E-02  0.1475059E+00
          2   -1    0    0  502    0  0.00000000000E+00  0.00000000000E+00  0.56629379289E+03  0.56629379289E+03  0.00000000000E+00 0. -1.
          1   -1    0    0  501    0 -0.00000000000E+00 -0.00000000000E+00 -0.60327506717E+03  0.60327506717E+03  0.00000000000E+00 0. -1.
         25    2    1    2    0    0 -0.73188403823E+02 -0.77203006398E+02 -0.15871062368E+02  0.16490310444E+03  0.12499718630E+03 0.  0.
          2    1    1    2  501    0  0.16260832479E+02  0.18019587636E+02 -0.50916878994E+03  0.50974697337E+03  0.00000000000E+00 0. -1.
          1    1    1    2  502    0  0.56927571344E+02  0.59183418762E+02  0.48805857803E+03  0.49491878225E+03  0.00000000000E+00 0. -1.
         22    1    3    3    0    0  0.11983734919E+02 -0.48874227152E+02  0.35405742085E+02  0.61529395860E+02  0.00000000000E+00 0.  1.
         22    1    3    3    0    0 -0.85172138743E+02 -0.28328779246E+02 -0.51276804453E+02  0.10337370858E+03  0.00000000000E+00 0.  1.
</event>
<event>
 7    1  0.6485470E-006  0.2165678E+03  0.7818608E-02  0.1366604E+00
          2   -1    0    0  502    0  0.00000000000E+00  0.00000000000E+00  0.91911016778E+03  0.91911016778E+03  0.00000000000E+00 0. -1.
          1   -1    0    0  501    0 -0.00000000000E+00 -0.00000000000E+00 -0.90174302395E+03  0.90174302395E+03  0.00000000000E+00 0. -1.
         25    2    1    2    0    0 -0.14765724374E+03  0.18076570965E+03  0.29032254476E+03  0.39292888197E+03  0.12500809126E+03 0.  0.
          2    1    1    2  501    0  0.14558286450E+03 -0.15943950352E+03 -0.83652968891E+03  0.86394284889E+03  0.00000000000E+00 0. -1.
          1    1    1    2  502    0  0.20743792402E+01 -0.21326206129E+02  0.56357428799E+03  0.56398146087E+03  0.00000000000E+00 0. -1.
         22    1    3    3    0    0 -0.29886120799E+02  0.42706345784E+02  0.18896306712E+01  0.52159207152E+02  0.00000000000E+00 0.  1.
         22    1    3    3    0    0 -0.11777112294E+03  0.13805936386E+03  0.28843291409E+03  0.34076967482E+03  0.00000000000E+00 0.  1.
</event>
<event>
 7    1  0.6485470E-006  0.8697315E+02  0.7818608E-02  0.1319911E+00
          2   -1    0    0  502    0  0.00000000000E+00  0.00000000000E+00  0.30571748464E+04  0.30571748464E+04  0.00000000000E+00 0. -1.
          1   -1    0    0  501    0 -0.00000000000E+00 -0.00000000000E+00 -0.17242031602E+02  0.17242031602E+02  0.00000000000E+00 0. -1.
         25    2    1    2    0    0  0.12773845766E+03  0.40887325287E+02  0.11701424757E+04  0.11844192684E+04  0.12500681114E+03 0.  0.
          2    1    1    2  501    0 -0.76100640540E+02  0.24021630239E+02  0.16595988209E+03  0.18414947372E+03  0.00000000000E+00 0. -1.
          1    1    1    2  502    0 -0.51637817125E+02 -0.64908955526E+02  0.17038304570E+04  0.17058481359E+04  0.00000000000E+00 0. -1.
         22    1    3    3    0    0  0.11192455858E+03  0.32524730426E+02  0.11553284263E+04  0.11611928081E+04  0.00000000000E+00 0. -1.
         22    1    3    3    0    0  0.15813899080E+02  0.83625948608E+01  0.14814049414E+02  0.23226460276E+02  0.00000000000E+00 0. -1.
</event>
<event>
 7    1  0.6485470E-006  0.1685780E+03  0.7818608E-02  0.1208678E+00
          2   -1    0    0  502    0  0.00000000000E+00  0.00000000000E+00  0.15728841196E+04  0.15728841196E+04  0.00000000000E+00 0. -1.
          1   -1    0    0  501    0 -0.00000000000E+00 -0.00000000000E+00 -0.49966312072E+03  0.49966312072E+03  0.00000000000E+00 0. -1.
         25    2    1    2    0    0 -0.20828711148E+03 -0.18280183569E+03  0.28354646816E+02  0.30533286855E+03  0.12499657067E+03 0.  0.
          2    1    1    2  501    0  0.12984593928E+03  0.89132902644E+02 -0.34118873473E+03  0.37578503827E+03  0.00000000000E+00 0. -1.
          1    1    1    2  502    0  0.78441172200E+02  0.93668933046E+02  0.13860550868E+04  0.13914293335E+04  0.00000000000E+00 0. -1.
         22    1    3    3    0    0 -0.11205488644E+03 -0.75584464402E+02 -0.46548317987E+02  0.14295472969E+03  0.00000000000E+00 0. -1.
         22    1    3    3    0    0 -0.96232225040E+02 -0.10721737129E+03  0.74902964803E+02  0.16237813886E+03  0.00000000000E+00 0. -1.
</event>
<event>
 7    1  0.6485470E-006  0.1335378E+03  0.7818608E-02  0.1417740E+00
          2   -1    0    0  502    0  0.00000000000E+00  0.00000000000E+00  0.22847129395E+03  0.22847129395E+03  0.00000000000E+00 0. -1.
          1   -1    0    0  501    0 -0.00000000000E+00 -0.00000000000E+00 -0.11766969187E+04  0.11766969187E+04  0.00000000000E+00 0. -1.
         25    2    1    2    0    0  0.87599691612E+02  0.73816027959E+02 -0.16674516870E+03  0.23780493259E+03  0.12499889090E+03 0.  0.
          2    1    1    2  501    0  0.22267122605E+02  0.60263042184E+01 -0.95036414557E+03  0.95064407129E+03  0.00000000000E+00 0. -1.
          1    1    1    2  502    0 -0.10986681422E+03 -0.79842332178E+02  0.16888368951E+03  0.21671920878E+03  0.00000000000E+00 0. -1.
         22    1    3    3    0    0  0.10415337504E+03  0.33011515089E+02 -0.65476622430E+02  0.12737689644E+03  0.00000000000E+00 0.  1.
         22    1    3    3    0    0 -0.16553683430E+02  0.40804512870E+02 -0.10126854627E+03  0.11042803615E+03  0.00000000000E+00 0.  1.
</event>
<event>
 7    1  0.6485470E-006  0.8754888E+02  0.7818608E-02  0.1310744E+00
          2   -1    0    0  502    0  0.00000000000E+00  0.00000000000E+00  0.18321850982E+04  0.18321850982E+04  0.00000000000E+00 0. -1.
          1   -1    0    0  501    0 -0.00000000000E+00 -0.00000000000E+00 -0.34491622170E+03  0.34491622170E+03  0.00000000000E+00 0. -1.
         25    2    1    2    0    0  0.11997754183E+02 -0.97110304252E+01  0.13114801577E+03  0.18182921048E+03  0.12499523801E+03 0.  0.
          2    1    1    2  501    0 -0.80228906355E+02 -0.42794167676E+02 -0.31197495905E+03  0.32495598667E+03  0.00000000000E+00 0. -1.
          1    1    1    2  502    0  0.68231152171E+02  0.52505198101E+02  0.16680958197E+04  0.16703161227E+04  0.00000000000E+00 0. -1.
         22    1    3    3    0    0  0.36172107803E+02  0.12476380837E+02 -0.78077676983E+01  0.39051795069E+02  0.00000000000E+00 0.  1.
         22    1    3    3    0    0 -0.24174353620E+02 -0.22187411262E+02  0.13895578347E+03  0.14277741541E+03  0.00000000000E+00 0.  1.
</event>
<event>
 7    1  0.6485470E-006  0.5040723E+02  0.7818608E-02  0.1506336E+00
          2   -1    0    0  502    0  0.00000000000E+00  0.00000000000E+00  0.34545153932E+03  0.34545153932E+03  0.00000000000E+00 0. -1.
          1   -1    0    0  501    0 -0.00000000000E+00 -0.00000000000E+00 -0.43059723884E+03  0.43059723884E+03  0.00000000000E+00 0. -1.
         25    2    1    2    0    0  0.73951124571E+01 -0.51611154398E+02  0.58448129724E+02  0.14750739406E+03  0.12499539387E+03 0.  0.
          2    1    1    2  501    0  0.28265057674E+02  0.15318248019E+02 -0.38271702791E+03  0.38406494979E+03  0.00000000000E+00 0. -1.
          1    1    1    2  502    0 -0.35660170132E+02  0.36292906379E+02  0.23912319867E+03  0.24447643430E+03  0.00000000000E+00 0. -1.
         22    1    3    3    0    0  0.50176904845E+02 -0.17130187823E+02 -0.15628995664E+02  0.55275949744E+02  0.00000000000E+00 0. -1.
         22    1    3    3    0    0 -0.42781792387E+02 -0.34480966575E+02  0.74077125387E+02  0.92231444321E+02  0.00000000000E+00 0. -1.
</event>
<event>
 7    1  0.6485470E-006  0.2183378E+03  0.7818608E-02  0.1285208E+00
          2   -1    0    0  502    0  0.00000000000E+00  0.00000000000E+00  0.38607796661E+03  0.38607796661E+03  0.00000000000E+00 0. -1.
          1   -1    0    0  501    0 -0.00000000000E+00 -0.00000000000E+00 -0.68558373664E+03  0.68558373664E+03  0.00000000000E+00 0. -1.
         25    2    1    2    0    0 -0.15752770581E+03  0.15356531512E+03 -0.17664575232E+03  0.30858513594E+03  0.12499512074E+03 0.  0.
          2    1    1    2  501    0  0.34317646384E+02  0.27084370947E+02 -0.40430908957E+03  0.40666583814E+03  0.00000000000E+00 0. -1.
          1    1    1    2  502    0  0.12321005942E+03 -0.18064968607E+03  0.28144907185E+03  0.35641072916E+03  0.00000000000E+00 0. -1.
         22    1    3    3    0    0 -0.16104042113E+03  0.10656408541E+03 -0.17625783178E+03  0.26145122834E+03  0.00000000000E+00 0.  1.
         22    1    3    3    0    0  0.35127153249E+01  0.47001229710E+02 -0.38792053279E+00  0.47133907599E+02  0.00000000000E+00 0.  1.
</event>
<event>
 7    1  0.6485470E-006  0.7578081E+02  0.7818608E-02  0.1378146E+00
          2   -1    0    0  502    0  0.00000000000E+00  0.00000000000E+00  0.16668811713E+04  0.16668811713E+04  0.00000000000E+00 0. -1.
          1   -1    0    0  501    0 -0.00000000000E+00 -0.00000000000E+00 -0.17449162265E+03  0.17449162265E+03  0.00000000000E+00 0. -1.
         25    2    1    2    0    0  0.37179501362E+02  0.58065007284E+02 -0.14069468365E+02  0.14345157587E+03  0.12500617700E+03 0.  0.
          2    1    1    2  501    0 -0.53230162548E+02  0.16311283692E+02 -0.86651286402E+02  0.10299492034E+03  0.00000000000E+00 0. -1.
          1    1    1    2  502    0  0.16050661186E+02 -0.74376290975E+02  0.15931103034E+04  0.15949262977E+04  0.00000000000E+00 0. -1.
         22    1    3    3    0    0 -0.78479409702E+01 -0.48102036075E+01 -0.55129005422E+02  0.55892177226E+02  0.00000000000E+00 0.  1.
         22    1    3    3    0    0  0.45027442332E+02  0.62875210891E+02  0.41059537057E+02  0.87559398644E+02  0.00000000000E+00 0.  1.
</event>
<event>
 7    1  0.6485470E-006  0.7519512E+02  0.7818608E-02  0.1424654E+00
          2   -1    0    0  502    0  0.00000000000E+00  0.00000000000E+00  0.21159783602E+03  0.21159783602E+03  0.00000000000E+00 0. -1.
          1   -1    0    0  501    0 -0.00000000000E+00 -0.00000000000E+00 -0.53942688107E+03  0.53942688107E+03  0.00000000000E+00 0. -1.
         25    2    1    2    0    0 -0.86205827697E+02 -0.60787951394E+02  0.42102765404E+02  0.16889243116E+03  0.12500156273E+03 0.  0.
          2    1    1    2  501    0  0.47512560358E+02  0.57319507399E+02 -0.46944129678E+03  0.47530842665E+03  0.00000000000E+00 0. -1.
          1    1    1    2  502    0  0.38693267339E+02  0.34684439953E+01  0.99509486337E+02  0.10682385928E+03  0.00000000000E+00 0. -1.
         22    1    3    3    0    0  0.61355964884E+01 -0.38471291816E+02  0.60664466429E+02  0.72096208814E+02  0.00000000000E+00 0. -1.
         22    1    3    3    0    0 -0.92341424185E+02 -0.22316659578E+02 -0.18561701025E+02  0.96796222344E+02  0.00000000000E+00 0. -1.
</event>
<event>
 7    1  0.6485470E-006  0.8235416E+02  0.7818608E-02  0.1456157E+00
          2   -1    0    0  502    0  0.00000000000E+00  0.00000000000E+00  0.37605282830E+04  0.37605282830E+04  0.00000000000E+00 0. -1.
          1   -1    0    0  501    0 -0.00000000000E+00 -0.00000000000E+00 -0.23493112197E+03  0.23493112197E+03  0.00000000000E+00 0. -1.
         25    2    1    2    0    0  0.76375137214E+02  0.49554001172E+02  0.17052007718E+03  0.23019411012E+03  0.12499388382E+03 0.  0.
          2    1    1    2  501    0 -0.24231367972E+02  0.14097801603E+02 -0.20365833176E+03  0.20557875206E+03  0.00000000000E+00 0. -1.
          1    1    1    2  502    0 -0.52143769242E+02 -0.63651802774E+02  0.35587354156E+04  0.35596865428E+04  0.00000000000E+00 0. -1.
         22    1    3    3    0    0  0.14644375955E+01 -0.37147414958E+02  0.24240128896E+02  0.44380838934E+02  0.00000000000E+00 0. -1.
         22    1    3    3    0    0  0.74910699619E+02  0.86701416130E+02  0.14627994829E+03  0.18581327118E+03  0.00000000000E+00 0. -1.
</event>
<event>
 7    1  0.6485470E-006  0.1552381E+03  0.7818608E-02  0.1399039E+00
          2   -1    0    0  502    0  0.00000000000E+00  0.00000000000E+00  0.59510701332E+03  0.59510701332E+03  0.00000000000E+00 0. -1.
          1   -1    0    0  501    0 -0.00000000000E+00 -0.00000000000E+00 -0.26640819774E+03  0.26640819774E+03  0.00000000000E+00 0. -1.
         25    2    1    2    0    0  0.13885545192E+03  0.24443452758E+02  0.22293730779E+03  0.29189642017E+03  0.12499663193E+03 0.  0.
          2    1    1    2  501    0  0.21147205615E+02  0.89652324278E+01 -0.21149111901E+03  0.21273474826E+03  0.00000000000E+00 0. -1.
          1    1    1    2  502    0 -0.16000265754E+03 -0.33408685186E+02  0.31725262681E+03  0.35688404263E+03  0.00000000000E+00 0. -1.
         22    1    3    3    0    0  0.57268123844E+02  0.71005984958E+02  0.82861679020E+02  0.12323776109E+03  0.00000000000E+00 0.  1.
         22    1    3    3    0    0  0.81587328078E+02 -0.46562532200E+02  0.14007562877E+03  0.16865865908E+03  0.00000000000E+00 0.  1.
</event>
<event>
 7    1  0.6485470E-006  0.1332502E+03  0.7818608E-02  0.1361871E+00
          2   -1    0    0  502    0  0.00000000000E+00  0.00000000000E+00  0.40169872594E+03  0.40169872594E+03  0.00000000000E+00 0. -1.
          1   -1    0    0  501    0 -0.00000000000E+00 -0.00000000000E+00 -0.34055640313E+03  0.34055640313E+03  0.00000000000E+00 0. -1.
         25    2    1    2    0    0  0.91831466493E+02  0.77784322494E+02  0.92878037176E+02  0.19681209134E+03  0.12500100177E+03 0.  0.
          2    1    1    2  501    0 -0.10362334569E+02  0.34714723739E+02 -0.26850504002E+03  0.27093808617E+03  0.00000000000E+00 0. -1.
          1    1    1    2  502    0 -0.81469131924E+02 -0.11249904623E+03  0.23676932565E+03  0.27450495156E+03  0.00000000000E+00 0. -1.
         22    1    3    3    0    0  0.99309735294E+02  0.15041048058E+02  0.87823776866E+02  0.13342290821E+03  0.00000000000E+00 0.  1.
         22    1    3    3    0    0 -0.74782688010E+01  0.62743274437E+02  0.50542603094E+01  0.63389183135E+02  0.00000000000E+00 0.  1.
</event>
<event>
 7    1  0.6485470E-006  0.5541689E+02  0.7818608E-02  0.1431765E+00
          2   -1    0    0  502    0  0.00000000000E+00  0.00000000000E+00  0.17976156590E+02  0.17976156590E+02  0.00000000000E+00 0. -1.
          1   -1    0    0  501    0 -0.00000000000E+00 -0.00000000000E+00 -0.10304915568E+04  0.10304915568E+04  0.00000000000E+00 0. -1.
         25    2    1    2    0    0 -0.45793142839E+02 -0.17729198412E+02 -0.66094784392E+03  0.67445417574E+03  0.12500018554E+03 0.  0.
          2    1    1    2  501    0  0.46180630196E+02 -0.37686339638E+02 -0.26194862498E+03  0.26864473367E+03  0.00000000000E+00 0. -1.
          1    1    1    2  502    0 -0.38748735701E+00  0.55415538050E+02 -0.89618931351E+02  0.10536880402E+03  0.00000000000E+00 0. -1.
         22    1    3    3    0    0  0.81430248726E+01  0.40529393151E+02 -0.38794825753E+03  0.39014457716E+03  0.00000000000E+00 0. -1.
         22    1    3    3    0    0 -0.53936167712E+02 -0.58258591564E+02 -0.27299958639E+03  0.28430959859E+03  0.00000000000E+00 0. -1.
</event>
<event>
 7    1  0.6485470E-006  0.2112941E+03  0.7818608E-02  0.1192912E+00
          2   -1    0    0  502    0  0.00000000000E+00  0.00000000000E+00  0.11073158159E+04  0.11073158159E+04  0.00000000000E+00 0. -1.
          1   -1    0    0  501    0 -0.00000000000E+00 -0.00000000000E+00 -0.23525528155E+03  0.23525528155E+03  0.00000000000E+00 0. -1.
         25    2    1    2    0    0 -0.21584797543E+03 -0.13995524770E+03  0.16938161021E+03  0.33240389847E+03  0.12499760792E+03 0.  0.
          2    1    1    2  501    0  0.20236243650E+03  0.25090591178E+02 -0.79960113531E+02  0.21902902371E+03  0.00000000000E+00 0. -1.
          1    1    1    2  502    0  0.13485538930E+02  0.11486465653E+03  0.78263903764E+03  0.79113817524E+03  0.00000000000E+00 0. -1.
         22    1    3    3    0    0 -0.10468354886E+02 -0.67246741314E+02  0.36906380401E+02  0.77419581410E+02  0.00000000000E+00 0.  1.
         22    1    3    3    0    0 -0.20537962054E+03 -0.72708506389E+02  0.13247522981E+03  0.25498431706E+03  0.00000000000E+00 0.  1.
</event>
<event>
 7    1  0.6485470E-006  0.1079179E+03  0.7818608E-02  0.1303070E+00
          2   -1    0    0  502    0  0.00000000000E+00  0.00000000000E+00  0.43236197124E+03  0.43236197124E+03  0.00000000000E+00 0. -1.
          1   -1    0    0  501    0 -0.00000000000E+00 -0.00000000000E+00 -0.30484448799E+03  0.30484448799E+03  0.00000000000E+00 0. -1.
         25    2    1    2    0    0 -0.11819810877E+03 -0.60739588239E+02  0.15636365657E+02  0.18310916286E+03  0.12499751636E+03 0.  0.
          2    1    1    2  501    0  0.11563107114E+02  0.74009350511E+02 -0.20565462486E+03  0.21887191262E+03  0.00000000000E+00 0. -1.
          1    1    1    2  502    0  0.10663500165E+03 -0.13269762272E+02  0.31753574246E+03  0.33522538374E+03  0.00000000000E+00 0. -1.
         22    1    3    3    0    0 -0.13242444217E+03 -0.42974776042E+02  0.44674208907E+02  0.14621507857E+03  0.00000000000E+00 0. -1.
         22    1    3    3    0    0  0.14226333404E+02 -0.17764812197E+02 -0.29037843250E+02  0.36894084284E+02  0.00000000000E+00 0. -1.
</event>
<event>
 7    1  0.6485470E-006  0.1375506E+03  0.7818608E-02  0.1342697E+00
          2   -1    0    0  502    0  0.00000000000E+00  0.00000000000E+00  0.79775854443E+03  0.79775854443E+03  0.00000000000E+00 0. -1.
          1   -1    0    0  501    0 -0.00000000000E+00 -0.00000000000E+00 -0.26220190649E+03  0.26220190649E+03  0.00000000000E+00 0. -1.
         25    2    1    2    0    0 -0.31443580944E+02 -0.11149015261E+03 -0.29466572939E+02  0.17294764229E+03  0.12499542048E+03 0.  0.
          2    1    1    2  501    0 -0.40589622360E+02 -0.76807647428E+01 -0.15152720846E+03  0.15705733506E+03  0.00000000000E+00 0. -1.
          1    1    1    2  502    0  0.72033203304E+02  0.11917091736E+03  0.71655041935E+03  0.72995547357E+03  0.00000000000E+00 0. -1.
         22    1    3    3    0    0 -0.60639703515E+02 -0.93888367522E+02 -0.60285813818E+02  0.12699046636E+03  0.00000000000E+00 0.  1.
         22    1    3    3    0    0  0.29196122571E+02 -0.17601785092E+02  0.30819240880E+02  0.45957175936E+02  0.00000000000E+00 0.  1.
</event>
<event>
 7    1  0.8252136E-006  0.8739046E+02  0.7818608E-02  0.1336059E+00
          2   -1    0    0  502    0  0.00000000000E+00  0.00000000000E+00  0.16928832792E+04  0.16928832792E+04  0.00000000000E+00 0. -1.
          1   -1    0    0  501    0 -0.00000000000E+00 -0.00000000000E+00 -0.56100134201E+03  0.56100134201E+03  0.00000000000E+00 0. -1.
         25    2    1    2    0    0  0.27697540120E+02  0.11721030649E+03 -0.42594636929E+02  0.17873101197E+03  0.12500024748E+03 0.  0.
          2    1    1    2  501    0 -0.63754233265E+02 -0.58529823046E+02 -0.44544185139E+03  0.45377173272E+03  0.00000000000E+00 0. -1.
          1    1    1    2  502    0  0.36056693145E+02 -0.58680483439E+02  0.16199184255E+04  0.16213818765E+04  0.00000000000E+00 0. -1.
         22    1    3    3    0    0  0.57307960903E+02  0.50258047577E+01 -0.12638867746E+02  0.58899932718E+02  0.00000000000E+00 0.  1.
         22    1    3    3    0    0 -0.29610420784E+02  0.11218450173E+03 -0.29955769183E+02  0.11983107925E+03  0.00000000000E+00 0.  1.
</event>
<event>
 7    1  0.6485470E-006  0.1515084E+03  0.7818608E-02  0.1386244E+00
          2   -1    0    0  502    0  0.00000000000E+00  0.00000000000E+00  0.71933119347E+02  0.71933119347E+02  0.00000000000E+00 0. -1.
          1   -1    0    0  501    0 -0.00000000000E+00 -0.00000000000E+00 -0.14138981979E+04  0.14138981979E+04  0.00000000000E+00 0. -1.
         25    2    1    2    0    0 -0.13740194194E+03 -0.33391531351E+02 -0.30550813672E+03  0.35910184049E+03  0.12499848889E+03 0.  0.
          2    1    1    2  501    0  0.15334482584E+03  0.12761483233E+02 -0.10718116086E+04  0.10828008198E+04  0.00000000000E+00 0. -1.
          1    1    1    2  502    0 -0.15942883896E+02  0.20630048118E+02  0.35354666807E+02  0.43928656903E+02  0.00000000000E+00 0. -1.
         22    1    3    3    0    0 -0.14991584796E+03  0.10892317898E+01 -0.26488567786E+03  0.30436880627E+03  0.00000000000E+00 0. -1.
         22    1    3    3    0    0  0.12513906020E+02 -0.34480763141E+02 -0.40622458860E+02  0.54733034216E+02  0.00000000000E+00 0. -1.
</event>
<event>
 7    1  0.6485470E-006  0.8080377E+02  0.7818608E-02  0.1477295E+00
          2   -1    0    0  502    0  0.00000000000E+00  0.00000000000E+00  0.18976478278E+04  0.18976478278E+04  0.00000000000E+00 0. -1.
          1   -1    0    0  501    0 -0.00000000000E+00 -0.00000000000E+00 -0.11848941507E+03  0.11848941507E+03  0.00000000000E+00 0. -1.
         25    2    1    2    0    0  0.56366640258E+02  0.72256789630E+01  0.71238058828E+03  0.72549340118E+03  0.12500065609E+03 0.  0.
          2    1    1    2  501    0 -0.80322664188E+02 -0.12549169046E+02 -0.97025042642E+02  0.12658226940E+03  0.00000000000E+00 0. -1.
          1    1    1    2  502    0  0.23956023930E+02  0.53234900831E+01  0.11638028671E+04  0.11640615723E+04  0.00000000000E+00 0. -1.
         22    1    3    3    0    0  0.17700026322E+02  0.28921550215E+02  0.63800225676E+03  0.63890267383E+03  0.00000000000E+00 0.  1.
         22    1    3    3    0    0  0.38666613936E+02 -0.21695871252E+02  0.74378331523E+02  0.86590727349E+02  0.00000000000E+00 0.  1.
</event>
<event>
 7    1  0.6485470E-006  0.1265793E+03  0.7818608E-02  0.1365382E+00
          2   -1    0    0  502    0  0.00000000000E+00  0.00000000000E+00  0.16319404809E+04  0.16319404809E+04  0.00000000000E+00 0. -1.
          1   -1    0    0  501    0 -0.00000000000E+00 -0.00000000000E+00 -0.15907461679E+04  0.15907461679E+04  0.00000000000E+00 0. -1.
         25    2    1    2    0    0 -0.16094408172E+03  0.12130480055E+02  0.15465386498E+03  0.25611094009E+03  0.12499939876E+03 0.  0.
          2    1    1    2  501    0  0.12614637297E+03  0.54647509861E+00 -0.15371931409E+04  0.15423605150E+04  0.00000000000E+00 0. -1.
          1    1    1    2  502    0  0.34797708743E+02 -0.12676955153E+02  0.14237335889E+04  0.14242151937E+04  0.00000000000E+00 0. -1.
         22    1    3    3    0    0 -0.14224198721E+03  0.22431095539E+02  0.17499209233E+03  0.22662340865E+03  0.00000000000E+00 0.  1.
         22    1    3    3    0    0 -0.18702094511E+02 -0.10300615484E+02 -0.20338227347E+02  0.29487531434E+02  0.00000000000E+00 0.  1.
</event>
<event>
 7    1  0.6485470E-006  0.5594278E+02  0.7818608E-02  0.1425298E+00
          2   -1    0    0  502    0  0.00000000000E+00  0.00000000000E+00  0.10254283842E+04  0.10254283842E+04  0.00000000000E+00 0. -1.
          1   -1    0    0  501    0 -0.00000000000E+00 -0.00000000000E+00 -0.58575181273E+03  0.58575181273E+03  0.00000000000E+00 0. -1.
         25    2    1    2    0    0 -0.12378211369E+02 -0.78858301686E+02 -0.18297749103E+02  0.14943864877E+03  0.12500100105E+03 0.  0.
          2    1    1    2  501    0 -0.30006675545E+02  0.42422118076E+02 -0.49972165009E+03  0.50241592755E+03  0.00000000000E+00 0. -1.
          1    1    1    2  502    0  0.42384886914E+02  0.36436183611E+02  0.95769597062E+03  0.95932562056E+03  0.00000000000E+00 0. -1.
         22    1    3    3    0    0  0.46690244748E+02  0.35731845574E+01 -0.35421347888E+01  0.46960550693E+02  0.00000000000E+00 0. -1.
         22    1    3    3    0    0 -0.59068456117E+02 -0.82431486244E+02 -0.14755614314E+02  0.10247809808E+03  0.00000000000E+00 0. -1.
</event>
<event>
 7    1  0.6485470E-006  0.1768199E+03  0.7818608E-02  0.1313167E+00
          2   -1    0    0  502    0  0.00000000000E+00  0.00000000000E+00  0.26588384532E+04  0.26588384532E+04  0.00000000000E+00 0. -1.
          1   -1    0    0  501    0 -0.00000000000E+00 -0.00000000000E+00 -0.64803234894E+03  0.64803234894E+03  0.00000000000E+00 0. -1.
         25    2    1    2    0    0 -0.16446777299E+03  0.13202121979E+03  0.49022794731E+03  0.54811322188E+03  0.12500165141E+03 0.  0.
          2    1    1    2  501    0  0.39840892479E+02 -0.12324914728E+02 -0.61489350657E+03  0.61630611278E+03  0.00000000000E+00 0. -1.
          1    1    1    2  502    0  0.12462688051E+03 -0.11969630506E+03  0.21354716635E+04  0.21424514675E+04  0.00000000000E+00 0. -1.
         22    1    3    3    0    0 -0.14057170562E+03  0.15572715040E+03  0.39747569724E+03  0.44944218725E+03  0.00000000000E+00 0.  1.
         22    1    3    3    0    0 -0.23896067373E+02 -0.23705930604E+02  0.92752250069E+02  0.98671034628E+02  0.00000000000E+00 0.  1.
</event>
<event>
 7    1  0.6485470E-006  0.4561572E+02  0.7818608E-02  0.1496658E+00
          2   -1    0    0  502    0  0.00000000000E+00  0.00000000000E+00  0.19095979582E+03  0.19095979582E+03  0.00000000000E+00 0. -1.
          1   -1    0    0  501    0 -0.00000000000E+00 -0.00000000000E+00 -0.17705039901E+03  0.17705039901E+03  0.00000000000E+00 0. -1.
         25    2    1    2    0    0 -0.69495818029E+02  0.39769620804E+02  0.43405004488E+02  0.15465929086E+03  0.12499684145E+03 0.  0.
          2    1    1    2  501    0  0.30815271303E+02 -0.22173561928E+02 -0.11324406412E+03  0.11943812562E+03  0.00000000000E+00 0. -1.
          1    1    1    2  502    0  0.38680546725E+02 -0.17596058876E+02  0.83748456431E+02  0.93912778351E+02  0.00000000000E+00 0. -1.
         22    1    3    3    0    0 -0.27701069635E+02  0.17922977285E+02  0.85374676735E+02  0.91528234995E+02  0.00000000000E+00 0.  1.
         22    1    3    3    0    0 -0.41794748394E+02  0.21846643518E+02 -0.41969672248E+02  0.63131055867E+02  0.00000000000E+00 0.  1.
</event>
<event>
 7    1  0.6485470E-006  0.1289220E+03  0.7818608E-02  0.1402903E+00
          2   -1    0    0  502    0  0.00000000000E+00  0.00000000000E+00  0.10148477192E+04  0.10148477192E+04  0.00000000000E+00 0. -1.
          1   -1    0    0  501    0 -0.00000000000E+00 -0.00000000000E+00 -0.17544744362E+03  0.17544744362E+03  0.00000000000E+00 0. -1.
         25    2    1    2    0    0  0.12840684386E+03 -0.54374768968E+02  0.18292113400E+03  0.26178454980E+03  0.12500430473E+03 0.  0.
          2    1    1    2  501    0 -0.12470621994E+03  0.27805856185E+02 -0.10572227432E+03  0.16583728838E+03  0.00000000000E+00 0. -1.
          1    1    1    2  502    0 -0.37006239194E+01  0.26568912783E+02  0.76220141584E+03  0.76267332460E+03  0.00000000000E+00 0. -1.
         22    1    3    3    0    0 -0.16128931779E+02 -0.65380646808E+01 -0.66636220395E+01  0.18635787850E+02  0.00000000000E+00 0. -1.
         22    1    3    3    0    0  0.14453577564E+03 -0.47836704287E+02  0.18958475604E+03  0.24314876195E+03  0.00000000000E+00 0. -1.
</event>
<event>
 7    1  0.6485470E-006  0.1709693E+03  0.7818608E-02  0.1251443E+00
          2   -1    0    0  502    0  0.00000000000E+00  0.00000000000E+00  0.17833502168E+04  0.17833502168E+04  0.00000000000E+00 0. -1.
          1   -1    0    0  501    0 -0.00000000000E+00 -0.00000000000E+00 -0.71480709821E+03  0.71480709821E+03  0.00000000000E+00 0. -1.
         25    2    1    2    0    0 -0.12286461347E+03  0.13148707971E+03  0.26314813553E+03  0.34242759413E+03  0.12500060246E+03 0.  0.
          2    1    1    2  501    0  0.52154837948E+02 -0.16311074159E+03 -0.66327180883E+03  0.68502170296E+03  0.00000000000E+00 0. -1.
          1    1    1    2  502    0  0.70709775518E+02  0.31623661885E+02  0.14686667919E+04  0.14707080179E+04  0.00000000000E+00 0. -1.
         22    1    3    3    0    0 -0.11667212707E+03  0.10169052693E+03  0.11934507308E+03  0.19543949184E+03  0.00000000000E+00 0. -1.
         22    1    3    3    0    0 -0.61924863959E+01  0.29796552779E+02  0.14380306245E+03  0.14698810229E+03  0.00000000000E+00 0. -1.
</event>
<event>
 7    1  0.6485470E-006  0.3641909E+02  0.7818608E-02  0.1564729E+00
          2   -1    0    0  502    0  0.00000000000E+00  0.00000000000E+00  0.15483474876E+03  0.15483474876E+03  0.00000000000E+00 0. -1.
          1   -1    0    0  501    0 -0.00000000000E+00 -0.00000000000E+00 -0.82324208555E+03  0.82324208555E+03  0.00000000000E+00 0. -1.
         25    2    1    2    0    0  0.24037499583E+02 -0.12611595113E+02 -0.38298456933E+03  0.40376896424E+03  0.12496136371E+03 0.  0.
          2    1    1    2  501    0 -0.65492094304E+01  0.37421138860E+02 -0.42741879521E+03  0.42910378730E+03  0.00000000000E+00 0. -1.
          1    1    1    2  502    0 -0.17488290153E+02 -0.24809543747E+02  0.14199602776E+03  0.14520408277E+03  0.00000000000E+00 0. -1.
         22    1    3    3    0    0  0.24519419208E+02 -0.42332302300E+02 -0.51785794168E+02  0.71238993634E+02  0.00000000000E+00 0.  1.
         22    1    3    3    0    0 -0.48191962491E+00  0.29720707187E+02 -0.33119877517E+03  0.33252997061E+03  0.00000000000E+00 0.  1.
</event>
<event>
 7    1  0.6485470E-006  0.9499442E+02  0.7818608E-02  0.1410923E+00
          2   -1    0    0  502    0  0.00000000000E+00  0.00000000000E+00  0.11840390334E+04  0.11840390334E+04  0.00000000000E+00 0. -1.
          1   -1    0    0  501    0 -0.00000000000E+00 -0.00000000000E+00 -0.12384709605E+04  0.12384709605E+04  0.00000000000E+00 0. -1.
         25    2    1    2    0    0 -0.80791540995E+02 -0.94687020615E+02  0.11093968888E+03  0.20838504328E+03  0.12499522681E+03 0.  0.
          2    1    1    2  501    0  0.49637734706E+02  0.80606146464E+02 -0.11875790363E+04  0.11913459712E+04  0.00000000000E+00 0. -1.
          1    1    1    2  502    0  0.31153806289E+02  0.14080874150E+02  0.10222074203E+04  0.10227789795E+04  0.00000000000E+00 0. -1.
         22    1    3    3    0    0 -0.28682641572E+02  0.21737324019E+02 -0.46005801391E+01  0.36281820802E+02  0.00000000000E+00 0. -1.
         22    1    3    3    0    0 -0.52108899423E+02 -0.11642434463E+03  0.11554026902E+03  0.17210322248E+03  0.00000000000E+00 0. -1.
</event>
<event>
 7    1  0.6485470E-006  0.6783047E+02  0.7818608E-02  0.1452717E+00
          2   -1    0    0  502    0  0.00000000000E+00  0.00000000000E+00  0.36895536977E+02  0.36895536977E+02  0.00000000000E+00 0. -1.
          1   -1    0    0  501    0 -0.00000000000E+00 -0.00000000000E+00 -0.77009531970E+03  0.77009531970E+03  0.00000000000E+00 0. -1.
         25    2    1    2    0    0 -0.52212879490E+02  0.13868226381E+02 -0.14673228693E+03  0.20018806367E+03  0.12500553716E+03 0.  0.
          2    1    1    2  501    0 -0.31723103811E+02 -0.14559899225E+02 -0.40898790855E+03  0.41047467074E+03  0.00000000000E+00 0. -1.
          1    1    1    2  502    0  0.83935983301E+02  0.69167284408E+00 -0.17747958723E+03  0.19632812226E+03  0.00000000000E+00 0. -1.
         22    1    3    3    0    0  0.16517620344E+02 -0.72354405797E+01 -0.12323641130E+03  0.12454877138E+03  0.00000000000E+00 0. -1.
         22    1    3    3    0    0 -0.68730499834E+02  0.21103666961E+02 -0.23495875634E+02  0.75639292292E+02  0.00000000000E+00 0. -1.
</event>
<event>
 7    1  0.6485470E-006  0.1931096E+03  0.7818608E-02  0.1232846E+00
          2   -1    0    0  502    0  0.00000000000E+00  0.00000000000E+00  0.18175082587E+04  0.18175082587E+04  0.00000000000E+00 0. -1.
          1   -1    0    0  501    0 -0.00000000000E+00 -0.00000000000E+00 -0.13068354485E+04  0.13068354485E+04  0.00000000000E+00 0. -1.
         25    2    1    2    0    0  0.25200025064E+03  0.75159666555E+02  0.41787735061E+03  0.50931335128E+03  0.12500203133E+03 0.  0.
          2    1    1    2  501    0 -0.82694162493E+02 -0.37428341056E+01 -0.12535113232E+04  0.12562416052E+04  0.00000000000E+00 0. -1.
          1    1    1    2  502    0 -0.16930608815E+03 -0.71416832450E+02  0.13463067829E+04  0.13587887507E+04  0.00000000000E+00 0. -1.
         22    1    3    3    0    0  0.53248093554E+02 -0.18404714392E+02  0.16495733853E+03  0.17431298436E+03  0.00000000000E+00 0. -1.
         22    1    3    3    0    0  0.19875215709E+03  0.93564380947E+02  0.25292001207E+03  0.33500036692E+03  0.00000000000E+00 0. -1.
</event>
<event>
 7    1  0.6485470E-006  0.1457186E+03  0.7818608E-02  0.1329419E+00
          2   -1    0    0  502    0  0.00000000000E+00  0.00000000000E+00  0.51083436777E+03  0.51083436777E+03  0.00000000000E+00 0. -1.
          1   -1    0    0  501    0 -0.00000000000E+00 -0.00000000000E+00 -0.37654673214E+03  0.37654673214E+03  0.00000000000E+00 0. -1.
         25    2    1    2    0    0  0.13059468737E+03 -0.71256292428E+02  0.20895159423E+02  0.19543050892E+03  0.12499617815E+03 0.  0.
          2    1    1    2  501    0 -0.14317935944E+03  0.29325943885E+02 -0.26949182708E+03  0.30657166343E+03  0.00000000000E+00 0. -1.
          1    1    1    2  502    0  0.12584672068E+02  0.41930348543E+02  0.38288430329E+03  0.38537892756E+03  0.00000000000E+00 0. -1.
         22    1    3    3    0    0  0.13556419170E+03 -0.97571604074E+02  0.13104162732E+02  0.16753980743E+03  0.00000000000E+00 0.  1.
         22    1    3    3    0    0 -0.49695043310E+01  0.26315311646E+02  0.77909966910E+01  0.27890701493E+02  0.00000000000E+00 0.  1.
</event>
<event>
 7    1  0.6485470E-006  0.8320495E+02  0.7818608E-02  0.1337704E+00
          2   -1    0    0  502    0  0.00000000000E+00  0.00000000000E+00  0.50960057120E+03  0.50960057120E+03  0.00000000000E+00 0. -1.
          1   -1    0    0  501    0 -0.00000000000E+00 -0.00000000000E+00 -0.90005596917E+02  0.90005596917E+02  0.00000000000E+00 0. -1.
         25    2    1    2    0    0  0.30231110722E+02 -0.63129271162E+00  0.15040059190E+03  0.19788747711E+03  0.12499918787E+03 0.  0.
          2    1    1    2  501    0  0.71275843101E+02 -0.21808185894E+01 -0.36137851154E+02  0.79943392882E+02  0.00000000000E+00 0. -1.
          1    1    1    2  502    0 -0.10150695382E+03  0.28121113010E+01  0.30533223354E+03  0.32177529812E+03  0.00000000000E+00 0. -1.
         22    1    3    3    0    0  0.17699113972E+02 -0.42380826930E+02  0.51249306965E+01  0.46213180385E+02  0.00000000000E+00 0. -1.
         22    1    3    3    0    0  0.12531996750E+02  0.41749534219E+02  0.14527566120E+03  0.15167429672E+03  0.00000000000E+00 0. -1.
</event>
<event>
 7    1  0.6485470E-006  0.5142168E+02  0.7818608E-02  0.1443074E+00
          2   -1    0    0  502    0  0.00000000000E+00  0.00000000000E+00  0.21700503873E+04  0.21700503873E+04  0.00000000000E+00 0. -1.
          1   -1    0    0  501    0 -0.00000000000E+00 -0.00000000000E+00 -0.23659135011E+03  0.23659135011E+03  0.00000000000E+00 0. -1.
         25    2    1    2    0    0 -0.12056368844E+02 -0.99766933462E+02  0.10208514841E+03  0.19011856870E+03  0.12499958239E+03 0.  0.
          2    1    1    2  501    0  0.67253866575E+01  0.48983814232E+02 -0.18907311390E+03  0.19543102948E+03  0.00000000000E+00 0. -1.
          1    1    1    2  502    0  0.53309821869E+01  0.50783119230E+02  0.20204470027E+04  0.20210921392E+04  0.00000000000E+00 0. -1.
         22    1    3    3    0    0 -0.63192304852E+02 -0.71684583791E+02  0.36381707580E+02  0.10225250898E+03  0.00000000000E+00 0.  1.
         22    1    3    3    0    0  0.51135936007E+02 -0.28082349671E+02  0.65703440825E+02  0.87866059719E+02  0.00000000000E+00 0.  1.
</event>
<event>
 7    1  0.6485470E-006  0.8626575E+02  0.7818608E-02  0.1435363E+00
          2   -1    0    0  502    0  0.00000000000E+00  0.00000000000E+00  0.22341238405E+03  0.22341238405E+03  0.00000000000E+00 0. -1.
          1   -1    0    0  501    0 -0.00000000000E+00 -0.00000000000E+00 -0.88411789613E+03  0.88411789613E+03  0.00000000000E+00 0. -1.
         25    2    1    2    0    0  0.18259148910E+02  0.61912065530E+02  0.13473332906E+03  0.19479343264E+03  0.12499964425E+03 0.  0.
          2    1    1    2  501    0  0.86874634808E+00 -0.86589595550E+02 -0.84756391736E+03  0.85197600130E+03  0.00000000000E+00 0. -1.
          1    1    1    2  502    0 -0.19127895258E+02  0.24677530020E+02  0.52125076224E+02  0.60760846244E+02  0.00000000000E+00 0. -1.
         22    1    3    3    0    0  0.37987045915E+02 -0.28883834106E+02  0.43359361010E+02  0.64477327156E+02  0.00000000000E+00 0.  1.
         22    1    3    3    0    0 -0.19727897005E+02  0.90795899636E+02  0.91373968047E+02  0.13031610548E+03  0.00000000000E+00 0.  1.
</event>
<event>
 7    1  0.6485470E-006  0.4109977E+02  0.7818608E-02  0.1551580E+00
          2   -1    0    0  502    0  0.00000000000E+00  0.00000000000E+00  0.24850245418E+04  0.24850245418E+04  0.00000000000E+00 0. -1.
          1   -1    0    0  501    0 -0.00000000000E+00 -0.00000000000E+00 -0.47560064807E+01  0.47560064807E+01  0.00000000000E+00 0. -1.
         25    2    1    2    0    0  0.17523871022E+02 -0.22949382113E+02  0.14325511291E+04  0.14382841838E+04  0.12499958192E+03 0.  0.
          2    1    1    2  501    0  0.26088507036E+02  0.13206217100E+02  0.15967347802E+03  0.16232878350E+03  0.00000000000E+00 0. -1.
          1    1    1    2  502    0 -0.43612378058E+02  0.97431650124E+01  0.88804392812E+03  0.88916758097E+03  0.00000000000E+00 0. -1.
         22    1    3    3    0    0 -0.47851090839E+02  0.17827372298E+02  0.60844487495E+03  0.61058390738E+03  0.00000000000E+00 0.  1.
         22    1    3    3    0    0  0.65374961861E+02 -0.40776754411E+02  0.82410625420E+03  0.82770027640E+03  0.00000000000E+00 0.  1.
</event>
<event>
 7    1  0.6485470E-006  0.2448088E+03  0.7818608E-02  0.1271222E+00
          2   -1    0    0  502    0  0.00000000000E+00  0.00000000000E+00  0.37282944731E+03  0.37282944731E+03  0.00000000000E+00 0. -1.
          1   -1    0    0  501    0 -0.00000000000E+00 -0.00000000000E+00 -0.65997079862E+03  0.65997079862E+03  0.00000000000E+00 0. -1.
         25    2    1    2    0    0  0.12210654763E+03 -0.16657183427E+03  0.82149092336E+02  0.25500978349E+03  0.12500132543E+03 0.  0.
          2    1    1    2  501    0 -0.14940880867E+03  0.20178581273E+03 -0.54311642331E+03  0.59834434534E+03  0.00000000000E+00 0. -1.
          1    1    1    2  502    0  0.27302261035E+02 -0.35213978457E+02  0.17382597966E+03  0.17944611710E+03  0.00000000000E+00 0. -1.
         22    1    3    3    0    0  0.34621031619E+02 -0.13498415503E+03  0.14724393660E+02  0.14012903235E+03  0.00000000000E+00 0.  1.
         22    1    3    3    0    0  0.87485516012E+02 -0.31587679248E+02  0.67424698676E+02  0.11488075115E+03  0.00000000000E+00 0.  1.
</event>
<event>
 7    1  0.6485470E-006  0.1088712E+03  0.7818608E-02  0.1305692E+00
          2   -1    0    0  502    0  0.00000000000E+00  0.00000000000E+00  0.38167531106E+04  0.38167531106E+04  0.00000000000E+00 0. -1.
          1   -1    0    0  501    0 -0.00000000000E+00 -0.00000000000E+00 -0.84625615622E+03  0.84625615622E+03  0.00000000000E+00 0. -1.
         25    2    1    2    0    0 -0.99558377820E+01  0.13110209959E+03  0.18551757281E+04  0.18640244795E+04  0.12499359433E+03 0.  0.
          2    1    1    2  501    0 -0.55342056929E+02 -0.46819461674E+02 -0.83881536444E+03  0.84194181562E+03  0.00000000000E+00 0. -1.
          1    1    1    2  502    0  0.65297894712E+02 -0.84282637916E+02  0.19541365907E+04  0.19570429717E+04  0.00000000000E+00 0. -1.
         22    1    3    3    0    0 -0.15077049125E+02  0.95172200806E+02  0.55226186049E+03  0.56060523344E+03  0.00000000000E+00 0. -1.
         22    1    3    3    0    0  0.51212113429E+01  0.35929898783E+02  0.13029138676E+04  0.13034192460E+04  0.00000000000E+00 0. -1.
</event>
<event>
 7    1  0.6485470E-006  0.3519541E+02  0.7818608E-02  0.1589473E+00
          2   -1    0    0  502    0  0.00000000000E+00  0.00000000000E+00  0.11431181584E+03  0.11431181584E+03  0.00000000000E+00 0. -1.
          1   -1    0    0  501    0 -0.00000000000E+00 -0.00000000000E+00 -0.23833203344E+03  0.23833203344E+03  0.00000000000E+00 0. -1.
         25    2    1    2    0    0  0.35265642556E+02  0.21931952437E+02 -0.51342864157E+02  0.14136999133E+03  0.12499883466E+03 0.  0.
          2    1    1    2  501    0 -0.10976411944E+02 -0.33592747800E+02 -0.13702716463E+03  0.14151112384E+03  0.00000000000E+00 0. -1.
          1    1    1    2  502    0 -0.24289230612E+02  0.11660795363E+02  0.64349811184E+02  0.69762734119E+02  0.00000000000E+00 0. -1.
         22    1    3    3    0    0  0.45509881297E+02  0.61782363037E+02 -0.62242703467E+02  0.98804675056E+02  0.00000000000E+00 0.  1.
         22    1    3    3    0    0 -0.10244238741E+02 -0.39850410600E+02  0.10899839310E+02  0.42565316272E+02  0.00000000000E+00 0.  1.
</event>
<event>
 7    1  0.6485470E-006  0.9311542E+02  0.7818608E-02  0.1321699E+00
          2   -1    0    0  502    0  0.00000000000E+00  0.00000000000E+00  0.38710433674E+04  0.38710433674E+04  0.00000000000E+00 0. -1.
          1   -1    0    0  501    0 -0.00000000000E+00 -0.00000000000E+00 -0.10056246955E+04  0.10056246955E+04  0.00000000000E+00 0. -1.
         25    2    1    2    0    0 -0.42280286037E+02 -0.36431861615E+02  0.44346628208E+03  0.46411448438E+03  0.12500003256E+03 0.  0.
          2    1    1    2  501    0  0.91687535549E+02 -0.17792716219E+02 -0.99271468898E+03  0.99709861029E+03  0.00000000000E+00 0. -1.
          1    1    1    2  502    0 -0.49407249512E+02  0.54224577834E+02  0.34146670788E+04  0.34154549683E+04  0.00000000000E+00 0. -1.
         22    1    3    3    0    0 -0.43819766875E+02  0.28008415293E+02  0.83123161780E+02  0.98051534004E+02  0.00000000000E+00 0.  1.
         22    1    3    3    0    0  0.15394808382E+01 -0.64440276908E+02  0.36034312030E+03  0.36606295038E+03  0.00000000000E+00 0.  1.
</event>
<event>
 7    1  0.6485470E-006  0.7644738E+02  0.7818608E-02  0.1349210E+00
          2   -1    0    0  502    0  0.00000000000E+00  0.00000000000E+00  0.65737260935E+02  0.65737260935E+02  0.00000000000E+00 0. -1.
          1   -1    0    0  501    0 -0.00000000000E+00 -0.00000000000E+00 -0.78823883925E+03  0.78823883925E+03  0.00000000000E+00 0. -1.
         25    2    1    2    0    0 -0.32798955721E+01 -0.40626148630E+02 -0.47841861444E+03  0.49615571877E+03  0.12499953986E+03 0.  0.
          2    1    1    2  501    0 -0.35423977891E+02  0.10655195703E+03 -0.25684337099E+03  0.28031534917E+03  0.00000000000E+00 0. -1.
          1    1    1    2  502    0  0.38703873463E+02 -0.65925808402E+02  0.12760407106E+02  0.77505032250E+02  0.00000000000E+00 0. -1.
         22    1    3    3    0    0  0.24731257435E+02 -0.23660938273E+02 -0.45404379508E+03  0.45533201397E+03  0.00000000000E+00 0. -1.
         22    1    3    3    0    0 -0.28011153007E+02 -0.16965210358E+02 -0.24374819354E+02  0.40823704802E+02  0.00000000000E+00 0. -1.
</event>
<event>
 7    1  0.6485470E-006  0.1582063E+03  0.7818608E-02  0.1206221E+00
          2   -1    0    0  502    0  0.00000000000E+00  0.00000000000E+00  0.85080648379E+03  0.85080648379E+03  0.00000000000E+00 0. -1.
          1   -1    0    0  501    0 -0.00000000000E+00 -0.00000000000E+00 -0.86004033565E+03  0.86004033565E+03  0.00000000000E+00 0. -1.
         25    2    1    2    0    0  0.38663281993E+02 -0.23770871999E+02 -0.25089068253E+03  0.28395647061E+03  0.12500095556E+03 0.  0.
          2    1    1    2  501    0 -0.70274556286E+00 -0.13365861874E+03 -0.57704671821E+03  0.59232426526E+03  0.00000000000E+00 0. -1.
          1    1    1    2  502    0 -0.37960536430E+02  0.15742949074E+03  0.81870354889E+03  0.83456608357E+03  0.00000000000E+00 0. -1.
         22    1    3    3    0    0 -0.12142606635E+00  0.45230394224E+02 -0.14408208362E+03  0.15101473480E+03  0.00000000000E+00 0. -1.
         22    1    3    3    0    0  0.38784708059E+02 -0.69001266223E+02 -0.10680859891E+03  0.13294173581E+03  0.00000000000E+00 0. -1.
</event>
<event>
 7    1  0.6485470E-006  0.1398254E+03  0.7818608E-02  0.1263149E+00
          2   -1    0    0  502    0  0.00000000000E+00  0.00000000000E+00  0.28176286879E+04  0.28176286879E+04  0.00000000000E+00 0. -1.
          1   -1    0    0  501    0 -0.00000000000E+00 -0.00000000000E+00 -0.81636696392E+03  0.81636696392E+03  0.00000000000E+00 0. -1.
         25    2    1    2    0    0 -0.11809722856E+03  0.15006834301E+03 -0.36432317130E+03  0.42991119987E+03  0.12499921464E+03 0.  0.
          2    1    1    2  501    0  0.83057165698E+02 -0.14865009543E+02 -0.41323265216E+03  0.42175903795E+03  0.00000000000E+00 0. -1.
          1    1    1    2  502    0  0.35040062865E+02 -0.13520333347E+03  0.27788175475E+04  0.27823254140E+04  0.00000000000E+00 0. -1.
         22    1    3    3    0    0 -0.11742990488E+03  0.16613090010E+03 -0.29239246108E+03  0.35620585316E+03  0.00000000000E+00 0.  1.
         22    1    3    3    0    0 -0.66732368019E+00 -0.16062557087E+02 -0.71930710223E+02  0.73705346714E+02  0.00000000000E+00 0.  1.
</event>
<event>
 7    1  0.6485470E-006  0.7033467E+02  0.7818608E-02  0.1481856E+00
          2   -1    0    0  502    0  0.00000000000E+00  0.00000000000E+00  0.26374646196E+03  0.26374646196E+03  0.00000000000E+00 0. -1.
          1   -1    0    0  501    0 -0.00000000000E+00 -0.00000000000E+00 -0.10146903575E+04  0.10146903575E+04  0.00000000000E+00 0. -1.
         25    2    1    2    0    0  0.88240076013E+02 -0.39017289253E+02 -0.14693960672E+03  0.21569756333E+03  0.12500212369E+03 0.  0.
          2    1    1    2  501    0 -0.23119413787E+02  0.14516143576E+02 -0.82786513394E+03  0.82831510050E+03  0.00000000000E+00 0. -1.
          1    1    1    2  502    0 -0.65120662226E+02  0.24501145677E+02  0.22386084510E+03  0.23442415566E+03  0.00000000000E+00 0. -1.
         22    1    3    3    0    0  0.29323314939E+02 -0.69822962150E+02 -0.12413311319E+03  0.14541022190E+03  0.00000000000E+00 0. -1.
         22    1    3    3    0    0  0.58916761073E+02  0.30805672897E+02 -0.22806493533E+02  0.70287341430E+02  0.00000000000E+00 0. -1.
</event>
<event>
 7    1  0.6485470E-006  0.6133138E+02  0.7818608E-02  0.1394304E+00
          2   -1    0    0  502    0  0.00000000000E+00  0.00000000000E+00  0.48702225147E+03  0.48702225147E+03  0.00000000000E+00 0. -1.
          1   -1    0    0  501    0 -0.00000000000E+00 -0.00000000000E+00 -0.26192027802E+03  0.26192027802E+03  0.00000000000E+00 0. -1.
         25    2    1    2    0    0  0.77738578329E+00 -0.49669942197E+01 -0.41724457465E+02  0.13187858345E+03  0.12500302021E+03 0.  0.
          2    1    1    2  501    0 -0.59811140758E+02 -0.13570746221E+02 -0.16748791693E+03  0.17836406597E+03  0.00000000000E+00 0. -1.
          1    1    1    2  502    0  0.59033754975E+02  0.18537740440E+02  0.43431434784E+03  0.43869988009E+03  0.00000000000E+00 0. -1.
         22    1    3    3    0    0  0.58016613162E+02 -0.67874885155E+01  0.40673435685E+01  0.58553741869E+02  0.00000000000E+00 0. -1.
         22    1    3    3    0    0 -0.57239227378E+02  0.18204942959E+01 -0.45791801033E+02  0.73324841577E+02  0.00000000000E+00 0. -1.
</event>
<event>
 7    1  0.6485470E-006  0.1595543E+03  0.7818608E-02  0.1328799E+00
          2   -1    0    0  502    0  0.00000000000E+00  0.00000000000E+00  0.30563462114E+03  0.30563462114E+03  0.00000000000E+00 0. -1.
          1   -1    0    0  501    0 -0.00000000000E+00 -0.00000000000E+00 -0.16852244091E+03  0.16852244091E+03  0.00000000000E+00 0. -1.
         25    2    1    2    0    0 -0.13468625810E+03 -0.64235529687E+02  0.18300792830E+02  0.19551550148E+03  0.12499920362E+03 0.  0.
          2    1    1    2  501    0  0.13479124736E+03  0.10443651880E+03  0.19654097634E+02  0.17164483790E+03  0.00000000000E+00 0. -1.
          1    1    1    2  502    0 -0.10498925749E+00 -0.40200989116E+02  0.99157289759E+02  0.10699672267E+03  0.00000000000E+00 0. -1.
         22    1    3    3    0    0 -0.15849727869E+03 -0.51765023379E+02  0.86641588160E+01  0.16696129086E+03  0.00000000000E+00 0. -1.
         22    1    3    3    0    0  0.23811020590E+02 -0.12470506308E+02  0.96366340136E+01  0.28554210622E+02  0.00000000000E+00 0. -1.
</event>
<event>
 7    1  0.6485470E-006  0.1063196E+03  0.7818608E-02  0.1295040E+00
          2   -1    0    0  502    0  0.00000000000E+00  0.00000000000E+00  0.91772602137E+03  0.91772602137E+03  0.00000000000E+00 0. -1.
          1   -1    0    0  501    0 -0.00000000000E+00 -0.00000000000E+00 -0.36584015233E+03  0.36584015233E+03  0.00000000000E+00 0. -1.
         25    2    1    2    0    0  0.14382929746E+03 -0.92675635039E+02  0.34066952109E+03  0.40119170654E+03  0.12499369048E+03 0.  0.
          2    1    1    2  501    0 -0.62342433667E+02  0.84626505423E+02 -0.32415844267E+03  0.34077400196E+03  0.00000000000E+00 0. -1.
          1    1    1    2  502    0 -0.81486863795E+02  0.80491296162E+01  0.53537479063E+03  0.54160046519E+03  0.00000000000E+00 0. -1.
         22    1    3    3    0    0  0.11732427570E+03 -0.50837001133E+02  0.12111399956E+03  0.17611924155E+03  0.00000000000E+00 0. -1.
         22    1    3    3    0    0  0.26505021758E+02 -0.41838633906E+02  0.21955552153E+03  0.22507246499E+03  0.00000000000E+00 0. -1.
</event>
<event>
 7    1  0.6485470E-006  0.7691267E+02  0.7818608E-02  0.1379365E+00
          2   -1    0    0  502    0  0.00000000000E+00  0.00000000000E+00  0.16620830842E+04  0.16620830842E+04  0.00000000000E+00 0. -1.
          1   -1    0    0  501    0 -0.00000000000E+00 -0.00000000000E+00 -0.32852229134E+03  0.32852229134E+03  0.00000000000E+00 0. -1.
         25    2    1    2    0    0 -0.41907948835E+02 -0.44832698547E+02 -0.31736272655E+02  0.14282507497E+03  0.12500225599E+03 0.  0.
          2    1    1    2  501    0  0.10303339011E+01  0.80590749580E+02 -0.23403602542E+03  0.24752533547E+03  0.00000000000E+00 0. -1.
          1    1    1    2  502    0  0.40877614934E+02 -0.35758051033E+02  0.15993330909E+04  0.16002549651E+04  0.00000000000E+00 0. -1.
         22    1    3    3    0    0  0.15742550048E+02 -0.72293918285E+02 -0.69028667099E+01  0.74309407694E+02  0.00000000000E+00 0.  1.
         22    1    3    3    0    0 -0.57650498884E+02  0.27461219738E+02 -0.24833405946E+02  0.68515667273E+02  0.00000000000E+00 0.  1.
</event>
<event>
 7    1  0.6485470E-006  0.2478450E+03  0.7818608E-02  0.1290877E+00
          2   -1    0    0  502    0  0.00000000000E+00  0.00000000000E+00  0.20395890335E+04  0.20395890335E+04  0.00000000000E+00 0. -1.
          1   -1    0    0  501    0 -0.00000000000E+00 -0.00000000000E+00 -0.31334389255E+03  0.31334389255E+03  0.00000000000E+00 0. -1.
         25    2    1    2    0    0  0.18160220809E+03  0.18533143276E+03  0.21782996473E+03  0.36111202999E+03  0.12499961089E+03 0.  0.
          2    1    1    2  501    0 -0.14698147887E+03 -0.19694222727E+03 -0.17899139363E+03  0.30401926749E+03  0.00000000000E+00 0. -1.
          1    1    1    2  502    0 -0.34620729215E+02  0.11610794507E+02  0.16874065698E+04  0.16878016285E+04  0.00000000000E+00 0. -1.
         22    1    3    3    0    0  0.15928539910E+03  0.20397191020E+03  0.19236889813E+03  0.32246266680E+03  0.00000000000E+00 0. -1.
         22    1    3    3    0    0  0.22316808988E+02 -0.18640477437E+02  0.25461066601E+02  0.38649363190E+02  0.00000000000E+00 0. -1.
</event>
<event>
 7    1  0.6485470E-006  0.8118136E+02  0.7818608E-02  0.1417852E+00
          2   -1    0    0  502    0  0.00000000000E+00  0.00000000000E+00  0.24461179243E+03  0.24461179243E+03  0.00000000000E+00 0. -1.
          1   -1    0    0  501    0 -0.00000000000E+00 -0.00000000000E+00 -0.49894066446E+03  0.49894066446E+03  0.00000000000E+00 0. -1.
         25    2    1    2    0    0 -0.89028930158E+02  0.69114907486E+01 -0.67742195069E+02  0.16789354095E+03  0.12500126796E+03 0.  0.
          2    1    1    2  501    0  0.70585406195E+02 -0.40035521896E+02 -0.37489237860E+03  0.38357455353E+03  0.00000000000E+00 0. -1.
          1    1    1    2  502    0  0.18443523964E+02  0.33124031148E+02  0.18830570163E+03  0.19208436241E+03  0.00000000000E+00 0. -1.
         22    1    3    3    0    0 -0.55003438724E+02  0.14603216863E+02  0.29844106213E+02  0.64259652115E+02  0.00000000000E+00 0.  1.
         22    1    3    3    0    0 -0.34025491434E+02 -0.76917261143E+01 -0.97586301282E+02  0.10363388884E+03  0.00000000000E+00 0.  1.
</event>
<event>
 7    1  0.6485470E-006  0.1576705E+03  0.7818608E-02  0.1298543E+00
          2   -1    0    0  502    0  0.00000000000E+00  0.00000000000E+00  0.22998756480E+04  0.22998756480E+04  0.00000000000E+00 0. -1.
          1   -1    0    0  501    0 -0.00000000000E+00 -0.00000000000E+00 -0.13558930164E+03  0.13558930164E+03  0.00000000000E+00 0. -1.
         25    2    1    2    0    0 -0.96937492601E+02 -0.57039582961E+02  0.54041812430E+03  0.56597468711E+03  0.12500082353E+03 0.  0.
          2    1    1    2  501    0  0.15023925759E+03  0.61046379014E+02 -0.68670079430E+02  0.17610813361E+03  0.00000000000E+00 0. -1.
          1    1    1    2  502    0 -0.53301764993E+02 -0.40067960531E+01  0.16925383015E+04  0.16933821290E+04  0.00000000000E+00 0. -1.
         22    1    3    3    0    0 -0.11929146568E+03 -0.46220513220E+02  0.32729886801E+03  0.35141334441E+03  0.00000000000E+00 0. -1.
         22    1    3    3    0    0  0.22353973076E+02 -0.10819069741E+02  0.21311925628E+03  0.21456134270E+03  0.00000000000E+00 0. -1.
</event>
<event>
 7    1  0.6485470E-006  0.1435934E+03  0.7818608E-02  0.1310385E+00
          2   -1    0    0  502    0  0.00000000000E+00  0.00000000000E+00  0.11213548222E+04  0.11213548222E+04  0.00000000000E+00 0. -1.
          1   -1    0    0  501    0 -0.00000000000E+00 -0.00000000000E+00 -0.10563529838E+04  0.10563529838E+04  0.00000000000E+00 0. -1.
         25    2    1    2    0    0 -0.92687420033E+02  0.59996398902E+02 -0.84874379050E+02  0.18714125269E+03  0.12501064965E+03 0.  0.
          2    1    1    2  501    0  0.14200316973E+03 -0.41521440406E+02 -0.91374363711E+03  0.92564375684E+03  0.00000000000E+00 0. -1.
          1    1    1    2  502    0 -0.49315749692E+02 -0.18474958497E+02  0.10636198546E+04  0.10649227964E+04  0.00000000000E+00 0. -1.
         22    1    3    3    0    0 -0.12139209088E+03  0.30054495907E+02 -0.59221077351E+02  0.13837069219E+03  0.00000000000E+00 0. -1.
         22    1    3    3    0    0  0.28704670851E+02  0.29941902995E+02 -0.25653301699E+02  0.48770560502E+02  0.00000000000E+00 0. -1.
</event>
<event>
 7    1  0.6485470E-006  0.4981586E+02  0.7818608E-02  0.1488511E+00
          2   -1    0    0  502    0  0.00000000000E+00  0.00000000000E+00  0.50071465932E+03  0.50071465932E+03  0.00000000000E+00 0. -1.
          1   -1    0    0  501    0 -0.00000000000E+00 -0.00000000000E+00 -0.13997538096E+04  0.13997538096E+04  0.00000000000E+00 0. -1.
         25    2    1    2    0    0  0.74940160647E+02  0.25086369075E+00 -0.10073244733E+04  0.10178139472E+04  0.12500618446E+03 0.  0.
          2    1    1    2  501    0 -0.41714094451E+02  0.15534815308E+02 -0.38521843577E+03  0.38778169042E+03  0.00000000000E+00 0. -1.
          1    1    1    2  502    0 -0.33226066196E+02 -0.15785678999E+02  0.49350375879E+03  0.49487283122E+03  0.00000000000E+00 0. -1.
         22    1    3    3    0    0  0.34003769196E+02 -0.45722741958E+02 -0.78675056374E+03  0.78881130507E+03  0.00000000000E+00 0. -1.
         22    1    3    3    0    0  0.40936391451E+02  0.45973605649E+02 -0.22057390952E+03  0.22900264217E+03  0.00000000000E+00 0. -1.
</event>
<event>
 7    1  0.1442703E-005  0.8805034E+02  0.7818608E-02  0.1486552E+00
          2   -1    0    0  502    0  0.00000000000E+00  0.00000000000E+00  0.12695594912E+04  0.12695594912E+04  0.00000000000E+00 0. -1.
          1   -1    0    0  501    0 -0.00000000000E+00 -0.00000000000E+00 -0.19247218021E+04  0.19247218021E+04  0.00000000000E+00 0. -1.
         25    2    1    2    0    0  0.25113076530E+02 -0.10223377570E+03 -0.10152914011E+04  0.10283600443E+04  0.12500136055E+03 0.  0.
          2    1    1    2  501    0  0.64887711940E+01  0.20076272235E+02 -0.90123873568E+03  0.90148567351E+03  0.00000000000E+00 0. -1.
          1    1    1    2  502    0 -0.31601847724E+02  0.82157503469E+02  0.12613678259E+04  0.12644355755E+04  0.00000000000E+00 0. -1.
         22    1    3    3    0    0  0.95490855658E+01  0.27040119339E+02 -0.29534382579E+03  0.29673275606E+03  0.00000000000E+00 0. -1.
         22    1    3    3    0    0  0.15563990964E+02 -0.12927389504E+03 -0.71994757530E+03  0.73162728826E+03  0.00000000000E+00 0. -1.
</event>
<event>
 7    1  0.6485470E-006  0.8082721E+02  0.7818608E-02  0.1367598E+00
          2   -1    0    0  502    0  0.00000000000E+00  0.00000000000E+00  0.34567315909E+03  0.34567315909E+03  0.00000000000E+00 0. -1.
          1   -1    0    0  501    0 -0.00000000000E+00 -0.00000000000E+00 -0.23573403680E+04  0.23573403680E+04  0.00000000000E+00 0. -1.
         25    2    1    2    0    0 -0.10597901681E+03  0.46004876556E+02 -0.76920366299E+02  0.18678875471E+03  0.12500118184E+03 0.  0.
          2    1    1    2  501    0  0.51344282628E+02 -0.62038675889E+02 -0.22219616279E+04  0.22234204525E+04  0.00000000000E+00 0. -1.
          1    1    1    2  502    0  0.54634734186E+02  0.16033799332E+02  0.28721478525E+03  0.29280431993E+03  0.00000000000E+00 0. -1.
         22    1    3    3    0    0 -0.89541184919E+02  0.85956435093E+02 -0.71517644805E+02  0.14325119912E+03  0.00000000000E+00 0. -1.
         22    1    3    3    0    0 -0.16437831895E+02 -0.39951558536E+02 -0.54027214947E+01  0.43537555586E+02  0.00000000000E+00 0. -1.
</event>
<event>
 7    1  0.6485470E-006  0.1154319E+03  0.7818608E-02  0.1263138E+00
          2   -1    0    0  502    0  0.00000000000E+00  0.00000000000E+00  0.21838496342E+03  0.21838496342E+03  0.00000000000E+00 0. -1.
          1   -1    0    0  501    0 -0.00000000000E+00 -0.00000000000E+00 -0.10506537828E+04  0.10506537828E+04  0.00000000000E+00 0. -1.
         25    2    1    2    0    0 -0.62271778798E+02 -0.11541576756E+02 -0.20716215544E+03  0.25010468446E+03  0.12500084845E+03 0.  0.
          2    1    1    2  501    0  0.15035252632E+02 -0.10110737243E+03 -0.79950436586E+03  0.80601240102E+03  0.00000000000E+00 0. -1.
          1    1    1    2  502    0  0.47236526166E+02  0.11264894919E+03  0.17439770194E+03  0.21292166071E+03  0.00000000000E+00 0. -1.
         22    1    3    3    0    0  0.22631660648E+01 -0.37166169553E+02 -0.16438517790E+03  0.16854949657E+03  0.00000000000E+00 0.  1.
         22    1    3    3    0    0 -0.64534944863E+02  0.25624592797E+02 -0.42776977534E+02  0.81555187888E+02  0.00000000000E+00 0.  1.
</event>
<event>
 7    1  0.6485470E-006  0.5897089E+02  0.7818608E-02  0.1411652E+00
          2   -1    0    0  502    0  0.00000000000E+00  0.00000000000E+00  0.98894149553E+03  0.98894149553E+03  0.00000000000E+00 0. -1.
          1   -1    0    0  501    0 -0.00000000000E+00 -0.00000000000E+00 -0.61633172245E+03  0.61633172245E+03  0.00000000000E+00 0. -1.
         25    2    1    2    0    0 -0.56024068703E+02  0.84279827946E+02  0.53639244087E+03  0.55998139737E+03  0.12498211516E+03 0.  0.
          2    1    1    2  501    0  0.50808763251E+02 -0.29768050910E+02 -0.60139269104E+03  0.60426884423E+03  0.00000000000E+00 0. -1.
          1    1    1    2  502    0  0.52153054523E+01 -0.54511777036E+02  0.43761002325E+03  0.44102297638E+03  0.00000000000E+00 0. -1.
         22    1    3    3    0    0 -0.63630235821E+01 -0.27009695850E+02  0.20541664035E+03  0.20728243503E+03  0.00000000000E+00 0.  1.
         22    1    3    3    0    0 -0.49661045121E+02  0.11128952380E+03  0.33097580051E+03  0.35269896234E+03  0.00000000000E+00 0.  1.
</event>
<event>
 7    1  0.6485470E-006  0.4975033E+02  0.7818608E-02  0.1454176E+00
          2   -1    0    0  502    0  0.00000000000E+00  0.00000000000E+00  0.19667828609E+03  0.19667828609E+03  0.00000000000E+00 0. -1.
          1   -1    0    0  501    0 -0.00000000000E+00 -0.00000000000E+00 -0.20604792463E+04  0.20604792463E+04  0.00000000000E+00 0. -1.
         25    2    1    2    0    0  0.53795198876E+01  0.79116974082E+02  0.15030060158E+02  0.14879332891E+03  0.12500046879E+03 0.  0.
          2    1    1    2  501    0  0.24856565247E+02 -0.43025171665E+02 -0.19884451288E+04  0.19890658724E+04  0.00000000000E+00 0. -1.
          1    1    1    2  502    0 -0.30236085134E+02 -0.36091802417E+02  0.10961410844E+03  0.11929833115E+03  0.00000000000E+00 0. -1.
         22    1    3    3    0    0  0.45618493638E+02 -0.13026154417E+02  0.31217308513E+01  0.47544430423E+02  0.00000000000E+00 0.  1.
         22    1    3    3    0    0 -0.40238973750E+02  0.92143128499E+02  0.11908329306E+02  0.10124889849E+03  0.00000000000E+00 0.  1.
</event>
<event>
 7    1  0.6485470E-006  0.1078669E+03  0.7818608E-02  0.1424043E+00
          2   -1    0    0  502    0  0.00000000000E+00  0.00000000000E+00  0.10752030446E+04  0.10752030446E+04  0.00000000000E+00 0. -1.
          1   -1    0    0  501    0 -0.00000000000E+00 -0.00000000000E+00 -0.87828180809E+03  0.87828180809E+03  0.00000000000E+00 0. -1.
         25    2    1    2    0    0 -0.19039225164E+02 -0.81569292903E+02  0.48811918722E+02  0.15819754999E+03  0.12501127859E+03 0.  0.
          2    1    1    2  501    0  0.12554723594E+02  0.10799363653E+03 -0.81980895965E+03  0.82698668486E+03  0.00000000000E+00 0. -1.
          1    1    1    2  502    0  0.64845015698E+01 -0.26424343627E+02  0.96791827743E+03  0.96830061782E+03  0.00000000000E+00 0. -1.
         22    1    3    3    0    0 -0.13726192346E+02 -0.71185638034E+02 -0.30049754251E+02  0.78477966011E+02  0.00000000000E+00 0.  1.
         22    1    3    3    0    0 -0.53130328181E+01 -0.10383654869E+02  0.78861672973E+02  0.79719583982E+02  0.00000000000E+00 0.  1.
</event>
<event>
 7    1  0.6485470E-006  0.1741169E+03  0.7818608E-02  0.1223729E+00
          2   -1    0    0  502    0  0.00000000000E+00  0.00000000000E+00  0.24824376479E+04  0.24824376479E+04  0.00000000000E+00 0. -1.
          1   -1    0    0  501    0 -0.00000000000E+00 -0.00000000000E+00 -0.29232685395E+03  0.29232685395E+03  0.00000000000E+00 0. -1.
         25    2    1    2    0    0  0.10899094198E+03 -0.52259052991E+02  0.11938545665E+04  0.12064511338E+04  0.12500231299E+03 0.  0.
          2    1    1    2  501    0 -0.17400683199E+03 -0.24897665642E+02 -0.25680166720E+03  0.31119988369E+03  0.00000000000E+00 0. -1.
          1    1    1    2  502    0  0.65015890002E+02  0.77156718633E+02  0.12530578946E+04  0.12571134843E+04  0.00000000000E+00 0. -1.
         22    1    3    3    0    0  0.80473842858E+02 -0.30928129635E+02  0.11304280929E+04  0.11337108370E+04  0.00000000000E+00 0. -1.
         22    1    3    3    0    0  0.28517099127E+02 -0.21330923356E+02  0.63426473586E+02  0.72740296847E+02  0.00000000000E+00 0. -1.
</event>
<event>
 7    1  0.6485470E-006  0.8030337E+02  0.7818608E-02  0.1415696E+00
          2   -1    0    0  502    0  0.00000000000E+00  0.00000000000E+00  0.20233031295E+03  0.20233031295E+03  0.00000000000E+00 0. -1.
          1   -1    0    0  501    0 -0.00000000000E+00 -0.00000000000E+00 -0.78663620804E+03  0.78663620804E+03  0.00000000000E+00 0. -1.
         25    2    1    2    0    0  0.39163764572E+02  0.63404759895E+02 -0.13967252416E+03  0.20171482290E+03  0.12500596682E+03 0.  0.
          2    1    1    2  501    0 -0.34772853152E+02  0.17595492573E+02 -0.60567807720E+03  0.60693054453E+03  0.00000000000E+00 0. -1.
          1    1    1    2  502    0 -0.43909114200E+01 -0.81000252468E+02  0.16104470628E+03  0.18032115356E+03  0.00000000000E+00 0. -1.
         22    1    3    3    0    0 -0.38780965728E+02  0.48526429165E+02 -0.38296326689E+02  0.72975244215E+02  0.00000000000E+00 0.  1.
         22    1    3    3    0    0  0.77944730300E+02  0.14878330730E+02 -0.10137619747E+03  0.12873957868E+03  0.00000000000E+00 0.  1.
</event>
<event>
 7    1  0.6485470E-006  0.1157439E+03  0.7818608E-02  0.1313537E+00
          2   -1    0    0  502    0  0.00000000000E+00  0.00000000000E+00  0.72720334188E+03  0.72720334188E+03  0.00000000000E+00 0. -1.
          1   -1    0    0  501    0 -0.00000000000E+00 -0.00000000000E+00 -0.53999465227E+03  0.53999465227E+03  0.00000000000E+00 0. -1.
         25    2    1    2    0    0  0.12086434462E+03 -0.38197884867E+02 -0.77162973169E+02  0.19402667066E+03  0.12499982516E+03 0.  0.
          2    1    1    2  501    0 -0.76175200006E+01  0.63038907904E+02 -0.39683191827E+03  0.40187995954E+03  0.00000000000E+00 0. -1.
          1    1    1    2  502    0 -0.11324682462E+03 -0.24841023036E+02  0.66120358106E+03  0.67129136395E+03  0.00000000000E+00 0. -1.
         22    1    3    3    0    0 -0.22210296252E+02 -0.12191096813E+01 -0.32992290511E+02  0.39790384783E+02  0.00000000000E+00 0.  1.
         22    1    3    3    0    0  0.14307464087E+03 -0.36978775186E+02 -0.44170682658E+02  0.15423628588E+03  0.00000000000E+00 0.  1.
</event>
<event>
 7    1  0.6485470E-006  0.5327257E+02  0.7818608E-02  0.1507395E+00
          2   -1    0    0  502    0  0.00000000000E+00  0.00000000000E+00  0.60455825100E+03  0.60455825100E+03  0.00000000000E+00 0. -1.
          1   -1    0    0  501    0 -0.00000000000E+00 -0.00000000000E+00 -0.54913023747E+03  0.54913023747E+03  0.00000000000E+00 0. -1.
         25    2    1    2    0    0 -0.39764442592E+01  0.24154040341E+02  0.33048232851E+02  0.13160158207E+03  0.12501024332E+03 0.  0.
          2    1    1    2  501    0  0.19168825060E+02 -0.50256093976E+02 -0.49796745016E+03  0.50086395383E+03  0.00000000000E+00 0. -1.
          1    1    1    2  502    0 -0.15192380801E+02  0.26102053634E+02  0.52034723083E+03  0.52122295256E+03  0.00000000000E+00 0. -1.
         22    1    3    3    0    0  0.33476501120E+02 -0.64289873823E+01  0.65172998012E+02  0.73549491336E+02  0.00000000000E+00 0. -1.
         22    1    3    3    0    0 -0.37452945379E+02  0.30583027724E+02 -0.32124765160E+02  0.58052090737E+02  0.00000000000E+00 0. -1.
</event>
<event>
 7    1  0.6485470E-006  0.2167739E+03  0.7818608E-02  0.1296878E+00
          2   -1    0    0  502    0  0.00000000000E+00  0.00000000000E+00  0.28653628496E+04  0.28653628496E+04  0.00000000000E+00 0. -1.
          1   -1    0    0  501    0 -0.00000000000E+00 -0.00000000000E+00 -0.81979677598E+03  0.81979677598E+03  0.00000000000E+00 0. -1.
         25    2    1    2    0    0 -0.12572250822E+03 -0.22192272596E+03 -0.43689237483E+03  0.52110995109E+03  0.12499915426E+03 0.  0.
          2    1    1    2  501    0  0.25686127045E+02  0.29983926995E+02 -0.33548791920E+03  0.33780313339E+03  0.00000000000E+00 0. -1.
          1    1    1    2  502    0  0.10003638118E+03  0.19193879896E+03  0.28179463677E+04  0.28262465411E+04  0.00000000000E+00 0. -1.
         22    1    3    3    0    0 -0.96604495465E+02 -0.23133366386E+03 -0.40892840666E+03  0.47965626687E+03  0.00000000000E+00 0.  1.
         22    1    3    3    0    0 -0.29118012757E+02  0.94109378997E+01 -0.27963968172E+02  0.41453684214E+02  0.00000000000E+00 0.  1.
</event>
<event>
 7    1  0.6485470E-006  0.6262042E+02  0.7818608E-02  0.1409271E+00
          2   -1    0    0  502    0  0.00000000000E+00  0.00000000000E+00  0.48324674918E+03  0.48324674918E+03  0.00000000000E+00 0. -1.
          1   -1    0    0  501    0 -0.00000000000E+00 -0.00000000000E+00 -0.38019592849E+02  0.38019592849E+02  0.00000000000E+00 0. -1.
         25    2    1    2    0    0  0.59488156575E+02  0.71868059530E+02  0.29402277711E+03  0.33283233448E+03  0.12499644260E+03 0.  0.
          2    1    1    2  501    0 -0.10416072546E+02 -0.53108898679E+02  0.10645844061E+03  0.11942549671E+03  0.00000000000E+00 0. -1.
          1    1    1    2  502    0 -0.49072084029E+02 -0.18759160851E+02  0.44745938608E+02  0.69008510843E+02  0.00000000000E+00 0. -1.
         22    1    3    3    0    0  0.32653521050E+02  0.10519270046E+03  0.23876984985E+03  0.26295018134E+03  0.00000000000E+00 0. -1.
         22    1    3    3    0    0  0.26834635525E+02 -0.33324640931E+02  0.55252927257E+02  0.69882153139E+02  0.00000000000E+00 0. -1.
</event>
<event>
 7    1  0.6485470E-006  0.9958601E+02  0.7818608E-02  0.1353261E+00
          2   -1    0    0  502    0  0.00000000000E+00  0.00000000000E+00  0.77373306494E+03  0.77373306494E+03  0.00000000000E+00 0. -1.
          1   -1    0    0  501    0 -0.00000000000E+00 -0.00000000000E+00 -0.55103845166E+03  0.55103845166E+03  0.00000000000E+00 0. -1.
         25    2    1    2    0    0  0.82626356072E+02 -0.12430209158E+03  0.39205174451E+02  0.19859627368E+03  0.12500123811E+03 0.  0.
          2    1    1    2  501    0 -0.31844284162E+02  0.41268585592E+02 -0.46626579616E+03  0.46917048848E+03  0.00000000000E+00 0. -1.
          1    1    1    2  502    0 -0.50782071910E+02  0.83033505985E+02  0.64975523499E+03  0.65700475443E+03  0.00000000000E+00 0. -1.
         22    1    3    3    0    0  0.10730083071E+02 -0.11288901858E+03 -0.48597684469E+01  0.11350190548E+03  0.00000000000E+00 0.  1.
         22    1    3    3    0    0  0.71896273001E+02 -0.11413072994E+02  0.44064942898E+02  0.85094368199E+02  0.00000000000E+00 0.  1.
</event>
<event>
 7    1  0.6485470E-006  0.3185019E+02  0.7818608E-02  0.1606705E+00
          2   -1    0    0  502    0  0.00000000000E+00  0.00000000000E+00  0.52696657676E+03  0.52696657676E+03  0.00000000000E+00 0. -1.
          1   -1    0    0  501    0 -0.00000000000E+00 -0.00000000000E+00 -0.27151445231E+03  0.27151445231E+03  0.00000000000E+00 0. -1.
         25    2    1    2    0    0  0.55698553342E+02 -0.83753085408E+01 -0.18442919760E+03  0.22980735847E+03  0.12499927376E+03 0.  0.
          2    1    1    2  501    0 -0.26501388801E+02 -0.42126535990E+01 -0.61074660016E+02  0.66709700605E+02  0.00000000000E+00 0. -1.
          1    1    1    2  502    0 -0.29197164541E+02  0.12587962140E+02  0.50095598206E+03  0.50196396999E+03  0.00000000000E+00 0. -1.
         22    1    3    3    0    0  0.61817108383E+02  0.49287260696E+02 -0.10963596407E+03  0.13516890757E+03  0.00000000000E+00 0. -1.
         22    1    3    3    0    0 -0.61185550413E+01 -0.57662569237E+02 -0.74793233533E+02  0.94638450902E+02  0.00000000000E+00 0. -1.
</event>
<event>
 7    1  0.6485470E-006  0.7614992E+02  0.7818608E-02  0.1493044E+00
          2   -1    0    0  502    0  0.00000000000E+00  0.00000000000E+00  0.43226105683E+03  0.43226105683E+03  0.00000000000E+00 0. -1.
          1   -1    0    0  501    0 -0.00000000000E+00 -0.00000000000E+00 -0.36317099070E+03  0.36317099070E+03  0.00000000000E+00 0. -1.
         25    2    1    2    0    0  0.10533796886E+01  0.77223379532E+02 -0.11029346779E+03  0.18372933638E+03  0.12500903990E+03 0.  0.
          2    1    1    2  501    0 -0.23921338595E+02 -0.72668560995E+02 -0.20902974717E+03  0.22259017364E+03  0.00000000000E+00 0. -1.
          1    1    1    2  502    0  0.22867958907E+02 -0.45548185368E+01  0.38841328109E+03  0.38911253750E+03  0.00000000000E+00 0. -1.
         22    1    3    3    0    0  0.28960939021E+02  0.41018723612E+02  0.13307832642E+02  0.51945837998E+02  0.00000000000E+00 0. -1.
         22    1    3    3    0    0 -0.27907559333E+02  0.36204655921E+02 -0.12360130043E+03  0.13178349838E+03  0.00000000000E+00 0. -1.
</event>
<event>
 7    1  0.6485470E-006  0.4177592E+02  0.7818608E-02  0.1554583E+00
          2   -1    0    0  502    0  0.00000000000E+00  0.00000000000E+00  0.72651272358E+03  0.72651272358E+03  0.00000000000E+00 0. -1.
          1   -1    0    0  501    0 -0.00000000000E+00 -0.00000000000E+00 -0.13192967487E+03  0.13192967487E+03  0.00000000000E+00 0. -1.
         25    2    1    2    0    0  0.20297326096E+02  0.12496332626E+02 -0.27845511025E+02  0.13027807002E+03  0.12501545212E+03 0.  0.
          2    1    1    2  501    0 -0.70437533177E+01  0.27326855530E+02 -0.48398884003E+02  0.56025203852E+02  0.00000000000E+00 0. -1.
          1    1    1    2  502    0 -0.13253572778E+02 -0.39823188156E+02  0.67082744375E+03  0.67213912458E+03  0.00000000000E+00 0. -1.
         22    1    3    3    0    0  0.29884896322E+02  0.66242484303E+02 -0.16175916233E+02  0.74450211691E+02  0.00000000000E+00 0.  1.
         22    1    3    3    0    0 -0.95875702261E+01 -0.53746151677E+02 -0.11669594792E+02  0.55827858328E+02  0.00000000000E+00 0.  1.
</event>
<event>
 7    1  0.6485470E-006  0.5742270E+02  0.7818608E-02  0.1519474E+00
          2   -1    0    0  502    0  0.00000000000E+00  0.00000000000E+00  0.79839692055E+03  0.79839692055E+03  0.00000000000E+00 0. -1.
          1   -1    0    0  501    0 -0.00000000000E+00 -0.00000000000E+00 -0.80305928331E+03  0.80305928331E+03  0.00000000000E+00 0. -1.
         25    2    1    2    0    0 -0.40994843942E+02  0.24562156036E+02  0.69438318863E+02  0.15076833447E+03  0.12500213524E+03 0.  0.
          2    1    1    2  501    0  0.57382232877E+02 -0.46013015666E+01 -0.76106461415E+03  0.76323865176E+03  0.00000000000E+00 0. -1.
          1    1    1    2  502    0 -0.16387388935E+02 -0.19960854469E+02  0.68696393252E+03  0.68744921763E+03  0.00000000000E+00 0. -1.
         22    1    3    3    0    0  0.40895754878E+02 -0.73871430572E+01  0.41004690290E+02  0.58381651872E+02  0.00000000000E+00 0.  1.
         22    1    3    3    0    0 -0.81890598820E+02  0.31949299093E+02  0.28433628573E+02  0.92386682598E+02  0.00000000000E+00 0.  1.
</event>
<event>
 7    1  0.6485470E-006  0.5889983E+02  0.7818608E-02  0.1455977E+00
          2   -1    0    0  502    0  0.00000000000E+00  0.00000000000E+00  0.85022545270E+03  0.85022545270E+03  0.00000000000E+00 0. -1.
          1   -1    0    0  501    0 -0.00000000000E+00 -0.00000000000E+00 -0.21347240763E+04  0.21347240763E+04  0.00000000000E+00 0. -1.
         25    2    1    2    0    0  0.88457838891E+02  0.66798835889E+00 -0.16631682171E+03  0.22607398956E+03  0.12499171213E+03 0.  0.
          2    1    1    2  501    0 -0.33568801688E+02  0.20337474347E+02 -0.19372770273E+04  0.19376745748E+04  0.00000000000E+00 0. -1.
          1    1    1    2  502    0 -0.54889037203E+02 -0.21005462706E+02  0.81909522546E+03  0.82120096459E+03  0.00000000000E+00 0. -1.
         22    1    3    3    0    0 -0.35967232144E+01  0.29488576238E+02  0.43595471221E+01  0.30025292631E+02  0.00000000000E+00 0. -1.
         22    1    3    3    0    0  0.92054562105E+02 -0.28820587879E+02 -0.17067636883E+03  0.19604869693E+03  0.00000000000E+00 0. -1.
</event>
<event>
 7    1  0.6485470E-006  0.8065371E+02  0.7818608E-02  0.1401996E+00
          2   -1    0    0  502    0  0.00000000000E+00  0.00000000000E+00  0.11613728403E+04  0.11613728403E+04  0.00000000000E+00 0. -1.
          1   -1    0    0  501    0 -0.00000000000E+00 -0.00000000000E+00 -0.33920152289E+03  0.33920152289E+03  0.00000000000E+00 0. -1.
         25    2    1    2    0    0  0.16963387571E+02 -0.74649605361E+02 -0.20501473649E+03  0.25202702320E+03  0.12500503248E+03 0.  0.
          2    1    1    2  501    0 -0.43152489291E+02 -0.17367295290E+01 -0.10497420466E+03  0.11351095632E+03  0.00000000000E+00 0. -1.
          1    1    1    2  502    0  0.26189101719E+02  0.76386334890E+02  0.11321602585E+04  0.11350363836E+04  0.00000000000E+00 0. -1.
         22    1    3    3    0    0  0.60851826066E+01 -0.39711524147E+02  0.34986928877E+01  0.40327105641E+02  0.00000000000E+00 0. -1.
         22    1    3    3    0    0  0.10878204965E+02 -0.34938081214E+02 -0.20851342938E+03  0.21169991756E+03  0.00000000000E+00 0. -1.
</event>
<event>
 7    1  0.6485470E-006  0.6754816E+02  0.7818608E-02  0.1384006E+00
          2   -1    0    0  502    0  0.00000000000E+00  0.00000000000E+00  0.15178377965E+04  0.15178377965E+04  0.00000000000E+00 0. -1.
          1   -1    0    0  501    0 -0.00000000000E+00 -0.00000000000E+00 -0.35049835328E+02  0.35049835328E+02  0.00000000000E+00 0. -1.
         25    2    1    2    0    0 -0.11074044625E+03  0.41918440714E+02  0.42597804633E+03  0.45946032254E+03  0.12500355963E+03 0.  0.
          2    1    1    2  501    0  0.51831254157E+02 -0.33215836525E+02  0.36884819764E+02  0.71765316362E+02  0.00000000000E+00 0. -1.
          1    1    1    2  502    0  0.58909192093E+02 -0.87026041890E+01  0.10199250951E+04  0.10216619930E+04  0.00000000000E+00 0. -1.
         22    1    3    3    0    0 -0.10713282820E+03  0.11905433916E+02  0.41252031847E+03  0.42637095983E+03  0.00000000000E+00 0.  1.
         22    1    3    3    0    0 -0.36076180467E+01  0.30013006798E+02  0.13457727861E+02  0.33089362705E+02  0.00000000000E+00 0.  1.
</event>
<event>
 7    1  0.6485470E-006  0.4698609E+02  0.7818608E-02  0.1470182E+00
          2   -1    0    0  502    0  0.00000000000E+00  0.00000000000E+00  0.15643704387E+02  0.15643704387E+02  0.00000000000E+00 0. -1.
          1   -1    0    0  501    0 -0.00000000000E+00 -0.00000000000E+00 -0.13527853209E+04  0.13527853209E+04  0.00000000000E+00 0. -1.
         25    2    1    2    0    0 -0.48389939901E+01  0.22073947038E+02 -0.49279231987E+03  0.50889894550E+03  0.12499276462E+03 0.  0.
          2    1    1    2  501    0  0.48558402504E+02 -0.14345869001E+02 -0.77830462664E+03  0.77994987932E+03  0.00000000000E+00 0. -1.
          1    1    1    2  502    0 -0.43719408513E+02 -0.77280780371E+01 -0.66044670048E+02  0.79580200507E+02  0.00000000000E+00 0. -1.
         22    1    3    3    0    0  0.29826563415E+02 -0.11591843290E+02 -0.30893306363E+02  0.44479108512E+02  0.00000000000E+00 0.  1.
         22    1    3    3    0    0 -0.34665557406E+02  0.33665790328E+02 -0.46189901351E+03  0.46441983699E+03  0.00000000000E+00 0.  1.
</event>
<event>
 7    1  0.6485470E-006  0.4224572E+02  0.7818608E-02  0.1503027E+00
          2   -1    0    0  502    0  0.00000000000E+00  0.00000000000E+00  0.22726134142E+03  0.22726134142E+03  0.00000000000E+00 0. -1.
          1   -1    0    0  501    0 -0.00000000000E+00 -0.00000000000E+00 -0.46283875757E+03  0.46283875757E+03  0.00000000000E+00 0. -1.
         25    2    1    2    0    0 -0.79505995638E+01 -0.10886587591E+01  0.11091348384E+03  0.16730283661E+03  0.12499616405E+03 0.  0.
          2    1    1    2  501    0  0.25658697121E+02 -0.33924651508E+02 -0.42917403949E+03  0.43127671731E+03  0.00000000000E+00 0. -1.
          1    1    1    2  502    0 -0.17708097557E+02  0.35013310267E+02  0.82683139498E+02  0.91520545083E+02  0.00000000000E+00 0. -1.
         22    1    3    3    0    0 -0.25028759999E+02 -0.52639442530E+02  0.20410791880E+02  0.61757187130E+02  0.00000000000E+00 0.  1.
         22    1    3    3    0    0  0.17078160435E+02  0.51550783771E+02  0.90502691962E+02  0.10554564948E+03  0.00000000000E+00 0.  1.
</event>
<event>
 7    1  0.6485470E-006  0.9030207E+02  0.7818608E-02  0.1354075E+00
          2   -1    0    0  502    0  0.00000000000E+00  0.00000000000E+00  0.42990035069E+02  0.42990035069E+02  0.00000000000E+00 0. -1.
          1   -1    0    0  501    0 -0.00000000000E+00 -0.00000000000E+00 -0.22588341934E+04  0.22588341934E+04  0.00000000000E+00 0. -1.
         25    2    1    2    0    0  0.29072941671E+02 -0.13286282427E+03 -0.42801004377E+03  0.46617043153E+03  0.12499803058E+03 0.  0.
          2    1    1    2  501    0  0.59467447054E+01  0.87775523590E+02 -0.17749490209E+04  0.17771280013E+04  0.00000000000E+00 0. -1.
          1    1    1    2  502    0 -0.35019686377E+02  0.45087300681E+02 -0.12885093691E+02  0.58525795646E+02  0.00000000000E+00 0. -1.
         22    1    3    3    0    0  0.52628476124E+02 -0.14759863131E+03 -0.35472241094E+03  0.38779260087E+03  0.00000000000E+00 0.  1.
         22    1    3    3    0    0 -0.23555534453E+02  0.14735807042E+02 -0.73287632833E+02  0.78377830659E+02  0.00000000000E+00 0.  1.
</event>
<event>
 7    1  0.6485470E-006  0.1160294E+03  0.7818608E-02  0.1421686E+00
          2   -1    0    0  502    0  0.00000000000E+00  0.00000000000E+00  0.93977555399E+02  0.93977555399E+02  0.00000000000E+00 0. -1.
          1   -1    0    0  501    0 -0.00000000000E+00 -0.00000000000E+00 -0.89832199553E+03  0.89832199553E+03  0.00000000000E+00 0. -1.
         25    2    1    2    0    0  0.12068687555E+03 -0.41902169260E+02 -0.67127964559E+02  0.19092367004E+03  0.12499828174E+03 0.  0.
          2    1    1    2  501    0 -0.10008008108E+03  0.57351619824E+02 -0.75895651638E+03  0.76767195122E+03  0.00000000000E+00 0. -1.
          1    1    1    2  502    0 -0.20606794473E+02 -0.15449450564E+02  0.21740040807E+02  0.33703929673E+02  0.00000000000E+00 0. -1.
         22    1    3    3    0    0  0.10820790322E+03 -0.53828669177E+02 -0.97970944330E+02  0.15557886064E+03  0.00000000000E+00 0. -1.
         22    1    3    3    0    0  0.12478972327E+02  0.11926499917E+02  0.30842979771E+02  0.35344809403E+02  0.00000000000E+00 0. -1.
</event>
<event>
 7    1  0.6485470E-006  0.1005791E+03  0.7818608E-02  0.1371569E+00
          2   -1    0    0  502    0  0.00000000000E+00  0.00000000000E+00  0.10768346540E+04  0.10768346540E+04  0.00000000000E+00 0. -1.
          1   -1    0    0  501    0 -0.00000000000E+00 -0.00000000000E+00 -0.84843419369E+02  0.84843419369E+02  0.00000000000E+00 0. -1.
         25    2    1    2    0    0  0.33260214566E+02  0.52486125770E+02  0.31758440491E+03  0.34690855971E+03  0.12499863713E+03 0.  0.
          2    1    1    2  501    0 -0.44802855270E+02 -0.95231721029E+02 -0.29634731974E+02  0.10933706540E+03  0.00000000000E+00 0. -1.
          1    1    1    2  502    0  0.11542640704E+02  0.42745595259E+02  0.70404156168E+03  0.70543244825E+03  0.00000000000E+00 0. -1.
         22    1    3    3    0    0  0.70830119264E+02  0.17034377713E+02  0.10277355030E+03  0.12597411822E+03  0.00000000000E+00 0. -1.
         22    1    3    3    0    0 -0.37569904698E+02  0.35451748057E+02  0.21481085461E+03  0.22093444149E+03  0.00000000000E+00 0. -1.
</event>
<event>
 7    1  0.6485470E-006  0.1382558E+03  0.7818608E-02  0.1262581E+00
          2   -1    0    0  502    0  0.00000000000E+00  0.00000000000E+00  0.30913984789E+04  0.30913984789E+04  0.00000000000E+00 0. -1.
          1   -1    0    0  501    0 -0.00000000000E+00 -0.00000000000E+00 -0.30678856431E+02  0.30678856431E+02  0.00000000000E+00 0. -1.
         25    2    1    2    0    0 -0.71170376016E+02  0.46938938336E+02  0.94288865771E+03  0.95495124353E+03  0.12499748134E+03 0.  0.
          2    1    1    2  501    0  0.15285893007E+03 -0.20662359059E+02  0.22757818316E+03  0.27492656299E+03  0.00000000000E+00 0. -1.
          1    1    1    2  502    0 -0.81688554057E+02 -0.26276579276E+02  0.18902527816E+04  0.18921995288E+04  0.00000000000E+00 0. -1.
         22    1    3    3    0    0 -0.19340370778E+02  0.38589491350E+02  0.82228081708E+03  0.82341298321E+03  0.00000000000E+00 0.  1.
         22    1    3    3    0    0 -0.51830005238E+02  0.83494469859E+01  0.12060784063E+03  0.13153826032E+03  0.00000000000E+00 0.  1.
</event>
<event>
 7    1  0.6485470E-006  0.1376722E+03  0.7818608E-02  0.1336930E+00
          2   -1    0    0  502    0  0.00000000000E+00  0.00000000000E+00  0.10922008683E+04  0.10922008683E+04  0.00000000000E+00 0. -1.
          1   -1    0    0  501    0 -0.00000000000E+00 -0.00000000000E+00 -0.56716107037E+03  0.56716107037E+03  0.00000000000E+00 0. -1.
         25    2    1    2    0    0  0.44610871313E+02  0.10046950053E+03  0.37654557274E+03  0.41169903383E+03  0.12500110292E+03 0.  0.
          2    1    1    2  501    0  0.31792045821E+02  0.29526522852E+02 -0.54056245885E+03  0.54230095118E+03  0.00000000000E+00 0. -1.
          1    1    1    2  502    0 -0.76402917134E+02 -0.12999602338E+03  0.68905668404E+03  0.70536195365E+03  0.00000000000E+00 0. -1.
         22    1    3    3    0    0  0.27452875266E+01  0.91338162430E+02  0.34898700769E+03  0.36075216986E+03  0.00000000000E+00 0.  1.
         22    1    3    3    0    0  0.41865583787E+02  0.91313380998E+01  0.27558565051E+02  0.50946863976E+02  0.00000000000E+00 0.  1.
</event>
<event>
 7    1  0.6485470E-006  0.2240176E+03  0.7818608E-02  0.1332404E+00
          2   -1    0    0  502    0  0.00000000000E+00  0.00000000000E+00  0.14505248158E+04  0.14505248158E+04  0.00000000000E+00 0. -1.
          1   -1    0    0  501    0 -0.00000000000E+00 -0.00000000000E+00 -0.46840410330E+03  0.46840410330E+03  0.00000000000E+00 0. -1.
         25    2    1    2    0    0  0.12810641272E+03  0.16705396311E+03 -0.14045389218E+03  0.28225916309E+03  0.12499863899E+03 0.  0.
          2    1    1    2  501    0 -0.15417163119E+03 -0.17654597872E+03 -0.20344121062E+03  0.31036381980E+03  0.00000000000E+00 0. -1.
          1    1    1    2  502    0  0.26065218473E+02  0.94920156012E+01  0.13260158153E+04  0.13263059362E+04  0.00000000000E+00 0. -1.
         22    1    3    3    0    0  0.74951759751E+02  0.12892564714E+03 -0.15516386223E+03  0.21521015989E+03  0.00000000000E+00 0.  1.
         22    1    3    3    0    0  0.53154652970E+02  0.38128315974E+02  0.14709970045E+02  0.67049003200E+02  0.00000000000E+00 0.  1.
</event>
<event>
 7    1  0.6485470E-006  0.3979546E+02  0.7818608E-02  0.1577902E+00
          2   -1    0    0  502    0  0.00000000000E+00  0.00000000000E+00  0.20492186200E+04  0.20492186200E+04  0.00000000000E+00 0. -1.
          1   -1    0    0  501    0 -0.00000000000E+00 -0.00000000000E+00 -0.37424870807E+02  0.37424870807E+02  0.00000000000E+00 0. -1.
         25    2    1    2    0    0 -0.23397139772E+02 -0.57089061524E+02  0.44250761089E+03  0.46394227873E+03  0.12499146051E+03 0.  0.
          2    1    1    2  501    0 -0.16499114187E+00  0.25584155909E+02 -0.20280541311E+02  0.32647765796E+02  0.00000000000E+00 0. -1.
          1    1    1    2  502    0  0.23562130914E+02  0.31504905615E+02  0.15895666796E+04  0.15900534463E+04  0.00000000000E+00 0. -1.
         22    1    3    3    0    0 -0.64304144704E+02 -0.10840098374E+02  0.32200687430E+03  0.32854369246E+03  0.00000000000E+00 0.  1.
         22    1    3    3    0    0  0.40907004932E+02 -0.46248963149E+02  0.12050073659E+03  0.13539858627E+03  0.00000000000E+00 0.  1.
</event>
<event>
 7    1  0.6485470E-006  0.2587798E+02  0.7818608E-02  0.1658865E+00
          2   -1    0    0  502    0  0.00000000000E+00  0.00000000000E+00  0.39592026215E+03  0.39592026215E+03  0.00000000000E+00 0. -1.
          1   -1    0    0  501    0 -0.00000000000E+00 -0.00000000000E+00 -0.26260994810E+02  0.26260994810E+02  0.00000000000E+00 0. -1.
         25    2    1    2    0    0 -0.37332747833E+01  0.11736347757E+02  0.21653087357E+03  0.25032621794E+03  0.12500366785E+03 0.  0.
          2    1    1    2  501    0 -0.25872304877E+02  0.54189336256E+00  0.12943749294E+03  0.13199899389E+03  0.00000000000E+00 0. -1.
          1    1    1    2  502    0  0.29605579661E+02 -0.12278241120E+02  0.23690900830E+02  0.39856045140E+02  0.00000000000E+00 0. -1.
         22    1    3    3    0    0 -0.53261247720E+02 -0.16540247683E+02  0.16234744628E+03  0.17165964469E+03  0.00000000000E+00 0. -1.
         22    1    3    3    0    0  0.49527972937E+02  0.28276595439E+02  0.54183427291E+02  0.78666573244E+02  0.00000000000E+00 0. -1.
</event>
<event>
 7    1  0.6485470E-006  0.4131821E+02  0.7818608E-02  0.1506851E+00
          2   -1    0    0  502    0  0.00000000000E+00  0.00000000000E+00  0.27075426230E+03  0.27075426230E+03  0.00000000000E+00 0. -1.
          1   -1    0    0  501    0 -0.00000000000E+00 -0.00000000000E+00 -0.43724623588E+03  0.43724623588E+03  0.00000000000E+00 0. -1.
         25    2    1    2    0    0  0.54822853905E+02  0.54803031604E+01 -0.23594338690E+02  0.13862643110E+03  0.12500006219E+03 0.  0.
          2    1    1    2  501    0 -0.31978194683E+02  0.26231856679E+02 -0.35312778167E+03  0.35554176327E+03  0.00000000000E+00 0. -1.
          1    1    1    2  502    0 -0.22844659222E+02 -0.31712159840E+02  0.21023014678E+03  0.21383230381E+03  0.00000000000E+00 0. -1.
         22    1    3    3    0    0 -0.31852550577E+02 -0.20922395500E+02  0.13903069458E+02  0.40566327811E+02  0.00000000000E+00 0.  1.
         22    1    3    3    0    0  0.86675404482E+02  0.26402698661E+02 -0.37497408147E+02  0.98060103286E+02  0.00000000000E+00 0.  1.
</event>
<event>
 7    1  0.6485470E-006  0.1669907E+03  0.7818608E-02  0.1327254E+00
          2   -1    0    0  502    0  0.00000000000E+00  0.00000000000E+00  0.15951010908E+04  0.15951010908E+04  0.00000000000E+00 0. -1.
          1   -1    0    0  501    0 -0.00000000000E+00 -0.00000000000E+00 -0.30550301422E+03  0.30550301422E+03  0.00000000000E+00 0. -1.
         25    2    1    2    0    0 -0.15123331374E+03 -0.11045503623E+03 -0.24279395865E+02  0.22645910183E+03  0.12498962166E+03 0.  0.
          2    1    1    2  501    0  0.14319134550E+03  0.72356431976E+02 -0.14409984781E+03  0.21564781662E+03  0.00000000000E+00 0. -1.
          1    1    1    2  502    0  0.80419682475E+01  0.38098604254E+02  0.14579773203E+04  0.14584971866E+04  0.00000000000E+00 0. -1.
         22    1    3    3    0    0 -0.10742557780E+03 -0.70389269388E+02  0.44203336003E+02  0.13582650303E+03  0.00000000000E+00 0. -1.
         22    1    3    3    0    0 -0.43807735944E+02 -0.40065766842E+02 -0.68482731868E+02  0.90632598800E+02  0.00000000000E+00 0. -1.
</event>
<event>
 7    1  0.6485470E-006  0.3709974E+02  0.7818608E-02  0.1541574E+00
          2   -1    0    0  502    0  0.00000000000E+00  0.00000000000E+00  0.21427536358E+04  0.21427536358E+04  0.00000000000E+00 0. -1.
          1   -1    0    0  501    0 -0.00000000000E+00 -0.00000000000E+00 -0.12309089682E+02  0.12309089682E+02  0.00000000000E+00 0. -1.
         25    2    1    2    0    0 -0.40939881546E+01 -0.19840761736E+02  0.76843921002E+03  0.77880569494E+03  0.12501629657E+03 0.  0.
          2    1    1    2  501    0 -0.33158480257E+02  0.97197702791E+01  0.36763500278E+02  0.50453084147E+02  0.00000000000E+00 0. -1.
          1    1    1    2  502    0  0.37252468412E+02  0.10120991457E+02  0.13252418358E+04  0.13258039464E+04  0.00000000000E+00 0. -1.
         22    1    3    3    0    0  0.39576247671E+02  0.21557851848E+02  0.13105411426E+03  0.13858643953E+03  0.00000000000E+00 0.  1.
         22    1    3    3    0    0 -0.43670235826E+02 -0.41398613584E+02  0.63738509576E+03  0.64021925541E+03  0.00000000000E+00 0.  1.
</event>
<event>
 7    1  0.6485470E-006  0.1007249E+03  0.7818608E-02  0.1389625E+00
          2   -1    0    0  502    0  0.00000000000E+00  0.00000000000E+00  0.35189159951E+04  0.35189159951E+04  0.00000000000E+00 0. -1.
          1   -1    0    0  501    0 -0.00000000000E+00 -0.00000000000E+00 -0.18345486039E+03  0.18345486039E+03  0.00000000000E+00 0. -1.
         25    2    1    2    0    0 -0.12951481074E+03  0.46152870588E+02  0.89273167711E+03  0.91186740620E+03  0.12501258145E+03 0.  0.
          2    1    1    2  501    0  0.96363870804E+02 -0.27246329420E+02 -0.15931753560E+03  0.18817660644E+03  0.00000000000E+00 0. -1.
          1    1    1    2  502    0  0.33150939936E+02 -0.18906541169E+02  0.26020469932E+04  0.26023268428E+04  0.00000000000E+00 0. -1.
         22    1    3    3    0    0 -0.24546449214E+02  0.57645567427E+02  0.16464681894E+03  0.17616502094E+03  0.00000000000E+00 0.  1.
         22    1    3    3    0    0 -0.10496836153E+03 -0.11492696839E+02  0.72808485816E+03  0.73570238527E+03  0.00000000000E+00 0.  1.
</event>
<event>
 7    1  0.6485470E-006  0.1053281E+03  0.7818608E-02  0.1275348E+00
          2   -1    0    0  502    0  0.00000000000E+00  0.00000000000E+00  0.10687628389E+04  0.10687628389E+04  0.00000000000E+00 0. -1.
          1   -1    0    0  501    0 -0.00000000000E+00 -0.00000000000E+00 -0.47868681647E+03  0.47868681647E+03  0.00000000000E+00 0. -1.
         25    2    1    2    0    0  0.15926230407E+03  0.67154796953E+02  0.29034701654E+03  0.36027835174E+03  0.12499940988E+03 0.  0.
          2    1    1    2  501    0 -0.61277617198E+02 -0.84654696885E+02 -0.43416139673E+03  0.44656184620E+03  0.00000000000E+00 0. -1.
          1    1    1    2  502    0 -0.97984686870E+02  0.17499899932E+02  0.73389040259E+03  0.74060945739E+03  0.00000000000E+00 0. -1.
         22    1    3    3    0    0  0.15347635549E+03  0.36677379882E+02  0.15415936359E+03  0.22060220142E+03  0.00000000000E+00 0. -1.
         22    1    3    3    0    0  0.57859485769E+01  0.30477417071E+02  0.13618765295E+03  0.13967615032E+03  0.00000000000E+00 0. -1.
</event>
<event>
 7    1  0.6485470E-006  0.1119296E+03  0.7818608E-02  0.1358020E+00
          2   -1    0    0  502    0  0.00000000000E+00  0.00000000000E+00  0.12542454837E+04  0.12542454837E+04  0.00000000000E+00 0. -1.
          1   -1    0    0  501    0 -0.00000000000E+00 -0.00000000000E+00 -0.35358200072E+03  0.35358200072E+03  0.00000000000E+00 0. -1.
         25    2    1    2    0    0  0.77319204546E+02 -0.57213904314E+02 -0.87059833234E+02  0.18015531487E+03  0.12499933070E+03 0.  0.
          2    1    1    2  501    0 -0.64709870875E+02  0.99940075805E+02 -0.20341723759E+03  0.23569887290E+03  0.00000000000E+00 0. -1.
          1    1    1    2  502    0 -0.12609333670E+02 -0.42726171492E+02  0.11911405538E+04  0.11919732967E+04  0.00000000000E+00 0. -1.
         22    1    3    3    0    0  0.13373928829E+02 -0.84386017196E+02 -0.31031317166E+02  0.90899969833E+02  0.00000000000E+00 0.  1.
         22    1    3    3    0    0  0.63945275717E+02  0.27172112883E+02 -0.56028516067E+02  0.89255345037E+02  0.00000000000E+00 0.  1.
</event>
<event>
 7    1  0.6485470E-006  0.2075964E+03  0.7818608E-02  0.1242117E+00
          2   -1    0    0  502    0  0.00000000000E+00  0.00000000000E+00  0.25442615284E+04  0.25442615284E+04  0.00000000000E+00 0. -1.
          1   -1    0    0  501    0 -0.00000000000E+00 -0.00000000000E+00 -0.15119222499E+04  0.15119222499E+04  0.00000000000E+00 0. -1.
         25    2    1    2    0    0 -0.16739441024E+03 -0.63012470248E+02  0.20814170871E+03  0.30156124336E+03  0.12499901041E+03 0.  0.
          2    1    1    2  501    0  0.20861176977E+03  0.63641242476E+01 -0.14572398104E+04  0.14721097912E+04  0.00000000000E+00 0. -1.
          1    1    1    2  502    0 -0.41217359523E+02  0.56648346001E+02  0.22814373801E+04  0.22825127437E+04  0.00000000000E+00 0. -1.
         22    1    3    3    0    0 -0.19151878967E+02  0.13845119475E+02 -0.10986764178E+02  0.26061289077E+02  0.00000000000E+00 0.  1.
         22    1    3    3    0    0 -0.14824253128E+03 -0.76857589724E+02  0.21912847289E+03  0.27549995428E+03  0.00000000000E+00 0.  1.
</event>
<event>
 7    1  0.6485470E-006  0.9614331E+02  0.7818608E-02  0.1319182E+00
          2   -1    0    0  502    0  0.00000000000E+00  0.00000000000E+00  0.23190902167E+04  0.23190902167E+04  0.00000000000E+00 0. -1.
          1   -1    0    0  501    0 -0.00000000000E+00 -0.00000000000E+00 -0.20826852527E+04  0.20826852527E+04  0.00000000000E+00 0. -1.
         25    2    1    2    0    0  0.57863970471E+02  0.30735924614E+02  0.26410087357E+03  0.29944451532E+03  0.12499924079E+03 0.  0.
          2    1    1    2  501    0  0.36439027602E+02 -0.62865525450E+02 -0.20631555204E+04  0.20644346873E+04  0.00000000000E+00 0. -1.
          1    1    1    2  502    0 -0.94302998073E+02  0.32129600836E+02  0.20354596108E+04  0.20378962667E+04  0.00000000000E+00 0. -1.
         22    1    3    3    0    0  0.43310351722E+02 -0.44831904083E+02  0.94589762304E+02  0.11328243166E+03  0.00000000000E+00 0.  1.
         22    1    3    3    0    0  0.14553618749E+02  0.75567828697E+02  0.16951111126E+03  0.18616208367E+03  0.00000000000E+00 0.  1.
</event>
<event>
 7    1  0.6485470E-006  0.1628772E+03  0.7818608E-02  0.1272325E+00
          2   -1    0    0  502    0  0.00000000000E+00  0.00000000000E+00  0.25892978526E+04  0.25892978526E+04  0.00000000000E+00 0. -1.
          1   -1    0    0  501    0 -0.00000000000E+00 -0.00000000000E+00 -0.47603344792E+03  0.47603344792E+03  0.00000000000E+00 0. -1.
         25    2    1    2    0    0  0.15312454177E+03  0.10009778080E+03 -0.87392146827E+02  0.23817475032E+03  0.12499253318E+03 0.  0.
          2    1    1    2  501    0 -0.15631442245E+03 -0.33911181244E+02 -0.29236269798E+03  0.33325682896E+03  0.00000000000E+00 0. -1.
          1    1    1    2  502    0  0.31898806823E+01 -0.66186599555E+02  0.24930192494E+04  0.24938997212E+04  0.00000000000E+00 0. -1.
         22    1    3    3    0    0 -0.10319319276E+02  0.19166974511E+02 -0.46383900677E+02  0.51237949844E+02  0.00000000000E+00 0. -1.
         22    1    3    3    0    0  0.16344386105E+03  0.80930806288E+02 -0.41008246150E+02  0.18693680048E+03  0.00000000000E+00 0. -1.
</event>
<event>
 7    1  0.6485470E-006  0.1586179E+03  0.7818608E-02  0.1366912E+00
          2   -1    0    0  502    0  0.00000000000E+00  0.00000000000E+00  0.75783455732E+03  0.75783455732E+03  0.00000000000E+00 0. -1.
          1   -1    0    0  501    0 -0.00000000000E+00 -0.00000000000E+00 -0.28998573770E+03  0.28998573770E+03  0.00000000000E+00 0. -1.
         25    2    1    2    0    0 -0.22673252136E+02 -0.13022294577E+03 -0.16918014081E+03  0.24843373229E+03  0.12500122931E+03 0.  0.
          2    1    1    2  501    0 -0.14996882752E+02 -0.25031460047E+02 -0.69311977137E+02  0.75203927152E+02  0.00000000000E+00 0. -1.
          1    1    1    2  502    0  0.37670134889E+02  0.15525440581E+03  0.70634093757E+03  0.72418263558E+03  0.00000000000E+00 0. -1.
         22    1    3    3    0    0 -0.43417943997E+02 -0.96107194048E+02 -0.17859815944E+03  0.20741025327E+03  0.00000000000E+00 0. -1.
         22    1    3    3    0    0  0.20744691861E+02 -0.34115751717E+02  0.94180186309E+01  0.41023479016E+02  0.00000000000E+00 0. -1.
</event>
<event>
 7    1  0.6485470E-006  0.1263296E+03  0.7818608E-02  0.1274002E+00
          2   -1    0    0  502    0  0.00000000000E+00  0.00000000000E+00  0.28705344840E+04  0.28705344840E+04  0.00000000000E+00 0. -1.
          1   -1    0    0  501    0 -0.00000000000E+00 -0.00000000000E+00 -0.40756478485E+03  0.40756478485E+03  0.00000000000E+00 0. -1.
         25    2    1    2    0    0 -0.17101419634E+03  0.14079063838E+02 -0.15050666333E+02  0.21282694326E+03  0.12499883933E+03 0.  0.
          2    1    1    2  501    0  0.55101488268E+02 -0.63490305094E+02 -0.28614400833E+03  0.29823746638E+03  0.00000000000E+00 0. -1.
          1    1    1    2  502    0  0.11591270807E+03  0.49411241256E+02  0.27641643738E+04  0.27670348592E+04  0.00000000000E+00 0. -1.
         22    1    3    3    0    0 -0.10418972224E+03  0.40127563076E+02  0.43916658999E+02  0.11997663304E+03  0.00000000000E+00 0. -1.
         22    1    3    3    0    0 -0.66824474104E+02 -0.26048499238E+02 -0.58967325332E+02  0.92850310224E+02  0.00000000000E+00 0. -1.
</event>
<event>
 7    1  0.6485470E-006  0.8156814E+02  0.7818608E-02  0.1395855E+00
          2   -1    0    0  502    0  0.00000000000E+00  0.00000000000E+00  0.75004202276E+03  0.75004202276E+03  0.00000000000E+00 0. -1.
          1   -1    0    0  501    0 -0.00000000000E+00 -0.00000000000E+00 -0.12937341835E+04  0.12937341835E+04  0.00000000000E+00 0. -1.
         25    2    1    2    0    0  0.62927300624E+02  0.84371678843E+02 -0.45263087111E+02  0.16956455807E+03  0.12499986778E+03 0.  0.
          2    1    1    2  501    0  0.76606057499E+01 -0.44174910631E+02 -0.11834963552E+04  0.11843452750E+04  0.00000000000E+00 0. -1.
          1    1    1    2  502    0 -0.70587906374E+02 -0.40196768212E+02  0.68506728154E+03  0.68986637324E+03  0.00000000000E+00 0. -1.
         22    1    3    3    0    0  0.76126061999E+02  0.60154002102E+02  0.19686715670E+02  0.99001252811E+02  0.00000000000E+00 0. -1.
         22    1    3    3    0    0 -0.13198761375E+02  0.24217676740E+02 -0.64949802780E+02  0.70563305264E+02  0.00000000000E+00 0. -1.
</event>
<event>
 7    1  0.6485470E-006  0.1436308E+03  0.7818608E-02  0.1373734E+00
          2   -1    0    0  502    0  0.00000000000E+00  0.00000000000E+00  0.26018653685E+04  0.26018653685E+04  0.00000000000E+00 0. -1.
          1   -1    0    0  501    0 -0.00000000000E+00 -0.00000000000E+00 -0.94768803780E+03  0.94768803780E+03  0.00000000000E+00 0. -1.
         25    2    1    2    0    0  0.11685654802E+03 -0.10643568027E+03  0.34645260214E+03  0.40080244151E+03  0.12501673784E+03 0.  0.
          2    1    1    2  501    0 -0.12145882852E+03  0.76328941659E+02 -0.91481932294E+03  0.92599824405E+03  0.00000000000E+00 0. -1.
          1    1    1    2  502    0  0.46022804996E+01  0.30106738613E+02  0.22225440515E+04  0.22227527207E+04  0.00000000000E+00 0. -1.
         22    1    3    3    0    0  0.53243628512E+02 -0.10836425814E+03  0.14055169775E+03  0.18529024842E+03  0.00000000000E+00 0.  1.
         22    1    3    3    0    0  0.63612919508E+02  0.19285778679E+01  0.20590090439E+03  0.21551219309E+03  0.00000000000E+00 0.  1.
</event>
<event>
 7    1  0.6485470E-006  0.8686092E+02  0.7818608E-02  0.1371988E+00
          2   -1    0    0  502    0  0.00000000000E+00  0.00000000000E+00  0.74822224048E+02  0.74822224048E+02  0.00000000000E+00 0. -1.
          1   -1    0    0  501    0 -0.00000000000E+00 -0.00000000000E+00 -0.28901263382E+04  0.28901263382E+04  0.00000000000E+00 0. -1.
         25    2    1    2    0    0  0.90603157222E+02 -0.64888292867E+02 -0.13966980676E+04  0.14067018229E+04  0.12500041569E+03 0.  0.
          2    1    1    2  501    0 -0.40118974584E+02  0.72746300823E+02 -0.14777540556E+04  0.14800873641E+04  0.00000000000E+00 0. -1.
          1    1    1    2  502    0 -0.50484182638E+02 -0.78580079557E+01  0.59148008983E+02  0.78159375332E+02  0.00000000000E+00 0. -1.
         22    1    3    3    0    0  0.53652094521E+02 -0.82148193162E+02 -0.12658126244E+04  0.12696095751E+04  0.00000000000E+00 0. -1.
         22    1    3    3    0    0  0.36951062701E+02  0.17259900295E+02 -0.13088544314E+03  0.13709224784E+03  0.00000000000E+00 0. -1.
</event>
<event>
 7    1  0.6485470E-006  0.5209927E+02  0.7818608E-02  0.1497014E+00
          2   -1    0    0  502    0  0.00000000000E+00  0.00000000000E+00  0.61095797282E+03  0.61095797282E+03  0.00000000000E+00 0. -1.
          1   -1    0    0  501    0 -0.00000000000E+00 -0.00000000000E+00 -0.27585431413E+02  0.27585431413E+02  0.00000000000E+00 0. -1.
         25    2    1    2    0    0  0.33268737959E+02 -0.30815110140E+02  0.30418047708E+03  0.33197152208E+03  0.12499179531E+03 0.  0.
          2    1    1    2  501    0 -0.54628382817E+02  0.54538194868E+01  0.47730907374E+02  0.72747810104E+02  0.00000000000E+00 0. -1.
          1    1    1    2  502    0  0.21359644858E+02  0.25361290654E+02  0.23146115695E+03  0.23382407205E+03  0.00000000000E+00 0. -1.
         22    1    3    3    0    0 -0.30573919858E+02 -0.32330218620E+02  0.22921009653E+03  0.23348934871E+03  0.00000000000E+00 0. -1.
         22    1    3    3    0    0  0.63842657817E+02  0.15151084796E+01  0.74970380554E+02  0.98482173368E+02  0.00000000000E+00 0. -1.
</event>
<event>
 7    1  0.6485470E-006  0.1426845E+03  0.7818608E-02  0.1238494E+00
          2   -1    0    0  502    0  0.00000000000E+00  0.00000000000E+00  0.30345220632E+03  0.30345220632E+03  0.00000000000E+00 0. -1.
          1   -1    0    0  501    0 -0.00000000000E+00 -0.00000000000E+00 -0.48335486156E+03  0.48335486156E+03  0.00000000000E+00 0. -1.
         25    2    1    2    0    0  0.12249604808E+03  0.19531011288E+02 -0.14457679808E+03  0.22784704660E+03  0.12500033562E+03 0.  0.
          2    1    1    2  501    0 -0.14202189659E+03  0.84395854064E+02 -0.26148439952E+03  0.30930077673E+03  0.00000000000E+00 0. -1.
          1    1    1    2  502    0  0.19525848509E+02 -0.10392686535E+03  0.22615854236E+03  0.24965924454E+03  0.00000000000E+00 0. -1.
         22    1    3    3    0    0  0.10851544559E+03 -0.39445791016E+02 -0.92867051599E+02  0.14817510463E+03  0.00000000000E+00 0.  1.
         22    1    3    3    0    0  0.13980602490E+02  0.58976802304E+02 -0.51709746484E+02  0.79671941971E+02  0.00000000000E+00 0.  1.
</event>
<event>
 7    1  0.6485470E-006  0.3262163E+02  0.7818608E-02  0.1588958E+00
          2   -1    0    0  502    0  0.00000000000E+00  0.00000000000E+00  0.13112292116E+04  0.13112292116E+04  0.00000000000E+00 0. -1.
          1   -1    0    0  501    0 -0.00000000000E+00 -0.00000000000E+00 -0.17420481930E+04  0.17420481930E+04  0.00000000000E+00 0. -1.
         25    2    1    2    0    0 -0.42519847388E+02 -0.42085253055E+02  0.52481491125E+03  0.54280264127E+03  0.12499964140E+03 0.  0.
          2    1    1    2  501    0  0.16469120981E+02  0.24064574925E+02 -0.17326089249E+04  0.17328542993E+04  0.00000000000E+00 0. -1.
          1    1    1    2  502    0  0.26050726407E+02  0.18020678130E+02  0.77697503237E+03  0.77762046405E+03  0.00000000000E+00 0. -1.
         22    1    3    3    0    0 -0.67218603423E+02 -0.66511408978E+02  0.45617891243E+03  0.46587692401E+03  0.00000000000E+00 0.  1.
         22    1    3    3    0    0  0.24698756035E+02  0.24426155923E+02  0.68635998814E+02  0.76925717260E+02  0.00000000000E+00 0.  1.
</event>
<event>
 7    1  0.6485470E-006  0.1120361E+03  0.7818608E-02  0.1381902E+00
          2   -1    0    0  502    0  0.00000000000E+00  0.00000000000E+00  0.11674399535E+04  0.11674399535E+04  0.00000000000E+00 0. -1.
          1   -1    0    0  501    0 -0.00000000000E+00 -0.00000000000E+00 -0.11032023213E+03  0.11032023213E+03  0.00000000000E+00 0. -1.
         25    2    1    2    0    0 -0.20740074279E+02 -0.11136075873E+03  0.82116741142E+02  0.18765450227E+03  0.12505872133E+03 0.  0.
          2    1    1    2  501    0 -0.34005775574E+02  0.13319555610E+02 -0.48359652793E+02  0.60600819733E+02  0.00000000000E+00 0. -1.
          1    1    1    2  502    0  0.54745849853E+02  0.98041203116E+02  0.10233626330E+04  0.10295048637E+04  0.00000000000E+00 0. -1.
         22    1    3    3    0    0 -0.39396799759E+02  0.14057506382E+02  0.17527111467E+02  0.45353290435E+02  0.00000000000E+00 0.  1.
         22    1    3    3    0    0  0.18656725480E+02 -0.12541826511E+03  0.64589629676E+02  0.14230121184E+03  0.00000000000E+00 0.  1.
</event>
<event>
 7    1  0.6485470E-006  0.9727875E+02  0.7818608E-02  0.1362780E+00
          2   -1    0    0  502    0  0.00000000000E+00  0.00000000000E+00  0.21663244928E+04  0.21663244928E+04  0.00000000000E+00 0. -1.
          1   -1    0    0  501    0 -0.00000000000E+00 -0.00000000000E+00 -0.16409606873E+03  0.16409606873E+03  0.00000000000E+00 0. -1.
         25    2    1    2    0    0  0.70066417241E+02 -0.98673991362E+02  0.73318768591E+03  0.75354837495E+03  0.12500044490E+03 0.  0.
          2    1    1    2  501    0 -0.20979662229E+02  0.94684615798E+02 -0.13816534651E+03  0.16880457835E+03  0.00000000000E+00 0. -1.
          1    1    1    2  502    0 -0.49086755012E+02  0.39893755632E+01  0.14072060847E+04  0.14080676083E+04  0.00000000000E+00 0. -1.
         22    1    3    3    0    0  0.26945530946E+02  0.21469293675E+02  0.68066575479E+02  0.76289258132E+02  0.00000000000E+00 0.  1.
         22    1    3    3    0    0  0.43120886295E+02 -0.12014328504E+03  0.66512111043E+03  0.67725911682E+03  0.00000000000E+00 0.  1.
</event>
<event>
 7    1  0.6485470E-006  0.8587942E+02  0.7818608E-02  0.1326247E+00
          2   -1    0    0  502    0  0.00000000000E+00  0.00000000000E+00  0.31591832836E+03  0.31591832836E+03  0.00000000000E+00 0. -1.
          1   -1    0    0  501    0 -0.00000000000E+00 -0.00000000000E+00 -0.17969869098E+04  0.17969869098E+04  0.00000000000E+00 0. -1.
         25    2    1    2    0    0  0.85400551872E+01  0.40374231761E+02 -0.93799773351E+01  0.13197315151E+03  0.12500367039E+03 0.  0.
          2    1    1    2  501    0  0.76368639093E+02 -0.18540600835E+01 -0.17168969731E+04  0.17185955961E+04  0.00000000000E+00 0. -1.
          1    1    1    2  502    0 -0.84908694280E+02 -0.38520171677E+02  0.24520836907E+03  0.26233649051E+03  0.00000000000E+00 0. -1.
         22    1    3    3    0    0 -0.69594137492E+01  0.82033179150E+02  0.11027960010E+02  0.83063179708E+02  0.00000000000E+00 0. -1.
         22    1    3    3    0    0  0.15499468936E+02 -0.41658947389E+02 -0.20407937345E+02  0.48909971801E+02  0.00000000000E+00 0. -1.
</event>
<event>
 7    1  0.6485470E-006  0.8743961E+02  0.7818608E-02  0.1326931E+00
          2   -1    0    0  502    0  0.00000000000E+00  0.00000000000E+00  0.21372751210E+04  0.21372751210E+04  0.00000000000E+00 0. -1.
          1   -1    0    0  501    0 -0.00000000000E+00 -0.00000000000E+00 -0.93343696978E+02  0.93343696978E+02  0.00000000000E+00 0. -1.
         25    2    1    2    0    0  0.17804808915E+02  0.85185663447E+02  0.45284574212E+03  0.47777407091E+03  0.12500075278E+03 0.  0.
          2    1    1    2  501    0 -0.73263341432E+02 -0.13929679813E+02 -0.62190832296E+02  0.97104339754E+02  0.00000000000E+00 0. -1.
          1    1    1    2  502    0  0.55458532516E+02 -0.71255983634E+02  0.16532765142E+04  0.16557404073E+04  0.00000000000E+00 0. -1.
         22    1    3    3    0    0  0.27619263545E+02 -0.87145866610E+01  0.27410685402E+03  0.27563260902E+03  0.00000000000E+00 0.  1.
         22    1    3    3    0    0 -0.98144546300E+01  0.93900250108E+02  0.17873888811E+03  0.20214146188E+03  0.00000000000E+00 0.  1.
</event>
<event>
 7    1  0.6485470E-006  0.7889223E+02  0.7818608E-02  0.1341388E+00
          2   -1    0    0  502    0  0.00000000000E+00  0.00000000000E+00  0.18468537288E+04  0.18468537288E+04  0.00000000000E+00 0. -1.
          1   -1    0    0  501    0 -0.00000000000E+00 -0.00000000000E+00 -0.11964790077E+04  0.11964790077E+04  0.00000000000E+00 0. -1.
         25    2    1    2    0    0 -0.47272073742E+02  0.31211738088E+02  0.72209791571E+02  0.15507756660E+03  0.12500390439E+03 0.  0.
          2    1    1    2  501    0  0.54331715704E+02  0.48520867934E+02 -0.11529709306E+04  0.11552697420E+04  0.00000000000E+00 0. -1.
          1    1    1    2  502    0 -0.70596419618E+01 -0.79732606022E+02  0.17311358602E+04  0.17329854279E+04  0.00000000000E+00 0. -1.
         22    1    3    3    0    0 -0.76342693791E+02  0.10543563585E+02  0.87210043097E+02  0.11638283914E+03  0.00000000000E+00 0. -1.
         22    1    3    3    0    0  0.29070620049E+02  0.20668174503E+02 -0.15000251527E+02  0.38694727460E+02  0.00000000000E+00 0. -1.
</event>
<event>
 7    1  0.6485470E-006  0.7159669E+02  0.7818608E-02  0.1447003E+00
          2   -1    0    0  502    0  0.00000000000E+00  0.00000000000E+00  0.23898159704E+03  0.23898159704E+03  0.00000000000E+00 0. -1.
          1   -1    0    0  501    0 -0.00000000000E+00 -0.00000000000E+00 -0.59191157506E+03  0.59191157506E+03  0.00000000000E+00 0. -1.
         25    2    1    2    0    0 -0.91841703317E+02  0.51376651102E+02 -0.33834575442E+03  0.37573561132E+03  0.12499976536E+03 0.  0.
          2    1    1    2  501    0  0.28063167301E+02 -0.20051658071E+02 -0.22780884704E+03  0.23040503714E+03  0.00000000000E+00 0. -1.
          1    1    1    2  502    0  0.63778536016E+02 -0.31324993030E+02  0.21322462344E+03  0.22475252364E+03  0.00000000000E+00 0. -1.
         22    1    3    3    0    0 -0.63218777801E+02  0.83743133368E+02 -0.15368674548E+03  0.18608907004E+03  0.00000000000E+00 0. -1.
         22    1    3    3    0    0 -0.28622925516E+02 -0.32366482266E+02 -0.18465900893E+03  0.18964654128E+03  0.00000000000E+00 0. -1.
</event>
<event>
 7    1  0.6485470E-006  0.1345291E+03  0.7818608E-02  0.1263530E+00
          2   -1    0    0  502    0  0.00000000000E+00  0.00000000000E+00  0.58944013143E+03  0.58944013143E+03  0.00000000000E+00 0. -1.
          1   -1    0    0  501    0 -0.00000000000E+00 -0.00000000000E+00 -0.19521692798E+04  0.19521692798E+04  0.00000000000E+00 0. -1.
         25    2    1    2    0    0 -0.20393170528E+03  0.73438413754E+02 -0.18595523676E+03  0.31174776691E+03  0.12500391618E+03 0.  0.
          2    1    1    2  501    0  0.12754372450E+03 -0.31025199530E+02 -0.16971413649E+04  0.17022099686E+04  0.00000000000E+00 0. -1.
          1    1    1    2  502    0  0.76387980787E+02 -0.42413214223E+02  0.52036745335E+03  0.52765167569E+03  0.00000000000E+00 0. -1.
         22    1    3    3    0    0 -0.50909126841E+01 -0.13278754442E+02  0.11593952025E+02  0.18348363280E+02  0.00000000000E+00 0. -1.
         22    1    3    3    0    0 -0.19884079260E+03  0.86717168196E+02 -0.19754918879E+03  0.29339940363E+03  0.00000000000E+00 0. -1.
</event>
<event>
 7    1  0.6485470E-006  0.6407861E+02  0.7818608E-02  0.1473530E+00
          2   -1    0    0  502    0  0.00000000000E+00  0.00000000000E+00  0.23302510873E+04  0.23302510873E+04  0.00000000000E+00 0. -1.
          1   -1    0    0  501    0 -0.00000000000E+00 -0.00000000000E+00 -0.25878066295E+02  0.25878066295E+02  0.00000000000E+00 0. -1.
         25    2    1    2    0    0 -0.51024704365E+02  0.61665381045E+02  0.28336577015E+03  0.31988715535E+03  0.12500197114E+03 0.  0.
          2    1    1    2  501    0  0.19799574568E+02 -0.55725612787E+02  0.10932316912E+03  0.12429369405E+03  0.00000000000E+00 0. -1.
          1    1    1    2  502    0  0.31225129796E+02 -0.59397682581E+01  0.19116840817E+04  0.19119483042E+04  0.00000000000E+00 0. -1.
         22    1    3    3    0    0 -0.71917473506E+02  0.88745676109E+02  0.21811380718E+03  0.24621444090E+03  0.00000000000E+00 0.  1.
         22    1    3    3    0    0  0.20892769141E+02 -0.27080295064E+02  0.65251962971E+02  0.73672714452E+02  0.00000000000E+00 0.  1.
</event>
<event>
 7    1  0.6485470E-006  0.7756618E+02  0.7818608E-02  0.1380250E+00
          2   -1    0    0  502    0  0.00000000000E+00  0.00000000000E+00  0.39345410783E+03  0.39345410783E+03  0.00000000000E+00 0. -1.
          1   -1    0    0  501    0 -0.00000000000E+00 -0.00000000000E+00 -0.40979604217E+03  0.40979604217E+03  0.00000000000E+00 0. -1.
         25    2    1    2    0    0  0.90073928868E+02  0.19898899202E+02 -0.14012970090E+03  0.20921340845E+03  0.12499855338E+03 0.  0.
          2    1    1    2  501    0 -0.37978803301E+02  0.37632270087E+02 -0.22779701718E+03  0.23398730369E+03  0.00000000000E+00 0. -1.
          1    1    1    2  502    0 -0.52095125567E+02 -0.57531169288E+02  0.35158478374E+03  0.36004943787E+03  0.00000000000E+00 0. -1.
         22    1    3    3    0    0 -0.13610918029E+02 -0.51849204580E+01 -0.90310904527E+02  0.91477865991E+02  0.00000000000E+00 0.  1.
         22    1    3    3    0    0  0.10368484690E+03  0.25083819660E+02 -0.49818796374E+02  0.11773554245E+03  0.00000000000E+00 0.  1.
</event>
<event>
 7    1  0.6485470E-006  0.7054203E+02  0.7818608E-02  0.1437156E+00
          2   -1    0    0  502    0  0.00000000000E+00  0.00000000000E+00  0.65738880541E+03  0.65738880541E+03  0.00000000000E+00 0. -1.
          1   -1    0    0  501    0 -0.00000000000E+00 -0.00000000000E+00 -0.55231674006E+02  0.55231674006E+02  0.00000000000E+00 0. -1.
         25    2    1    2    0    0 -0.71859838412E+02  0.71374129671E+02  0.33007900199E+03  0.36719235278E+03  0.12497989286E+03 0.  0.
          2    1    1    2  501    0  0.20891622386E+02 -0.31347578455E+02 -0.22450587886E+02  0.43853841990E+02  0.00000000000E+00 0. -1.
          1    1    1    2  502    0  0.50968216027E+02 -0.40026551217E+02  0.29452871730E+03  0.30157428465E+03  0.00000000000E+00 0. -1.
         22    1    3    3    0    0  0.40912359830E+01  0.27193295892E+02  0.20236396646E+01  0.27573695270E+02  0.00000000000E+00 0. -1.
         22    1    3    3    0    0 -0.75951074395E+02  0.44180833779E+02  0.32805536233E+03  0.33961865751E+03  0.00000000000E+00 0. -1.
</event>
<event>
 7    1  0.6485470E-006  0.5439310E+02  0.7818608E-02  0.1472116E+00
          2   -1    0    0  502    0  0.00000000000E+00  0.00000000000E+00  0.50658499759E+02  0.50658499759E+02  0.00000000000E+00 0. -1.
          1   -1    0    0  501    0 -0.00000000000E+00 -0.00000000000E+00 -0.93807995666E+03  0.93807995666E+03  0.00000000000E+00 0. -1.
         25    2    1    2    0    0 -0.52428423070E+02 -0.51394262146E+02 -0.49715753261E+03  0.51786186737E+03  0.12500076687E+03 0.  0.
          2    1    1    2  501    0  0.12043735869E+00  0.37824360161E+02 -0.41119062390E+03  0.41292665924E+03  0.00000000000E+00 0. -1.
          1    1    1    2  502    0  0.52307985712E+02  0.13569901985E+02  0.20926699604E+02  0.57949929814E+02  0.00000000000E+00 0. -1.
         22    1    3    3    0    0 -0.91198607762E+02 -0.18452755992E+02 -0.29068161428E+03  0.30521056853E+03  0.00000000000E+00 0.  1.
         22    1    3    3    0    0  0.38770184692E+02 -0.32941506154E+02 -0.20647591833E+03  0.21265129884E+03  0.00000000000E+00 0.  1.
</event>
<event>
 7    1  0.6485470E-006  0.1020145E+03  0.7818608E-02  0.1281788E+00
          2   -1    0    0  502    0  0.00000000000E+00  0.00000000000E+00  0.95382460065E+02  0.95382460065E+02  0.00000000000E+00 0. -1.
          1   -1    0    0  501    0 -0.00000000000E+00 -0.00000000000E+00 -0.13501431898E+04  0.13501431898E+04  0.00000000000E+00 0. -1.
         25    2    1    2    0    0  0.34835056042E+02  0.41678075543E+02 -0.41660232559E+03  0.43833017034E+03  0.12500118971E+03 0.  0.
          2    1    1    2  501    0 -0.12703329261E+03 -0.12697412374E+02 -0.88891241273E+03  0.89803338424E+03  0.00000000000E+00 0. -1.
          1    1    1    2  502    0  0.92198236563E+02 -0.28980663169E+02  0.50754008574E+02  0.10916209530E+03  0.00000000000E+00 0. -1.
         22    1    3    3    0    0 -0.39024631141E+02  0.12459248879E+02 -0.57822485696E+02  0.70863210275E+02  0.00000000000E+00 0.  1.
         22    1    3    3    0    0  0.73859687183E+02  0.29218826664E+02 -0.35877983989E+03  0.36746696006E+03  0.00000000000E+00 0.  1.
</event>
<event>
 7    1  0.6485470E-006  0.1384288E+03  0.7818608E-02  0.1362650E+00
          2   -1    0    0  502    0  0.00000000000E+00  0.00000000000E+00  0.21179599470E+04  0.21179599470E+04  0.00000000000E+00 0. -1.
          1   -1    0    0  501    0 -0.00000000000E+00 -0.00000000000E+00 -0.85858588856E+03  0.85858588856E+03  0.00000000000E+00 0. -1.
         25    2    1    2    0    0 -0.84304646839E+01 -0.12108319441E+03  0.87316514660E+02  0.19488960343E+03  0.12500228434E+03 0.  0.
          2    1    1    2  501    0  0.30459310169E+02 -0.16510326535E+02 -0.80196929174E+03  0.80271732594E+03  0.00000000000E+00 0. -1.
          1    1    1    2  502    0 -0.22028845485E+02  0.13759352094E+03  0.19740268355E+04  0.19789389062E+04  0.00000000000E+00 0. -1.
         22    1    3    3    0    0 -0.25009011125E+01 -0.53131627223E+02 -0.28601148487E+02  0.60392466521E+02  0.00000000000E+00 0. -1.
         22    1    3    3    0    0 -0.59295635715E+01 -0.67951567184E+02  0.11591766315E+03  0.13449713691E+03  0.00000000000E+00 0. -1.
</event>
<event>
 7    1  0.6485470E-006  0.1363685E+03  0.7818608E-02  0.1262187E+00
          2   -1    0    0  502    0  0.00000000000E+00  0.00000000000E+00  0.66884970931E+03  0.66884970931E+03  0.00000000000E+00 0. -1.
          1   -1    0    0  501    0 -0.00000000000E+00 -0.00000000000E+00 -0.13573311393E+04  0.13573311393E+04  0.00000000000E+00 0. -1.
         25    2    1    2    0    0 -0.15155836848E+03  0.63912063298E+02  0.21027186946E+03  0.29477886403E+03  0.12500251480E+03 0.  0.
          2    1    1    2  501    0  0.74385623843E+02  0.45761333542E+02 -0.13027783565E+04  0.13057024037E+04  0.00000000000E+00 0. -1.
          1    1    1    2  502    0  0.77172744632E+02 -0.10967339684E+03  0.40402505706E+03  0.42569958095E+03  0.00000000000E+00 0. -1.
         22    1    3    3    0    0 -0.72710102897E+01  0.34586779425E+02  0.11278561773E+03  0.11819352126E+03  0.00000000000E+00 0. -1.
         22    1    3    3    0    0 -0.14428735819E+03  0.29325283873E+02  0.97486251729E+02  0.17658534277E+03  0.00000000000E+00 0. -1.
</event>
<event>
 7    1  0.6485470E-006  0.9557879E+02  0.7818608E-02  0.1403570E+00
          2   -1    0    0  502    0  0.00000000000E+00  0.00000000000E+00  0.74641953041E+03  0.74641953041E+03  0.00000000000E+00 0. -1.
          1   -1    0    0  501    0 -0.00000000000E+00 -0.00000000000E+00 -0.34323864917E+02  0.34323864917E+02  0.00000000000E+00 0. -1.
         25    2    1    2    0    0 -0.81168160160E+02 -0.56405613416E+02  0.29620851578E+03  0.33635397331E+03  0.12499858838E+03 0.  0.
          2    1    1    2  501    0  0.27456606129E+02 -0.23274500213E+02  0.25081903716E+03  0.25338854943E+03  0.00000000000E+00 0. -1.
          1    1    1    2  502    0  0.53711554032E+02  0.79680113628E+02  0.16506811255E+03  0.19100087258E+03  0.00000000000E+00 0. -1.
         22    1    3    3    0    0 -0.26472975170E+02  0.38445015821E+02  0.60133836980E+02  0.76124345683E+02  0.00000000000E+00 0.  1.
         22    1    3    3    0    0 -0.54695184990E+02 -0.94850629236E+02  0.23607467880E+03  0.26022962763E+03  0.00000000000E+00 0.  1.
</event>
<event>
 7    1  0.6485470E-006  0.7286456E+02  0.7818608E-02  0.1455607E+00
          2   -1    0    0  502    0  0.00000000000E+00  0.00000000000E+00  0.54414608431E+03  0.54414608431E+03  0.00000000000E+00 0. -1.
          1   -1    0    0  501    0 -0.00000000000E+00 -0.00000000000E+00 -0.11282431443E+04  0.11282431443E+04  0.00000000000E+00 0. -1.
         25    2    1    2    0    0 -0.35766906533E+02  0.86166951040E+02 -0.69471061960E+03  0.71200536544E+03  0.12499912152E+03 0.  0.
          2    1    1    2  501    0  0.10988956675E+02 -0.66214336051E+02 -0.42175657865E+03  0.42706405504E+03  0.00000000000E+00 0. -1.
          1    1    1    2  502    0  0.24777949857E+02 -0.19952614989E+02  0.53237013826E+03  0.53331980814E+03  0.00000000000E+00 0. -1.
         22    1    3    3    0    0 -0.47602616514E+02  0.11516516563E+03 -0.56159005235E+03  0.57524986864E+03  0.00000000000E+00 0.  1.
         22    1    3    3    0    0  0.11835709982E+02 -0.28998214594E+02 -0.13312056725E+03  0.13675549680E+03  0.00000000000E+00 0.  1.
</event>
<event>
 7    1  0.6485470E-006  0.1607479E+03  0.7818608E-02  0.1270499E+00
          2   -1    0    0  502    0  0.00000000000E+00  0.00000000000E+00  0.15848796716E+04  0.15848796716E+04  0.00000000000E+00 0. -1.
          1   -1    0    0  501    0 -0.00000000000E+00 -0.00000000000E+00 -0.36139278731E+03  0.36139278731E+03  0.00000000000E+00 0. -1.
         25    2    1    2    0    0 -0.12103744210E+03 -0.14913296939E+03  0.58086541281E+03  0.62443585270E+03  0.12499920558E+03 0.  0.
          2    1    1    2  501    0 -0.98547657128E+01  0.67620327638E+02 -0.33003399753E+03  0.33703421880E+03  0.00000000000E+00 0. -1.
          1    1    1    2  502    0  0.13089220782E+03  0.81512641754E+02  0.97265546897E+03  0.98480238736E+03  0.00000000000E+00 0. -1.
         22    1    3    3    0    0 -0.42586623115E+02 -0.39209746639E+02  0.36674369055E+03  0.37128420281E+03  0.00000000000E+00 0. -1.
         22    1    3    3    0    0 -0.78450818988E+02 -0.10992322275E+03  0.21412172226E+03  0.25315164989E+03  0.00000000000E+00 0. -1.
</event>
<event>
 7    1  0.6485470E-006  0.1146874E+03  0.7818608E-02  0.1261653E+00
          2   -1    0    0  502    0  0.00000000000E+00  0.00000000000E+00  0.15461855068E+04  0.15461855068E+04  0.00000000000E+00 0. -1.
          1   -1    0    0  501    0 -0.00000000000E+00 -0.00000000000E+00 -0.42512544690E+03  0.42512544690E+03  0.00000000000E+00 0. -1.
         25    2    1    2    0    0  0.23629957617E+02  0.11765754589E+02  0.14756567825E+03  0.19518536870E+03  0.12499956351E+03 0.  0.
          2    1    1    2  501    0  0.42622805669E+02  0.95291193954E+02 -0.39158114009E+03  0.40525659092E+03  0.00000000000E+00 0. -1.
          1    1    1    2  502    0 -0.66252763286E+02 -0.10705694854E+03  0.13650755217E+04  0.13708689941E+04  0.00000000000E+00 0. -1.
         22    1    3    3    0    0 -0.12163666579E+02  0.10294694559E+02 -0.19007436185E+02  0.24803591495E+02  0.00000000000E+00 0.  1.
         22    1    3    3    0    0  0.35793624196E+02  0.14710600300E+01  0.16657311443E+03  0.17038177720E+03  0.00000000000E+00 0.  1.
</event>
<event>
 7    1  0.6485470E-006  0.4494337E+02  0.7818608E-02  0.1577284E+00
          2   -1    0    0  502    0  0.00000000000E+00  0.00000000000E+00  0.75352829106E+02  0.75352829106E+02  0.00000000000E+00 0. -1.
          1   -1    0    0  501    0 -0.00000000000E+00 -0.00000000000E+00 -0.15746853832E+04  0.15746853832E+04  0.00000000000E+00 0. -1.
         25    2    1    2    0    0 -0.23422729932E+02 -0.86368619151E+01 -0.28611468528E+03  0.31322541200E+03  0.12500130371E+03 0.  0.
          2    1    1    2  501    0 -0.22014605704E+02  0.57022693244E+01 -0.12665124565E+04  0.12667166066E+04  0.00000000000E+00 0. -1.
          1    1    1    2  502    0  0.45437335635E+02  0.29345925907E+01  0.53294587704E+02  0.70096193776E+02  0.00000000000E+00 0. -1.
         22    1    3    3    0    0 -0.32593895003E+02 -0.26474973284E+02 -0.28980477249E+03  0.29283116699E+03  0.00000000000E+00 0.  1.
         22    1    3    3    0    0  0.91711650716E+01  0.17838111368E+02  0.36900872111E+01  0.20394245012E+02  0.00000000000E+00 0.  1.
</event>
<event>
 7    1  0.6485470E-006  0.3237875E+02  0.7818608E-02  0.1594271E+00
          2   -1    0    0  502    0  0.00000000000E+00  0.00000000000E+00  0.23772840690E+04  0.23772840690E+04  0.00000000000E+00 0. -1.
          1   -1    0    0  501    0 -0.00000000000E+00 -0.00000000000E+00 -0.10370398485E+03  0.10370398485E+03  0.00000000000E+00 0. -1.
         25    2    1    2    0    0 -0.47721359221E+02 -0.24507791858E+02  0.39426425659E+03  0.41707122677E+03  0.12500457664E+03 0.  0.
          2    1    1    2  501    0  0.28417185579E+02 -0.12575298543E+01 -0.89974265218E+02  0.94363585239E+02  0.00000000000E+00 0. -1.
          1    1    1    2  502    0  0.19304173642E+02  0.25765321713E+02  0.19692900928E+04  0.19695532419E+04  0.00000000000E+00 0. -1.
         22    1    3    3    0    0 -0.60453968265E+02  0.36404716489E+02  0.16383038841E+03  0.17838268366E+03  0.00000000000E+00 0.  1.
         22    1    3    3    0    0  0.12732609044E+02 -0.60912508348E+02  0.23043386818E+03  0.23868854311E+03  0.00000000000E+00 0.  1.
</event>
<event>
 7    1  0.6485470E-006  0.7467543E+02  0.7818608E-02  0.1381151E+00
          2   -1    0    0  502    0  0.00000000000E+00  0.00000000000E+00  0.17423617088E+03  0.17423617088E+03  0.00000000000E+00 0. -1.
          1   -1    0    0  501    0 -0.00000000000E+00 -0.00000000000E+00 -0.11008292484E+04  0.11008292484E+04  0.00000000000E+00 0. -1.
         25    2    1    2    0    0  0.67938261081E+02  0.95665075448E+02 -0.47703424102E+02  0.17795125201E+03  0.12499446965E+03 0.  0.
          2    1    1    2  501    0 -0.10566860722E+02 -0.54106763589E+02 -0.97564252752E+03  0.97719882415E+03  0.00000000000E+00 0. -1.
          1    1    1    2  502    0 -0.57371400359E+02 -0.41558311859E+02  0.96752874108E+02  0.11991534311E+03  0.00000000000E+00 0. -1.
         22    1    3    3    0    0 -0.16216782712E+02  0.53663428354E+02  0.22683580003E+02  0.60475551969E+02  0.00000000000E+00 0.  1.
         22    1    3    3    0    0  0.84155043793E+02  0.42001647094E+02 -0.70387004105E+02  0.11747570005E+03  0.00000000000E+00 0.  1.
</event>
<event>
 7    1  0.6485470E-006  0.1533481E+03  0.7818608E-02  0.1314322E+00
          2   -1    0    0  502    0  0.00000000000E+00  0.00000000000E+00  0.69357555781E+03  0.69357555781E+03  0.00000000000E+00 0. -1.
          1   -1    0    0  501    0 -0.00000000000E+00 -0.00000000000E+00 -0.85330695986E+03  0.85330695986E+03  0.00000000000E+00 0. -1.
         25    2    1    2    0    0  0.11822430824E+03 -0.16040786012E+03  0.13380811528E+03  0.27062350860E+03  0.12499921217E+03 0.  0.
          2    1    1    2  501    0 -0.89675933799E+02  0.12233363101E+03 -0.77639051252E+03  0.79106859267E+03  0.00000000000E+00 0. -1.
          1    1    1    2  502    0 -0.28548374438E+02  0.38074229112E+02  0.48285099520E+03  0.48519041640E+03  0.00000000000E+00 0. -1.
         22    1    3    3    0    0  0.34773866778E+02 -0.10928584932E+03  0.12904696649E+03  0.17264338456E+03  0.00000000000E+00 0.  1.
         22    1    3    3    0    0  0.83450441459E+02 -0.51122010803E+02  0.47611487877E+01  0.97980124035E+02  0.00000000000E+00 0.  1.
</event>
<event>
 7    1  0.6485470E-006  0.1777564E+03  0.7818608E-02  0.1196012E+00
          2   -1    0    0  502    0  0.00000000000E+00  0.00000000000E+00  0.20753238814E+04  0.20753238814E+04  0.00000000000E+00 0. -1.
          1   -1    0    0  501    0 -0.00000000000E+00 -0.00000000000E+00 -0.10828905247E+04  0.10828905247E+04  0.00000000000E+00 0. -1.
         25    2    1    2    0    0 -0.38380595090E+02 -0.64832183634E+02  0.11272772225E+02  0.14638364522E+03  0.12499925632E+03 0.  0.
          2    1    1    2  501    0  0.16927185305E+03  0.87738345945E+02 -0.10041439740E+04  0.10220841932E+04  0.00000000000E+00 0. -1.
          1    1    1    2  502    0 -0.13089125796E+03 -0.22906162310E+02  0.19853045585E+04  0.19897465677E+04  0.00000000000E+00 0. -1.
         22    1    3    3    0    0 -0.83986358714E+02 -0.50324125966E+02  0.10998183556E+02  0.98525053392E+02  0.00000000000E+00 0. -1.
         22    1    3    3    0    0  0.45605763624E+02 -0.14508057669E+02  0.27458866950E+00  0.47858591830E+02  0.00000000000E+00 0. -1.
</event>
<event>
 7    1  0.6485470E-006  0.1276874E+03  0.7818608E-02  0.1297585E+00
          2   -1    0    0  502    0  0.00000000000E+00  0.00000000000E+00  0.95762239645E+02  0.95762239645E+02  0.00000000000E+00 0. -1.
          1   -1    0    0  501    0 -0.00000000000E+00 -0.00000000000E+00 -0.14070701813E+04  0.14070701813E+04  0.00000000000E+00 0. -1.
         25    2    1    2    0    0  0.96050496737E+02 -0.15055098096E+03 -0.38903519652E+03  0.44594334210E+03  0.12500313774E+03 0.  0.
          2    1    1    2  501    0 -0.89016597103E+01  0.65992885612E+02 -0.93264378874E+03  0.93501804109E+03  0.00000000000E+00 0. -1.
          1    1    1    2  502    0 -0.87148837027E+02  0.84558095346E+02  0.10371043652E+02  0.12187103770E+03  0.00000000000E+00 0. -1.
         22    1    3    3    0    0  0.92294668365E+02 -0.13241699712E+03 -0.20470423216E+03  0.26068446367E+03  0.00000000000E+00 0.  1.
         22    1    3    3    0    0  0.37558283721E+01 -0.18133983840E+02 -0.18433096436E+03  0.18525887844E+03  0.00000000000E+00 0.  1.
</event>
<event>
 7    1  0.6485470E-006  0.7151871E+02  0.7818608E-02  0.1380907E+00
          2   -1    0    0  502    0  0.00000000000E+00  0.00000000000E+00  0.21680301350E+04  0.21680301350E+04  0.00000000000E+00 0. -1.
          1   -1    0    0  501    0 -0.00000000000E+00 -0.00000000000E+00 -0.21850852300E+03  0.21850852300E+03  0.00000000000E+00 0. -1.
         25    2    1    2    0    0  0.47566698294E+02 -0.11211724028E+03  0.28367197391E+03  0.33305712129E+03  0.12499756359E+03 0.  0.
          2    1    1    2  501    0 -0.32192939941E+01  0.57586719540E+02 -0.18884456666E+03  0.19745598111E+03  0.00000000000E+00 0. -1.
          1    1    1    2  502    0 -0.44347404300E+02  0.54530520744E+02  0.18546942048E+04  0.18560255556E+04  0.00000000000E+00 0. -1.
         22    1    3    3    0    0 -0.23724567472E+02 -0.36722804555E+01  0.34660293241E+01  0.24256011724E+02  0.00000000000E+00 0.  1.
         22    1    3    3    0    0  0.71291265766E+02 -0.10844495983E+03  0.28020594459E+03  0.30880110957E+03  0.00000000000E+00 0.  1.
</event>
<event>
 7    1  0.6485470E-006  0.8242462E+02  0.7818608E-02  0.1483157E+00
          2   -1    0    0  502    0  0.00000000000E+00  0.00000000000E+00  0.25576433913E+03  0.25576433913E+03  0.00000000000E+00 0. -1.
          1   -1    0    0  501    0 -0.00000000000E+00 -0.00000000000E+00 -0.59821025885E+03  0.59821025885E+03  0.00000000000E+00 0. -1.
         25    2    1    2    0    0  0.10834500698E+02  0.62018505530E+02 -0.10128748625E+03  0.17276471731E+03  0.12499924497E+03 0.  0.
          2    1    1    2  501    0  0.15121826533E+02  0.17439006220E+02 -0.45294055503E+03  0.45352831771E+03  0.00000000000E+00 0. -1.
          1    1    1    2  502    0 -0.25956327231E+02 -0.79457511750E+02  0.21178212156E+03  0.22768156295E+03  0.00000000000E+00 0. -1.
         22    1    3    3    0    0 -0.48373322348E+02  0.48542055146E+02 -0.86337641397E+02  0.11022929626E+03  0.00000000000E+00 0.  1.
         22    1    3    3    0    0  0.59207823046E+02  0.13476450385E+02 -0.14949844852E+02  0.62535421050E+02  0.00000000000E+00 0.  1.
</event>
<event>
 7    1  0.6485470E-006  0.1324484E+03  0.7818608E-02  0.1235805E+00
          2   -1    0    0  502    0  0.00000000000E+00  0.00000000000E+00  0.85195589001E+03  0.85195589001E+03  0.00000000000E+00 0. -1.
          1   -1    0    0  501    0 -0.00000000000E+00 -0.00000000000E+00 -0.83792026345E+03  0.83792026345E+03  0.00000000000E+00 0. -1.
         25    2    1    2    0    0  0.16493904931E+03 -0.12384482470E+03  0.12746235759E+03  0.27278854433E+03  0.12499802687E+03 0.  0.
          2    1    1    2  501    0 -0.11698539329E+03  0.48537774633E+01 -0.75438462598E+03  0.76341686208E+03  0.00000000000E+00 0. -1.
          1    1    1    2  502    0 -0.47953656020E+02  0.11899104724E+03  0.64095789495E+03  0.65367074705E+03  0.00000000000E+00 0. -1.
         22    1    3    3    0    0  0.66056631599E+02 -0.25673813691E+02  0.11207533983E+03  0.13260280950E+03  0.00000000000E+00 0.  1.
         22    1    3    3    0    0  0.98882417712E+02 -0.98171011010E+02  0.15387017755E+02  0.14018573483E+03  0.00000000000E+00 0.  1.
</event>
<event>
 7    1  0.6485470E-006  0.7341053E+02  0.7818608E-02  0.1422560E+00
          2   -1    0    0  502    0  0.00000000000E+00  0.00000000000E+00  0.11670594298E+04  0.11670594298E+04  0.00000000000E+00 0. -1.
          1   -1    0    0  501    0 -0.00000000000E+00 -0.00000000000E+00 -0.54415831089E+03  0.54415831089E+03  0.00000000000E+00 0. -1.
         25    2    1    2    0    0 -0.29835265137E+02  0.15029749202E+02 -0.10961040700E+03  0.16957400721E+03  0.12499946477E+03 0.  0.
          2    1    1    2  501    0 -0.34148621346E+02  0.21654205553E+02 -0.40235570497E+03  0.40438242578E+03  0.00000000000E+00 0. -1.
          1    1    1    2  502    0  0.63983886482E+02 -0.36683954754E+02  0.11348672309E+04  0.11372613077E+04  0.00000000000E+00 0. -1.
         22    1    3    3    0    0 -0.20695414921E+02  0.46862310094E+02  0.38554521038E+01  0.51373541994E+02  0.00000000000E+00 0.  1.
         22    1    3    3    0    0 -0.91398502158E+01 -0.31832560893E+02 -0.11346585911E+03  0.11820046522E+03  0.00000000000E+00 0.  1.
</event>
<event>
 7    1  0.6485470E-006  0.9375628E+02  0.7818608E-02  0.1298656E+00
          2   -1    0    0  502    0  0.00000000000E+00  0.00000000000E+00  0.15198269032E+03  0.15198269032E+03  0.00000000000E+00 0. -1.
          1   -1    0    0  501    0 -0.00000000000E+00 -0.00000000000E+00 -0.23676126985E+04  0.23676126985E+04  0.00000000000E+00 0. -1.
         25    2    1    2    0    0  0.41581617467E+02  0.13672240439E+02 -0.17934317135E+03  0.22294537729E+03  0.12499882829E+03 0.  0.
          2    1    1    2  501    0  0.14062374876E+02 -0.92695685042E+02 -0.21473651462E+04  0.21494109220E+04  0.00000000000E+00 0. -1.
          1    1    1    2  502    0 -0.55643992343E+02  0.79023444603E+02  0.11107830936E+03  0.14723908955E+03  0.00000000000E+00 0. -1.
         22    1    3    3    0    0 -0.96656266860E+01  0.15705776159E+02  0.13848095500E+02  0.23062209195E+02  0.00000000000E+00 0. -1.
         22    1    3    3    0    0  0.51247244153E+02 -0.20335357191E+01 -0.19319126684E+03  0.19988316809E+03  0.00000000000E+00 0. -1.
</event>
<event>
 7    1  0.6485470E-006  0.7502927E+02  0.7818608E-02  0.1452018E+00
          2   -1    0    0  502    0  0.00000000000E+00  0.00000000000E+00  0.11506318331E+04  0.11506318331E+04  0.00000000000E+00 0. -1.
          1   -1    0    0  501    0 -0.00000000000E+00 -0.00000000000E+00 -0.75300759827E+02  0.75300759827E+02  0.00000000000E+00 0. -1.
         25    2    1    2    0    0 -0.94061819156E+02 -0.20988337835E+02  0.11899013480E+03  0.19765736512E+03  0.12498658191E+03 0.  0.
          2    1    1    2  501    0  0.70724720463E+02 -0.49237808673E+00 -0.67912732845E+00  0.70729694858E+02  0.00000000000E+00 0. -1.
          1    1    1    2  502    0  0.23337098693E+02  0.21480715921E+02  0.95702006575E+03  0.95754553290E+03  0.00000000000E+00 0. -1.
         22    1    3    3    0    0 -0.29509051744E+02  0.11610748951E+01 -0.24754234507E+02  0.38534456734E+02  0.00000000000E+00 0. -1.
         22    1    3    3    0    0 -0.64552767412E+02 -0.22149412730E+02  0.14374436931E+03  0.15912290838E+03  0.00000000000E+00 0. -1.
</event>
<event>
 7    1  0.6485470E-006  0.1328361E+03  0.7818608E-02  0.1264298E+00
          2   -1    0    0  502    0  0.00000000000E+00  0.00000000000E+00  0.23953652688E+04  0.23953652688E+04  0.00000000000E+00 0. -1.
          1   -1    0    0  501    0 -0.00000000000E+00 -0.00000000000E+00 -0.62148071775E+03  0.62148071775E+03  0.00000000000E+00 0. -1.
         25    2    1    2    0    0  0.24623929437E+02  0.61931775660E+02 -0.33346185058E+03  0.36229833910E+03  0.12498559111E+03 0.  0.
          2    1    1    2  501    0 -0.56130572039E+02  0.67547914786E+02 -0.26463397195E+03  0.27882700912E+03  0.00000000000E+00 0. -1.
          1    1    1    2  502    0  0.31506642602E+02 -0.12947969045E+03  0.23719803736E+04  0.23757206384E+04  0.00000000000E+00 0. -1.
         22    1    3    3    0    0  0.35749026654E+02  0.69741452434E+02 -0.93709978349E+02  0.12216146339E+03  0.00000000000E+00 0. -1.
         22    1    3    3    0    0 -0.11125097217E+02 -0.78096767749E+01 -0.23975187223E+03  0.24013687571E+03  0.00000000000E+00 0. -1.
</event>
<event>
 7    1  0.6485470E-006  0.8516315E+02  0.7818608E-02  0.1413001E+00
          2   -1    0    0  502    0  0.00000000000E+00  0.00000000000E+00  0.42812247541E+02  0.42812247541E+02  0.00000000000E+00 0. -1.
          1   -1    0    0  501    0 -0.00000000000E+00 -0.00000000000E+00 -0.77334792351E+03  0.77334792351E+03  0.00000000000E+00 0. -1.
         25    2    1    2    0    0 -0.51542756298E+02  0.22299672051E+02 -0.25022627719E+03  0.28529306770E+03  0.12500005434E+03 0.  0.
          2    1    1    2  501    0  0.79447429526E+02 -0.47385721872E+02 -0.48437058746E+03  0.49312489969E+03  0.00000000000E+00 0. -1.
          1    1    1    2  502    0 -0.27904673228E+02  0.25086049821E+02  0.40611886762E+01  0.37742203659E+02  0.00000000000E+00 0. -1.
         22    1    3    3    0    0  0.14351860983E+02 -0.41757278628E+02 -0.97819614072E+02  0.10732345098E+03  0.00000000000E+00 0. -1.
         22    1    3    3    0    0 -0.65894617281E+02  0.64056950680E+02 -0.15240666311E+03  0.17796961673E+03  0.00000000000E+00 0. -1.
</event>
<event>
 7    1  0.6485470E-006  0.1146653E+03  0.7818608E-02  0.1354371E+00
          2   -1    0    0  502    0  0.00000000000E+00  0.00000000000E+00  0.13239774055E+03  0.13239774055E+03  0.00000000000E+00 0. -1.
          1   -1    0    0  501    0 -0.00000000000E+00 -0.00000000000E+00 -0.13962011639E+04  0.13962011639E+04  0.00000000000E+00 0. -1.
         25    2    1    2    0    0 -0.32958846539E+02  0.67674045355E+02 -0.41732880080E+02  0.15176560484E+03  0.12500041421E+03 0.  0.
          2    1    1    2  501    0  0.69561033514E+02 -0.93588224630E+02 -0.12900958245E+04  0.12953550592E+04  0.00000000000E+00 0. -1.
          1    1    1    2  502    0 -0.36602186975E+02  0.25914179275E+02  0.68025281179E+02  0.81478240398E+02  0.00000000000E+00 0. -1.
         22    1    3    3    0    0 -0.59204816127E+02  0.90668668627E+01 -0.60227382927E+02  0.84939719693E+02  0.00000000000E+00 0.  1.
         22    1    3    3    0    0  0.26245969588E+02  0.58607178492E+02  0.18494502847E+02  0.66825885149E+02  0.00000000000E+00 0.  1.
</event>
<event>
 7    1  0.6485470E-006  0.1481169E+03  0.7818608E-02  0.1238755E+00
          2   -1    0    0  502    0  0.00000000000E+00  0.00000000000E+00  0.16456754578E+04  0.16456754578E+04  0.00000000000E+00 0. -1.
          1   -1    0    0  501    0 -0.00000000000E+00 -0.00000000000E+00 -0.60564986740E+03  0.60564986740E+03  0.00000000000E+00 0. -1.
         25    2    1    2    0    0 -0.14863756742E+02  0.23214371350E+03  0.22128126414E+03  0.34453230131E+03  0.12500189520E+03 0.  0.
          2    1    1    2  501    0 -0.31694694490E+02 -0.96525960526E+02 -0.53546287351E+03  0.54501587465E+03  0.00000000000E+00 0. -1.
          1    1    1    2  502    0  0.46558451232E+02 -0.13561775297E+03  0.13542071998E+04  0.13617771493E+04  0.00000000000E+00 0. -1.
         22    1    3    3    0    0  0.44915066550E+02  0.84813478464E+02  0.12870632598E+03  0.16054908184E+03  0.00000000000E+00 0.  1.
         22    1    3    3    0    0 -0.59778823292E+02  0.14733023504E+03  0.92574938154E+02  0.18398321946E+03  0.00000000000E+00 0.  1.
</event>
<event>
 7    1  0.6485470E-006  0.9750823E+02  0.7818608E-02  0.1312276E+00
          2   -1    0    0  502    0  0.00000000000E+00  0.00000000000E+00  0.31467822139E+04  0.31467822139E+04  0.00000000000E+00 0. -1.
          1   -1    0    0  501    0 -0.00000000000E+00 -0.00000000000E+00 -0.89177405036E+02  0.89177405036E+02  0.00000000000E+00 0. -1.
         25    2    1    2    0    0  0.55155396934E+02  0.17492149104E+02  0.33525031859E+03  0.36244290527E+03  0.12499596144E+03 0.  0.
          2    1    1    2  501    0 -0.90323423046E+02  0.50147692247E+02 -0.39504211914E+02  0.11060603305E+03  0.00000000000E+00 0. -1.
          1    1    1    2  502    0  0.35168026113E+02 -0.67639841351E+02  0.27618587022E+04  0.27629106806E+04  0.00000000000E+00 0. -1.
         22    1    3    3    0    0  0.60450147141E+02  0.38079748467E+02  0.83909624223E+02  0.11020486636E+03  0.00000000000E+00 0. -1.
         22    1    3    3    0    0 -0.52947502074E+01 -0.20587599362E+02  0.25134069437E+03  0.25223803891E+03  0.00000000000E+00 0. -1.
</event>
<event>
 7    1  0.6485470E-006  0.1416036E+03  0.7818608E-02  0.1270219E+00
          2   -1    0    0  502    0  0.00000000000E+00  0.00000000000E+00  0.11007990935E+04  0.11007990935E+04  0.00000000000E+00 0. -1.
          1   -1    0    0  501    0 -0.00000000000E+00 -0.00000000000E+00 -0.44132837184E+02  0.44132837184E+02  0.00000000000E+00 0. -1.
         25    2    1    2    0    0  0.29367766464E+02  0.86206283814E+02  0.47108514174E+03  0.49582125801E+03  0.12499408006E+03 0.  0.
          2    1    1    2  501    0 -0.62261191791E+02 -0.15669207862E+03  0.23035677475E+03  0.28546997597E+03  0.00000000000E+00 0. -1.
          1    1    1    2  502    0  0.32893425326E+02  0.70485794802E+02  0.35522433985E+03  0.36364069674E+03  0.00000000000E+00 0. -1.
         22    1    3    3    0    0 -0.35550338228E+02  0.79279339036E+02  0.31170505500E+03  0.32358782650E+03  0.00000000000E+00 0. -1.
         22    1    3    3    0    0  0.64918104693E+02  0.69269447784E+01  0.15938008674E+03  0.17223343151E+03  0.00000000000E+00 0. -1.
</event>
<event>
 7    1  0.6485470E-006  0.7767391E+02  0.7818608E-02  0.1346255E+00
          2   -1    0    0  502    0  0.00000000000E+00  0.00000000000E+00  0.94992564075E+03  0.94992564075E+03  0.00000000000E+00 0. -1.
          1   -1    0    0  501    0 -0.00000000000E+00 -0.00000000000E+00 -0.12470549893E+04  0.12470549893E+04  0.00000000000E+00 0. -1.
         25    2    1    2    0    0 -0.81267648022E+02  0.62939129385E+02 -0.16556688488E+03  0.23152254718E+03  0.12499812744E+03 0.  0.
          2    1    1    2  501    0  0.39717094830E+01 -0.70837980975E+02 -0.10456600333E+04  0.10480642630E+04  0.00000000000E+00 0. -1.
          1    1    1    2  502    0  0.77295938539E+02  0.78988515906E+01  0.91409756964E+03  0.91739381990E+03  0.00000000000E+00 0. -1.
         22    1    3    3    0    0  0.28247142696E+02  0.25864773785E+02 -0.76578417532E+02  0.85622086083E+02  0.00000000000E+00 0. -1.
         22    1    3    3    0    0 -0.10951479072E+03  0.37074355600E+02 -0.88988467344E+02  0.14590046110E+03  0.00000000000E+00 0. -1.
</event>
<event>
 7    1  0.6485470E-006  0.4908611E+02  0.7818608E-02  0.1465479E+00
          2   -1    0    0  502    0  0.00000000000E+00  0.00000000000E+00  0.12889662192E+03  0.12889662192E+03  0.00000000000E+00 0. -1.
          1   -1    0    0  501    0 -0.00000000000E+00 -0.00000000000E+00 -0.18524565303E+04  0.18524565303E+04  0.00000000000E+00 0. -1.
         25    2    1    2    0    0 -0.27419972985E+02  0.24735546224E+01 -0.11457745017E+03  0.17178570396E+03  0.12499745040E+03 0.  0.
          2    1    1    2  501    0  0.19219670714E+02 -0.45660159023E+02 -0.17040808935E+04  0.17048008498E+04  0.00000000000E+00 0. -1.
          1    1    1    2  502    0  0.82003022701E+01  0.43186604401E+02  0.95098435299E+02  0.10476659846E+03  0.00000000000E+00 0. -1.
         22    1    3    3    0    0 -0.16672316282E+02  0.58897518658E+02 -0.26653719737E+02  0.66763048238E+02  0.00000000000E+00 0. -1.
         22    1    3    3    0    0 -0.10747656703E+02 -0.56423964035E+02 -0.87923730434E+02  0.10502265572E+03  0.00000000000E+00 0. -1.
</event>
<event>
 7    1  0.6485470E-006  0.4010860E+02  0.7818608E-02  0.1523493E+00
          2   -1    0    0  502    0  0.00000000000E+00  0.00000000000E+00  0.18515766716E+03  0.18515766716E+03  0.00000000000E+00 0. -1.
          1   -1    0    0  501    0 -0.00000000000E+00 -0.00000000000E+00 -0.22975199650E+03  0.22975199650E+03  0.00000000000E+00 0. -1.
         25    2    1    2    0    0 -0.64998295121E+01 -0.67692464034E+01 -0.66777101126E+02  0.14202978692E+03  0.12500083463E+03 0.  0.
          2    1    1    2  501    0  0.12058673150E+02 -0.33916213832E+02 -0.11979335812E+03  0.12508465057E+03  0.00000000000E+00 0. -1.
          1    1    1    2  502    0 -0.55588436375E+01  0.40685460235E+02  0.14197612991E+03  0.14779522618E+03  0.00000000000E+00 0. -1.
         22    1    3    3    0    0  0.18285646658E+02 -0.17457280378E+02 -0.97738261688E+02  0.10095488750E+03  0.00000000000E+00 0.  1.
         22    1    3    3    0    0 -0.24785476170E+02  0.10688033974E+02  0.30961160562E+02  0.41074899422E+02  0.00000000000E+00 0.  1.
</event>
<event>
 7    1  0.6485470E-006  0.3915527E+02  0.7818608E-02  0.1559845E+00
          2   -1    0    0  502    0  0.00000000000E+00  0.00000000000E+00  0.16080206123E+04  0.16080206123E+04  0.00000000000E+00 0. -1.
          1   -1    0    0  501    0 -0.00000000000E+00 -0.00000000000E+00 -0.51059607755E+03  0.51059607755E+03  0.00000000000E+00 0. -1.
         25    2    1    2    0    0  0.25651250961E+02 -0.22262580897E+01 -0.24087962688E+03  0.27260044203E+03  0.12500025380E+03 0.  0.
          2    1    1    2  501    0 -0.20534191162E+01 -0.29044981302E+02 -0.25277918848E+03  0.25445067420E+03  0.00000000000E+00 0. -1.
          1    1    1    2  502    0 -0.23597831845E+02  0.31271239391E+02  0.15910833501E+04  0.15915655736E+04  0.00000000000E+00 0. -1.
         22    1    3    3    0    0  0.53510946879E+02  0.26994866212E+02 -0.51673400096E+02  0.79134597459E+02  0.00000000000E+00 0.  1.
         22    1    3    3    0    0 -0.27859695917E+02 -0.29221124301E+02 -0.18920622679E+03  0.19346584457E+03  0.00000000000E+00 0.  1.
</event>
<event>
 7    1  0.6485470E-006  0.1038779E+03  0.7818608E-02  0.1452115E+00
          2   -1    0    0  502    0  0.00000000000E+00  0.00000000000E+00  0.38947908045E+03  0.38947908045E+03  0.00000000000E+00 0. -1.
          1   -1    0    0  501    0 -0.00000000000E+00 -0.00000000000E+00 -0.76490240128E+02  0.76490240128E+02  0.00000000000E+00 0. -1.
         25    2    1    2    0    0 -0.88423180845E+02 -0.23517044031E+02  0.86383444653E+02  0.17736768360E+03  0.12500194161E+03 0.  0.
          2    1    1    2  501    0  0.11126656533E+03  0.25025192825E+02  0.77823701598E+02  0.13806895873E+03  0.00000000000E+00 0. -1.
          1    1    1    2  502    0 -0.22843384482E+02 -0.15081487939E+01  0.14878169407E+03  0.15053267824E+03  0.00000000000E+00 0. -1.
         22    1    3    3    0    0 -0.85793604423E+02  0.18932009469E+02  0.80404851889E+01  0.88224786452E+02  0.00000000000E+00 0.  1.
         22    1    3    3    0    0 -0.26295764223E+01 -0.42449053500E+02  0.78342959464E+02  0.89142897153E+02  0.00000000000E+00 0.  1.
</event>
<event>
 7    1  0.6485470E-006  0.5159747E+02  0.7818608E-02  0.1568609E+00
          2   -1    0    0  502    0  0.00000000000E+00  0.00000000000E+00  0.25921981929E+03  0.25921981929E+03  0.00000000000E+00 0. -1.
          1   -1    0    0  501    0 -0.00000000000E+00 -0.00000000000E+00 -0.28318910289E+03  0.28318910289E+03  0.00000000000E+00 0. -1.
         25    2    1    2    0    0 -0.27505645463E+02 -0.28552947510E+02 -0.14990046325E+03  0.19916664026E+03  0.12500148146E+03 0.  0.
          2    1    1    2  501    0 -0.19675319427E+02  0.70746626402E+01 -0.10474573746E+03  0.10681216486E+03  0.00000000000E+00 0. -1.
          1    1    1    2  502    0  0.47180964891E+02  0.21478284869E+02  0.23067691710E+03  0.23643011706E+03  0.00000000000E+00 0. -1.
         22    1    3    3    0    0 -0.71038010941E+02  0.11292481143E+02 -0.87702742696E+02  0.11342702590E+03  0.00000000000E+00 0.  1.
         22    1    3    3    0    0  0.43532365478E+02 -0.39845428653E+02 -0.62197720550E+02  0.85739614357E+02  0.00000000000E+00 0.  1.
</event>
<event>
 7    1  0.6485470E-006  0.1018583E+03  0.7818608E-02  0.1294676E+00
          2   -1    0    0  502    0  0.00000000000E+00  0.00000000000E+00  0.51651539436E+03  0.51651539436E+03  0.00000000000E+00 0. -1.
          1   -1    0    0  501    0 -0.00000000000E+00 -0.00000000000E+00 -0.86108513916E+03  0.86108513916E+03  0.00000000000E+00 0. -1.
         25    2    1    2    0    0 -0.20585363155E+02 -0.58820464217E+02 -0.18084528887E+03  0.22850338725E+03  0.12500070117E+03 0.  0.
          2    1    1    2  501    0  0.82175794537E+02 -0.24530753432E+02 -0.64810458888E+03  0.65375391181E+03  0.00000000000E+00 0. -1.
          1    1    1    2  502    0 -0.61590431381E+02  0.83351217649E+02  0.48438013296E+03  0.49534323446E+03  0.00000000000E+00 0. -1.
         22    1    3    3    0    0 -0.23337494814E+02 -0.97479221191E+02 -0.11989196716E+03  0.15627194572E+03  0.00000000000E+00 0. -1.
         22    1    3    3    0    0  0.27521316591E+01  0.38658756974E+02 -0.60953321708E+02  0.72231441538E+02  0.00000000000E+00 0. -1.
</event>
<event>
 7    1  0.6485470E-006  0.9307689E+02  0.7818608E-02  0.1349423E+00
          2   -1    0    0  502    0  0.00000000000E+00  0.00000000000E+00  0.81109113195E+03  0.81109113195E+03  0.00000000000E+00 0. -1.
          1   -1    0    0  501    0 -0.00000000000E+00 -0.00000000000E+00 -0.46017088206E+03  0.46017088206E+03  0.00000000000E+00 0. -1.
         25    2    1    2    0    0  0.19390327345E+02  0.10683271491E+03 -0.30295332024E+01  0.16559188390E+03  0.12498912022E+03 0.  0.
          2    1    1    2  501    0  0.43304044721E+02 -0.38017039492E+02 -0.37065618518E+03  0.37510870850E+03  0.00000000000E+00 0. -1.
          1    1    1    2  502    0 -0.62694372067E+02 -0.68815675418E+02  0.72460596827E+03  0.73056142160E+03  0.00000000000E+00 0. -1.
         22    1    3    3    0    0  0.23064383136E+02  0.72254466433E+02  0.57911845712E+02  0.95427750486E+02  0.00000000000E+00 0. -1.
         22    1    3    3    0    0 -0.36740557909E+01  0.34578248477E+02 -0.60941378914E+02  0.70164133413E+02  0.00000000000E+00 0. -1.
</event>
<event>
 7    1  0.6485470E-006  0.2316802E+03  0.7818608E-02  0.1319259E+00
          2   -1    0    0  502    0  0.00000000000E+00  0.00000000000E+00  0.14110597949E+04  0.14110597949E+04  0.00000000000E+00 0. -1.
          1   -1    0    0  501    0 -0.00000000000E+00 -0.00000000000E+00 -0.16184255032E+04  0.16184255032E+04  0.00000000000E+00 0. -1.
         25    2    1    2    0    0 -0.10726191116E+03 -0.23378006892E+03 -0.85766763018E+03  0.90408925814E+03  0.12500153845E+03 0.  0.
          2    1    1    2  501    0 -0.24474115447E+01  0.30033394772E+02 -0.72758702241E+03  0.72821073173E+03  0.00000000000E+00 0. -1.
          1    1    1    2  502    0  0.10970932270E+03  0.20374667415E+03  0.13778889443E+04  0.13971853083E+04  0.00000000000E+00 0. -1.
         22    1    3    3    0    0 -0.31575713565E+02 -0.17779844031E+03 -0.67306303243E+03  0.69686667067E+03  0.00000000000E+00 0.  1.
         22    1    3    3    0    0 -0.75686197594E+02 -0.55981628613E+02 -0.18460459775E+03  0.20722258747E+03  0.00000000000E+00 0.  1.
</event>
<event>
 7    1  0.6485470E-006  0.7647534E+02  0.7818608E-02  0.1479033E+00
          2   -1    0    0  502    0  0.00000000000E+00  0.00000000000E+00  0.27849474299E+03  0.27849474299E+03  0.00000000000E+00 0. -1.
          1   -1    0    0  501    0 -0.00000000000E+00 -0.00000000000E+00 -0.19314855141E+04  0.19314855141E+04  0.00000000000E+00 0. -1.
         25    2    1    2    0    0  0.12553022458E+02  0.52223279503E+02 -0.79252444490E+03  0.80411754673E+03  0.12500073562E+03 0.  0.
          2    1    1    2  501    0 -0.81399970496E+01  0.24284216367E+02 -0.11276321910E+04  0.11279230208E+04  0.00000000000E+00 0. -1.
          1    1    1    2  502    0 -0.44130254083E+01 -0.76507495870E+02  0.26716586479E+03  0.27793968954E+03  0.00000000000E+00 0. -1.
         22    1    3    3    0    0 -0.31513381687E+02  0.61136000489E+01 -0.60864096571E+03  0.60948691083E+03  0.00000000000E+00 0.  1.
         22    1    3    3    0    0  0.44066404145E+02  0.46109679454E+02 -0.18388347919E+03  0.19463063590E+03  0.00000000000E+00 0.  1.
</event>
<event>
 7    1  0.6485470E-006  0.8501144E+02  0.7818608E-02  0.1343698E+00
          2   -1    0    0  502    0  0.00000000000E+00  0.00000000000E+00  0.97217562261E+03  0.97217562261E+03  0.00000000000E+00 0. -1.
          1   -1    0    0  501    0 -0.00000000000E+00 -0.00000000000E+00 -0.68663072831E+02  0.68663072831E+02  0.00000000000E+00 0. -1.
         25    2    1    2    0    0  0.99983929689E+02  0.27517462699E+02  0.44618812023E+03  0.47482201997E+03  0.12497245724E+03 0.  0.
          2    1    1    2  501    0 -0.22486156004E+02 -0.62334454365E+02 -0.28994869532E+02  0.72331969917E+02  0.00000000000E+00 0. -1.
          1    1    1    2  502    0 -0.77497773685E+02  0.34816991667E+02  0.48631929908E+03  0.49368470555E+03  0.00000000000E+00 0. -1.
         22    1    3    3    0    0  0.85467162779E+02  0.41533425600E+02  0.44453250912E+03  0.45457542061E+03  0.00000000000E+00 0. -1.
         22    1    3    3    0    0  0.14516766910E+02 -0.14015962902E+02  0.16556111030E+01  0.20246599362E+02  0.00000000000E+00 0. -1.
</event>
<event>
 7    1  0.6485470E-006  0.1058651E+03  0.7818608E-02  0.1445462E+00
          2   -1    0    0  502    0  0.00000000000E+00  0.00000000000E+00  0.15278441749E+03  0.15278441749E+03  0.00000000000E+00 0. -1.
          1   -1    0    0  501    0 -0.00000000000E+00 -0.00000000000E+00 -0.12961163766E+04  0.12961163766E+04  0.00000000000E+00 0. -1.
         25    2    1    2    0    0  0.88563250533E+02 -0.20730295479E+02 -0.29961669691E+03  0.33714731679E+03  0.12499981463E+03 0.  0.
          2    1    1    2  501    0 -0.10028360627E+03  0.41207167246E+02 -0.97366320768E+03  0.97968100640E+03  0.00000000000E+00 0. -1.
          1    1    1    2  502    0  0.11720355742E+02 -0.20476871767E+02  0.12994794551E+03  0.13207247086E+03  0.00000000000E+00 0. -1.
         22    1    3    3    0    0  0.73570304044E+02 -0.15200926939E+02 -0.57757245952E+02  0.94760525942E+02  0.00000000000E+00 0.  1.
         22    1    3    3    0    0  0.14992946489E+02 -0.55293685409E+01 -0.24185945096E+03  0.24238679085E+03  0.00000000000E+00 0.  1.
</event>
<event>
 7    1  0.6485470E-006  0.3260067E+02  0.7818608E-02  0.1637631E+00
          2   -1    0    0  502    0  0.00000000000E+00  0.00000000000E+00  0.67892273979E+02  0.67892273979E+02  0.00000000000E+00 0. -1.
          1   -1    0    0  501    0 -0.00000000000E+00 -0.00000000000E+00 -0.25166451780E+03  0.25166451780E+03  0.00000000000E+00 0. -1.
         25    2    1    2    0    0 -0.24416105771E+02  0.50447796090E+01 -0.10735370141E+03  0.16664692202E+03  0.12499913356E+03 0.  0.
          2    1    1    2  501    0  0.42020008630E+01  0.21471234668E+02 -0.10606226056E+03  0.10829530851E+03  0.00000000000E+00 0. -1.
          1    1    1    2  502    0  0.20214104908E+02 -0.26516014277E+02  0.29643718147E+02  0.44614561254E+02  0.00000000000E+00 0. -1.
         22    1    3    3    0    0 -0.46344116667E+02 -0.12652587862E+02 -0.12464752576E+03  0.13358469526E+03  0.00000000000E+00 0. -1.
         22    1    3    3    0    0  0.21928010896E+02  0.17697367471E+02  0.17293824355E+02  0.33062226757E+02  0.00000000000E+00 0. -1.
</event>
<event>
 7    1  0.6485470E-006  0.1387438E+03  0.7818608E-02  0.1278238E+00
          2   -1    0    0  502    0  0.00000000000E+00  0.00000000000E+00  0.28244215263E+03  0.28244215263E+03  0.00000000000E+00 0. -1.
          1   -1    0    0  501    0 -0.00000000000E+00 -0.00000000000E+00 -0.81981181190E+03  0.81981181190E+03  0.00000000000E+00 0. -1.
         25    2    1    2    0    0  0.92664186647E+02  0.76169730658E+02 -0.48165799460E+03  0.51188087717E+03  0.12505650440E+03 0.  0.
          2    1    1    2  501    0 -0.88530582798E+02 -0.14955536126E+03 -0.29371340853E+03  0.34127999725E+03  0.00000000000E+00 0. -1.
          1    1    1    2  502    0 -0.41336038488E+01  0.73385630602E+02  0.23800174386E+03  0.24909309011E+03  0.00000000000E+00 0. -1.
         22    1    3    3    0    0  0.95544504940E+02  0.27123210514E+02 -0.42694904465E+03  0.43834907061E+03  0.00000000000E+00 0.  1.
         22    1    3    3    0    0 -0.28803182934E+01  0.49046520143E+02 -0.54708949950E+02  0.73531806562E+02  0.00000000000E+00 0.  1.
</event>
<event>
 7    1  0.6485470E-006  0.7433738E+02  0.7818608E-02  0.1379682E+00
          2   -1    0    0  502    0  0.00000000000E+00  0.00000000000E+00  0.15328481398E+04  0.15328481398E+04  0.00000000000E+00 0. -1.
          1   -1    0    0  501    0 -0.00000000000E+00 -0.00000000000E+00 -0.90304043475E+02  0.90304043475E+02  0.00000000000E+00 0. -1.
         25    2    1    2    0    0 -0.59685683028E+02  0.28524944319E+02  0.10057472172E+04  0.10156421242E+04  0.12500162487E+03 0.  0.
          2    1    1    2  501    0  0.22433767456E+02  0.51360919784E+02 -0.71939054765E+02  0.91194548103E+02  0.00000000000E+00 0. -1.
          1    1    1    2  502    0  0.37251915572E+02 -0.79885864103E+02  0.50873593382E+03  0.51631551095E+03  0.00000000000E+00 0. -1.
         22    1    3    3    0    0 -0.38388400316E+02  0.16770086646E+01  0.75055389660E+02  0.84319589384E+02  0.00000000000E+00 0. -1.
         22    1    3    3    0    0 -0.21297282713E+02  0.26847935655E+02  0.93069182758E+03  0.93132253480E+03  0.00000000000E+00 0. -1.
</event>
<event>
 7    1  0.6485470E-006  0.1336716E+03  0.7818608E-02  0.1323200E+00
          2   -1    0    0  502    0  0.00000000000E+00  0.00000000000E+00  0.86792834597E+03  0.86792834597E+03  0.00000000000E+00 0. -1.
          1   -1    0    0  501    0 -0.00000000000E+00 -0.00000000000E+00 -0.60186647587E+03  0.60186647587E+03  0.00000000000E+00 0. -1.
         25    2    1    2    0    0  0.13272868691E+03 -0.88925810684E+02  0.60990584364E+03  0.64275565059E+03  0.12499993651E+03 0.  0.
          2    1    1    2  501    0 -0.30711119576E+02  0.39991172896E+02 -0.57102199091E+03  0.57324391046E+03  0.00000000000E+00 0. -1.
          1    1    1    2  502    0 -0.10201756734E+03  0.48934637787E+02  0.22717801737E+03  0.25379526079E+03  0.00000000000E+00 0. -1.
         22    1    3    3    0    0  0.11971577691E+03 -0.99871188750E+01  0.31307069960E+03  0.33532800768E+03  0.00000000000E+00 0. -1.
         22    1    3    3    0    0  0.13012910003E+02 -0.78938691809E+02  0.29683514404E+03  0.30742764292E+03  0.00000000000E+00 0. -1.
</event>
<event>
 7    1  0.6485470E-006  0.4139080E+02  0.7818608E-02  0.1584916E+00
          2   -1    0    0  502    0  0.00000000000E+00  0.00000000000E+00  0.28621628873E+04  0.28621628873E+04  0.00000000000E+00 0. -1.
          1   -1    0    0  501    0 -0.00000000000E+00 -0.00000000000E+00 -0.15239149781E+03  0.15239149781E+03  0.00000000000E+00 0. -1.
         25    2    1    2    0    0 -0.28917192798E+02 -0.17482371315E+02 -0.66231593470E+02  0.14544178129E+03  0.12499940170E+03 0.  0.
          2    1    1    2  501    0 -0.12415259193E+02  0.20020894627E+02 -0.43412776204E+02  0.49392752710E+02  0.00000000000E+00 0. -1.
          1    1    1    2  502    0  0.41332451992E+02 -0.25385233126E+01  0.28194157592E+04  0.28197198511E+04  0.00000000000E+00 0. -1.
         22    1    3    3    0    0 -0.26043000042E+02 -0.50284042361E+02 -0.88944143089E+02  0.10544089983E+03  0.00000000000E+00 0.  1.
         22    1    3    3    0    0 -0.28741927560E+01  0.32801671046E+02  0.22712549620E+02  0.40000881461E+02  0.00000000000E+00 0.  1.
</event>
<event>
 7    1  0.6485470E-006  0.6683660E+02  0.7818608E-02  0.1375060E+00
          2   -1    0    0  502    0  0.00000000000E+00  0.00000000000E+00  0.82388577781E+03  0.82388577781E+03  0.00000000000E+00 0. -1.
          1   -1    0    0  501    0 -0.00000000000E+00 -0.00000000000E+00 -0.88538563884E+03  0.88538563884E+03  0.00000000000E+00 0. -1.
         25    2    1    2    0    0 -0.63642688549E+02 -0.17410327971E+02  0.32198638350E+03  0.35164557141E+03  0.12500346157E+03 0.  0.
          2    1    1    2  501    0  0.48986524965E+02 -0.45649625639E+02 -0.86710825751E+03  0.86968977124E+03  0.00000000000E+00 0. -1.
          1    1    1    2  502    0  0.14656163584E+02  0.63059953610E+02  0.48362201298E+03  0.48793607401E+03  0.00000000000E+00 0. -1.
         22    1    3    3    0    0  0.17525799843E+01 -0.61959118743E+02  0.15160605799E+03  0.16378766972E+03  0.00000000000E+00 0.  1.
         22    1    3    3    0    0 -0.65395268534E+02  0.44548790773E+02  0.17038032551E+03  0.18785790169E+03  0.00000000000E+00 0.  1.
</event>
<event>
 7    1  0.6485470E-006  0.2136167E+03  0.7818608E-02  0.1245058E+00
          2   -1    0    0  502    0  0.00000000000E+00  0.00000000000E+00  0.76475871408E+03  0.76475871408E+03  0.00000000000E+00 0. -1.
          1   -1    0    0  501    0 -0.00000000000E+00 -0.00000000000E+00 -0.58196991653E+03  0.58196991653E+03  0.00000000000E+00 0. -1.
         25    2    1    2    0    0  0.12875828775E+03  0.95467104474E+02  0.87338465675E+02  0.22123683829E+03  0.12500026532E+03 0.  0.
          2    1    1    2  501    0 -0.16065418615E+03 -0.15335121403E+03 -0.48912792785E+03  0.53718943789E+03  0.00000000000E+00 0. -1.
          1    1    1    2  502    0  0.31895898398E+02  0.57884109560E+02  0.58457825973E+03  0.58830235443E+03  0.00000000000E+00 0. -1.
         22    1    3    3    0    0  0.14806545574E+03  0.71559365288E+02  0.94519369585E+02  0.18967876310E+03  0.00000000000E+00 0. -1.
         22    1    3    3    0    0 -0.19307167991E+02  0.23907739185E+02 -0.71809039096E+01  0.31558075191E+02  0.00000000000E+00 0. -1.
</event>
<event>
 7    1  0.6485470E-006  0.1088812E+03  0.7818608E-02  0.1410240E+00
          2   -1    0    0  502    0  0.00000000000E+00  0.00000000000E+00  0.50320583634E+02  0.50320583634E+02  0.00000000000E+00 0. -1.
          1   -1    0    0  501    0 -0.00000000000E+00 -0.00000000000E+00 -0.22265515961E+04  0.22265515961E+04  0.00000000000E+00 0. -1.
         25    2    1    2    0    0  0.70512018086E+02  0.38037042829E+02 -0.10051292505E+03  0.17929454339E+03  0.12499969546E+03 0.  0.
          2    1    1    2  501    0 -0.95045689487E+02 -0.55280039532E+02 -0.20614306314E+04  0.20643608730E+04  0.00000000000E+00 0. -1.
          1    1    1    2  502    0  0.24533671402E+02  0.17242996702E+02 -0.14287455998E+02  0.33216763337E+02  0.00000000000E+00 0. -1.
         22    1    3    3    0    0  0.16643059210E+02  0.67152033124E+02 -0.95403397799E+02  0.11784818745E+03  0.00000000000E+00 0. -1.
         22    1    3    3    0    0  0.53868958876E+02 -0.29114990295E+02 -0.51095272548E+01  0.61446355946E+02  0.00000000000E+00 0. -1.
</event>
<event>
 7    1  0.6485470E-006  0.2904980E+02  0.7818608E-02  0.1615199E+00
          2   -1    0    0  502    0  0.00000000000E+00  0.00000000000E+00  0.12979945983E+04  0.12979945983E+04  0.00000000000E+00 0. -1.
          1   -1    0    0  501    0 -0.00000000000E+00 -0.00000000000E+00 -0.11750187830E+03  0.11750187830E+03  0.00000000000E+00 0. -1.
         25    2    1    2    0    0  0.69066491884E+00 -0.38501431293E+00  0.34438420241E+00  0.12500174779E+03  0.12499877238E+03 0.  0.
          2    1    1    2  501    0 -0.14762488645E+02  0.25799082249E+02 -0.50985974418E+02  0.59017737192E+02  0.00000000000E+00 0. -1.
          1    1    1    2  502    0  0.14071823727E+02 -0.25414067937E+02  0.12311343102E+04  0.12314769916E+04  0.00000000000E+00 0. -1.
         22    1    3    3    0    0  0.54142805699E+02 -0.11360744201E+02  0.29962237235E+02  0.62914589548E+02  0.00000000000E+00 0. -1.
         22    1    3    3    0    0 -0.53452140780E+02  0.10975729888E+02 -0.29617853033E+02  0.62087158244E+02  0.00000000000E+00 0. -1.
</event>
<event>
 7    1  0.6485470E-006  0.2695634E+03  0.7818608E-02  0.1205961E+00
          2   -1    0    0  502    0  0.00000000000E+00  0.00000000000E+00  0.94346407264E+03  0.94346407264E+03  0.00000000000E+00 0. -1.
          1   -1    0    0  501    0 -0.00000000000E+00 -0.00000000000E+00 -0.11971904159E+04  0.11971904159E+04  0.00000000000E+00 0. -1.
         25    2    1    2    0    0 -0.20497542753E+03 -0.10281966415E+03  0.15468557252E+03  0.30354399467E+03  0.12499808450E+03 0.  0.
          2    1    1    2  501    0  0.20397618476E+03  0.18147796599E+03 -0.11039134980E+04  0.11371743697E+04  0.00000000000E+00 0. -1.
          1    1    1    2  502    0  0.99924277571E+00 -0.78658301838E+02  0.69550158224E+03  0.69993612411E+03  0.00000000000E+00 0. -1.
         22    1    3    3    0    0 -0.22228475917E+03 -0.95078615487E+02  0.13858316361E+03  0.27866781392E+03  0.00000000000E+00 0. -1.
         22    1    3    3    0    0  0.17309331635E+02 -0.77410486645E+01  0.16102408911E+02  0.24876180752E+02  0.00000000000E+00 0. -1.
</event>
<event>
 7    1  0.6485470E-006  0.5550809E+02  0.7818608E-02  0.1430229E+00
          2   -1    0    0  502    0  0.00000000000E+00  0.00000000000E+00  0.12529831257E+04  0.12529831257E+04  0.00000000000E+00 0. -1.
          1   -1    0    0  501    0 -0.00000000000E+00 -0.00000000000E+00 -0.48987985190E+03  0.48987985190E+03  0.00000000000E+00 0. -1.
         25    2    1    2    0    0  0.23998843737E+02  0.25441285001E+02  0.41677573451E+03  0.43652042497E+03  0.12499946024E+03 0.  0.
          2    1    1    2  501    0  0.34293322403E+02 -0.36990172462E+02 -0.47760930976E+03  0.48026550739E+03  0.00000000000E+00 0. -1.
          1    1    1    2  502    0 -0.58292166140E+02  0.11548887461E+02  0.82393684910E+03  0.82607704528E+03  0.00000000000E+00 0. -1.
         22    1    3    3    0    0  0.73936268267E+02  0.25449946135E+02  0.28721921367E+03  0.29767288796E+03  0.00000000000E+00 0. -1.
         22    1    3    3    0    0 -0.49937424530E+02 -0.86611335895E-02  0.12955652084E+03  0.13884753701E+03  0.00000000000E+00 0. -1.
</event>
<event>
 7    1  0.6485470E-006  0.1098411E+03  0.7818608E-02  0.1423472E+00
          2   -1    0    0  502    0  0.00000000000E+00  0.00000000000E+00  0.92241164430E+02  0.92241164430E+02  0.00000000000E+00 0. -1.
          1   -1    0    0  501    0 -0.00000000000E+00 -0.00000000000E+00 -0.50347414232E+03  0.50347414232E+03  0.00000000000E+00 0. -1.
         25    2    1    2    0    0 -0.31862778424E+02 -0.11192167147E+03 -0.31734163996E+03  0.36037806654E+03  0.12499974877E+03 0.  0.
          2    1    1    2  501    0 -0.21281023403E+02  0.16349450874E+02 -0.11995482167E+03  0.12292007868E+03  0.00000000000E+00 0. -1.
          1    1    1    2  502    0  0.53143801827E+02  0.95572220599E+02  0.26063483741E+02  0.11241716153E+03  0.00000000000E+00 0. -1.
         22    1    3    3    0    0 -0.41982767129E+02 -0.13608286121E+03 -0.28627844630E+03  0.31974434579E+03  0.00000000000E+00 0. -1.
         22    1    3    3    0    0  0.10119988705E+02  0.24161189737E+02 -0.31063193665E+02  0.40633720745E+02  0.00000000000E+00 0. -1.
</event>
<event>
 7    1  0.6485470E-006  0.1659396E+03  0.7818608E-02  0.1239994E+00
          2   -1    0    0  502    0  0.00000000000E+00  0.00000000000E+00  0.11129648348E+04  0.11129648348E+04  0.00000000000E+00 0. -1.
          1   -1    0    0  501    0 -0.00000000000E+00 -0.00000000000E+00 -0.38158241748E+03  0.38158241748E+03  0.00000000000E+00 0. -1.
         25    2    1    2    0    0 -0.24857995857E+02  0.23255815067E+03  0.41414015926E+03  0.49177082935E+03  0.12500105474E+03 0.  0.
          2    1    1    2  501    0 -0.28746019098E+02 -0.16082502793E+03 -0.31998966036E+03  0.35928318352E+03  0.00000000000E+00 0. -1.
          1    1    1    2  502    0  0.53604014955E+02 -0.71733122746E+02  0.63723191844E+03  0.64349323943E+03  0.00000000000E+00 0. -1.
         22    1    3    3    0    0 -0.75114874028E+02  0.13829427494E+03  0.26723326751E+03  0.31013089179E+03  0.00000000000E+00 0. -1.
         22    1    3    3    0    0  0.50256878170E+02  0.94263875737E+02  0.14690689176E+03  0.18163993756E+03  0.00000000000E+00 0. -1.
</event>
<event>
 7    1  0.6485470E-006  0.1735544E+03  0.7818608E-02  0.1385454E+00
          2   -1    0    0  502    0  0.00000000000E+00  0.00000000000E+00  0.22008531099E+04  0.22008531099E+04  0.00000000000E+00 0. -1.
          1   -1    0    0  501    0 -0.00000000000E+00 -0.00000000000E+00 -0.69725303546E+02  0.69725303546E+02  0.00000000000E+00 0. -1.
         25    2    1    2    0    0  0.61488175719E+02 -0.14735569128E+03  0.63612885392E+03  0.66766747583E+03  0.12500177592E+03 0.  0.
          2    1    1    2  501    0  0.20032882133E+02 -0.11108001385E+02 -0.46134784337E+02  0.51508469082E+02  0.00000000000E+00 0. -1.
          1    1    1    2  502    0 -0.81521057852E+02  0.15846369267E+03  0.15411337368E+04  0.15514024685E+04  0.00000000000E+00 0. -1.
         22    1    3    3    0    0 -0.30737932753E+02 -0.60549034145E+01  0.14547988862E+03  0.14881491981E+03  0.00000000000E+00 0.  1.
         22    1    3    3    0    0  0.92226108472E+02 -0.14130078787E+03  0.49064896530E+03  0.51885255602E+03  0.00000000000E+00 0.  1.
</event>
<event>
 7    1  0.6485470E-006  0.1335712E+03  0.7818608E-02  0.1231621E+00
          2   -1    0    0  502    0  0.00000000000E+00  0.00000000000E+00  0.40038869545E+04  0.40038869545E+04  0.00000000000E+00 0. -1.
          1   -1    0    0  501    0 -0.00000000000E+00 -0.00000000000E+00 -0.47851029424E+03  0.47851029424E+03  0.00000000000E+00 0. -1.
         25    2    1    2    0    0 -0.59259724022E+02  0.17340625312E+03  0.69461213711E+03  0.72917174921E+03  0.12499590119E+03 0.  0.
          2    1    1    2  501    0  0.11013900812E+03 -0.50573017859E+02 -0.45190009000E+03  0.46786955723E+03  0.00000000000E+00 0. -1.
          1    1    1    2  502    0 -0.50879284098E+02 -0.12283323526E+03  0.32826646131E+04  0.32853559423E+04  0.00000000000E+00 0. -1.
         22    1    3    3    0    0  0.13110892752E+02  0.79009761478E+00  0.41277723017E+01  0.13768016094E+02  0.00000000000E+00 0. -1.
         22    1    3    3    0    0 -0.72370616774E+02  0.17261615551E+03  0.69048436481E+03  0.71540373312E+03  0.00000000000E+00 0. -1.
</event>
<event>
 7    1  0.6485470E-006  0.1240488E+03  0.7818608E-02  0.1385671E+00
          2   -1    0    0  502    0  0.00000000000E+00  0.00000000000E+00  0.11750479848E+04  0.11750479848E+04  0.00000000000E+00 0. -1.
          1   -1    0    0  501    0 -0.00000000000E+00 -0.00000000000E+00 -0.83034694914E+02  0.83034694914E+02  0.00000000000E+00 0. -1.
         25    2    1    2    0    0  0.12095283008E+03 -0.83572977396E+02  0.36451484862E+03  0.41244389662E+03  0.12499945337E+03 0.  0.
          2    1    1    2  501    0 -0.14522497295E+02  0.28505713398E+02 -0.49781990763E+02  0.59175376875E+02  0.00000000000E+00 0. -1.
          1    1    1    2  502    0 -0.10643033278E+03  0.55067263998E+02  0.77728043204E+03  0.78646340623E+03  0.00000000000E+00 0. -1.
         22    1    3    3    0    0 -0.23789073142E+02 -0.14889886378E+02  0.93446916282E+02  0.97570256123E+02  0.00000000000E+00 0. -1.
         22    1    3    3    0    0  0.14474190322E+03 -0.68683091018E+02  0.27106793234E+03  0.31487364050E+03  0.00000000000E+00 0. -1.
</event>
<event>
 7    1  0.6485470E-006  0.7360022E+02  0.7818608E-02  0.1365562E+00
          2   -1    0    0  502    0  0.00000000000E+00  0.00000000000E+00  0.48347848711E+03  0.48347848711E+03  0.00000000000E+00 0. -1.
          1   -1    0    0  501    0 -0.00000000000E+00 -0.00000000000E+00 -0.51989497067E+02  0.51989497067E+02  0.00000000000E+00 0. -1.
         25    2    1    2    0    0 -0.91491465049E+02  0.13271306386E+01  0.28251774860E+03  0.32218768887E+03  0.12496471155E+03 0.  0.
          2    1    1    2  501    0  0.52962498078E+02 -0.51925443176E+02  0.33352665158E+02  0.81324523515E+02  0.00000000000E+00 0. -1.
          1    1    1    2  502    0  0.38528966971E+02  0.50598312538E+02  0.11561857628E+03  0.13195577179E+03  0.00000000000E+00 0. -1.
         22    1    3    3    0    0 -0.69839259045E+02  0.60156951770E+02  0.17062473757E+03  0.19393086918E+03  0.00000000000E+00 0. -1.
         22    1    3    3    0    0 -0.21652206004E+02 -0.58829821132E+02  0.11189301103E+03  0.12825681969E+03  0.00000000000E+00 0. -1.
</event>
<event>
 7    1  0.6485470E-006  0.4927866E+02  0.7818608E-02  0.1490382E+00
          2   -1    0    0  502    0  0.00000000000E+00  0.00000000000E+00  0.13759402075E+04  0.13759402075E+04  0.00000000000E+00 0. -1.
          1   -1    0    0  501    0 -0.00000000000E+00 -0.00000000000E+00 -0.18125114454E+02  0.18125114454E+02  0.00000000000E+00 0. -1.
         25    2    1    2    0    0  0.56582695897E+02 -0.62072714448E+02  0.38635920080E+03  0.41466980934E+03  0.12499198126E+03 0.  0.
          2    1    1    2  501    0 -0.27610352101E+02  0.24184437280E+02  0.98157094158E+02  0.10479519876E+03  0.00000000000E+00 0. -1.
          1    1    1    2  502    0 -0.28972343795E+02  0.37888277168E+02  0.87329879809E+03  0.87460031386E+03  0.00000000000E+00 0. -1.
         22    1    3    3    0    0  0.91186592463E+02 -0.20475267052E+02  0.28255293432E+03  0.29760778199E+03  0.00000000000E+00 0. -1.
         22    1    3    3    0    0 -0.34603896566E+02 -0.41597447396E+02  0.10380626648E+03  0.11706202736E+03  0.00000000000E+00 0. -1.
</event>
<event>
 7    1  0.6485470E-006  0.1768896E+03  0.7818608E-02  0.1245491E+00
          2   -1    0    0  502    0  0.00000000000E+00  0.00000000000E+00  0.22378088442E+03  0.22378088442E+03  0.00000000000E+00 0. -1.
          1   -1    0    0  501    0 -0.00000000000E+00 -0.00000000000E+00 -0.10686545717E+04  0.10686545717E+04  0.00000000000E+00 0. -1.
         25    2    1    2    0    0 -0.20546819094E+02  0.20201846145E+02 -0.49638583087E+03  0.51269221850E+03  0.12499652581E+03 0.  0.
          2    1    1    2  501    0  0.11582378734E+03 -0.16923950041E+03 -0.50405552935E+03  0.54417748473E+03  0.00000000000E+00 0. -1.
          1    1    1    2  502    0 -0.95276968247E+02  0.14903765427E+03  0.15556767295E+03  0.23556575289E+03  0.00000000000E+00 0. -1.
         22    1    3    3    0    0  0.26195192311E+02  0.60895206079E+02 -0.25982034024E+03  0.26814366191E+03  0.00000000000E+00 0. -1.
         22    1    3    3    0    0 -0.46742011405E+02 -0.40693359933E+02 -0.23656549063E+03  0.24454855659E+03  0.00000000000E+00 0. -1.
</event>
<event>
 7    1  0.6485470E-006  0.9359554E+02  0.7818608E-02  0.1418504E+00
          2   -1    0    0  502    0  0.00000000000E+00  0.00000000000E+00  0.16096686947E+04  0.16096686947E+04  0.00000000000E+00 0. -1.
          1   -1    0    0  501    0 -0.00000000000E+00 -0.00000000000E+00 -0.22965519943E+02  0.22965519943E+02  0.00000000000E+00 0. -1.
         25    2    1    2    0    0  0.82484894660E+02  0.93572564652E+01  0.28724738393E+03  0.32407970080E+03  0.12500110718E+03 0.  0.
          2    1    1    2  501    0  0.10125488780E+02 -0.31112936555E+02  0.97574127547E+02  0.10291380233E+03  0.00000000000E+00 0. -1.
          1    1    1    2  502    0 -0.92610383440E+02  0.21755680090E+02  0.12018816633E+04  0.12056407116E+04  0.00000000000E+00 0. -1.
         22    1    3    3    0    0  0.10882045540E+03  0.33653389951E+02  0.20917679128E+03  0.23817928579E+03  0.00000000000E+00 0.  1.
         22    1    3    3    0    0 -0.26335560735E+02 -0.24296133486E+02  0.78070592651E+02  0.85900415008E+02  0.00000000000E+00 0.  1.
</event>
<event>
 7    1  0.6485470E-006  0.1427672E+03  0.7818608E-02  0.1278669E+00
          2   -1    0    0  502    0  0.00000000000E+00  0.00000000000E+00  0.29937627700E+03  0.29937627700E+03  0.00000000000E+00 0. -1.
          1   -1    0    0  501    0 -0.00000000000E+00 -0.00000000000E+00 -0.11158679995E+04  0.11158679995E+04  0.00000000000E+00 0. -1.
         25    2    1    2    0    0  0.50980946814E+02  0.74906821023E+02 -0.20555706780E+03  0.25707813205E+03  0.12500147632E+03 0.  0.
          2    1    1    2  501    0 -0.17313698796E+02  0.68998456109E+02 -0.86302261388E+03  0.86594952692E+03  0.00000000000E+00 0. -1.
          1    1    1    2  502    0 -0.33667248018E+02 -0.14390527713E+03  0.25208795920E+03  0.29221661751E+03  0.00000000000E+00 0. -1.
         22    1    3    3    0    0 -0.23130248001E+01 -0.32076738239E+02 -0.25888576851E+02  0.41285416689E+02  0.00000000000E+00 0.  1.
         22    1    3    3    0    0  0.53293971614E+02  0.10698355926E+03 -0.17966849094E+03  0.21579271536E+03  0.00000000000E+00 0.  1.
</event>
<event>
 7    1  0.6485470E-006  0.6464716E+02  0.7818608E-02  0.1451134E+00
          2   -1    0    0  502    0  0.00000000000E+00  0.00000000000E+00  0.38516409553E+03  0.38516409553E+03  0.00000000000E+00 0. -1.
          1   -1    0    0  501    0 -0.00000000000E+00 -0.00000000000E+00 -0.18178687785E+03  0.18178687785E+03  0.00000000000E+00 0. -1.
         25    2    1    2    0    0 -0.34245420353E+02  0.52086801643E+01  0.50925590845E+02  0.13935333529E+03  0.12500422829E+03 0.  0.
          2    1    1    2  501    0 -0.31879223517E+02 -0.18882953015E+02 -0.13103884328E+03  0.13617646366E+03  0.00000000000E+00 0. -1.
          1    1    1    2  502    0  0.66124643870E+02  0.13674272850E+02  0.28349047011E+03  0.29142117443E+03  0.00000000000E+00 0. -1.
         22    1    3    3    0    0 -0.27242049816E+02  0.20708322639E+01  0.92822354183E+02  0.96759532143E+02  0.00000000000E+00 0.  1.
         22    1    3    3    0    0 -0.70033705366E+01  0.31378479004E+01 -0.41896763338E+02  0.42593803147E+02  0.00000000000E+00 0.  1.
</event>
<event>
 7    1  0.6485470E-006  0.2049907E+03  0.7818608E-02  0.1245637E+00
          2   -1    0    0  502    0  0.00000000000E+00  0.00000000000E+00  0.31850179492E+03  0.31850179492E+03  0.00000000000E+00 0. -1.
          1   -1    0    0  501    0 -0.00000000000E+00 -0.00000000000E+00 -0.36971409985E+03  0.36971409985E+03  0.00000000000E+00 0. -1.
         25    2    1    2    0    0  0.12015266027E+03  0.12011310052E+03 -0.52570231703E+02  0.21737626370E+03  0.12499996830E+03 0.  0.
          2    1    1    2  501    0 -0.18686228296E+03 -0.13554325750E+03 -0.16975101277E+03  0.28653951522E+03  0.00000000000E+00 0. -1.
          1    1    1    2  502    0  0.66709622697E+02  0.15430156980E+02  0.17110893955E+03  0.18430011584E+03  0.00000000000E+00 0. -1.
         22    1    3    3    0    0  0.76095287799E+02  0.11227253654E+03  0.14866447045E+02  0.13644275919E+03  0.00000000000E+00 0.  1.
         22    1    3    3    0    0  0.44057372466E+02  0.78405639730E+01 -0.67436678748E+02  0.80933504512E+02  0.00000000000E+00 0.  1.
</event>
<event>
 7    1  0.6485470E-006  0.7354037E+02  0.7818608E-02  0.1371060E+00
          2   -1    0    0  502    0  0.00000000000E+00  0.00000000000E+00  0.73334112470E+03  0.73334112470E+03  0.00000000000E+00 0. -1.
          1   -1    0    0  501    0 -0.00000000000E+00 -0.00000000000E+00 -0.14943980466E+04  0.14943980466E+04  0.00000000000E+00 0. -1.
         25    2    1    2    0    0 -0.48165523293E+02  0.43218504397E+02  0.84736727427E+02  0.16428695507E+03  0.12498853497E+03 0.  0.
          2    1    1    2  501    0  0.51647673550E+02  0.32100611465E+02 -0.14516494816E+04  0.14529226231E+04  0.00000000000E+00 0. -1.
          1    1    1    2  502    0 -0.34821502561E+01 -0.75319115863E+02  0.60585583225E+03  0.61052959310E+03  0.00000000000E+00 0. -1.
         22    1    3    3    0    0 -0.48129033430E+02 -0.36839567674E+02  0.33780656733E+02  0.69387969956E+02  0.00000000000E+00 0.  1.
         22    1    3    3    0    0 -0.36489863766E-01  0.80058072071E+02  0.50956070694E+02  0.94898985115E+02  0.00000000000E+00 0.  1.
</event>
<event>
 7    1  0.6485470E-006  0.3484474E+03  0.7818608E-02  0.1229190E+00
          2   -1    0    0  502    0  0.00000000000E+00  0.00000000000E+00  0.31102417498E+04  0.31102417498E+04  0.00000000000E+00 0. -1.
          1   -1    0    0  501    0 -0.00000000000E+00 -0.00000000000E+00 -0.18540037031E+04  0.18540037031E+04  0.00000000000E+00 0. -1.
         25    2    1    2    0    0 -0.15069379164E+03  0.29863203190E+03  0.15894542042E+03  0.39087005474E+03  0.12500417475E+03 0.  0.
          2    1    1    2  501    0  0.19724972430E+03 -0.28853671713E+03 -0.17202663734E+04  0.17554137080E+04  0.00000000000E+00 0. -1.
          1    1    1    2  502    0 -0.46555932669E+02 -0.10095314763E+02  0.28175589997E+04  0.28179616901E+04  0.00000000000E+00 0. -1.
         22    1    3    3    0    0 -0.16068991327E+03  0.22159772948E+03  0.15144239517E+03  0.31282838904E+03  0.00000000000E+00 0.  1.
         22    1    3    3    0    0  0.99961216303E+01  0.77034302414E+02  0.75030252535E+01  0.78041665692E+02  0.00000000000E+00 0.  1.
</event>
<event>
 7    1  0.6485470E-006  0.7108223E+02  0.7818608E-02  0.1415448E+00
          2   -1    0    0  502    0  0.00000000000E+00  0.00000000000E+00  0.87932250008E+03  0.87932250008E+03  0.00000000000E+00 0. -1.
          1   -1    0    0  501    0 -0.00000000000E+00 -0.00000000000E+00 -0.10863807442E+03  0.10863807442E+03  0.00000000000E+00 0. -1.
         25    2    1    2    0    0 -0.93378288509E+02  0.35957977525E+02  0.24250185915E+03  0.29059517901E+03  0.12500370178E+03 0.  0.
          2    1    1    2  501    0  0.69861096960E+02  0.13613984333E+01 -0.69208738306E+02  0.98347728658E+02  0.00000000000E+00 0. -1.
          1    1    1    2  502    0  0.23517191549E+02 -0.37319375958E+02  0.59739130481E+03  0.59901766684E+03  0.00000000000E+00 0. -1.
         22    1    3    3    0    0  0.36063497978E+01  0.47174485278E+02  0.28142277391E+02  0.55049301511E+02  0.00000000000E+00 0. -1.
         22    1    3    3    0    0 -0.96984638307E+02 -0.11216507752E+02  0.21435958176E+03  0.23554587750E+03  0.00000000000E+00 0. -1.
</event>
<event>
 7    1  0.6485470E-006  0.6384813E+02  0.7818608E-02  0.1420253E+00
          2   -1    0    0  502    0  0.00000000000E+00  0.00000000000E+00  0.44147760614E+03  0.44147760614E+03  0.00000000000E+00 0. -1.
          1   -1    0    0  501    0 -0.00000000000E+00 -0.00000000000E+00 -0.57790361667E+03  0.57790361667E+03  0.00000000000E+00 0. -1.
         25    2    1    2    0    0 -0.15038007422E+02 -0.24223885803E+02  0.25856722905E+02  0.13079217247E+03  0.12500033580E+03 0.  0.
          2    1    1    2  501    0 -0.47287610276E+02  0.18016625347E+01 -0.52133505549E+03  0.52347837028E+03  0.00000000000E+00 0. -1.
          1    1    1    2  502    0  0.62325617698E+02  0.22422223269E+02  0.35905232205E+03  0.36511068005E+03  0.00000000000E+00 0. -1.
         22    1    3    3    0    0 -0.10497427252E+02 -0.39750035287E+02  0.71439075451E+02  0.82424527815E+02  0.00000000000E+00 0.  1.
         22    1    3    3    0    0 -0.45405801699E+01  0.15526149483E+02 -0.45582352546E+02  0.48367644657E+02  0.00000000000E+00 0.  1.
</event>
<event>
 7    1  0.6485470E-006  0.9031834E+02  0.7818608E-02  0.1356585E+00
          2   -1    0    0  502    0  0.00000000000E+00  0.00000000000E+00  0.16115079926E+04  0.16115079926E+04  0.00000000000E+00 0. -1.
          1   -1    0    0  501    0 -0.00000000000E+00 -0.00000000000E+00 -0.13014442455E+04  0.13014442455E+04  0.00000000000E+00 0. -1.
         25    2    1    2    0    0 -0.43616779741E+02  0.13782559861E+03  0.17828367747E+03  0.26135944042E+03  0.12500147334E+03 0.  0.
          2    1    1    2  501    0  0.35797724828E+02 -0.82495550770E+02 -0.12577393898E+04  0.12609501837E+04  0.00000000000E+00 0. -1.
          1    1    1    2  502    0  0.78190549124E+01 -0.55330047844E+02  0.13895194594E+04  0.13906426140E+04  0.00000000000E+00 0. -1.
         22    1    3    3    0    0 -0.23946351429E+02  0.15818128091E+03  0.13344041668E+03  0.20832928306E+03  0.00000000000E+00 0. -1.
         22    1    3    3    0    0 -0.19670428311E+02 -0.20355682294E+02  0.44843260789E+02  0.53030157362E+02  0.00000000000E+00 0. -1.
</event>
<event>
 7    1  0.6485470E-006  0.4954276E+02  0.7818608E-02  0.1467869E+00
          2   -1    0    0  502    0  0.00000000000E+00  0.00000000000E+00  0.31983211403E+03  0.31983211403E+03  0.00000000000E+00 0. -1.
          1   -1    0    0  501    0 -0.00000000000E+00 -0.00000000000E+00 -0.30394823983E+03  0.30394823983E+03  0.00000000000E+00 0. -1.
         25    2    1    2    0    0 -0.36395557655E+02  0.33160670537E+02  0.37103547888E+02  0.13937784477E+03  0.12500097464E+03 0.  0.
          2    1    1    2  501    0  0.39174528735E+02  0.17264942212E+02 -0.24820347983E+03  0.25186839685E+03  0.00000000000E+00 0. -1.
          1    1    1    2  502    0 -0.27789710798E+01 -0.50425612748E+02  0.22698380615E+03  0.23253411224E+03  0.00000000000E+00 0. -1.
         22    1    3    3    0    0 -0.34355800310E+02 -0.36271015105E+02  0.47746023918E+02  0.69105646309E+02  0.00000000000E+00 0. -1.
         22    1    3    3    0    0 -0.20397573448E+01  0.69431685642E+02 -0.10642476030E+02  0.70272198465E+02  0.00000000000E+00 0. -1.
</event>
<event>
 7    1  0.6485470E-006  0.3078563E+02  0.7818608E-02  0.1622020E+00
          2   -1    0    0  502    0  0.00000000000E+00  0.00000000000E+00  0.10945102245E+04  0.10945102245E+04  0.00000000000E+00 0. -1.
          1   -1    0    0  501    0 -0.00000000000E+00 -0.00000000000E+00 -0.37329474990E+03  0.37329474990E+03  0.00000000000E+00 0. -1.
         25    2    1    2    0    0  0.75637772041E+01 -0.70603419436E+01  0.50866809012E+03  0.52390493784E+03  0.12500439528E+03 0.  0.
          2    1    1    2  501    0 -0.46067481882E+01 -0.24938919806E+02 -0.36478923862E+03  0.36566974234E+03  0.00000000000E+00 0. -1.
          1    1    1    2  502    0 -0.29570290159E+01  0.31999261750E+02  0.57733662312E+03  0.57823029423E+03  0.00000000000E+00 0. -1.
         22    1    3    3    0    0 -0.46424489774E+02 -0.38288975115E+02  0.30584397710E+03  0.31170790365E+03  0.00000000000E+00 0.  1.
         22    1    3    3    0    0  0.53988266978E+02  0.31228633172E+02  0.20282411301E+03  0.21219703419E+03  0.00000000000E+00 0.  1.
</event>
<event>
 7    1  0.6485470E-006  0.8865030E+02  0.7818608E-02  0.1388527E+00
          2   -1    0    0  502    0  0.00000000000E+00  0.00000000000E+00  0.13954695698E+04  0.13954695698E+04  0.00000000000E+00 0. -1.
          1   -1    0    0  501    0 -0.00000000000E+00 -0.00000000000E+00 -0.15013254538E+03  0.15013254538E+03  0.00000000000E+00 0. -1.
         25    2    1    2    0    0 -0.61122356599E+02 -0.11593450591E+03  0.36585178655E+02  0.18477056089E+03  0.12499973095E+03 0.  0.
          2    1    1    2  501    0  0.24921242086E+02  0.35953544824E+02 -0.68113479885E+02  0.80951663569E+02  0.00000000000E+00 0. -1.
          1    1    1    2  502    0  0.36201114513E+02  0.79980961088E+02  0.12768653257E+04  0.12798798908E+04  0.00000000000E+00 0. -1.
         22    1    3    3    0    0 -0.17289673156E+02 -0.13031407173E+03  0.10742851060E+02  0.13189427181E+03  0.00000000000E+00 0. -1.
         22    1    3    3    0    0 -0.43832683443E+02  0.14379565816E+02  0.25842327596E+02  0.52876289076E+02  0.00000000000E+00 0. -1.
</event>
<event>
 7    1  0.6485470E-006  0.1821172E+03  0.7818608E-02  0.1297838E+00
          2   -1    0    0  502    0  0.00000000000E+00  0.00000000000E+00  0.11091371745E+03  0.11091371745E+03  0.00000000000E+00 0. -1.
          1   -1    0    0  501    0 -0.00000000000E+00 -0.00000000000E+00 -0.70868353113E+03  0.70868353113E+03  0.00000000000E+00 0. -1.
         25    2    1    2    0    0  0.19514523388E+03 -0.48731143847E+02 -0.22866352415E+03  0.32919397606E+03  0.12500111963E+03 0.  0.
          2    1    1    2  501    0 -0.15835679533E+03  0.77301467697E+02 -0.39822457928E+03  0.43547124713E+03  0.00000000000E+00 0. -1.
          1    1    1    2  502    0 -0.36788438557E+02 -0.28570323849E+02  0.29118289739E+02  0.54932025392E+02  0.00000000000E+00 0. -1.
         22    1    3    3    0    0  0.13566577153E+03 -0.89601800123E+02 -0.13756545283E+03  0.21297403119E+03  0.00000000000E+00 0.  1.
         22    1    3    3    0    0  0.59479462353E+02  0.40870656276E+02 -0.91098071320E+02  0.11621994486E+03  0.00000000000E+00 0.  1.
</event>
<event>
 7    1  0.6485470E-006  0.5106931E+02  0.7818608E-02  0.1464664E+00
          2   -1    0    0  502    0  0.00000000000E+00  0.00000000000E+00  0.26514801467E+04  0.26514801467E+04  0.00000000000E+00 0. -1.
          1   -1    0    0  501    0 -0.00000000000E+00 -0.00000000000E+00 -0.10294120355E+03  0.10294120355E+03  0.00000000000E+00 0. -1.
         25    2    1    2    0    0 -0.65363737480E+02  0.23015202806E+02  0.39465481991E+03  0.41973853515E+03  0.12500357304E+03 0.  0.
          2    1    1    2  501    0  0.37631230803E+02  0.19752420945E+02 -0.85097952878E+02  0.95120603704E+02  0.00000000000E+00 0. -1.
          1    1    1    2  502    0  0.27732506677E+02 -0.42767623751E+02  0.22389820761E+04  0.22395622114E+04  0.00000000000E+00 0. -1.
         22    1    3    3    0    0 -0.45344479902E+02  0.64003430090E+02  0.33810295412E+03  0.34708236560E+03  0.00000000000E+00 0.  1.
         22    1    3    3    0    0 -0.20019257578E+02 -0.40988227285E+02  0.56551865790E+02  0.72656169554E+02  0.00000000000E+00 0.  1.
</event>
<event>
 7    1  0.6485470E-006  0.6090786E+02  0.7818608E-02  0.1406521E+00
          2   -1    0    0  502    0  0.00000000000E+00  0.00000000000E+00  0.12803328225E+04  0.12803328225E+04  0.00000000000E+00 0. -1.
          1   -1    0    0  501    0 -0.00000000000E+00 -0.00000000000E+00 -0.57955366739E+03  0.57955366739E+03  0.00000000000E+00 0. -1.
         25    2    1    2    0    0 -0.64817342234E+01  0.39927402462E+01  0.29015211048E+02  0.12854835632E+03  0.12499937035E+03 0.  0.
          2    1    1    2  501    0 -0.55186672607E+02 -0.38862031057E+00 -0.52755277503E+03  0.53043156986E+03  0.00000000000E+00 0. -1.
          1    1    1    2  502    0  0.61668406830E+02 -0.36041199356E+01  0.11993167191E+04  0.12009065637E+04  0.00000000000E+00 0. -1.
         22    1    3    3    0    0  0.11173901911E+02  0.52433795861E+02  0.49596430183E+02  0.73033998379E+02  0.00000000000E+00 0. -1.
         22    1    3    3    0    0 -0.17655636134E+02 -0.48441055615E+02 -0.20581219136E+02  0.55514357940E+02  0.00000000000E+00 0. -1.
</event>
<event>
 7    1  0.6485470E-006  0.7692944E+02  0.7818608E-02  0.1490650E+00
          2   -1    0    0  502    0  0.00000000000E+00  0.00000000000E+00  0.19987203052E+03  0.19987203052E+03  0.00000000000E+00 0. -1.
          1   -1    0    0  501    0 -0.00000000000E+00 -0.00000000000E+00 -0.17355554311E+04  0.17355554311E+04  0.00000000000E+00 0. -1.
         25    2    1    2    0    0  0.83853961871E+02  0.38026409664E+02 -0.74232348941E+03  0.75838516159E+03  0.12500558246E+03 0.  0.
          2    1    1    2  501    0 -0.60901749923E+02 -0.42919768626E+02 -0.98306841496E+03  0.98588774117E+03  0.00000000000E+00 0. -1.
          1    1    1    2  502    0 -0.22952211949E+02  0.48933589617E+01  0.18970850375E+03  0.19115455891E+03  0.00000000000E+00 0. -1.
         22    1    3    3    0    0  0.49356024319E+02  0.68429616442E+02 -0.64778756923E+03  0.65325903315E+03  0.00000000000E+00 0.  1.
         22    1    3    3    0    0  0.34497937552E+02 -0.30403206778E+02 -0.94535920172E+02  0.10512612844E+03  0.00000000000E+00 0.  1.
</event>
<event>
 7    1  0.6485470E-006  0.7712537E+02  0.7818608E-02  0.1373892E+00
          2   -1    0    0  502    0  0.00000000000E+00  0.00000000000E+00  0.77166092193E+03  0.77166092193E+03  0.00000000000E+00 0. -1.
          1   -1    0    0  501    0 -0.00000000000E+00 -0.00000000000E+00 -0.24492540924E+03  0.24492540924E+03  0.00000000000E+00 0. -1.
         25    2    1    2    0    0  0.50033735435E+01  0.23286771189E+02  0.18736866208E+03  0.22649340670E+03  0.12499976116E+03 0.  0.
          2    1    1    2  501    0  0.70221292986E+01 -0.78640916525E+02 -0.21696526429E+03  0.23088445154E+03  0.00000000000E+00 0. -1.
          1    1    1    2  502    0 -0.12025502842E+02  0.55354145336E+02  0.55633211491E+03  0.55920847294E+03  0.00000000000E+00 0. -1.
         22    1    3    3    0    0  0.52263840471E+02  0.50477955301E+02  0.10347664719E+03  0.12643950927E+03  0.00000000000E+00 0.  1.
         22    1    3    3    0    0 -0.47260466928E+02 -0.27191184112E+02  0.83892014887E+02  0.10005389742E+03  0.00000000000E+00 0.  1.
</event>
<event>
 7    1  0.6485470E-006  0.6668318E+02  0.7818608E-02  0.1421557E+00
          2   -1    0    0  502    0  0.00000000000E+00  0.00000000000E+00  0.17263036413E+04  0.17263036413E+04  0.00000000000E+00 0. -1.
          1   -1    0    0  501    0 -0.00000000000E+00 -0.00000000000E+00 -0.11948838339E+04  0.11948838339E+04  0.00000000000E+00 0. -1.
         25    2    1    2    0    0  0.48725020083E+02 -0.72587826379E+02  0.55801802611E+03  0.57849017949E+03  0.12499460061E+03 0.  0.
          2    1    1    2  501    0 -0.42773572508E+01  0.66531123260E+02 -0.11832746732E+04  0.11851513145E+04  0.00000000000E+00 0. -1.
          1    1    1    2  502    0 -0.44447662832E+02  0.60567031191E+01  0.11566764545E+04  0.11575459812E+04  0.00000000000E+00 0. -1.
         22    1    3    3    0    0  0.59241646417E+02 -0.73192293152E+02  0.55992279891E+03  0.56778536894E+03  0.00000000000E+00 0.  1.
         22    1    3    3    0    0 -0.10516626333E+02  0.60446677218E+00 -0.19047727957E+01  0.10704810550E+02  0.00000000000E+00 0.  1.
</event>
<event>
 7    1  0.6485470E-006  0.4302636E+02  0.7818608E-02  0.1584899E+00
          2   -1    0    0  502    0  0.00000000000E+00  0.00000000000E+00  0.27038545009E+03  0.27038545009E+03  0.00000000000E+00 0. -1.
          1   -1    0    0  501    0 -0.00000000000E+00 -0.00000000000E+00 -0.37220367698E+03  0.37220367698E+03  0.00000000000E+00 0. -1.
         25    2    1    2    0    0 -0.32658077032E+02  0.23046032098E+02  0.29186698384E+02  0.13444525034E+03  0.12500396947E+03 0.  0.
          2    1    1    2  501    0 -0.10670860395E+02 -0.19995664125E+02 -0.31666264709E+03  0.31747271679E+03  0.00000000000E+00 0. -1.
          1    1    1    2  502    0  0.43328937427E+02 -0.30503679728E+01  0.18565772182E+03  0.19067115994E+03  0.00000000000E+00 0. -1.
         22    1    3    3    0    0  0.30255317039E+02 -0.29523172874E+02 -0.10205239249E+02  0.43487341305E+02  0.00000000000E+00 0. -1.
         22    1    3    3    0    0 -0.62913394070E+02  0.52569204972E+02  0.39391937633E+02  0.90957909031E+02  0.00000000000E+00 0. -1.
</event>
<event>
 7    1  0.6485470E-006  0.2621108E+02  0.7818608E-02  0.1669177E+00
          2   -1    0    0  502    0  0.00000000000E+00  0.00000000000E+00  0.62322188078E+03  0.62322188078E+03  0.00000000000E+00 0. -1.
          1   -1    0    0  501    0 -0.00000000000E+00 -0.00000000000E+00 -0.93243097169E+03  0.93243097169E+03  0.00000000000E+00 0. -1.
         25    2    1    2    0    0 -0.32846714612E+02  0.33686538150E+02 -0.22648074892E+03  0.26292626892E+03  0.12499201472E+03 0.  0.
          2    1    1    2  501    0  0.13023767103E+02 -0.22444903007E+02 -0.68726791370E+03  0.68775764437E+03  0.00000000000E+00 0. -1.
          1    1    1    2  502    0  0.19822947509E+02 -0.11241635143E+02  0.60453957171E+03  0.60496893918E+03  0.00000000000E+00 0. -1.
         22    1    3    3    0    0 -0.31435449983E+02  0.61780911042E+01  0.26496556804E+01  0.32146181742E+02  0.00000000000E+00 0.  1.
         22    1    3    3    0    0 -0.14112646289E+01  0.27508447046E+02 -0.22913040460E+03  0.23078008718E+03  0.00000000000E+00 0.  1.
</event>
<event>
 7    1  0.6485470E-006  0.5409494E+02  0.7818608E-02  0.1476686E+00
          2   -1    0    0  502    0  0.00000000000E+00  0.00000000000E+00  0.24309699092E+03  0.24309699092E+03  0.00000000000E+00 0. -1.
          1   -1    0    0  501    0 -0.00000000000E+00 -0.00000000000E+00 -0.53471104060E+03  0.53471104060E+03  0.00000000000E+00 0. -1.
         25    2    1    2    0    0 -0.12158217174E+02  0.15130689927E+02  0.10241081627E+03  0.16275683832E+03  0.12500021243E+03 0.  0.
          2    1    1    2  501    0  0.46481611133E+02 -0.28445774511E+02 -0.49994965636E+03  0.50291088789E+03  0.00000000000E+00 0. -1.
          1    1    1    2  502    0 -0.34323393959E+02  0.13315084584E+02  0.10592479042E+03  0.11214030531E+03  0.00000000000E+00 0. -1.
         22    1    3    3    0    0 -0.65497992425E+02 -0.60003586833E+01  0.35943763549E+02  0.74952954939E+02  0.00000000000E+00 0.  1.
         22    1    3    3    0    0  0.53339775251E+02  0.21131048610E+02  0.66467052721E+02  0.87803883380E+02  0.00000000000E+00 0.  1.
</event>
<event>
 7    1  0.6485470E-006  0.8179407E+02  0.7818608E-02  0.1373083E+00
          2   -1    0    0  502    0  0.00000000000E+00  0.00000000000E+00  0.95219429608E+02  0.95219429608E+02  0.00000000000E+00 0. -1.
          1   -1    0    0  501    0 -0.00000000000E+00 -0.00000000000E+00 -0.26441439470E+04  0.26441439470E+04  0.00000000000E+00 0. -1.
         25    2    1    2    0    0  0.67091116009E+02 -0.10940379308E+03 -0.31811327680E+03  0.36509134377E+03  0.12500089851E+03 0.  0.
          2    1    1    2  501    0 -0.24399967908E+02  0.76714361179E+02 -0.22916582379E+04  0.22930717239E+04  0.00000000000E+00 0. -1.
          1    1    1    2  502    0 -0.42691148101E+02  0.32689431901E+02  0.60846997328E+02  0.81200308916E+02  0.00000000000E+00 0. -1.
         22    1    3    3    0    0  0.25349599176E+02 -0.30352257794E+02 -0.24893187855E+03  0.25205345046E+03  0.00000000000E+00 0. -1.
         22    1    3    3    0    0  0.41741516834E+02 -0.79051535285E+02 -0.69181398252E+02  0.11303789330E+03  0.00000000000E+00 0. -1.
</event>
<event>
 7    1  0.6485470E-006  0.9091840E+02  0.7818608E-02  0.1458606E+00
          2   -1    0    0  502    0  0.00000000000E+00  0.00000000000E+00  0.40926953429E+03  0.40926953429E+03  0.00000000000E+00 0. -1.
          1   -1    0    0  501    0 -0.00000000000E+00 -0.00000000000E+00 -0.15622921608E+03  0.15622921608E+03  0.00000000000E+00 0. -1.
         25    2    1    2    0    0 -0.63330422201E+02  0.92126863184E+02  0.93936029991E+02  0.19221662201E+03  0.12500060300E+03 0.  0.
          2    1    1    2  501    0  0.43727376469E+02 -0.76702061380E+02 -0.88155980213E+02  0.12476684864E+03  0.00000000000E+00 0. -1.
          1    1    1    2  502    0  0.19603045732E+02 -0.15424801804E+02  0.24726026843E+03  0.24851527972E+03  0.00000000000E+00 0. -1.
         22    1    3    3    0    0 -0.20658004266E+02  0.95169612580E+02  0.98618844964E+01  0.97883936704E+02  0.00000000000E+00 0. -1.
         22    1    3    3    0    0 -0.42672417936E+02 -0.30427493955E+01  0.84074145495E+02  0.94332685306E+02  0.00000000000E+00 0. -1.
</event>
<event>
 7    1  0.6485470E-006  0.4637810E+02  0.7818608E-02  0.1570927E+00
          2   -1    0    0  502    0  0.00000000000E+00  0.00000000000E+00  0.34615646092E+03  0.34615646092E+03  0.00000000000E+00 0. -1.
          1   -1    0    0  501    0 -0.00000000000E+00 -0.00000000000E+00 -0.61288069207E+02  0.61288069207E+02  0.00000000000E+00 0. -1.
         25    2    1    2    0    0  0.37482146688E+02  0.32500985246E+02  0.83891865352E+02  0.15850264274E+03  0.12499606923E+03 0.  0.
          2    1    1    2  501    0 -0.17274829667E+02 -0.43331519471E+02 -0.13923039614E-01  0.46648049407E+02  0.00000000000E+00 0. -1.
          1    1    1    2  502    0 -0.20207317022E+02  0.10830534224E+02  0.20099044940E+03  0.20229383798E+03  0.00000000000E+00 0. -1.
         22    1    3    3    0    0 -0.42969788203E+02 -0.20617709112E+01  0.46333978005E+02  0.63225715616E+02  0.00000000000E+00 0. -1.
         22    1    3    3    0    0  0.80451934891E+02  0.34562756157E+02  0.37557887348E+02  0.95276927128E+02  0.00000000000E+00 0. -1.
</event>
<event>
 7    1  0.6485470E-006  0.7106358E+02  0.7818608E-02  0.1469577E+00
          2   -1    0    0  502    0  0.00000000000E+00  0.00000000000E+00  0.17029235987E+04  0.17029235987E+04  0.00000000000E+00 0. -1.
          1   -1    0    0  501    0 -0.00000000000E+00 -0.00000000000E+00 -0.43989792905E+03  0.43989792905E+03  0.00000000000E+00 0. -1.
         25    2    1    2    0    0 -0.95730804839E+02 -0.28128634891E+02  0.30209104592E+03  0.34181880639E+03  0.12500195709E+03 0.  0.
          2    1    1    2  501    0  0.66498391263E+02  0.24300292548E+02 -0.41689182294E+03  0.42286089000E+03  0.00000000000E+00 0. -1.
          1    1    1    2  502    0  0.29232413575E+02  0.38283423425E+01  0.13778264466E+04  0.13781418313E+04  0.00000000000E+00 0. -1.
         22    1    3    3    0    0  0.86088156157E+01 -0.23603836680E+02  0.33482479340E+01  0.25346865221E+02  0.00000000000E+00 0. -1.
         22    1    3    3    0    0 -0.10433962045E+03 -0.45247982110E+01  0.29874279799E+03  0.31647194117E+03  0.00000000000E+00 0. -1.
</event>
<event>
 7    1  0.6485470E-006  0.7047409E+02  0.7818608E-02  0.1465855E+00
          2   -1    0    0  502    0  0.00000000000E+00  0.00000000000E+00  0.25597801058E+04  0.25597801058E+04  0.00000000000E+00 0. -1.
          1   -1    0    0  501    0 -0.00000000000E+00 -0.00000000000E+00 -0.98648812015E+03  0.98648812015E+03  0.00000000000E+00 0. -1.
         25    2    1    2    0    0  0.15735818929E+02  0.42462747007E+02  0.95434819456E+03  0.96356438221E+03  0.12500056526E+03 0.  0.
          2    1    1    2  501    0  0.39274752566E+01  0.30281006140E+02 -0.98075550982E+03  0.98123072437E+03  0.00000000000E+00 0. -1.
          1    1    1    2  502    0 -0.19663294185E+02 -0.72743753147E+02  0.15996993009E+04  0.16014731194E+04  0.00000000000E+00 0. -1.
         22    1    3    3    0    0 -0.52252873546E+02  0.19953585891E+02  0.28820706418E+03  0.29358443458E+03  0.00000000000E+00 0. -1.
         22    1    3    3    0    0  0.67988692475E+02  0.22509161116E+02  0.66614113038E+03  0.66997994763E+03  0.00000000000E+00 0. -1.
</event>
<event>
 7    1  0.6485470E-006  0.8672033E+02  0.7818608E-02  0.1321840E+00
          2   -1    0    0  502    0  0.00000000000E+00  0.00000000000E+00  0.45824679548E+04  0.45824679548E+04  0.00000000000E+00 0. -1.
          1   -1    0    0  501    0 -0.00000000000E+00 -0.00000000000E+00 -0.66740897148E+02  0.66740897148E+02  0.00000000000E+00 0. -1.
         25    2    1    2    0    0  0.10189217999E+03  0.39264030799E+02  0.60048542348E+03  0.62300157743E+03  0.12499816481E+03 0.  0.
          2    1    1    2  501    0 -0.34609322784E+02 -0.80029216803E+02 -0.20589324477E+02  0.89590183883E+02  0.00000000000E+00 0. -1.
          1    1    1    2  502    0 -0.67282857205E+02  0.40765186004E+02  0.39358309586E+04  0.39366170906E+04  0.00000000000E+00 0. -1.
         22    1    3    3    0    0  0.60889353277E+02  0.39829250986E+02  0.56223851623E+03  0.56692683101E+03  0.00000000000E+00 0.  1.
         22    1    3    3    0    0  0.41002826713E+02 -0.56522018704E+00  0.38246907250E+02  0.56074746424E+02  0.00000000000E+00 0.  1.
</event>
<event>
 7    1  0.6485470E-006  0.4629594E+02  0.7818608E-02  0.1578283E+00
          2   -1    0    0  502    0  0.00000000000E+00  0.00000000000E+00  0.33570684336E+03  0.33570684336E+03  0.00000000000E+00 0. -1.
          1   -1    0    0  501    0 -0.00000000000E+00 -0.00000000000E+00 -0.64920071591E+03  0.64920071591E+03  0.00000000000E+00 0. -1.
         25    2    1    2    0    0 -0.50663798989E+02  0.19749921333E+02  0.16665549701E+03  0.21530103254E+03  0.12499439990E+03 0.  0.
          2    1    1    2  501    0  0.46246937826E+02  0.17414694247E+01 -0.62318341136E+03  0.62489949285E+03  0.00000000000E+00 0. -1.
          1    1    1    2  502    0  0.44168611626E+01 -0.21491390758E+02  0.14303404181E+03  0.14470703388E+03  0.00000000000E+00 0. -1.
         22    1    3    3    0    0  0.31696621572E+02  0.28378066622E+02  0.20294109640E+02  0.47136412362E+02  0.00000000000E+00 0.  1.
         22    1    3    3    0    0 -0.82360420561E+02 -0.86281452881E+01  0.14636138737E+03  0.16816462017E+03  0.00000000000E+00 0.  1.
</event>
<event>
 7    1  0.6485470E-006  0.6957739E+02  0.7818608E-02  0.1488806E+00
          2   -1    0    0  502    0  0.00000000000E+00  0.00000000000E+00  0.93607724459E+02  0.93607724459E+02  0.00000000000E+00 0. -1.
          1   -1    0    0  501    0 -0.00000000000E+00 -0.00000000000E+00 -0.27149368714E+04  0.27149368714E+04  0.00000000000E+00 0. -1.
         25    2    1    2    0    0 -0.66592382798E+02  0.33780628331E+02 -0.17272360176E+03  0.22590925998E+03  0.12500349932E+03 0.  0.
          2    1    1    2  501    0  0.46996310420E+02 -0.51296622115E+02 -0.25125432003E+04  0.25135061826E+04  0.00000000000E+00 0. -1.
          1    1    1    2  502    0  0.19596072378E+02  0.17515993784E+02  0.63937655114E+02  0.69129153274E+02  0.00000000000E+00 0. -1.
         22    1    3    3    0    0 -0.36037083464E+02 -0.32892198128E+02 -0.13527683373E+02  0.50631672890E+02  0.00000000000E+00 0. -1.
         22    1    3    3    0    0 -0.30555299334E+02  0.66672826458E+02 -0.15919591839E+03  0.17527758709E+03  0.00000000000E+00 0. -1.
</event>
<event>
 7    1  0.6485470E-006  0.8875879E+02  0.7818608E-02  0.1351669E+00
          2   -1    0    0  502    0  0.00000000000E+00  0.00000000000E+00  0.11866938253E+04  0.11866938253E+04  0.00000000000E+00 0. -1.
          1   -1    0    0  501    0 -0.00000000000E+00 -0.00000000000E+00 -0.68229119691E+03  0.68229119691E+03  0.00000000000E+00 0. -1.
         25    2    1    2    0    0 -0.41622168560E+01 -0.69047540041E+02  0.37426108937E+03  0.40060112500E+03  0.12500004599E+03 0.  0.
          2    1    1    2  501    0  0.58444002671E+02 -0.99307700414E+01 -0.66492505021E+03  0.66756246452E+03  0.00000000000E+00 0. -1.
          1    1    1    2  502    0 -0.54281785815E+02  0.78978310082E+02  0.79506658929E+03  0.80082143274E+03  0.00000000000E+00 0. -1.
         22    1    3    3    0    0 -0.76240766447E+01 -0.10336902211E+03  0.23005136245E+03  0.25232302836E+03  0.00000000000E+00 0.  1.
         22    1    3    3    0    0  0.34618597888E+01  0.34321482064E+02  0.14420972691E+03  0.14827809663E+03  0.00000000000E+00 0.  1.
</event>
<event>
 7    1  0.6485470E-006  0.9227160E+02  0.7818608E-02  0.1388878E+00
          2   -1    0    0  502    0  0.00000000000E+00  0.00000000000E+00  0.89706120608E+03  0.89706120608E+03  0.00000000000E+00 0. -1.
          1   -1    0    0  501    0 -0.00000000000E+00 -0.00000000000E+00 -0.18442193858E+03  0.18442193858E+03  0.00000000000E+00 0. -1.
         25    2    1    2    0    0 -0.25138705516E+00  0.52926640163E+02  0.88628293088E+01  0.13603421726E+03  0.12500186433E+03 0.  0.
          2    1    1    2  501    0 -0.11597475047E+02  0.40274288484E+02 -0.11443130558E+03  0.12186485727E+03  0.00000000000E+00 0. -1.
          1    1    1    2  502    0  0.11848862102E+02 -0.93200928647E+02  0.81820774376E+03  0.82358407014E+03  0.00000000000E+00 0. -1.
         22    1    3    3    0    0 -0.24227978676E+02  0.36636936099E+02 -0.52331572229E+02  0.68321691207E+02  0.00000000000E+00 0. -1.
         22    1    3    3    0    0  0.23976591621E+02  0.16289704064E+02  0.61194401538E+02  0.67712526048E+02  0.00000000000E+00 0. -1.
</event>
<event>
 7    1  0.6485470E-006  0.3311300E+02  0.7818608E-02  0.1645840E+00
          2   -1    0    0  502    0  0.00000000000E+00  0.00000000000E+00  0.19963348953E+04  0.19963348953E+04  0.00000000000E+00 0. -1.
          1   -1    0    0  501    0 -0.00000000000E+00 -0.00000000000E+00 -0.59387672285E+01  0.59387672285E+01  0.00000000000E+00 0. -1.
         25    2    1    2    0    0 -0.29134983481E+00 -0.16202988852E+02  0.95147910974E+03  0.95979133937E+03  0.12499718843E+03 0.  0.
          2    1    1    2  501    0 -0.13296063899E+01  0.36693343225E+02  0.20181027267E+03  0.20512326891E+03  0.00000000000E+00 0. -1.
          1    1    1    2  502    0  0.16209562247E+01 -0.20490354373E+02  0.83710674560E+03  0.83735905420E+03  0.00000000000E+00 0. -1.
         22    1    3    3    0    0  0.95033332934E+01  0.25410339371E+02  0.83936169310E+03  0.83980000627E+03  0.00000000000E+00 0.  1.
         22    1    3    3    0    0 -0.97946831282E+01 -0.41613328223E+02  0.11211741664E+03  0.11999133310E+03  0.00000000000E+00 0.  1.
</event>
<event>
 7    1  0.6485470E-006  0.5769671E+02  0.7818608E-02  0.1443132E+00
          2   -1    0    0  502    0  0.00000000000E+00  0.00000000000E+00  0.45821589470E+03  0.45821589470E+03  0.00000000000E+00 0. -1.
          1   -1    0    0  501    0 -0.00000000000E+00 -0.00000000000E+00 -0.42236721887E+03  0.42236721887E+03  0.00000000000E+00 0. -1.
         25    2    1    2    0    0  0.46286972793E+02  0.84099160712E+02  0.17298288132E+03  0.23401397896E+03  0.12499724971E+03 0.  0.
          2    1    1    2  501    0 -0.29756220313E+02 -0.32476326331E+02 -0.38770668808E+03  0.39020074373E+03  0.00000000000E+00 0. -1.
          1    1    1    2  502    0 -0.16530752480E+02 -0.51622834382E+02  0.25057248260E+03  0.25636839088E+03  0.00000000000E+00 0. -1.
         22    1    3    3    0    0  0.84393561789E+02  0.78834457557E+02  0.10593520105E+03  0.15671442752E+03  0.00000000000E+00 0.  1.
         22    1    3    3    0    0 -0.38106588996E+02  0.52647031553E+01  0.67047680264E+02  0.77299551441E+02  0.00000000000E+00 0.  1.
</event>
<event>
 7    1  0.6485470E-006  0.8717166E+02  0.7818608E-02  0.1445942E+00
          2   -1    0    0  502    0  0.00000000000E+00  0.00000000000E+00  0.49557499941E+03  0.49557499941E+03  0.00000000000E+00 0. -1.
          1   -1    0    0  501    0 -0.00000000000E+00 -0.00000000000E+00 -0.92870696227E+03  0.92870696227E+03  0.00000000000E+00 0. -1.
         25    2    1    2    0    0  0.68413323416E+02  0.15954905013E+02 -0.86218821332E+03  0.87403009547E+03  0.12500060311E+03 0.  0.
          2    1    1    2  501    0  0.18665056085E+02 -0.21605977899E+02 -0.53085762335E+02  0.60276867555E+02  0.00000000000E+00 0. -1.
          1    1    1    2  502    0 -0.87078379500E+02  0.56510728861E+01  0.48214201280E+03  0.48997499866E+03  0.00000000000E+00 0. -1.
         22    1    3    3    0    0  0.23432575143E+02 -0.54769115182E+02 -0.35718697956E+03  0.36212053231E+03  0.00000000000E+00 0. -1.
         22    1    3    3    0    0  0.44980748272E+02  0.70724020195E+02 -0.50500123376E+03  0.51190956315E+03  0.00000000000E+00 0. -1.
</event>
<event>
 7    1  0.6485470E-006  0.1193324E+03  0.7818608E-02  0.1307877E+00
          2   -1    0    0  502    0  0.00000000000E+00  0.00000000000E+00  0.59338696880E+03  0.59338696880E+03  0.00000000000E+00 0. -1.
          1   -1    0    0  501    0 -0.00000000000E+00 -0.00000000000E+00 -0.11455611789E+04  0.11455611789E+04  0.00000000000E+00 0. -1.
         25    2    1    2    0    0 -0.15427668657E+02 -0.11546771291E+03 -0.31055003237E+01  0.17086021124E+03  0.12495103829E+03 0.  0.
          2    1    1    2  501    0  0.76195021483E+02  0.92877473308E+02 -0.10530871144E+04  0.10599171557E+04  0.00000000000E+00 0. -1.
          1    1    1    2  502    0 -0.60767352826E+02  0.22590239600E+02  0.50401840470E+03  0.50817078072E+03  0.00000000000E+00 0. -1.
         22    1    3    3    0    0  0.50177479315E+02 -0.24429895706E+02 -0.15613489617E+02  0.57951533997E+02  0.00000000000E+00 0.  1.
         22    1    3    3    0    0 -0.65605147973E+02 -0.91037817202E+02  0.12507989293E+02  0.11290867725E+03  0.00000000000E+00 0.  1.
</event>
<event>
 7    1  0.6485470E-006  0.1194493E+03  0.7818608E-02  0.1325320E+00
          2   -1    0    0  502    0  0.00000000000E+00  0.00000000000E+00  0.36426888000E+03  0.36426888000E+03  0.00000000000E+00 0. -1.
          1   -1    0    0  501    0 -0.00000000000E+00 -0.00000000000E+00 -0.43928327912E+03  0.43928327912E+03  0.00000000000E+00 0. -1.
         25    2    1    2    0    0  0.10764682004E+03  0.77201425452E+02 -0.17667118961E+03  0.25375631531E+03  0.12502663861E+03 0.  0.
          2    1    1    2  501    0  0.95543567326E+01 -0.54544322156E+02 -0.20941181483E+03  0.21660950349E+03  0.00000000000E+00 0. -1.
          1    1    1    2  502    0 -0.11720117677E+03 -0.22657103296E+02  0.31106860532E+03  0.33318634033E+03  0.00000000000E+00 0. -1.
         22    1    3    3    0    0  0.11425731180E+03  0.11794153587E+02 -0.12784890739E+03  0.17186965549E+03  0.00000000000E+00 0.  1.
         22    1    3    3    0    0 -0.66104917596E+01  0.65407271865E+02 -0.48822282223E+02  0.81886659815E+02  0.00000000000E+00 0.  1.
</event>
<event>
 7    1  0.6485470E-006  0.6351090E+02  0.7818608E-02  0.1438320E+00
          2   -1    0    0  502    0  0.00000000000E+00  0.00000000000E+00  0.19081557258E+04  0.19081557258E+04  0.00000000000E+00 0. -1.
          1   -1    0    0  501    0 -0.00000000000E+00 -0.00000000000E+00 -0.35507348248E+02  0.35507348248E+02  0.00000000000E+00 0. -1.
         25    2    1    2    0    0  0.46980930978E+02  0.25899553701E+02  0.81315429368E+03  0.82445294446E+03  0.12499903010E+03 0.  0.
          2    1    1    2  501    0 -0.23432148082E+02 -0.60044869047E+02  0.58170377674E+01  0.64716997698E+02  0.00000000000E+00 0. -1.
          1    1    1    2  502    0 -0.23548782896E+02  0.34145315346E+02  0.10536770461E+04  0.10544931319E+04  0.00000000000E+00 0. -1.
         22    1    3    3    0    0 -0.85626550387E+01 -0.35653373510E+02  0.46987485193E+03  0.47130336152E+03  0.00000000000E+00 0. -1.
         22    1    3    3    0    0  0.55543586017E+02  0.61552927211E+02  0.34327944175E+03  0.35314958293E+03  0.00000000000E+00 0. -1.
</event>
<event>
 7    1  0.6485470E-006  0.9158330E+02  0.7818608E-02  0.1466876E+00
          2   -1    0    0  502    0  0.00000000000E+00  0.00000000000E+00  0.69719473300E+03  0.69719473300E+03  0.00000000000E+00 0. -1.
          1   -1    0    0  501    0 -0.00000000000E+00 -0.00000000000E+00 -0.42256613382E+03  0.42256613382E+03  0.00000000000E+00 0. -1.
         25    2    1    2    0    0 -0.49792633699E+02  0.80832387296E+02  0.53837543122E+02  0.16594255698E+03  0.12500107984E+03 0.  0.
          2    1    1    2  501    0 -0.15893791259E+02 -0.17070948576E+02 -0.36256937522E+03  0.36331884307E+03  0.00000000000E+00 0. -1.
          1    1    1    2  502    0  0.65686424958E+02 -0.63761438721E+02  0.58336043127E+03  0.59049946678E+03  0.00000000000E+00 0. -1.
         22    1    3    3    0    0  0.27695369338E+02  0.69736582910E+01 -0.20895657597E+02  0.35387764823E+02  0.00000000000E+00 0. -1.
         22    1    3    3    0    0 -0.77488003037E+02  0.73858729005E+02  0.74733200719E+02  0.13055479215E+03  0.00000000000E+00 0. -1.
</event>
<event>
 7    1  0.6485470E-006  0.1771152E+03  0.7818608E-02  0.1358152E+00
          2   -1    0    0  502    0  0.00000000000E+00  0.00000000000E+00  0.11580099835E+04  0.11580099835E+04  0.00000000000E+00 0. -1.
          1   -1    0    0  501    0 -0.00000000000E+00 -0.00000000000E+00 -0.10508573732E+03  0.10508573732E+03  0.00000000000E+00 0. -1.
         25    2    1    2    0    0 -0.19265322805E+03 -0.45428162178E+01  0.41828524050E+03  0.47720397336E+03  0.12500074525E+03 0.  0.
          2    1    1    2  501    0  0.17313538981E+03 -0.15701945250E+02  0.25034805577E+02  0.17563927744E+03  0.00000000000E+00 0. -1.
          1    1    1    2  502    0  0.19517838238E+02  0.20244761468E+02  0.60960420013E+03  0.61025247004E+03  0.00000000000E+00 0. -1.
         22    1    3    3    0    0 -0.20696953412E+03 -0.15767529143E+02  0.35372638497E+03  0.41013090404E+03  0.00000000000E+00 0.  1.
         22    1    3    3    0    0  0.14316306071E+02  0.11224712925E+02  0.64558855531E+02  0.67073069314E+02  0.00000000000E+00 0.  1.
</event>
<event>
 7    1  0.6485470E-006  0.4431515E+02  0.7818608E-02  0.1540071E+00
          2   -1    0    0  502    0  0.00000000000E+00  0.00000000000E+00  0.10304888545E+04  0.10304888545E+04  0.00000000000E+00 0. -1.
          1   -1    0    0  501    0 -0.00000000000E+00 -0.00000000000E+00 -0.72827158975E+03  0.72827158975E+03  0.00000000000E+00 0. -1.
         25    2    1    2    0    0 -0.23923701928E+02  0.15799807566E+02  0.43272172759E+03  0.45132674576E+03  0.12500304190E+03 0.  0.
          2    1    1    2  501    0 -0.22376185119E+02 -0.18778266233E+02 -0.71775704766E+03  0.71835123471E+03  0.00000000000E+00 0. -1.
          1    1    1    2  502    0  0.46299887047E+02  0.29784586671E+01  0.58725258484E+03  0.58908246380E+03  0.00000000000E+00 0. -1.
         22    1    3    3    0    0 -0.26048157559E+01  0.69736836211E+02  0.21703983208E+03  0.22798311363E+03  0.00000000000E+00 0. -1.
         22    1    3    3    0    0 -0.21318886172E+02 -0.53937028645E+02  0.21568189550E+03  0.22334363213E+03  0.00000000000E+00 0. -1.
</event>
<event>
 7    1  0.6485470E-006  0.8296014E+02  0.7818608E-02  0.1369789E+00
          2   -1    0    0  502    0  0.00000000000E+00  0.00000000000E+00  0.12185175526E+04  0.12185175526E+04  0.00000000000E+00 0. -1.
          1   -1    0    0  501    0 -0.00000000000E+00 -0.00000000000E+00 -0.21805746051E+04  0.21805746051E+04  0.00000000000E+00 0. -1.
         25    2    1    2    0    0  0.17848655267E+02 -0.12357171638E+03  0.32054069947E+03  0.36600642010E+03  0.12500326377E+03 0.  0.
          2    1    1    2  501    0  0.16432126419E+02  0.81234502792E+02 -0.21561971821E+04  0.21577894585E+04  0.00000000000E+00 0. -1.
          1    1    1    2  502    0 -0.34280781687E+02  0.42337213590E+02  0.87359943016E+03  0.87529627900E+03  0.00000000000E+00 0. -1.
         22    1    3    3    0    0  0.27255241948E+01 -0.99130118916E+02  0.32229931302E+03  0.33721069991E+03  0.00000000000E+00 0.  1.
         22    1    3    3    0    0  0.15123131073E+02 -0.24441597466E+02 -0.17586135456E+01  0.28795720198E+02  0.00000000000E+00 0.  1.
</event>
<event>
 7    1  0.6485470E-006  0.1000499E+03  0.7818608E-02  0.1361941E+00
          2   -1    0    0  502    0  0.00000000000E+00  0.00000000000E+00  0.11182835704E+04  0.11182835704E+04  0.00000000000E+00 0. -1.
          1   -1    0    0  501    0 -0.00000000000E+00 -0.00000000000E+00 -0.15451136673E+03  0.15451136673E+03  0.00000000000E+00 0. -1.
         25    2    1    2    0    0  0.10876175223E+03  0.65005839192E+02  0.17094306368E+03  0.24678381931E+03  0.12500337825E+03 0.  0.
          2    1    1    2  501    0 -0.11797661992E+02 -0.46756499556E+02 -0.10879575554E+03  0.11900366172E+03  0.00000000000E+00 0. -1.
          1    1    1    2  502    0 -0.96964090236E+02 -0.18249339637E+02  0.90162489553E+03  0.90700745611E+03  0.00000000000E+00 0. -1.
         22    1    3    3    0    0  0.68369942550E+02  0.70788909337E+00  0.10361129634E+02  0.69154198416E+02  0.00000000000E+00 0. -1.
         22    1    3    3    0    0  0.40391809678E+02  0.64297950099E+02  0.16058193405E+03  0.17762962089E+03  0.00000000000E+00 0. -1.
</event>
<event>
 7    1  0.6485470E-006  0.3693882E+03  0.7818608E-02  0.1243189E+00
          2   -1    0    0  502    0  0.00000000000E+00  0.00000000000E+00  0.12136179371E+04  0.12136179371E+04  0.00000000000E+00 0. -1.
          1   -1    0    0  501    0 -0.00000000000E+00 -0.00000000000E+00 -0.27518809617E+03  0.27518809617E+03  0.00000000000E+00 0. -1.
         25    2    1    2    0    0  0.26876460688E+03  0.24255500905E+03  0.28906184475E+03  0.47984377387E+03  0.12500380356E+03 0.  0.
          2    1    1    2  501    0  0.32219916195E+02 -0.21880315577E+02 -0.13490564375E+03  0.14041511288E+03  0.00000000000E+00 0. -1.
          1    1    1    2  502    0 -0.30098452307E+03 -0.22067469347E+03  0.78427363995E+03  0.86854714655E+03  0.00000000000E+00 0. -1.
         22    1    3    3    0    0  0.20499690031E+03  0.13240678923E+03  0.24327367047E+03  0.34458288656E+03  0.00000000000E+00 0.  1.
         22    1    3    3    0    0  0.63767706573E+02  0.11014821982E+03  0.45788174284E+02  0.13526088731E+03  0.00000000000E+00 0.  1.
</event>
<event>
 7    1  0.6485470E-006  0.6288655E+02  0.7818608E-02  0.1394446E+00
          2   -1    0    0  502    0  0.00000000000E+00  0.00000000000E+00  0.22006169878E+02  0.22006169878E+02  0.00000000000E+00 0. -1.
          1   -1    0    0  501    0 -0.00000000000E+00 -0.00000000000E+00 -0.15632980954E+04  0.15632980954E+04  0.00000000000E+00 0. -1.
         25    2    1    2    0    0  0.38264805064E+02 -0.14124685995E+02 -0.60799813507E+03  0.62205322793E+03  0.12499913629E+03 0.  0.
          2    1    1    2  501    0 -0.38269231916E+02 -0.49901744535E+02 -0.87313343936E+03  0.87539517999E+03  0.00000000000E+00 0. -1.
          1    1    1    2  502    0  0.44268519414E-02  0.64026430530E+02 -0.60160351054E+02  0.87855857318E+02  0.00000000000E+00 0. -1.
         22    1    3    3    0    0  0.31941277895E+01  0.53314413448E+02 -0.30661785839E+03  0.31123486343E+03  0.00000000000E+00 0. -1.
         22    1    3    3    0    0  0.35070677275E+02 -0.67439099443E+02 -0.30138027668E+03  0.31081836450E+03  0.00000000000E+00 0. -1.
</event>
<event>
 7    1  0.6485470E-006  0.2309943E+03  0.7818608E-02  0.1243985E+00
          2   -1    0    0  502    0  0.00000000000E+00  0.00000000000E+00  0.66489309275E+03  0.66489309275E+03  0.00000000000E+00 0. -1.
          1   -1    0    0  501    0 -0.00000000000E+00 -0.00000000000E+00 -0.34868803747E+03  0.34868803747E+03  0.00000000000E+00 0. -1.
         25    2    1    2    0    0 -0.79578706487E+02 -0.24795209011E+03  0.50357981131E+02  0.29321363130E+03  0.12500119118E+03 0.  0.
          2    1    1    2  501    0  0.10963651799E+03  0.19397391043E+03 -0.16993897715E+03  0.28022366060E+03  0.00000000000E+00 0. -1.
          1    1    1    2  502    0 -0.30057811504E+02  0.53978179680E+02  0.43578605130E+03  0.44014383833E+03  0.00000000000E+00 0. -1.
         22    1    3    3    0    0 -0.90050721485E+01 -0.13819166381E+03 -0.27600842123E+02  0.14120847622E+03  0.00000000000E+00 0.  1.
         22    1    3    3    0    0 -0.70573634338E+02 -0.10976042630E+03  0.77958823254E+02  0.15200515507E+03  0.00000000000E+00 0.  1.
</event>
<event>
 7    1  0.6485470E-006  0.7751558E+02  0.7818608E-02  0.1420851E+00
          2   -1    0    0  502    0  0.00000000000E+00  0.00000000000E+00  0.69167662908E+03  0.69167662908E+03  0.00000000000E+00 0. -1.
          1   -1    0    0  501    0 -0.00000000000E+00 -0.00000000000E+00 -0.16403216299E+04  0.16403216299E+04  0.00000000000E+00 0. -1.
         25    2    1    2    0    0  0.73264343220E+01 -0.10716751565E+03 -0.16539615689E+03  0.23349484932E+03  0.12500161156E+03 0.  0.
          2    1    1    2  501    0 -0.22668918542E+02  0.31488434208E+02 -0.14383468642E+04  0.14388700786E+04  0.00000000000E+00 0. -1.
          1    1    1    2  502    0  0.15342484220E+02  0.75679081446E+02  0.65509802031E+03  0.65963333103E+03  0.00000000000E+00 0. -1.
         22    1    3    3    0    0 -0.78964251863E+01 -0.98317353636E+02 -0.39299844733E+02  0.10617501285E+03  0.00000000000E+00 0.  1.
         22    1    3    3    0    0  0.15222859508E+02 -0.88501620175E+01 -0.12609631216E+03  0.12731983647E+03  0.00000000000E+00 0.  1.
</event>
<event>
 7    1  0.6485470E-006  0.4630789E+02  0.7818608E-02  0.1483323E+00
          2   -1    0    0  502    0  0.00000000000E+00  0.00000000000E+00  0.72245601643E+03  0.72245601643E+03  0.00000000000E+00 0. -1.
          1   -1    0    0  501    0 -0.00000000000E+00 -0.00000000000E+00 -0.72532843514E+02  0.72532843514E+02  0.00000000000E+00 0. -1.
         25    2    1    2    0    0  0.58320643253E+02 -0.39919324485E+02  0.31376272591E+03  0.34506174682E+03  0.12500284417E+03 0.  0.
          2    1    1    2  501    0 -0.45923376411E+02  0.80003307316E+00 -0.46331795655E+02  0.65239802594E+02  0.00000000000E+00 0. -1.
          1    1    1    2  502    0 -0.12397266842E+02  0.39119291411E+02  0.38249224266E+03  0.38468731053E+03  0.00000000000E+00 0. -1.
         22    1    3    3    0    0 -0.20188483705E+01 -0.24371499946E+02 -0.71989817787E+00  0.24465567881E+02  0.00000000000E+00 0.  1.
         22    1    3    3    0    0  0.60339491623E+02 -0.15547824538E+02  0.31448262409E+03  0.32059617894E+03  0.00000000000E+00 0.  1.
</event>
<event>
 7    1  0.6485470E-006  0.7279695E+02  0.7818608E-02  0.1403601E+00
          2   -1    0    0  502    0  0.00000000000E+00  0.00000000000E+00  0.14339127145E+03  0.14339127145E+03  0.00000000000E+00 0. -1.
          1   -1    0    0  501    0 -0.00000000000E+00 -0.00000000000E+00 -0.10639984187E+04  0.10639984187E+04  0.00000000000E+00 0. -1.
         25    2    1    2    0    0 -0.78563452598E+02 -0.56044290448E+02 -0.14090664498E+03  0.21164389093E+03  0.12500110157E+03 0.  0.
          2    1    1    2  501    0  0.71655824059E+02  0.93052674231E+01 -0.88100616254E+03  0.88396436781E+03  0.00000000000E+00 0. -1.
          1    1    1    2  502    0  0.69076285399E+01  0.46739023025E+02  0.10130566027E+03  0.11178143141E+03  0.00000000000E+00 0. -1.
         22    1    3    3    0    0 -0.59677180745E+02 -0.92900211111E+02 -0.73873661493E+02  0.13285003948E+03  0.00000000000E+00 0. -1.
         22    1    3    3    0    0 -0.18886271853E+02  0.36855920663E+02 -0.67032983489E+02  0.78793851460E+02  0.00000000000E+00 0. -1.
</event>
<event>
 7    1  0.6485470E-006  0.6935435E+02  0.7818608E-02  0.1447770E+00
          2   -1    0    0  502    0  0.00000000000E+00  0.00000000000E+00  0.23340431929E+04  0.23340431929E+04  0.00000000000E+00 0. -1.
          1   -1    0    0  501    0 -0.00000000000E+00 -0.00000000000E+00 -0.56435699451E+03  0.56435699451E+03  0.00000000000E+00 0. -1.
         25    2    1    2    0    0  0.90140468117E+02  0.32339628351E+02 -0.25381333672E+03  0.29869382199E+03  0.12500253534E+03 0.  0.
          2    1    1    2  501    0 -0.54872775998E+02 -0.35448482683E+02 -0.28426268958E+03  0.29167257868E+03  0.00000000000E+00 0. -1.
          1    1    1    2  502    0 -0.35267692119E+02  0.31088543315E+01  0.23077622247E+04  0.23080337868E+04  0.00000000000E+00 0. -1.
         22    1    3    3    0    0 -0.29797695206E+02 -0.81291590960E+01 -0.50347405992E+02  0.59066463897E+02  0.00000000000E+00 0.  1.
         22    1    3    3    0    0  0.11993816332E+03  0.40468787447E+02 -0.20346593073E+03  0.23962735809E+03  0.00000000000E+00 0.  1.
</event>
<event>
 7    1  0.6485470E-006  0.5848441E+02  0.7818608E-02  0.1474833E+00
          2   -1    0    0  502    0  0.00000000000E+00  0.00000000000E+00  0.56306042619E+03  0.56306042619E+03  0.00000000000E+00 0. -1.
          1   -1    0    0  501    0 -0.00000000000E+00 -0.00000000000E+00 -0.80177307074E+02  0.80177307074E+02  0.00000000000E+00 0. -1.
         25    2    1    2    0    0  0.18987525204E+01  0.75326157494E+02  0.26723379012E+03  0.30449548122E+03  0.12500385689E+03 0.  0.
          2    1    1    2  501    0 -0.25219203931E+02 -0.23547988179E+02 -0.53503323372E+02  0.63664131236E+02  0.00000000000E+00 0. -1.
          1    1    1    2  502    0  0.23320451411E+02 -0.51778169315E+02  0.26915265237E+03  0.27507812081E+03  0.00000000000E+00 0. -1.
         22    1    3    3    0    0 -0.47862954727E+02 -0.25765023719E+01  0.13416110846E+03  0.14246650071E+03  0.00000000000E+00 0.  1.
         22    1    3    3    0    0  0.49761707248E+02  0.77902659866E+02  0.13307268166E+03  0.16202898051E+03  0.00000000000E+00 0.  1.
</event>
<event>
 7    1  0.6485470E-006  0.1546849E+03  0.7818608E-02  0.1211153E+00
          2   -1    0    0  502    0  0.00000000000E+00  0.00000000000E+00  0.48010149614E+03  0.48010149614E+03  0.00000000000E+00 0. -1.
          1   -1    0    0  501    0 -0.00000000000E+00 -0.00000000000E+00 -0.77927815901E+03  0.77927815901E+03  0.00000000000E+00 0. -1.
         25    2    1    2    0    0  0.52525915447E+02  0.18605308242E+03  0.35447114302E+02  0.23292972806E+03  0.12500015612E+03 0.  0.
          2    1    1    2  501    0  0.78610359791E+02 -0.10313147859E+03 -0.65647140202E+03  0.66915647812E+03  0.00000000000E+00 0. -1.
          1    1    1    2  502    0 -0.13113627524E+03 -0.82921603834E+02  0.32184762485E+03  0.35729344898E+03  0.00000000000E+00 0. -1.
         22    1    3    3    0    0  0.23417693783E+02  0.84231204305E+01  0.46341639546E+02  0.52601187208E+02  0.00000000000E+00 0. -1.
         22    1    3    3    0    0  0.29108221664E+02  0.17762996199E+03 -0.10894525244E+02  0.18032854085E+03  0.00000000000E+00 0. -1.
</event>
<event>
 7    1  0.6485470E-006  0.1107234E+03  0.7818608E-02  0.1305910E+00
          2   -1    0    0  502    0  0.00000000000E+00  0.00000000000E+00  0.22957322128E+04  0.22957322128E+04  0.00000000000E+00 0. -1.
          1   -1    0    0  501    0 -0.00000000000E+00 -0.00000000000E+00 -0.57130967831E+03  0.57130967831E+03  0.00000000000E+00 0. -1.
         25    2    1    2    0    0  0.13316469336E+03 -0.13267182462E+02  0.56471915062E+03  0.59366756039E+03  0.12499839799E+03 0.  0.
          2    1    1    2  501    0 -0.87496776742E+02  0.67808123011E+02 -0.55058734052E+03  0.56160488515E+03  0.00000000000E+00 0. -1.
          1    1    1    2  502    0 -0.45667916615E+02 -0.54540940549E+02  0.17102907243E+04  0.17117694455E+04  0.00000000000E+00 0. -1.
         22    1    3    3    0    0  0.15735799316E+02 -0.17363953275E+01  0.33539310546E+03  0.33576653442E+03  0.00000000000E+00 0. -1.
         22    1    3    3    0    0  0.11742889404E+03 -0.11530787135E+02  0.22932604516E+03  0.25790102597E+03  0.00000000000E+00 0. -1.
</event>
<event>
 7    1  0.6485470E-006  0.3405284E+02  0.7818608E-02  0.1578555E+00
          2   -1    0    0  502    0  0.00000000000E+00  0.00000000000E+00  0.49768999143E+02  0.49768999143E+02  0.00000000000E+00 0. -1.
          1   -1    0    0  501    0 -0.00000000000E+00 -0.00000000000E+00 -0.13586148284E+04  0.13586148284E+04  0.00000000000E+00 0. -1.
         25    2    1    2    0    0  0.99558975285E+01 -0.47782184285E+01 -0.25737724170E+03  0.28634589648E+03  0.12501590547E+03 0.  0.
          2    1    1    2  501    0  0.20835552996E+02  0.21275591389E+02 -0.10778509929E+04  0.10782622751E+04  0.00000000000E+00 0. -1.
          1    1    1    2  502    0 -0.30791450524E+02 -0.16497372960E+02  0.26382405351E+02  0.43775655930E+02  0.00000000000E+00 0. -1.
         22    1    3    3    0    0  0.26337450497E+02  0.49275856401E+02 -0.64333815220E+02  0.85209219592E+02  0.00000000000E+00 0. -1.
         22    1    3    3    0    0 -0.16381552968E+02 -0.54054074830E+02 -0.19304342648E+03  0.20113667689E+03  0.00000000000E+00 0. -1.
</event>
<event>
 7    1  0.6485470E-006  0.8022204E+02  0.7818608E-02  0.1373888E+00
          2   -1    0    0  502    0  0.00000000000E+00  0.00000000000E+00  0.12299842136E+04  0.12299842136E+04  0.00000000000E+00 0. -1.
          1   -1    0    0  501    0 -0.00000000000E+00 -0.00000000000E+00 -0.45612499883E+03  0.45612499883E+03  0.00000000000E+00 0. -1.
         25    2    1    2    0    0 -0.12455597369E+02  0.12331852182E+03 -0.10151527765E+03  0.20321003632E+03  0.12500547003E+03 0.  0.
          2    1    1    2  501    0  0.28035043231E+02 -0.71133872955E+02 -0.29830957722E+03  0.30795226155E+03  0.00000000000E+00 0. -1.
          1    1    1    2  502    0 -0.15579445862E+02 -0.52184648867E+02  0.11736840696E+04  0.11749469146E+04  0.00000000000E+00 0. -1.
         22    1    3    3    0    0  0.33404227859E+02  0.86816354497E+02 -0.86872970549E+01  0.93425858182E+02  0.00000000000E+00 0.  1.
         22    1    3    3    0    0 -0.45859825228E+02  0.36502167325E+02 -0.92827980593E+02  0.10978417814E+03  0.00000000000E+00 0.  1.
</event>
<event>
 7    1  0.9124409E-006  0.8049717E+02  0.7818608E-02  0.1414774E+00
          2   -1    0    0  502    0  0.00000000000E+00  0.00000000000E+00  0.90720453987E+03  0.90720453987E+03  0.00000000000E+00 0. -1.
          1   -1    0    0  501    0 -0.00000000000E+00 -0.00000000000E+00 -0.14845267499E+04  0.14845267499E+04  0.00000000000E+00 0. -1.
         25    2    1    2    0    0 -0.11277428326E+03  0.21852071588E+02 -0.38988937265E+03  0.42524427445E+03  0.12499367205E+03 0.  0.
          2    1    1    2  501    0  0.38275127447E+02  0.82569896268E+01 -0.10747880588E+04  0.10755010622E+04  0.00000000000E+00 0. -1.
          1    1    1    2  502    0  0.74499155814E+02 -0.30109061215E+02  0.88735522143E+03  0.89098595320E+03  0.00000000000E+00 0. -1.
         22    1    3    3    0    0 -0.44584937176E+02 -0.25905655443E+02 -0.39102757782E+02  0.64714335916E+02  0.00000000000E+00 0.  1.
         22    1    3    3    0    0 -0.68189346085E+02  0.47757727031E+02 -0.35078661487E+03  0.36052993854E+03  0.00000000000E+00 0.  1.
</event>
<event>
 7    1  0.6485470E-006  0.1893843E+03  0.7818608E-02  0.1220880E+00
          2   -1    0    0  502    0  0.00000000000E+00  0.00000000000E+00  0.19516620702E+04  0.19516620702E+04  0.00000000000E+00 0. -1.
          1   -1    0    0  501    0 -0.00000000000E+00 -0.00000000000E+00 -0.28332614261E+04  0.28332614261E+04  0.00000000000E+00 0. -1.
         25    2    1    2    0    0  0.14543811829E+03  0.65941494168E+02 -0.14878536153E+03  0.25151883642E+03  0.12499645739E+03 0.  0.
          2    1    1    2  501    0  0.44231626384E+02 -0.84717353792E+02 -0.26274592441E+04  0.26291967492E+04  0.00000000000E+00 0. -1.
          1    1    1    2  502    0 -0.18966974467E+03  0.18775859624E+02  0.18946452497E+04  0.19042079107E+04  0.00000000000E+00 0. -1.
         22    1    3    3    0    0  0.60484974857E+02  0.43548920426E+02 -0.14564554065E+03  0.16360795874E+03  0.00000000000E+00 0. -1.
         22    1    3    3    0    0  0.84953143433E+02  0.22392573742E+02 -0.31398208846E+01  0.87910877672E+02  0.00000000000E+00 0. -1.
</event>
<event>
 7    1  0.6485470E-006  0.4751669E+02  0.7818608E-02  0.1476945E+00
          2   -1    0    0  502    0  0.00000000000E+00  0.00000000000E+00  0.11299360372E+03  0.11299360372E+03  0.00000000000E+00 0. -1.
          1   -1    0    0  501    0 -0.00000000000E+00 -0.00000000000E+00 -0.12588797319E+04  0.12588797319E+04  0.00000000000E+00 0. -1.
         25    2    1    2    0    0  0.36689769464E+01 -0.79330161563E+01 -0.33812154967E+03  0.36059407839E+03  0.12500205150E+03 0.  0.
          2    1    1    2  501    0  0.39830926802E+02 -0.12794629096E+02 -0.90330607310E+03  0.90427433170E+03  0.00000000000E+00 0. -1.
          1    1    1    2  502    0 -0.43499903749E+02  0.20727645252E+02  0.95541494586E+02  0.10700492555E+03  0.00000000000E+00 0. -1.
         22    1    3    3    0    0  0.31156408982E+02 -0.34761670799E+02 -0.44573396463E+02  0.64543653829E+02  0.00000000000E+00 0.  1.
         22    1    3    3    0    0 -0.27487432035E+02  0.26828654643E+02 -0.29354815321E+03  0.29605042456E+03  0.00000000000E+00 0.  1.
</event>
<event>
 7    1  0.6485470E-006  0.4068676E+02  0.7818608E-02  0.1548138E+00
          2   -1    0    0  502    0  0.00000000000E+00  0.00000000000E+00  0.69173302153E+03  0.69173302153E+03  0.00000000000E+00 0. -1.
          1   -1    0    0  501    0 -0.00000000000E+00 -0.00000000000E+00 -0.68007968607E+03  0.68007968607E+03  0.00000000000E+00 0. -1.
         25    2    1    2    0    0 -0.16881805523E+02 -0.10481213371E+01  0.51544944032E+02  0.13625851293E+03  0.12499362853E+03 0.  0.
          2    1    1    2  501    0  0.32504161745E+02 -0.24794632169E+02 -0.63668557095E+03  0.63799671674E+03  0.00000000000E+00 0. -1.
          1    1    1    2  502    0 -0.15622356223E+02  0.25842753506E+02  0.59679396237E+03  0.59755747794E+03  0.00000000000E+00 0. -1.
         22    1    3    3    0    0  0.34865578519E+02 -0.34256976230E+02 -0.92999575196E+01  0.49755785550E+02  0.00000000000E+00 0.  1.
         22    1    3    3    0    0 -0.51747384041E+02  0.33208854893E+02  0.60844901552E+02  0.86502727375E+02  0.00000000000E+00 0.  1.
</event>
<event>
 7    1  0.6657335E-006  0.1037311E+03  0.7818608E-02  0.1382090E+00
          2   -1    0    0  502    0  0.00000000000E+00  0.00000000000E+00  0.18364906799E+04  0.18364906799E+04  0.00000000000E+00 0. -1.
          1   -1    0    0  501    0 -0.00000000000E+00 -0.00000000000E+00 -0.12077085200E+04  0.12077085200E+04  0.00000000000E+00 0. -1.
         25    2    1    2    0    0  0.76916982743E+02 -0.11551791471E+03 -0.11871717730E+03  0.22131633775E+03  0.12500616911E+03 0.  0.
          2    1    1    2  501    0 -0.77437868150E+01  0.38616390486E+02 -0.10358189282E+04  0.10365674334E+04  0.00000000000E+00 0. -1.
          1    1    1    2  502    0 -0.69173195928E+02  0.76901524224E+02  0.17833182654E+04  0.17863154288E+04  0.00000000000E+00 0. -1.
         22    1    3    3    0    0  0.25856511173E+01  0.22187374979E+02  0.36924993017E+01  0.22640665875E+02  0.00000000000E+00 0.  1.
         22    1    3    3    0    0  0.74331331626E+02 -0.13770528969E+03 -0.12240967660E+03  0.19867567188E+03  0.00000000000E+00 0.  1.
</event>
<event>
 7    1  0.6485470E-006  0.6949981E+02  0.7818608E-02  0.1400290E+00
          2   -1    0    0  502    0  0.00000000000E+00  0.00000000000E+00  0.37101399513E+03  0.37101399513E+03  0.00000000000E+00 0. -1.
          1   -1    0    0  501    0 -0.00000000000E+00 -0.00000000000E+00 -0.68298879424E+02  0.68298879424E+02  0.00000000000E+00 0. -1.
         25    2    1    2    0    0  0.88566323211E+02 -0.33415903338E+02  0.12596653840E+03  0.20113351279E+03  0.12500601973E+03 0.  0.
          2    1    1    2  501    0 -0.64747864776E+02 -0.11452979320E+02  0.13387199524E+02  0.67101965988E+02  0.00000000000E+00 0. -1.
          1    1    1    2  502    0 -0.23818458435E+02  0.44868882658E+02  0.16336137778E+03  0.17107739577E+03  0.00000000000E+00 0. -1.
         22    1    3    3    0    0  0.10006165260E+03 -0.27663895250E+02  0.14489836743E+03  0.17825027996E+03  0.00000000000E+00 0. -1.
         22    1    3    3    0    0 -0.11495329388E+02 -0.57520080880E+01 -0.18931829028E+02  0.22883232838E+02  0.00000000000E+00 0. -1.
</event>
<event>
 7    1  0.6485470E-006  0.6753489E+02  0.7818608E-02  0.1467813E+00
          2   -1    0    0  502    0  0.00000000000E+00  0.00000000000E+00  0.29306201899E+04  0.29306201899E+04  0.00000000000E+00 0. -1.
          1   -1    0    0  501    0 -0.00000000000E+00 -0.00000000000E+00 -0.62383552175E+03  0.62383552175E+03  0.00000000000E+00 0. -1.
         25    2    1    2    0    0 -0.73592206939E+01  0.76284190500E+02  0.13154337015E+04  0.13235798139E+04  0.12499705950E+03 0.  0.
          2    1    1    2  501    0  0.28678161549E+02 -0.12830903067E+02 -0.61866838375E+03  0.61946560685E+03  0.00000000000E+00 0. -1.
          1    1    1    2  502    0 -0.21318940855E+02 -0.63453287433E+02  0.16100193504E+04  0.16114102909E+04  0.00000000000E+00 0. -1.
         22    1    3    3    0    0  0.29121894024E+02  0.21622410983E+02  0.10316010459E+04  0.10322385050E+04  0.00000000000E+00 0.  1.
         22    1    3    3    0    0 -0.36481114718E+02  0.54661779517E+02  0.28383265564E+03  0.29134130891E+03  0.00000000000E+00 0.  1.
</event>
<event>
 7    1  0.6485470E-006  0.1436595E+03  0.7818608E-02  0.1270696E+00
          2   -1    0    0  502    0  0.00000000000E+00  0.00000000000E+00  0.12392600181E+04  0.12392600181E+04  0.00000000000E+00 0. -1.
          1   -1    0    0  501    0 -0.00000000000E+00 -0.00000000000E+00 -0.16984836330E+03  0.16984836330E+03  0.00000000000E+00 0. -1.
         25    2    1    2    0    0 -0.16998780995E+03 -0.97007884367E+02  0.15039033663E+03  0.27667354474E+03  0.12499844736E+03 0.  0.
          2    1    1    2  501    0  0.75979483128E+02 -0.71808897288E+01 -0.87541029741E+02  0.11613732786E+03  0.00000000000E+00 0. -1.
          1    1    1    2  502    0  0.94008326827E+02  0.10418877410E+03  0.10065623479E+04  0.10162975088E+04  0.00000000000E+00 0. -1.
         22    1    3    3    0    0 -0.36885858923E+02  0.79613785303E+01 -0.14278610606E+02  0.40346361143E+02  0.00000000000E+00 0. -1.
         22    1    3    3    0    0 -0.13310195103E+03 -0.10496926290E+03  0.16466894724E+03  0.23632718360E+03  0.00000000000E+00 0. -1.
</event>
<event>
 7    1  0.6485470E-006  0.6504014E+02  0.7818608E-02  0.1434015E+00
          2   -1    0    0  502    0  0.00000000000E+00  0.00000000000E+00  0.16657899550E+04  0.16657899550E+04  0.00000000000E+00 0. -1.
          1   -1    0    0  501    0 -0.00000000000E+00 -0.00000000000E+00 -0.74555824677E+03  0.74555824677E+03  0.00000000000E+00 0. -1.
         25    2    1    2    0    0  0.44071258896E+02 -0.31461151799E+02  0.97374083939E+03  0.98322630129E+03  0.12502262720E+03 0.  0.
          2    1    1    2  501    0 -0.64895442346E+02 -0.48221916848E+01 -0.73874730983E+03  0.74160788814E+03  0.00000000000E+00 0. -1.
          1    1    1    2  502    0  0.20824183450E+02  0.36283343484E+02  0.68523817868E+03  0.68651401235E+03  0.00000000000E+00 0. -1.
         22    1    3    3    0    0 -0.30620658468E+02 -0.46941487032E+02  0.30086534502E+03  0.30604098380E+03  0.00000000000E+00 0.  1.
         22    1    3    3    0    0  0.74691917364E+02  0.15480335233E+02  0.67287549437E+03  0.67718531749E+03  0.00000000000E+00 0.  1.
</event>
<event>
 7    1  0.6485470E-006  0.7247025E+02  0.7818608E-02  0.1475002E+00
          2   -1    0    0  502    0  0.00000000000E+00  0.00000000000E+00  0.21641079313E+03  0.21641079313E+03  0.00000000000E+00 0. -1.
          1   -1    0    0  501    0 -0.00000000000E+00 -0.00000000000E+00 -0.20934170514E+04  0.20934170514E+04  0.00000000000E+00 0. -1.
         25    2    1    2    0    0 -0.20513668613E+02 -0.76565559152E+02  0.44535344517E+02  0.15456906030E+03  0.12500040817E+03 0.  0.
          2    1    1    2  501    0 -0.69411157823E+01  0.72125292946E+02 -0.20360918376E+04  0.20373807224E+04  0.00000000000E+00 0. -1.
          1    1    1    2  502    0  0.27454784395E+02  0.44402662056E+01  0.11455023483E+03  0.11787806178E+03  0.00000000000E+00 0. -1.
         22    1    3    3    0    0  0.35724805317E+01 -0.78244860829E+02  0.79808913971E+02  0.11182344840E+03  0.00000000000E+00 0.  1.
         22    1    3    3    0    0 -0.24086149145E+02  0.16793016770E+01 -0.35273569454E+02  0.42745611901E+02  0.00000000000E+00 0.  1.
</event>
<event>
 7    1  0.6485470E-006  0.1058702E+03  0.7818608E-02  0.1415981E+00
          2   -1    0    0  502    0  0.00000000000E+00  0.00000000000E+00  0.33465534802E+03  0.33465534802E+03  0.00000000000E+00 0. -1.
          1   -1    0    0  501    0 -0.00000000000E+00 -0.00000000000E+00 -0.12360176442E+03  0.12360176442E+03  0.00000000000E+00 0. -1.
         25    2    1    2    0    0 -0.12346788856E+03  0.33228559620E+02  0.72183207297E+02  0.19283073166E+03  0.12499927591E+03 0.  0.
          2    1    1    2  501    0  0.93995028947E+02 -0.32092071650E+02 -0.22120477136E+02  0.10175599264E+03  0.00000000000E+00 0. -1.
          1    1    1    2  502    0  0.29472859617E+02 -0.11364879700E+01  0.16099085344E+03  0.16367038813E+03  0.00000000000E+00 0. -1.
         22    1    3    3    0    0 -0.51322225756E+02 -0.45440558648E+02  0.99345580524E+01  0.69264064784E+02  0.00000000000E+00 0.  1.
         22    1    3    3    0    0 -0.72145662809E+02  0.78669118268E+02  0.62248649245E+02  0.12356666688E+03  0.00000000000E+00 0.  1.
</event>
<event>
 7    1  0.6485470E-006  0.7839540E+02  0.7818608E-02  0.1476752E+00
          2   -1    0    0  502    0  0.00000000000E+00  0.00000000000E+00  0.10858403129E+03  0.10858403129E+03  0.00000000000E+00 0. -1.
          1   -1    0    0  501    0 -0.00000000000E+00 -0.00000000000E+00 -0.13567608469E+04  0.13567608469E+04  0.00000000000E+00 0. -1.
         25    2    1    2    0    0 -0.25712084958E+01 -0.59214762816E+02 -0.28802653594E+03  0.31952467006E+03  0.12499492039E+03 0.  0.
          2    1    1    2  501    0  0.16782649287E+02 -0.19054772433E+02 -0.10357598140E+04  0.10360710082E+04  0.00000000000E+00 0. -1.
          1    1    1    2  502    0 -0.14211440791E+02  0.78269535250E+02  0.75609534369E+02  0.10974919993E+03  0.00000000000E+00 0. -1.
         22    1    3    3    0    0  0.15001357813E+02 -0.69146649704E+02 -0.66565302672E+02  0.97145454970E+02  0.00000000000E+00 0.  1.
         22    1    3    3    0    0 -0.17572566309E+02  0.99318868873E+01 -0.22146123326E+03  0.22237921509E+03  0.00000000000E+00 0.  1.
</event>
<event>
 7    1  0.6485470E-006  0.2641341E+03  0.7818608E-02  0.1242028E+00
          2   -1    0    0  502    0  0.00000000000E+00  0.00000000000E+00  0.15691443682E+04  0.15691443682E+04  0.00000000000E+00 0. -1.
          1   -1    0    0  501    0 -0.00000000000E+00 -0.00000000000E+00 -0.40091527950E+03  0.40091527950E+03  0.00000000000E+00 0. -1.
         25    2    1    2    0    0  0.63268730954E+01 -0.22978955338E+03  0.19854278313E+03  0.32845953212E+03  0.12499263715E+03 0.  0.
          2    1    1    2  501    0 -0.46290383988E+02  0.26773780248E+03 -0.28031295589E+03  0.39038658246E+03  0.00000000000E+00 0. -1.
          1    1    1    2  502    0  0.39963510893E+02 -0.37948249105E+02  0.12499992614E+04  0.12512135331E+04  0.00000000000E+00 0. -1.
         22    1    3    3    0    0  0.50069327256E+02 -0.40304313383E+02  0.29217868294E+02  0.70604950511E+02  0.00000000000E+00 0.  1.
         22    1    3    3    0    0 -0.43742454160E+02 -0.18948523999E+03  0.16932491484E+03  0.25785458161E+03  0.00000000000E+00 0.  1.
</event>
<event>
 7    1  0.6485470E-006  0.7993982E+02  0.7818608E-02  0.1418198E+00
          2   -1    0    0  502    0  0.00000000000E+00  0.00000000000E+00  0.10761766523E+04  0.10761766523E+04  0.00000000000E+00 0. -1.
          1   -1    0    0  501    0 -0.00000000000E+00 -0.00000000000E+00 -0.36105262129E+03  0.36105262129E+03  0.00000000000E+00 0. -1.
         25    2    1    2    0    0 -0.38864756247E+02  0.48362744180E+02  0.17610129351E+03  0.22469040136E+03  0.12499874634E+03 0.  0.
          2    1    1    2  501    0  0.21721261899E+02  0.31664872015E+02 -0.33374269140E+03  0.33594443201E+03  0.00000000000E+00 0. -1.
          1    1    1    2  502    0  0.17143494348E+02 -0.80027616195E+02  0.87276542894E+03  0.87659444027E+03  0.00000000000E+00 0. -1.
         22    1    3    3    0    0 -0.36103861686E+02  0.25769368940E+02  0.19191523318E+03  0.19697463271E+03  0.00000000000E+00 0. -1.
         22    1    3    3    0    0 -0.27608945612E+01  0.22593375241E+02 -0.15813939678E+02  0.27715768647E+02  0.00000000000E+00 0. -1.
</event>
<event>
 7    1  0.6485470E-006  0.1801957E+03  0.7818608E-02  0.1297494E+00
          2   -1    0    0  502    0  0.00000000000E+00  0.00000000000E+00  0.16881505157E+04  0.16881505157E+04  0.00000000000E+00 0. -1.
          1   -1    0    0  501    0 -0.00000000000E+00 -0.00000000000E+00 -0.65475986848E+03  0.65475986848E+03  0.00000000000E+00 0. -1.
         25    2    1    2    0    0 -0.95209227814E+02  0.14863288791E+03  0.10166145950E+04  0.10393680571E+04  0.12499676407E+03 0.  0.
          2    1    1    2  501    0  0.54162967372E+02 -0.17198884452E+03 -0.62987118402E+03  0.65517287653E+03  0.00000000000E+00 0. -1.
          1    1    1    2  502    0  0.41046260442E+02  0.23355956611E+02  0.64664723629E+03  0.64836945055E+03  0.00000000000E+00 0. -1.
         22    1    3    3    0    0 -0.12209772086E+03  0.10410530251E+03  0.67454849305E+03  0.69336962504E+03  0.00000000000E+00 0. -1.
         22    1    3    3    0    0  0.26888493050E+02  0.44527585400E+02  0.34206610194E+03  0.34599843210E+03  0.00000000000E+00 0. -1.
</event>
<event>
 7    1  0.6485470E-006  0.2317910E+03  0.7818608E-02  0.1250033E+00
          2   -1    0    0  502    0  0.00000000000E+00  0.00000000000E+00  0.26330265179E+03  0.26330265179E+03  0.00000000000E+00 0. -1.
          1   -1    0    0  501    0 -0.00000000000E+00 -0.00000000000E+00 -0.55417176603E+03  0.55417176603E+03  0.00000000000E+00 0. -1.
         25    2    1    2    0    0 -0.19361030171E+03  0.11538620218E+03  0.70660705541E+02  0.26723706042E+03  0.12499514621E+03 0.  0.
          2    1    1    2  501    0  0.16056857876E+02  0.55674337108E+02 -0.28682313606E+03  0.29261743946E+03  0.00000000000E+00 0. -1.
          1    1    1    2  502    0  0.17755344383E+03 -0.17106053929E+03 -0.74706683722E+02  0.25761991793E+03  0.00000000000E+00 0. -1.
         22    1    3    3    0    0 -0.25929093181E+01  0.24175113130E+02  0.48689871716E+02  0.54422999562E+02  0.00000000000E+00 0. -1.
         22    1    3    3    0    0 -0.19101739239E+03  0.91211089053E+02  0.21970833825E+02  0.21281406086E+03  0.00000000000E+00 0. -1.
</event>
<event>
 7    1  0.6485470E-006  0.1760203E+03  0.7818608E-02  0.1303645E+00
          2   -1    0    0  502    0  0.00000000000E+00  0.00000000000E+00  0.15457187072E+04  0.15457187072E+04  0.00000000000E+00 0. -1.
          1   -1    0    0  501    0 -0.00000000000E+00 -0.00000000000E+00 -0.43148193178E+03  0.43148193178E+03  0.00000000000E+00 0. -1.
         25    2    1    2    0    0  0.24572638143E+02  0.21558960456E+03 -0.16243971846E+03  0.29848579065E+03  0.12499765176E+03 0.  0.
          2    1    1    2  501    0  0.11467695549E+02 -0.44221031300E+02 -0.19315722024E+03  0.19848606848E+03  0.00000000000E+00 0. -1.
          1    1    1    2  502    0 -0.36040333692E+02 -0.17136857326E+03  0.14698337141E+04  0.14802287798E+04  0.00000000000E+00 0. -1.
         22    1    3    3    0    0  0.63769932598E+01  0.10527402942E+03 -0.52613666180E+01  0.10559815004E+03  0.00000000000E+00 0.  1.
         22    1    3    3    0    0  0.18195644883E+02  0.11031557514E+03 -0.15717835184E+03  0.19288764061E+03  0.00000000000E+00 0.  1.
</event>
<event>
 7    1  0.6485470E-006  0.8227957E+02  0.7818608E-02  0.1329603E+00
          2   -1    0    0  502    0  0.00000000000E+00  0.00000000000E+00  0.31109571586E+03  0.31109571586E+03  0.00000000000E+00 0. -1.
          1   -1    0    0  501    0 -0.00000000000E+00 -0.00000000000E+00 -0.24985871892E+04  0.24985871892E+04  0.00000000000E+00 0. -1.
         25    2    1    2    0    0 -0.12549455339E+03  0.49069143291E+02 -0.35357468789E+03  0.39849325569E+03  0.12500060464E+03 0.  0.
          2    1    1    2  501    0  0.44932070127E+02 -0.63030867323E+02 -0.21160409557E+04  0.21174562823E+04  0.00000000000E+00 0. -1.
          1    1    1    2  502    0  0.80562483266E+02  0.13961724032E+02  0.28212417029E+03  0.29373336704E+03  0.00000000000E+00 0. -1.
         22    1    3    3    0    0 -0.10574660404E+02  0.61133815641E+02 -0.77944718720E+02  0.99622015809E+02  0.00000000000E+00 0.  1.
         22    1    3    3    0    0 -0.11491989299E+03 -0.12064672350E+02 -0.27562996917E+03  0.29887123989E+03  0.00000000000E+00 0.  1.
</event>
<event>
 7    1  0.6485470E-006  0.1036192E+03  0.7818608E-02  0.1318146E+00
          2   -1    0    0  502    0  0.00000000000E+00  0.00000000000E+00  0.10423075343E+04  0.10423075343E+04  0.00000000000E+00 0. -1.
          1   -1    0    0  501    0 -0.00000000000E+00 -0.00000000000E+00 -0.12721860545E+03  0.12721860545E+03  0.00000000000E+00 0. -1.
         25    2    1    2    0    0 -0.16091243226E+03  0.29432396144E+02  0.36857056101E+03  0.42216953959E+03  0.12499513955E+03 0.  0.
          2    1    1    2  501    0  0.66586305066E+02 -0.14028745821E+02 -0.84866431964E+02  0.10877891802E+03  0.00000000000E+00 0. -1.
          1    1    1    2  502    0  0.94326127189E+02 -0.15403650322E+02  0.63138479978E+03  0.63857768212E+03  0.00000000000E+00 0. -1.
         22    1    3    3    0    0 -0.11941332281E+03  0.24259678399E+02  0.35920928166E+03  0.37931435735E+03  0.00000000000E+00 0. -1.
         22    1    3    3    0    0 -0.41499109446E+02  0.51727177452E+01  0.93612793568E+01  0.42855182241E+02  0.00000000000E+00 0. -1.
</event>
<event>
 7    1  0.6485470E-006  0.8654235E+02  0.7818608E-02  0.1396326E+00
          2   -1    0    0  502    0  0.00000000000E+00  0.00000000000E+00  0.10297777191E+03  0.10297777191E+03  0.00000000000E+00 0. -1.
          1   -1    0    0  501    0 -0.00000000000E+00 -0.00000000000E+00 -0.23069130848E+03  0.23069130848E+03  0.00000000000E+00 0. -1.
         25    2    1    2    0    0  0.46000611441E+02  0.36262091894E+02 -0.10168302606E+02  0.13841858317E+03  0.12500125690E+03 0.  0.
          2    1    1    2  501    0 -0.88013774106E+02 -0.33570272131E+02 -0.12061385263E+03  0.15303950160E+03  0.00000000000E+00 0. -1.
          1    1    1    2  502    0  0.42013162665E+02 -0.26918197628E+01  0.30686186694E+01  0.42210995620E+02  0.00000000000E+00 0. -1.
         22    1    3    3    0    0  0.64342811144E+02  0.44477392725E+00 -0.50235547960E+02  0.81632134902E+02  0.00000000000E+00 0.  1.
         22    1    3    3    0    0 -0.18342199703E+02  0.35817317967E+02  0.40067245354E+02  0.56786448265E+02  0.00000000000E+00 0.  1.
</event>
<event>
 7    1  0.6485470E-006  0.6658878E+02  0.7818608E-02  0.1389957E+00
          2   -1    0    0  502    0  0.00000000000E+00  0.00000000000E+00  0.66740616052E+03  0.66740616052E+03  0.00000000000E+00 0. -1.
          1   -1    0    0  501    0 -0.00000000000E+00 -0.00000000000E+00 -0.13955655294E+04  0.13955655294E+04  0.00000000000E+00 0. -1.
         25    2    1    2    0    0  0.10746949396E+03 -0.44080364914E+02 -0.12912944282E+03  0.21399895653E+03  0.12501347804E+03 0.  0.
          2    1    1    2  501    0 -0.49912550670E+02  0.42685142505E+02 -0.12217915589E+04  0.12235554330E+04  0.00000000000E+00 0. -1.
          1    1    1    2  502    0 -0.57556943290E+02  0.13952224090E+01  0.62276163283E+03  0.62541730045E+03  0.00000000000E+00 0. -1.
         22    1    3    3    0    0  0.82206143322E+02  0.21960857193E+02 -0.11303568557E+03  0.14148213831E+03  0.00000000000E+00 0.  1.
         22    1    3    3    0    0  0.25263350638E+02 -0.66041222107E+02 -0.16093757252E+02  0.72516818224E+02  0.00000000000E+00 0.  1.
</event>
<event>
 7    1  0.6485470E-006  0.4099811E+03  0.7818608E-02  0.1259795E+00
          2   -1    0    0  502    0  0.00000000000E+00  0.00000000000E+00  0.84323527449E+03  0.84323527449E+03  0.00000000000E+00 0. -1.
          1   -1    0    0  501    0 -0.00000000000E+00 -0.00000000000E+00 -0.63793381217E+03  0.63793381217E+03  0.00000000000E+00 0. -1.
         25    2    1    2    0    0 -0.64579641705E+02 -0.39879405000E+03  0.35809270079E+02  0.42439925645E+03  0.12500080248E+03 0.  0.
          2    1    1    2  501    0  0.37491515853E+02  0.41106759876E+03 -0.34710451572E+03  0.53931783704E+03  0.00000000000E+00 0. -1.
          1    1    1    2  502    0  0.27088125852E+02 -0.12273548769E+02  0.51659670796E+03  0.51745199317E+03  0.00000000000E+00 0. -1.
         22    1    3    3    0    0  0.27986009214E+02 -0.80473278531E+02 -0.21749646321E+02  0.87932999404E+02  0.00000000000E+00 0.  1.
         22    1    3    3    0    0 -0.92565650918E+02 -0.31832077147E+03  0.57558916400E+02  0.33646625705E+03  0.00000000000E+00 0.  1.
</event>
<event>
 7    1  0.6485470E-006  0.5294602E+02  0.7818608E-02  0.1502154E+00
          2   -1    0    0  502    0  0.00000000000E+00  0.00000000000E+00  0.17194651487E+03  0.17194651487E+03  0.00000000000E+00 0. -1.
          1   -1    0    0  501    0 -0.00000000000E+00 -0.00000000000E+00 -0.48933144915E+03  0.48933144915E+03  0.00000000000E+00 0. -1.
         25    2    1    2    0    0  0.50643317408E+02  0.46502403266E+02 -0.34334846933E+03  0.37180627348E+03  0.12499805799E+03 0.  0.
          2    1    1    2  501    0 -0.19172047966E+02 -0.45293903948E+02 -0.12548673564E+03  0.13478140072E+03  0.00000000000E+00 0. -1.
          1    1    1    2  502    0 -0.31471269442E+02 -0.12084993177E+01  0.15145027069E+03  0.15469028982E+03  0.00000000000E+00 0. -1.
         22    1    3    3    0    0  0.57977007276E+01  0.54744189894E+02 -0.31116119103E+03  0.31599339623E+03  0.00000000000E+00 0.  1.
         22    1    3    3    0    0  0.44845616681E+02 -0.82417866276E+01 -0.32187278301E+02  0.55812877248E+02  0.00000000000E+00 0.  1.
</event>
<event>
 7    1  0.6485470E-006  0.4723351E+02  0.7818608E-02  0.1511084E+00
          2   -1    0    0  502    0  0.00000000000E+00  0.00000000000E+00  0.18154951640E+04  0.18154951640E+04  0.00000000000E+00 0. -1.
          1   -1    0    0  501    0 -0.00000000000E+00 -0.00000000000E+00 -0.26987645967E+02  0.26987645967E+02  0.00000000000E+00 0. -1.
         25    2    1    2    0    0  0.22659744334E+02 -0.22218201973E+02  0.59868777419E+03  0.61242104282E+03  0.12500148087E+03 0.  0.
          2    1    1    2  501    0 -0.21391618229E+01  0.48343402694E+02  0.95493487387E+01  0.49323935961E+02  0.00000000000E+00 0. -1.
          1    1    1    2  502    0 -0.20520582511E+02 -0.26125200721E+02  0.11802703951E+04  0.11807378312E+04  0.00000000000E+00 0. -1.
         22    1    3    3    0    0 -0.19712130290E+02 -0.99074234577E+01  0.53200066642E+03  0.53245791776E+03  0.00000000000E+00 0. -1.
         22    1    3    3    0    0  0.42371874624E+02 -0.12310778515E+02  0.66687107773E+02  0.79963125063E+02  0.00000000000E+00 0. -1.
</event>
<event>
 7    1  0.6485470E-006  0.5419149E+02  0.7818608E-02  0.1464932E+00
          2   -1    0    0  502    0  0.00000000000E+00  0.00000000000E+00  0.17580773350E+04  0.17580773350E+04  0.00000000000E+00 0. -1.
          1   -1    0    0  501    0 -0.00000000000E+00 -0.00000000000E+00 -0.25655763850E+02  0.25655763850E+02  0.00000000000E+00 0. -1.
         25    2    1    2    0    0 -0.16419399021E+02  0.14995418902E+02  0.87639195084E+03  0.88554073870E+03  0.12500035662E+03 0.  0.
          2    1    1    2  501    0 -0.25321978981E+02  0.30931080452E+02  0.58358606284E-01  0.39974213728E+02  0.00000000000E+00 0. -1.
          1    1    1    2  502    0  0.41741378003E+02 -0.45926499355E+02  0.85597126173E+03  0.85821814645E+03  0.00000000000E+00 0. -1.
         22    1    3    3    0    0 -0.65652370940E+02  0.34143084306E+02  0.49088315893E+03  0.49642951135E+03  0.00000000000E+00 0.  1.
         22    1    3    3    0    0  0.49232971918E+02 -0.19147665404E+02  0.38550879191E+03  0.38911122736E+03  0.00000000000E+00 0.  1.
</event>
<event>
 7    1  0.6485470E-006  0.8470647E+02  0.7818608E-02  0.1414396E+00
          2   -1    0    0  502    0  0.00000000000E+00  0.00000000000E+00  0.11735611998E+03  0.11735611998E+03  0.00000000000E+00 0. -1.
          1   -1    0    0  501    0 -0.00000000000E+00 -0.00000000000E+00 -0.40346683345E+03  0.40346683345E+03  0.00000000000E+00 0. -1.
         25    2    1    2    0    0 -0.95315080663E+02 -0.41721198678E+01 -0.12208528153E+03  0.19907857016E+03  0.12500035978E+03 0.  0.
          2    1    1    2  501    0  0.78596787653E+02 -0.29193003933E+02 -0.23062985806E+03  0.24539726554E+03  0.00000000000E+00 0. -1.
          1    1    1    2  502    0  0.16718293011E+02  0.33365123801E+02  0.66604426109E+02  0.76347117724E+02  0.00000000000E+00 0. -1.
         22    1    3    3    0    0 -0.48641829230E+02  0.35769174104E+02 -0.12367648723E+03  0.13762752217E+03  0.00000000000E+00 0.  1.
         22    1    3    3    0    0 -0.46673251433E+02 -0.39941293971E+02  0.15912056959E+01  0.61451047990E+02  0.00000000000E+00 0.  1.
</event>
<event>
 7    1  0.6485470E-006  0.1638191E+03  0.7818608E-02  0.1371021E+00
          2   -1    0    0  502    0  0.00000000000E+00  0.00000000000E+00  0.96802159766E+03  0.96802159766E+03  0.00000000000E+00 0. -1.
          1   -1    0    0  501    0 -0.00000000000E+00 -0.00000000000E+00 -0.13660490114E+04  0.13660490114E+04  0.00000000000E+00 0. -1.
         25    2    1    2    0    0  0.16248545352E+03  0.48086225660E+02 -0.78960043823E+01  0.21071501287E+03  0.12499864824E+03 0.  0.
          2    1    1    2  501    0 -0.14747471127E+03 -0.70897966800E+02 -0.12511998080E+04  0.12618542989E+04  0.00000000000E+00 0. -1.
          1    1    1    2  502    0 -0.15010742246E+02  0.22811741140E+02  0.86106839868E+03  0.86150129722E+03  0.00000000000E+00 0. -1.
         22    1    3    3    0    0 -0.30019098914E+01  0.42967537967E+02 -0.13243097005E+02  0.45062183704E+02  0.00000000000E+00 0.  1.
         22    1    3    3    0    0  0.16548736341E+03  0.51186876933E+01  0.53470926231E+01  0.16565282917E+03  0.00000000000E+00 0.  1.
</event>
<event>
 7    1  0.6485470E-006  0.4836727E+02  0.7818608E-02  0.1464231E+00
          2   -1    0    0  502    0  0.00000000000E+00  0.00000000000E+00  0.81295318847E+03  0.81295318847E+03  0.00000000000E+00 0. -1.
          1   -1    0    0  501    0 -0.00000000000E+00 -0.00000000000E+00 -0.30001188179E+03  0.30001188179E+03  0.00000000000E+00 0. -1.
         25    2    1    2    0    0 -0.63157141290E+02 -0.31524375594E+02  0.34408324698E+03  0.37282834771E+03  0.12500034099E+03 0.  0.
          2    1    1    2  501    0  0.16626304583E+02  0.41831891730E+02 -0.28260369729E+03  0.28616636925E+03  0.00000000000E+00 0. -1.
          1    1    1    2  502    0  0.46530836707E+02 -0.10307516136E+02  0.45146175698E+03  0.45397035330E+03  0.00000000000E+00 0. -1.
         22    1    3    3    0    0 -0.89556085587E+02 -0.23673233940E+01  0.14931968459E+03  0.17413289434E+03  0.00000000000E+00 0.  1.
         22    1    3    3    0    0  0.26398944297E+02 -0.29157052200E+02  0.19476356239E+03  0.19869545336E+03  0.00000000000E+00 0.  1.
</event>
<event>
 7    1  0.6485470E-006  0.1153302E+03  0.7818608E-02  0.1405271E+00
          2   -1    0    0  502    0  0.00000000000E+00  0.00000000000E+00  0.13940625605E+04  0.13940625605E+04  0.00000000000E+00 0. -1.
          1   -1    0    0  501    0 -0.00000000000E+00 -0.00000000000E+00 -0.68748021760E+03  0.68748021760E+03  0.00000000000E+00 0. -1.
         25    2    1    2    0    0  0.72930757225E+02  0.64564320230E+02  0.44524981838E+03  0.47260940406E+03  0.12499920497E+03 0.  0.
          2    1    1    2  501    0 -0.67821741612E+02 -0.93550535188E+02 -0.66861207933E+03  0.67852310491E+03  0.00000000000E+00 0. -1.
          1    1    1    2  502    0 -0.51090156123E+01  0.28986214958E+02  0.92994460380E+03  0.93041026909E+03  0.00000000000E+00 0. -1.
         22    1    3    3    0    0  0.76409943687E+02  0.97893709438E+02  0.33025495856E+03  0.35283139812E+03  0.00000000000E+00 0. -1.
         22    1    3    3    0    0 -0.34791864626E+01 -0.33329389208E+02  0.11499485981E+03  0.11977800594E+03  0.00000000000E+00 0. -1.
</event>
<event>
 7    1  0.6485470E-006  0.6747211E+02  0.7818608E-02  0.1412736E+00
          2   -1    0    0  502    0  0.00000000000E+00  0.00000000000E+00  0.58775427966E+02  0.58775427966E+02  0.00000000000E+00 0. -1.
          1   -1    0    0  501    0 -0.00000000000E+00 -0.00000000000E+00 -0.25106798424E+04  0.25106798424E+04  0.00000000000E+00 0. -1.
         25    2    1    2    0    0 -0.19412468464E+01  0.49420213144E+02 -0.57724630390E+03  0.59269385009E+03  0.12500631448E+03 0.  0.
          2    1    1    2  501    0 -0.47431579727E+02 -0.16216548682E+01 -0.19021534327E+04  0.19027454023E+04  0.00000000000E+00 0. -1.
          1    1    1    2  502    0  0.49372826573E+02 -0.47798558276E+02  0.27495322147E+02  0.74016017976E+02  0.00000000000E+00 0. -1.
         22    1    3    3    0    0  0.24289595725E+01 -0.27508436716E+02 -0.33045803203E+02  0.43065520367E+02  0.00000000000E+00 0.  1.
         22    1    3    3    0    0 -0.43702064189E+01  0.76928649860E+02 -0.54420050070E+03  0.54962832972E+03  0.00000000000E+00 0.  1.
</event>
<event>
 7    1  0.6485470E-006  0.1743681E+03  0.7818608E-02  0.1302228E+00
          2   -1    0    0  502    0  0.00000000000E+00  0.00000000000E+00  0.23539009633E+04  0.23539009633E+04  0.00000000000E+00 0. -1.
          1   -1    0    0  501    0 -0.00000000000E+00 -0.00000000000E+00 -0.60743774368E+03  0.60743774368E+03  0.00000000000E+00 0. -1.
         25    2    1    2    0    0 -0.10378139578E+01 -0.13153779523E+03  0.62615582167E+01  0.18156479974E+03  0.12499320286E+03 0.  0.
          2    1    1    2  501    0 -0.16703680643E+02 -0.43632077305E+02 -0.51529856380E+03  0.51741219639E+03  0.00000000000E+00 0. -1.
          1    1    1    2  502    0  0.17741494601E+02  0.17516987254E+03  0.22555002252E+04  0.22623617108E+04  0.00000000000E+00 0. -1.
         22    1    3    3    0    0  0.59120687582E+01 -0.14769767972E+03  0.31174250788E+02  0.15106750499E+03  0.00000000000E+00 0. -1.
         22    1    3    3    0    0 -0.69498827161E+01  0.16159884484E+02 -0.24912692571E+02  0.30497294756E+02  0.00000000000E+00 0. -1.
</event>
<event>
 7    1  0.6485470E-006  0.5483512E+02  0.7818608E-02  0.1479011E+00
          2   -1    0    0  502    0  0.00000000000E+00  0.00000000000E+00  0.85096698138E+03  0.85096698138E+03  0.00000000000E+00 0. -1.
          1   -1    0    0  501    0 -0.00000000000E+00 -0.00000000000E+00 -0.12173358397E+04  0.12173358397E+04  0.00000000000E+00 0. -1.
         25    2    1    2    0    0  0.19362919317E+02 -0.12144678332E+02  0.26017934333E+03  0.28955230042E+03  0.12499931251E+03 0.  0.
          2    1    1    2  501    0  0.34291737080E+02 -0.10018484864E+02 -0.12009206258E+04  0.12014518894E+04  0.00000000000E+00 0. -1.
          1    1    1    2  502    0 -0.53654656397E+02  0.22163163196E+02  0.57437242414E+03  0.57729863119E+03  0.00000000000E+00 0. -1.
         22    1    3    3    0    0 -0.10496642769E+02  0.39001875202E+02  0.20386660603E+03  0.20782906157E+03  0.00000000000E+00 0.  1.
         22    1    3    3    0    0  0.29859562086E+02 -0.51146553534E+02  0.56312737301E+02  0.81723238854E+02  0.00000000000E+00 0.  1.
</event>
<event>
 7    1  0.6485470E-006  0.6141569E+02  0.7818608E-02  0.1398890E+00
          2   -1    0    0  502    0  0.00000000000E+00  0.00000000000E+00  0.57445870759E+03  0.57445870759E+03  0.00000000000E+00 0. -1.
          1   -1    0    0  501    0 -0.00000000000E+00 -0.00000000000E+00 -0.16526550783E+03  0.16526550783E+03  0.00000000000E+00 0. -1.
         25    2    1    2    0    0 -0.33064205936E+02  0.73119782846E+02 -0.26671968954E+02  0.15091473209E+03  0.12499647226E+03 0.  0.
          2    1    1    2  501    0 -0.22854208423E+02 -0.57250616220E+02 -0.62078078742E+02  0.87485060213E+02  0.00000000000E+00 0. -1.
          1    1    1    2  502    0  0.55918414358E+02 -0.15869166626E+02  0.49794324746E+03  0.50132442311E+03  0.00000000000E+00 0. -1.
         22    1    3    3    0    0 -0.44270019677E+02  0.98302295613E+02  0.62328931633E+01  0.10799085573E+03  0.00000000000E+00 0.  1.
         22    1    3    3    0    0  0.11205813741E+02 -0.25182512767E+02 -0.32904862117E+02  0.42923876361E+02  0.00000000000E+00 0.  1.
</event>
<event>
 7    1  0.6485470E-006  0.6976823E+02  0.7818608E-02  0.1371671E+00
          2   -1    0    0  502    0  0.00000000000E+00  0.00000000000E+00  0.18138189710E+04  0.18138189710E+04  0.00000000000E+00 0. -1.
          1   -1    0    0  501    0 -0.00000000000E+00 -0.00000000000E+00 -0.12076758228E+02  0.12076758228E+02  0.00000000000E+00 0. -1.
         25    2    1    2    0    0 -0.25519456651E+02  0.13790400862E+02  0.90542686309E+03  0.91447537389E+03  0.12500394879E+03 0.  0.
          2    1    1    2  501    0  0.38409686746E+02 -0.76250336168E+02  0.30657281251E+03  0.31823938659E+03  0.00000000000E+00 0. -1.
          1    1    1    2  502    0 -0.12890230095E+02  0.62459935307E+02  0.58974253717E+03  0.59318096875E+03  0.00000000000E+00 0. -1.
         22    1    3    3    0    0 -0.28702606189E+02 -0.12627764857E+02  0.86793062666E+03  0.86849690428E+03  0.00000000000E+00 0. -1.
         22    1    3    3    0    0  0.31831495379E+01  0.26418165719E+02  0.37496236430E+02  0.45978469607E+02  0.00000000000E+00 0. -1.
</event>
<event>
 7    1  0.6485470E-006  0.2381742E+03  0.7818608E-02  0.1280820E+00
          2   -1    0    0  502    0  0.00000000000E+00  0.00000000000E+00  0.14521638403E+04  0.14521638403E+04  0.00000000000E+00 0. -1.
          1   -1    0    0  501    0 -0.00000000000E+00 -0.00000000000E+00 -0.27231480104E+03  0.27231480104E+03  0.00000000000E+00 0. -1.
         25    2    1    2    0    0  0.23238087488E+03 -0.30727585973E+02  0.20263264714E+03  0.33409179072E+03  0.12494910721E+03 0.  0.
          2    1    1    2  501    0 -0.22872837968E+03  0.72344881919E+02 -0.13641633287E+03  0.27597077651E+03  0.00000000000E+00 0. -1.
          1    1    1    2  502    0 -0.36524952017E+01 -0.41617295947E+02  0.11136327250E+04  0.11144160741E+04  0.00000000000E+00 0. -1.
         22    1    3    3    0    0  0.31144769838E+02 -0.36547627437E+02  0.93463933015E+02  0.10507726935E+03  0.00000000000E+00 0. -1.
         22    1    3    3    0    0  0.20123610504E+03  0.58200414644E+01  0.10916871412E+03  0.22901452137E+03  0.00000000000E+00 0. -1.
</event>
<event>
 7    1  0.6485470E-006  0.6417272E+02  0.7818608E-02  0.1425332E+00
          2   -1    0    0  502    0  0.00000000000E+00  0.00000000000E+00  0.41299723776E+03  0.41299723776E+03  0.00000000000E+00 0. -1.
          1   -1    0    0  501    0 -0.00000000000E+00 -0.00000000000E+00 -0.46193319150E+03  0.46193319150E+03  0.00000000000E+00 0. -1.
         25    2    1    2    0    0  0.41547961103E+02  0.31536162663E+02 -0.31463447235E+02  0.13905271833E+03  0.12499978935E+03 0.  0.
          2    1    1    2  501    0 -0.10676574244E+02 -0.64669199321E+02 -0.37237402763E+03  0.37809854672E+03  0.00000000000E+00 0. -1.
          1    1    1    2  502    0 -0.30871386859E+02  0.33133036657E+02  0.35490152112E+03  0.35777916421E+03  0.00000000000E+00 0. -1.
         22    1    3    3    0    0  0.41399660791E+02  0.57313701306E+02 -0.65484118824E+02  0.96368885483E+02  0.00000000000E+00 0. -1.
         22    1    3    3    0    0  0.14830031169E+00 -0.25777538643E+02  0.34020671589E+02  0.42683832851E+02  0.00000000000E+00 0. -1.
</event>
<event>
 7    1  0.6485470E-006  0.5733277E+02  0.7818608E-02  0.1480159E+00
          2   -1    0    0  502    0  0.00000000000E+00  0.00000000000E+00  0.19455505891E+03  0.19455505891E+03  0.00000000000E+00 0. -1.
          1   -1    0    0  501    0 -0.00000000000E+00 -0.00000000000E+00 -0.24815044887E+03  0.24815044887E+03  0.00000000000E+00 0. -1.
         25    2    1    2    0    0 -0.20615093745E+02  0.14888011738E+02 -0.51513823561E+02  0.13757226775E+03  0.12500327936E+03 0.  0.
          2    1    1    2  501    0 -0.26970448244E+02  0.20526201182E+02 -0.14578274710E+03  0.14967076991E+03  0.00000000000E+00 0. -1.
          1    1    1    2  502    0  0.47585541989E+02 -0.35414212920E+02  0.14370118070E+03  0.15546247012E+03  0.00000000000E+00 0. -1.
         22    1    3    3    0    0  0.36518988892E+02  0.14901344609E+02 -0.67557324963E+02  0.78228375779E+02  0.00000000000E+00 0.  1.
         22    1    3    3    0    0 -0.57134082637E+02 -0.13332870738E-01  0.16043501401E+02  0.59343891967E+02  0.00000000000E+00 0.  1.
</event>
<event>
 7    1  0.6485470E-006  0.5458759E+02  0.7818608E-02  0.1458637E+00
          2   -1    0    0  502    0  0.00000000000E+00  0.00000000000E+00  0.23650949678E+03  0.23650949678E+03  0.00000000000E+00 0. -1.
          1   -1    0    0  501    0 -0.00000000000E+00 -0.00000000000E+00 -0.58206273384E+03  0.58206273384E+03  0.00000000000E+00 0. -1.
         25    2    1    2    0    0  0.28923682691E+02 -0.84206781453E+02  0.12353024827E+03  0.19700514455E+03  0.12499577304E+03 0.  0.
          2    1    1    2  501    0 -0.11861849852E+02  0.39806484883E+02 -0.53702565716E+03  0.53862957231E+03  0.00000000000E+00 0. -1.
          1    1    1    2  502    0 -0.17061832839E+02  0.44400296570E+02  0.67942171828E+02  0.82937513756E+02  0.00000000000E+00 0. -1.
         22    1    3    3    0    0  0.50485364681E+01 -0.51649498178E+02  0.14304147497E+03  0.15216445690E+03  0.00000000000E+00 0.  1.
         22    1    3    3    0    0  0.23875146223E+02 -0.32557283275E+02 -0.19511226699E+02  0.44840687648E+02  0.00000000000E+00 0.  1.
</event>
<event>
 7    1  0.6485470E-006  0.5696627E+02  0.7818608E-02  0.1419409E+00
          2   -1    0    0  502    0  0.00000000000E+00  0.00000000000E+00  0.30397233357E+03  0.30397233357E+03  0.00000000000E+00 0. -1.
          1   -1    0    0  501    0 -0.00000000000E+00 -0.00000000000E+00 -0.10233472213E+04  0.10233472213E+04  0.00000000000E+00 0. -1.
         25    2    1    2    0    0 -0.10152920326E+02 -0.13542183569E+02  0.54752415140E+02  0.13750545987E+03  0.12499380786E+03 0.  0.
          2    1    1    2  501    0 -0.52020745387E+02  0.11987864284E+02 -0.97657279060E+03  0.97803081863E+03  0.00000000000E+00 0. -1.
          1    1    1    2  502    0  0.62173665713E+02  0.15543192846E+01  0.20244548777E+03  0.21178327634E+03  0.00000000000E+00 0. -1.
         22    1    3    3    0    0 -0.60946813470E+01  0.50675761273E+02  0.52350417807E+02  0.73114596121E+02  0.00000000000E+00 0.  1.
         22    1    3    3    0    0 -0.40582389793E+01 -0.64217944842E+02  0.24019973323E+01  0.64390863750E+02  0.00000000000E+00 0.  1.
</event>
<event>
 7    1  0.6485470E-006  0.3866039E+02  0.7818608E-02  0.1530357E+00
          2   -1    0    0  502    0  0.00000000000E+00  0.00000000000E+00  0.14226924243E+04  0.14226924243E+04  0.00000000000E+00 0. -1.
          1   -1    0    0  501    0 -0.00000000000E+00 -0.00000000000E+00 -0.22273526829E+03  0.22273526829E+03  0.00000000000E+00 0. -1.
         25    2    1    2    0    0  0.18994052605E+02  0.37324293211E+02 -0.54033189235E+02  0.14247041590E+03  0.12499742785E+03 0.  0.
          2    1    1    2  501    0 -0.35605352799E+02 -0.23744896174E+01 -0.12164845908E+03  0.12677431500E+03  0.00000000000E+00 0. -1.
          1    1    1    2  502    0  0.16611300194E+02 -0.34949803593E+02  0.13756388043E+04  0.13761829617E+04  0.00000000000E+00 0. -1.
         22    1    3    3    0    0  0.77082650687E+01  0.68923735182E+02  0.10104608449E+02  0.70085674241E+02  0.00000000000E+00 0. -1.
         22    1    3    3    0    0  0.11285787537E+02 -0.31599441972E+02 -0.64137797685E+02  0.72384741659E+02  0.00000000000E+00 0. -1.
</event>
<event>
 7    1  0.6485470E-006  0.1400264E+03  0.7818608E-02  0.1254175E+00
          2   -1    0    0  502    0  0.00000000000E+00  0.00000000000E+00  0.63275909308E+03  0.63275909308E+03  0.00000000000E+00 0. -1.
          1   -1    0    0  501    0 -0.00000000000E+00 -0.00000000000E+00 -0.98884097398E+03  0.98884097398E+03  0.00000000000E+00 0. -1.
         25    2    1    2    0    0  0.10184242086E+03 -0.65250258010E+02 -0.34894512940E+03  0.38989209419E+03  0.12499466760E+03 0.  0.
          2    1    1    2  501    0 -0.15745440218E+03 -0.80914912759E+01 -0.60581559169E+03  0.62599512149E+03  0.00000000000E+00 0. -1.
          1    1    1    2  502    0  0.55611981321E+02  0.73341749286E+02  0.59867884018E+03  0.60571285139E+03  0.00000000000E+00 0. -1.
         22    1    3    3    0    0  0.30821620648E+01  0.89498050044E+01 -0.18183909952E+03  0.18208530102E+03  0.00000000000E+00 0. -1.
         22    1    3    3    0    0  0.98760258794E+02 -0.74200063014E+02 -0.16710602987E+03  0.20780679317E+03  0.00000000000E+00 0. -1.
</event>
<event>
 7    1  0.6485470E-006  0.2466209E+03  0.7818608E-02  0.1195172E+00
          2   -1    0    0  502    0  0.00000000000E+00  0.00000000000E+00  0.74634824302E+03  0.74634824302E+03  0.00000000000E+00 0. -1.
          1   -1    0    0  501    0 -0.00000000000E+00 -0.00000000000E+00 -0.67277243887E+03  0.67277243887E+03  0.00000000000E+00 0. -1.
         25    2    1    2    0    0 -0.13030965505E+03 -0.12342837591E+03  0.41907307909E+02  0.22270396145E+03  0.12500264720E+03 0.  0.
          2    1    1    2  501    0 -0.92578306997E+02 -0.27791327990E+02 -0.54840636135E+03  0.55685962145E+03  0.00000000000E+00 0. -1.
          1    1    1    2  502    0  0.22288796205E+03  0.15121970390E+03  0.58007485759E+03  0.63955709900E+03  0.00000000000E+00 0. -1.
         22    1    3    3    0    0 -0.43166511850E+02 -0.29794878942E+02  0.74118295664E+02  0.90799803461E+02  0.00000000000E+00 0.  1.
         22    1    3    3    0    0 -0.87143143200E+02 -0.93633496972E+02 -0.32210987755E+02  0.13190415799E+03  0.00000000000E+00 0.  1.
</event>
<event>
 7    1  0.6485470E-006  0.6858409E+02  0.7818608E-02  0.1389448E+00
          2   -1    0    0  502    0  0.00000000000E+00  0.00000000000E+00  0.72508097632E+02  0.72508097632E+02  0.00000000000E+00 0. -1.
          1   -1    0    0  501    0 -0.00000000000E+00 -0.00000000000E+00 -0.21721710962E+04  0.21721710962E+04  0.00000000000E+00 0. -1.
         25    2    1    2    0    0 -0.10208846690E+03  0.52549127886E+02 -0.27682152599E+03  0.32470643384E+03  0.12498257882E+03 0.  0.
          2    1    1    2  501    0  0.46046815950E+02 -0.49441893428E+02 -0.18543670216E+04  0.18555974404E+04  0.00000000000E+00 0. -1.
          1    1    1    2  502    0  0.56041650946E+02 -0.31072344582E+01  0.31525548932E+02  0.64375319667E+02  0.00000000000E+00 0. -1.
         22    1    3    3    0    0  0.13602763869E+02  0.38340621857E+02 -0.26429284255E+02  0.48513354198E+02  0.00000000000E+00 0. -1.
         22    1    3    3    0    0 -0.11569123077E+03  0.14208506029E+02 -0.25039224174E+03  0.27619307964E+03  0.00000000000E+00 0. -1.
</event>
<event>
 7    1  0.6485470E-006  0.3553398E+02  0.7818608E-02  0.1619596E+00
          2   -1    0    0  502    0  0.00000000000E+00  0.00000000000E+00  0.73616922672E+03  0.73616922672E+03  0.00000000000E+00 0. -1.
          1   -1    0    0  501    0 -0.00000000000E+00 -0.00000000000E+00 -0.12598493685E+04  0.12598493685E+04  0.00000000000E+00 0. -1.
         25    2    1    2    0    0  0.87818541374E+01  0.28429189233E+02 -0.64698600785E+03  0.65962201302E+03  0.12499986377E+03 0.  0.
          2    1    1    2  501    0 -0.29830593680E+02 -0.21106629803E+02 -0.60582455486E+03  0.60692565065E+03  0.00000000000E+00 0. -1.
          1    1    1    2  502    0  0.21048739543E+02 -0.73225594304E+01  0.72913042091E+03  0.72947093158E+03  0.00000000000E+00 0. -1.
         22    1    3    3    0    0 -0.47021673135E+01 -0.36670321868E+02 -0.73289846887E+02  0.82086689177E+02  0.00000000000E+00 0. -1.
         22    1    3    3    0    0  0.13484021451E+02  0.65099511102E+02 -0.57369616097E+03  0.57753532384E+03  0.00000000000E+00 0. -1.
</event>
<event>
 7    1  0.6485470E-006  0.6261566E+02  0.7818608E-02  0.1486190E+00
          2   -1    0    0  502    0  0.00000000000E+00  0.00000000000E+00  0.32746450837E+03  0.32746450837E+03  0.00000000000E+00 0. -1.
          1   -1    0    0  501    0 -0.00000000000E+00 -0.00000000000E+00 -0.10915114751E+03  0.10915114751E+03  0.00000000000E+00 0. -1.
         25    2    1    2    0    0  0.71888935439E+02 -0.36896930091E+02  0.27863632574E+03  0.31589908961E+03  0.12499852120E+03 0.  0.
          2    1    1    2  501    0 -0.43149529242E+02  0.44564575999E+02 -0.65846360297E+02  0.90463398521E+02  0.00000000000E+00 0. -1.
          1    1    1    2  502    0 -0.28739406197E+02 -0.76676459074E+01  0.55233954175E+01  0.30253167756E+02  0.00000000000E+00 0. -1.
         22    1    3    3    0    0 -0.13785071330E+02  0.29399222448E+01 -0.64962000256E+01  0.15520049908E+02  0.00000000000E+00 0.  1.
         22    1    3    3    0    0  0.85674006770E+02 -0.39836852336E+02  0.28513252577E+03  0.30037903970E+03  0.00000000000E+00 0.  1.
</event>
<event>
 7    1  0.6485470E-006  0.7955169E+02  0.7818608E-02  0.1417289E+00
          2   -1    0    0  502    0  0.00000000000E+00  0.00000000000E+00  0.48172777827E+03  0.48172777827E+03  0.00000000000E+00 0. -1.
          1   -1    0    0  501    0 -0.00000000000E+00 -0.00000000000E+00 -0.22865128186E+04  0.22865128186E+04  0.00000000000E+00 0. -1.
         25    2    1    2    0    0 -0.93997765211E+02 -0.38450435762E+02 -0.79934293139E+02  0.17980067566E+03  0.12499910349E+03 0.  0.
          2    1    1    2  501    0  0.14930741658E+02  0.35874782077E+02 -0.21528451531E+04  0.21531958063E+04  0.00000000000E+00 0. -1.
          1    1    1    2  502    0  0.79067023553E+02  0.25756536851E+01  0.42799440584E+03  0.43524411499E+03  0.00000000000E+00 0. -1.
         22    1    3    3    0    0 -0.95582318057E+02 -0.54773944223E+02 -0.13049392276E+02  0.11093444519E+03  0.00000000000E+00 0.  1.
         22    1    3    3    0    0  0.15845528468E+01  0.16323508460E+02 -0.66884900862E+02  0.68866230473E+02  0.00000000000E+00 0.  1.
</event>
<event>
 7    1  0.6485470E-006  0.1358779E+03  0.7818608E-02  0.1299115E+00
          2   -1    0    0  502    0  0.00000000000E+00  0.00000000000E+00  0.17876420191E+04  0.17876420191E+04  0.00000000000E+00 0. -1.
          1   -1    0    0  501    0 -0.00000000000E+00 -0.00000000000E+00 -0.35573774236E+02  0.35573774236E+02  0.00000000000E+00 0. -1.
         25    2    1    2    0    0  0.82236942518E+02 -0.64082239811E+02  0.45766224643E+03  0.48574552870E+03  0.12499815467E+03 0.  0.
          2    1    1    2  501    0 -0.53155267125E+01 -0.61468837704E+02  0.37990644389E+02  0.72456620774E+02  0.00000000000E+00 0. -1.
          1    1    1    2  502    0 -0.76921415806E+02  0.12555107751E+03  0.12564153540E+04  0.12650136438E+04  0.00000000000E+00 0. -1.
         22    1    3    3    0    0  0.16477337427E+02 -0.58892962292E+02  0.37517446766E+03  0.38012598548E+03  0.00000000000E+00 0.  1.
         22    1    3    3    0    0  0.65759605092E+02 -0.51892775187E+01  0.82487778771E+02  0.10561954322E+03  0.00000000000E+00 0.  1.
</event>
<event>
 7    1  0.6485470E-006  0.8702013E+02  0.7818608E-02  0.1337061E+00
          2   -1    0    0  502    0  0.00000000000E+00  0.00000000000E+00  0.20038350643E+04  0.20038350643E+04  0.00000000000E+00 0. -1.
          1   -1    0    0  501    0 -0.00000000000E+00 -0.00000000000E+00 -0.12544158240E+04  0.12544158240E+04  0.00000000000E+00 0. -1.
         25    2    1    2    0    0 -0.29001361490E+02  0.40772985531E+02  0.54364172821E+02  0.14522185500E+03  0.12502163239E+03 0.  0.
          2    1    1    2  501    0 -0.59060727732E+02 -0.34828765207E+02 -0.12069906387E+04  0.12089365634E+04  0.00000000000E+00 0. -1.
          1    1    1    2  502    0  0.88062089222E+02 -0.59442203247E+01  0.19020457062E+04  0.19040924699E+04  0.00000000000E+00 0. -1.
         22    1    3    3    0    0  0.34808975789E+02 -0.24256672462E+00 -0.19030164201E+02  0.39672040326E+02  0.00000000000E+00 0. -1.
         22    1    3    3    0    0 -0.63810337279E+02  0.41015552256E+02  0.73394337022E+02  0.10554981467E+03  0.00000000000E+00 0. -1.
</event>
<event>
 7    1  0.6485470E-006  0.1498666E+03  0.7818608E-02  0.1249743E+00
          2   -1    0    0  502    0  0.00000000000E+00  0.00000000000E+00  0.59498248881E+03  0.59498248881E+03  0.00000000000E+00 0. -1.
          1   -1    0    0  501    0 -0.00000000000E+00 -0.00000000000E+00 -0.12505240857E+04  0.12505240857E+04  0.00000000000E+00 0. -1.
         25    2    1    2    0    0  0.75078972035E+02 -0.13920713487E+03 -0.37857323196E+03  0.42890185214E+03  0.12499451337E+03 0.  0.
          2    1    1    2  501    0 -0.13515984153E+03  0.72360579013E+02 -0.83622970000E+03  0.85016724667E+03  0.00000000000E+00 0. -1.
          1    1    1    2  502    0  0.60080869497E+02  0.66846555859E+02  0.55926133509E+03  0.56643747567E+03  0.00000000000E+00 0. -1.
         22    1    3    3    0    0  0.16425670867E+02 -0.12142683361E+03 -0.15784858767E+03  0.19982606240E+03  0.00000000000E+00 0. -1.
         22    1    3    3    0    0  0.58653301168E+02 -0.17780301266E+02 -0.22072464429E+03  0.22907578975E+03  0.00000000000E+00 0. -1.
</event>
<event>
 7    1  0.6485470E-006  0.6209160E+02  0.7818608E-02  0.1486560E+00
          2   -1    0    0  502    0  0.00000000000E+00  0.00000000000E+00  0.81659226056E+03  0.81659226056E+03  0.00000000000E+00 0. -1.
          1   -1    0    0  501    0 -0.00000000000E+00 -0.00000000000E+00 -0.78510033718E+02  0.78510033718E+02  0.00000000000E+00 0. -1.
         25    2    1    2    0    0  0.20521549392E+02  0.64946635743E+02  0.30099992498E+03  0.33296418571E+03  0.12499997857E+03 0.  0.
          2    1    1    2  501    0 -0.29709626762E+02 -0.35245748186E+01 -0.56889878456E+02  0.64277078502E+02  0.00000000000E+00 0. -1.
          1    1    1    2  502    0  0.91880773707E+01 -0.61422060925E+02  0.49397218032E+03  0.49786103007E+03  0.00000000000E+00 0. -1.
         22    1    3    3    0    0  0.58448707390E+02  0.46925922341E+02  0.86787758020E+02  0.11467523065E+03  0.00000000000E+00 0. -1.
         22    1    3    3    0    0 -0.37927157998E+02  0.18020713402E+02  0.21421216696E+03  0.21828895506E+03  0.00000000000E+00 0. -1.
</event>
<event>
 7    1  0.6485470E-006  0.1895372E+03  0.7818608E-02  0.1269974E+00
          2   -1    0    0  502    0  0.00000000000E+00  0.00000000000E+00  0.54220285707E+03  0.54220285707E+03  0.00000000000E+00 0. -1.
          1   -1    0    0  501    0 -0.00000000000E+00 -0.00000000000E+00 -0.86666664972E+03  0.86666664972E+03  0.00000000000E+00 0. -1.
         25    2    1    2    0    0  0.10427322430E+03  0.14180052641E+03  0.16243252335E+03  0.27017079321E+03  0.12501055262E+03 0.  0.
          2    1    1    2  501    0 -0.60886639935E+02 -0.18066779389E+03 -0.79888478841E+03  0.82131902439E+03  0.00000000000E+00 0. -1.
          1    1    1    2  502    0 -0.43386584365E+02  0.38867267471E+02  0.31198847241E+03  0.31737968918E+03  0.00000000000E+00 0. -1.
         22    1    3    3    0    0  0.12850368552E+03  0.13602888285E+03  0.12439134165E+03  0.22470037837E+03  0.00000000000E+00 0.  1.
         22    1    3    3    0    0 -0.24230461223E+02  0.57716435636E+01  0.38041181705E+02  0.45470414843E+02  0.00000000000E+00 0.  1.
</event>
<event>
 7    1  0.6485470E-006  0.1743698E+03  0.7818608E-02  0.1305645E+00
          2   -1    0    0  502    0  0.00000000000E+00  0.00000000000E+00  0.21443792241E+04  0.21443792241E+04  0.00000000000E+00 0. -1.
          1   -1    0    0  501    0 -0.00000000000E+00 -0.00000000000E+00 -0.11916760663E+03  0.11916760663E+03  0.00000000000E+00 0. -1.
         25    2    1    2    0    0  0.14083785686E+03 -0.12888283941E+03  0.10456123936E+04  0.10702223268E+04  0.12499785192E+03 0.  0.
          2    1    1    2  501    0 -0.97921151034E+02  0.14331953515E+03 -0.35538072905E+02  0.17717786431E+03  0.00000000000E+00 0. -1.
          1    1    1    2  502    0 -0.42916705825E+02 -0.14436695739E+02  0.10151372967E+04  0.10161466395E+04  0.00000000000E+00 0. -1.
         22    1    3    3    0    0  0.76985930054E+02 -0.79882492982E+02  0.29269292749E+03  0.31301309224E+03  0.00000000000E+00 0.  1.
         22    1    3    3    0    0  0.63851926804E+02 -0.49000346430E+02  0.75291946610E+03  0.75720923459E+03  0.00000000000E+00 0.  1.
</event>
<event>
 7    1  0.6485470E-006  0.1490627E+03  0.7818608E-02  0.1267384E+00
          2   -1    0    0  502    0  0.00000000000E+00  0.00000000000E+00  0.18172080532E+04  0.18172080532E+04  0.00000000000E+00 0. -1.
          1   -1    0    0  501    0 -0.00000000000E+00 -0.00000000000E+00 -0.61496194475E+03  0.61496194475E+03  0.00000000000E+00 0. -1.
         25    2    1    2    0    0 -0.12908047672E+03 -0.11947830383E+03  0.57248546808E+03  0.61180305109E+03  0.12500611026E+03 0.  0.
          2    1    1    2  501    0  0.74265178055E+02 -0.15903451467E+02 -0.58850075442E+03  0.59338130607E+03  0.00000000000E+00 0. -1.
          1    1    1    2  502    0  0.54815298670E+02  0.13538175530E+03  0.12182613948E+04  0.12269856408E+04  0.00000000000E+00 0. -1.
         22    1    3    3    0    0 -0.97621852439E+02 -0.12653004151E+02  0.19815304860E+03  0.22125721515E+03  0.00000000000E+00 0.  1.
         22    1    3    3    0    0 -0.31458624286E+02 -0.10682529968E+03  0.37433241947E+03  0.39054583593E+03  0.00000000000E+00 0.  1.
</event>
<event>
 7    1  0.6485470E-006  0.2737546E+03  0.7818608E-02  0.1268824E+00
          2   -1    0    0  502    0  0.00000000000E+00  0.00000000000E+00  0.27068884027E+04  0.27068884027E+04  0.00000000000E+00 0. -1.
          1   -1    0    0  501    0 -0.00000000000E+00 -0.00000000000E+00 -0.76811549748E+02  0.76811549748E+02  0.00000000000E+00 0. -1.
         25    2    1    2    0    0 -0.90551055199E+01  0.25942206478E+03  0.16003798998E+04  0.16261065215E+04  0.12499917135E+03 0.  0.
          2    1    1    2  501    0  0.17398205556E+02  0.36884191505E+02 -0.34168527793E+02  0.53203659941E+02  0.00000000000E+00 0. -1.
          1    1    1    2  502    0 -0.83431000356E+01 -0.29630625629E+03  0.10638654809E+04  0.11043897710E+04  0.00000000000E+00 0. -1.
         22    1    3    3    0    0 -0.46199000078E+02  0.29117086623E+02  0.32916105008E+03  0.33366023022E+03  0.00000000000E+00 0.  1.
         22    1    3    3    0    0  0.37143894558E+02  0.23030497816E+03  0.12712188498E+04  0.12924462913E+04  0.00000000000E+00 0.  1.
</event>
<event>
 7    1  0.6485470E-006  0.1354000E+03  0.7818608E-02  0.1349312E+00
          2   -1    0    0  502    0  0.00000000000E+00  0.00000000000E+00  0.57479889962E+03  0.57479889962E+03  0.00000000000E+00 0. -1.
          1   -1    0    0  501    0 -0.00000000000E+00 -0.00000000000E+00 -0.15442499481E+03  0.15442499481E+03  0.00000000000E+00 0. -1.
         25    2    1    2    0    0  0.10425076490E+03  0.12771677882E+01  0.43910373056E+02  0.16859920151E+03  0.12501086652E+03 0.  0.
          2    1    1    2  501    0  0.35280139059E+02  0.18094328541E+02 -0.76552768591E+02  0.86211480189E+02  0.00000000000E+00 0. -1.
          1    1    1    2  502    0 -0.13953090396E+03 -0.19371496329E+02  0.45301630035E+03  0.47441321273E+03  0.00000000000E+00 0. -1.
         22    1    3    3    0    0  0.46975796330E+02 -0.31605816002E+02  0.76323100208E+02  0.95030882724E+02  0.00000000000E+00 0.  1.
         22    1    3    3    0    0  0.57274968570E+02  0.32882983791E+02 -0.32412727152E+02  0.73568318786E+02  0.00000000000E+00 0.  1.
</event>
<event>
 7    1  0.6485470E-006  0.1122017E+03  0.7818608E-02  0.1391258E+00
          2   -1    0    0  502    0  0.00000000000E+00  0.00000000000E+00  0.74084128978E+02  0.74084128978E+02  0.00000000000E+00 0. -1.
          1   -1    0    0  501    0 -0.00000000000E+00 -0.00000000000E+00 -0.16227350693E+04  0.16227350693E+04  0.00000000000E+00 0. -1.
         25    2    1    2    0    0  0.81402599311E+02 -0.45029760690E+01 -0.69218760086E+03  0.70809318327E+03  0.12500248571E+03 0.  0.
          2    1    1    2  501    0  0.31918613381E+02 -0.11160352926E+02 -0.87254734934E+03  0.87320228366E+03  0.00000000000E+00 0. -1.
          1    1    1    2  502    0 -0.11332121269E+03  0.15663328995E+02  0.16084009914E+02  0.11552373131E+03  0.00000000000E+00 0. -1.
         22    1    3    3    0    0  0.24009210131E+02  0.21261200774E+02 -0.56776651377E+03  0.56867151765E+03  0.00000000000E+00 0. -1.
         22    1    3    3    0    0  0.57393389180E+02 -0.25764176843E+02 -0.12442108709E+03  0.13942166561E+03  0.00000000000E+00 0. -1.
</event>
<event>
 7    1  0.6485470E-006  0.1354372E+03  0.7818608E-02  0.1415029E+00
          2   -1    0    0  502    0  0.00000000000E+00  0.00000000000E+00  0.62695880643E+03  0.62695880643E+03  0.00000000000E+00 0. -1.
          1   -1    0    0  501    0 -0.00000000000E+00 -0.00000000000E+00 -0.15194382254E+03  0.15194382254E+03  0.00000000000E+00 0. -1.
         25    2    1    2    0    0 -0.13948646399E+03 -0.12002204372E+02  0.22377755787E+03  0.29207080580E+03  0.12501373384E+03 0.  0.
          2    1    1    2  501    0  0.56085190015E+01  0.22539083515E+02 -0.10425961058E+03  0.10681541166E+03  0.00000000000E+00 0. -1.
          1    1    1    2  502    0  0.13387794499E+03 -0.10536879143E+02  0.35549703661E+03  0.38001641150E+03  0.00000000000E+00 0. -1.
         22    1    3    3    0    0  0.22761701470E+02 -0.20627219252E+01  0.14449029197E+02  0.27039310648E+02  0.00000000000E+00 0. -1.
         22    1    3    3    0    0 -0.16224816546E+03 -0.99394824471E+01  0.20932852867E+03  0.26503149515E+03  0.00000000000E+00 0. -1.
</event>
<event>
 7    1  0.6485470E-006  0.9033398E+02  0.7818608E-02  0.1378998E+00
          2   -1    0    0  502    0  0.00000000000E+00  0.00000000000E+00  0.10259808883E+03  0.10259808883E+03  0.00000000000E+00 0. -1.
          1   -1    0    0  501    0 -0.00000000000E+00 -0.00000000000E+00 -0.85530776463E+03  0.85530776463E+03  0.00000000000E+00 0. -1.
         25    2    1    2    0    0  0.12337676065E+03 -0.36380741344E+02 -0.18440379561E+03  0.25724425776E+03  0.12499785961E+03 0.  0.
          2    1    1    2  501    0 -0.46366897743E+02 -0.11132867271E+01 -0.60550602599E+03  0.60727973466E+03  0.00000000000E+00 0. -1.
          1    1    1    2  502    0 -0.77009862905E+02  0.37494028071E+02  0.37200145796E+02  0.93381861049E+02  0.00000000000E+00 0. -1.
         22    1    3    3    0    0  0.23626528704E+02 -0.70168525912E+02 -0.76841875727E+02  0.10670758526E+03  0.00000000000E+00 0.  1.
         22    1    3    3    0    0  0.99750231944E+02  0.33787784568E+02 -0.10756191988E+03  0.15053667250E+03  0.00000000000E+00 0.  1.
</event>
<event>
 7    1  0.6485470E-006  0.4863269E+02  0.7818608E-02  0.1571136E+00
          2   -1    0    0  502    0  0.00000000000E+00  0.00000000000E+00  0.16780947034E+03  0.16780947034E+03  0.00000000000E+00 0. -1.
          1   -1    0    0  501    0 -0.00000000000E+00 -0.00000000000E+00 -0.97419414471E+03  0.97419414471E+03  0.00000000000E+00 0. -1.
         25    2    1    2    0    0  0.20044069023E+02 -0.63579257437E+02 -0.22621088712E+03  0.26690824062E+03  0.12499822711E+03 0.  0.
          2    1    1    2  501    0 -0.23235816067E+02  0.41978496223E+02 -0.72603006333E+03  0.72761373692E+03  0.00000000000E+00 0. -1.
          1    1    1    2  502    0  0.31917470436E+01  0.21600761214E+02  0.14585627607E+03  0.14748163751E+03  0.00000000000E+00 0. -1.
         22    1    3    3    0    0  0.59771516712E+02 -0.78984609599E+02 -0.15743731452E+03  0.18600459878E+03  0.00000000000E+00 0.  1.
         22    1    3    3    0    0 -0.39727447689E+02  0.15405352162E+02 -0.68773572597E+02  0.80903641839E+02  0.00000000000E+00 0.  1.
</event>
<event>
 7    1  0.6485470E-006  0.1576585E+03  0.7818608E-02  0.1345497E+00
          2   -1    0    0  502    0  0.00000000000E+00  0.00000000000E+00  0.35613911350E+03  0.35613911350E+03  0.00000000000E+00 0. -1.
          1   -1    0    0  501    0 -0.00000000000E+00 -0.00000000000E+00 -0.94392121536E+03  0.94392121536E+03  0.00000000000E+00 0. -1.
         25    2    1    2    0    0  0.13133946267E+03 -0.38263404180E+02 -0.38815739962E+03  0.43012112142E+03  0.12499547857E+03 0.  0.
          2    1    1    2  501    0 -0.16641847350E+03  0.40965193494E+02 -0.52006292672E+03  0.54757529450E+03  0.00000000000E+00 0. -1.
          1    1    1    2  502    0  0.35079010833E+02 -0.27017893141E+01  0.32043822447E+03  0.32236391295E+03  0.00000000000E+00 0. -1.
         22    1    3    3    0    0  0.90733191544E+02 -0.72729227012E+01 -0.91378974978E+02  0.12897877547E+03  0.00000000000E+00 0. -1.
         22    1    3    3    0    0  0.40606271123E+02 -0.30990481479E+02 -0.29677842464E+03  0.30114234596E+03  0.00000000000E+00 0. -1.
</event>
<event>
 7    1  0.6485470E-006  0.2670184E+02  0.7818608E-02  0.1671091E+00
          2   -1    0    0  502    0  0.00000000000E+00  0.00000000000E+00  0.29405336927E+03  0.29405336927E+03  0.00000000000E+00 0. -1.
          1   -1    0    0  501    0 -0.00000000000E+00 -0.00000000000E+00 -0.17888861949E+03  0.17888861949E+03  0.00000000000E+00 0. -1.
         25    2    1    2    0    0  0.42854342974E+01 -0.12436632006E+02  0.23942314609E+03  0.27041129203E+03  0.12500315679E+03 0.  0.
          2    1    1    2  501    0 -0.25796146375E+02  0.72154248740E+01 -0.15905253440E+03  0.16129231917E+03  0.00000000000E+00 0. -1.
          1    1    1    2  502    0  0.21510712077E+02  0.52212071317E+01  0.34794138089E+02  0.41238377554E+02  0.00000000000E+00 0. -1.
         22    1    3    3    0    0  0.33105733274E+02  0.15103296887E+02  0.22514774099E+03  0.22806929742E+03  0.00000000000E+00 0.  1.
         22    1    3    3    0    0 -0.28820298976E+02 -0.27539928893E+02  0.14275405101E+02  0.42341994607E+02  0.00000000000E+00 0.  1.
</event>
<event>
 7    1  0.6485470E-006  0.6460801E+02  0.7818608E-02  0.1379591E+00
          2   -1    0    0  502    0  0.00000000000E+00  0.00000000000E+00  0.30215830232E+03  0.30215830232E+03  0.00000000000E+00 0. -1.
          1   -1    0    0  501    0 -0.00000000000E+00 -0.00000000000E+00 -0.95118510686E+03  0.95118510686E+03  0.00000000000E+00 0. -1.
         25    2    1    2    0    0 -0.60876522896E+01  0.86460426335E+02 -0.38845166101E+03  0.41717243335E+03  0.12500272548E+03 0.  0.
          2    1    1    2  501    0  0.51039232762E+02 -0.40054065348E+02 -0.54279070876E+03  0.54665444748E+03  0.00000000000E+00 0. -1.
          1    1    1    2  502    0 -0.44951580472E+02 -0.46406360987E+02  0.28221556523E+03  0.28951652835E+03  0.00000000000E+00 0. -1.
         22    1    3    3    0    0 -0.30581723900E+02  0.19152456796E+02 -0.18881914064E+02  0.40725730402E+02  0.00000000000E+00 0. -1.
         22    1    3    3    0    0  0.24494071610E+02  0.67307969539E+02 -0.36956974694E+03  0.37644670295E+03  0.00000000000E+00 0. -1.
</event>
<event>
 7    1  0.6485470E-006  0.1146861E+03  0.7818608E-02  0.1323782E+00
          2   -1    0    0  502    0  0.00000000000E+00  0.00000000000E+00  0.69619765706E+03  0.69619765706E+03  0.00000000000E+00 0. -1.
          1   -1    0    0  501    0 -0.00000000000E+00 -0.00000000000E+00 -0.11035488279E+04  0.11035488279E+04  0.00000000000E+00 0. -1.
         25    2    1    2    0    0 -0.99306437004E+02 -0.81224005916E+02  0.19454257825E+03  0.26444495533E+03  0.12500084830E+03 0.  0.
          2    1    1    2  501    0  0.53538218171E+02 -0.23495543615E+02 -0.10607841754E+04  0.10623942056E+04  0.00000000000E+00 0. -1.
          1    1    1    2  502    0  0.45768218833E+02  0.10471954953E+03  0.45889042621E+03  0.47290732409E+03  0.00000000000E+00 0. -1.
         22    1    3    3    0    0 -0.50484417880E+02  0.17973046707E+02  0.11909017352E+03  0.13059163941E+03  0.00000000000E+00 0.  1.
         22    1    3    3    0    0 -0.48822019123E+02 -0.99197052623E+02  0.75452404738E+02  0.13385331591E+03  0.00000000000E+00 0.  1.
</event>
<event>
 7    1  0.6485470E-006  0.3149804E+03  0.7818608E-02  0.1253644E+00
          2   -1    0    0  502    0  0.00000000000E+00  0.00000000000E+00  0.73839120852E+03  0.73839120852E+03  0.00000000000E+00 0. -1.
          1   -1    0    0  501    0 -0.00000000000E+00 -0.00000000000E+00 -0.62904777011E+03  0.62904777011E+03  0.00000000000E+00 0. -1.
         25    2    1    2    0    0 -0.19669907230E+03  0.28601672315E+03  0.51466525359E+02  0.37251922624E+03  0.12500271886E+03 0.  0.
          2    1    1    2  501    0  0.25069100127E+02 -0.32611885955E+02 -0.42295250122E+03  0.42494801232E+03  0.00000000000E+00 0. -1.
          1    1    1    2  502    0  0.17162997218E+03 -0.25340483719E+03  0.48082941427E+03  0.56997174008E+03  0.00000000000E+00 0. -1.
         22    1    3    3    0    0 -0.20498599609E+03  0.21860502823E+03  0.29457817332E+02  0.30112319732E+03  0.00000000000E+00 0.  1.
         22    1    3    3    0    0  0.82869237869E+01  0.67411694912E+02  0.22008708026E+02  0.71396028922E+02  0.00000000000E+00 0.  1.
</event>
<event>
 7    1  0.6485470E-006  0.1034475E+03  0.7818608E-02  0.1392967E+00
          2   -1    0    0  502    0  0.00000000000E+00  0.00000000000E+00  0.90247579376E+03  0.90247579376E+03  0.00000000000E+00 0. -1.
          1   -1    0    0  501    0 -0.00000000000E+00 -0.00000000000E+00 -0.13593709006E+04  0.13593709006E+04  0.00000000000E+00 0. -1.
         25    2    1    2    0    0 -0.43631166177E+02 -0.62381281206E+02 -0.46796287054E+03  0.49031538204E+03  0.12499929101E+03 0.  0.
          2    1    1    2  501    0  0.61587486424E+02  0.93786603892E+02 -0.87628625116E+03  0.88344017314E+03  0.00000000000E+00 0. -1.
          1    1    1    2  502    0 -0.17956320247E+02 -0.31405322686E+02  0.88735401488E+03  0.88809113916E+03  0.00000000000E+00 0. -1.
         22    1    3    3    0    0 -0.29386474343E+02 -0.61367129987E+01 -0.39927577900E+03  0.40040276200E+03  0.00000000000E+00 0.  1.
         22    1    3    3    0    0 -0.14244691833E+02 -0.56244568207E+02 -0.68687091538E+02  0.89912620038E+02  0.00000000000E+00 0.  1.
</event>
<event>
 7    1  0.6485470E-006  0.7055122E+02  0.7818608E-02  0.1436069E+00
          2   -1    0    0  502    0  0.00000000000E+00  0.00000000000E+00  0.19120605077E+03  0.19120605077E+03  0.00000000000E+00 0. -1.
          1   -1    0    0  501    0 -0.00000000000E+00 -0.00000000000E+00 -0.14124822570E+04  0.14124822570E+04  0.00000000000E+00 0. -1.
         25    2    1    2    0    0 -0.83240847903E+02 -0.27114563031E+02 -0.91279482352E+02  0.17782286136E+03  0.12499915134E+03 0.  0.
          2    1    1    2  501    0  0.13763476967E+02  0.35393112509E+02 -0.12693578843E+04  0.12699258026E+04  0.00000000000E+00 0. -1.
          1    1    1    2  502    0  0.69477370935E+02 -0.82785494779E+01  0.13936116046E+03  0.15593964377E+03  0.00000000000E+00 0. -1.
         22    1    3    3    0    0 -0.19696672825E+02  0.48342775713E+02 -0.44722681662E+02  0.68739371099E+02  0.00000000000E+00 0.  1.
         22    1    3    3    0    0 -0.63544175077E+02 -0.75457338744E+02 -0.46556800690E+02  0.10908349026E+03  0.00000000000E+00 0.  1.
</event>
<event>
 7    1  0.6485470E-006  0.5729228E+02  0.7818608E-02  0.1451289E+00
          2   -1    0    0  502    0  0.00000000000E+00  0.00000000000E+00  0.23288293915E+03  0.23288293915E+03  0.00000000000E+00 0. -1.
          1   -1    0    0  501    0 -0.00000000000E+00 -0.00000000000E+00 -0.81400518172E+03  0.81400518172E+03  0.00000000000E+00 0. -1.
         25    2    1    2    0    0  0.57183756811E+02 -0.18191790114E+02 -0.54238485245E+03  0.55982795275E+03  0.12500034097E+03 0.  0.
          2    1    1    2  501    0 -0.47518628264E+01  0.41489674865E+02 -0.25751760172E+03  0.26088175198E+03  0.00000000000E+00 0. -1.
          1    1    1    2  502    0 -0.52431893984E+02 -0.23297884750E+02  0.21878021160E+03  0.22617841614E+03  0.00000000000E+00 0. -1.
         22    1    3    3    0    0  0.40530652307E+02 -0.55852993672E+02 -0.14798902165E+03  0.16328821516E+03  0.00000000000E+00 0.  1.
         22    1    3    3    0    0  0.16653104503E+02  0.37661203557E+02 -0.39439583079E+03  0.39653973759E+03  0.00000000000E+00 0.  1.
</event>
<event>
 7    1  0.6485470E-006  0.3597548E+02  0.7818608E-02  0.1571083E+00
          2   -1    0    0  502    0  0.00000000000E+00  0.00000000000E+00  0.20145700729E+04  0.20145700729E+04  0.00000000000E+00 0. -1.
          1   -1    0    0  501    0 -0.00000000000E+00 -0.00000000000E+00 -0.30262327587E+02  0.30262327587E+02  0.00000000000E+00 0. -1.
         25    2    1    2    0    0  0.33161143816E+01 -0.16559832647E+02  0.18114274351E+03  0.22072898558E+03  0.12499346735E+03 0.  0.
          2    1    1    2  501    0 -0.31495543825E+02  0.25379459936E+02  0.29186601361E+02  0.49879293965E+02  0.00000000000E+00 0. -1.
          1    1    1    2  502    0  0.28179429443E+02 -0.88196272890E+01  0.17739784004E+04  0.17742241209E+04  0.00000000000E+00 0. -1.
         22    1    3    3    0    0 -0.55423291038E+02  0.79864176787E+01  0.50515494985E+02  0.75414450143E+02  0.00000000000E+00 0. -1.
         22    1    3    3    0    0  0.58739405419E+02 -0.24546250326E+02  0.13062724852E+03  0.14531453544E+03  0.00000000000E+00 0. -1.
</event>
<event>
 7    1  0.6485470E-006  0.7678967E+02  0.7818608E-02  0.1406342E+00
          2   -1    0    0  502    0  0.00000000000E+00  0.00000000000E+00  0.45202410380E+02  0.45202410380E+02  0.00000000000E+00 0. -1.
          1   -1    0    0  501    0 -0.00000000000E+00 -0.00000000000E+00 -0.34701749953E+04  0.34701749953E+04  0.00000000000E+00 0. -1.
         25    2    1    2    0    0 -0.49982337406E+02 -0.54872940591E+02 -0.20903532277E+04  0.20954023026E+04  0.12499967717E+03 0.  0.
          2    1    1    2  501    0  0.38325109757E+02 -0.21277633958E+02 -0.13418802271E+04  0.13425960284E+04  0.00000000000E+00 0. -1.
          1    1    1    2  502    0  0.11657227649E+02  0.76150574549E+02  0.72608699156E+01  0.77379074643E+02  0.00000000000E+00 0. -1.
         22    1    3    3    0    0 -0.77388520348E+02 -0.53337503757E+02 -0.93269726592E+03  0.93742096319E+03  0.00000000000E+00 0.  1.
         22    1    3    3    0    0  0.27406182942E+02 -0.15354368342E+01 -0.11576559618E+04  0.11579813394E+04  0.00000000000E+00 0.  1.
</event>
<event>
 7    1  0.6485470E-006  0.4804662E+02  0.7818608E-02  0.1497837E+00
          2   -1    0    0  502    0  0.00000000000E+00  0.00000000000E+00  0.31254441013E+03  0.31254441013E+03  0.00000000000E+00 0. -1.
          1   -1    0    0  501    0 -0.00000000000E+00 -0.00000000000E+00 -0.54558980279E+03  0.54558980279E+03  0.00000000000E+00 0. -1.
         25    2    1    2    0    0 -0.75123041396E+02 -0.32393526504E+02  0.47332204773E+02  0.15670946705E+03  0.12499883018E+03 0.  0.
          2    1    1    2  501    0  0.34230589153E+02  0.10314943702E+02 -0.48767421026E+03  0.48898288993E+03  0.00000000000E+00 0. -1.
          1    1    1    2  502    0  0.40892452243E+02  0.22078582802E+02  0.20729661282E+03  0.21244185594E+03  0.00000000000E+00 0. -1.
         22    1    3    3    0    0 -0.83859626403E+02 -0.49430500532E+02 -0.84722867145E+01  0.97711774958E+02  0.00000000000E+00 0. -1.
         22    1    3    3    0    0  0.87365850069E+01  0.17036974028E+02  0.55804491487E+02  0.58997692088E+02  0.00000000000E+00 0. -1.
</event>
<event>
 7    1  0.6485470E-006  0.6234695E+02  0.7818608E-02  0.1478732E+00
          2   -1    0    0  502    0  0.00000000000E+00  0.00000000000E+00  0.20421307219E+04  0.20421307219E+04  0.00000000000E+00 0. -1.
          1   -1    0    0  501    0 -0.00000000000E+00 -0.00000000000E+00 -0.26806956744E+02  0.26806956744E+02  0.00000000000E+00 0. -1.
         25    2    1    2    0    0 -0.41491439915E+02  0.47494344041E+02  0.11745197501E+04  0.11828302730E+04  0.12495422778E+03 0.  0.
          2    1    1    2  501    0  0.58886602577E+02 -0.21253345070E+02  0.21492339833E+02  0.66191066703E+02  0.00000000000E+00 0. -1.
          1    1    1    2  502    0 -0.17395162662E+02 -0.26240998971E+02  0.81931167523E+03  0.81991633895E+03  0.00000000000E+00 0. -1.
         22    1    3    3    0    0 -0.21331632100E+02  0.51783893876E+02  0.18969330744E+03  0.19778817225E+03  0.00000000000E+00 0. -1.
         22    1    3    3    0    0 -0.20159807814E+02 -0.42895498349E+01  0.98482644268E+03  0.98504210077E+03  0.00000000000E+00 0. -1.
</event>
<event>
 7    1  0.6485470E-006  0.1690119E+03  0.7818608E-02  0.1332827E+00
          2   -1    0    0  502    0  0.00000000000E+00  0.00000000000E+00  0.86909415005E+03  0.86909415005E+03  0.00000000000E+00 0. -1.
          1   -1    0    0  501    0 -0.00000000000E+00 -0.00000000000E+00 -0.27502085852E+03  0.27502085852E+03  0.00000000000E+00 0. -1.
         25    2    1    2    0    0 -0.17949534372E+03  0.51279114838E+02  0.58845443140E+03  0.62988561811E+03  0.12501659105E+03 0.  0.
          2    1    1    2  501    0  0.33703114489E+02 -0.14352240242E+02 -0.23098509533E+03  0.23387176185E+03  0.00000000000E+00 0. -1.
          1    1    1    2  502    0  0.14579222923E+03 -0.36926874596E+02  0.23660395547E+03  0.28035762860E+03  0.00000000000E+00 0. -1.
         22    1    3    3    0    0 -0.14102307130E+03  0.27209497137E+02  0.24933040671E+03  0.28773862286E+03  0.00000000000E+00 0. -1.
         22    1    3    3    0    0 -0.38472272414E+02  0.24069617701E+02  0.33912402468E+03  0.34214699525E+03  0.00000000000E+00 0. -1.
</event>
<event>
 7    1  0.6485470E-006  0.4655774E+02  0.7818608E-02  0.1504445E+00
          2   -1    0    0  502    0  0.00000000000E+00  0.00000000000E+00  0.99726589551E+03  0.99726589551E+03  0.00000000000E+00 0. -1.
          1   -1    0    0  501    0 -0.00000000000E+00 -0.00000000000E+00 -0.21513039276E+04  0.21513039276E+04  0.00000000000E+00 0. -1.
         25    2    1    2    0    0 -0.36054328593E+02  0.71145460512E+02  0.13386449181E+02  0.14888143711E+03  0.12499957653E+03 0.  0.
          2    1    1    2  501    0  0.22968844925E+02 -0.26751350768E+02 -0.20828225872E+04  0.20831210076E+04  0.00000000000E+00 0. -1.
          1    1    1    2  502    0  0.13085483668E+02 -0.44394109744E+02  0.91539810591E+03  0.91656737841E+03  0.00000000000E+00 0. -1.
         22    1    3    3    0    0  0.29238625718E+01  0.28099687410E+02 -0.53379443070E+02  0.60394588726E+02  0.00000000000E+00 0. -1.
         22    1    3    3    0    0 -0.38978191165E+02  0.43045773103E+02  0.66765892252E+02  0.88486848382E+02  0.00000000000E+00 0. -1.
</event>
<event>
 7    1  0.6485470E-006  0.1349179E+03  0.7818608E-02  0.1237158E+00
          2   -1    0    0  502    0  0.00000000000E+00  0.00000000000E+00  0.11013801594E+03  0.11013801594E+03  0.00000000000E+00 0. -1.
          1   -1    0    0  501    0 -0.00000000000E+00 -0.00000000000E+00 -0.19193023619E+04  0.19193023619E+04  0.00000000000E+00 0. -1.
         25    2    1    2    0    0  0.45984147500E+01 -0.55407595401E+02 -0.79992902194E+03  0.81154371875E+03  0.12500248100E+03 0.  0.
          2    1    1    2  501    0 -0.10447545158E+03 -0.44007163946E+02 -0.10615443299E+04  0.10675804957E+04  0.00000000000E+00 0. -1.
          1    1    1    2  502    0  0.99877036826E+02  0.99414759346E+02  0.52309005920E+02  0.15031616334E+03  0.00000000000E+00 0. -1.
         22    1    3    3    0    0  0.23616785290E+02 -0.77204341537E+02 -0.74591234442E+03  0.75026894408E+03  0.00000000000E+00 0.  1.
         22    1    3    3    0    0 -0.19018370540E+02  0.21796746137E+02 -0.54016677524E+02  0.61274774670E+02  0.00000000000E+00 0.  1.
</event>
<event>
 7    1  0.6485470E-006  0.2122266E+03  0.7818608E-02  0.1308657E+00
          2   -1    0    0  502    0  0.00000000000E+00  0.00000000000E+00  0.22839252803E+04  0.22839252803E+04  0.00000000000E+00 0. -1.
          1   -1    0    0  501    0 -0.00000000000E+00 -0.00000000000E+00 -0.62854086188E+03  0.62854086188E+03  0.00000000000E+00 0. -1.
         25    2    1    2    0    0  0.20955122200E+03  0.11708034458E+03  0.11319097521E+03  0.29335307940E+03  0.12499724236E+03 0.  0.
          2    1    1    2  501    0 -0.19107434834E+03 -0.85956289627E+02 -0.51791358957E+03  0.55868808523E+03  0.00000000000E+00 0. -1.
          1    1    1    2  502    0 -0.18476873653E+02 -0.31124054955E+02  0.20601070328E+04  0.20604249776E+04  0.00000000000E+00 0. -1.
         22    1    3    3    0    0  0.13221188198E+03  0.75527725396E+02  0.13432964698E+03  0.20304894262E+03  0.00000000000E+00 0.  1.
         22    1    3    3    0    0  0.77339340012E+02  0.41552619187E+02 -0.21138671774E+02  0.90304136778E+02  0.00000000000E+00 0.  1.
</event>
<event>
 7    1  0.8083602E-006  0.1785662E+03  0.7818608E-02  0.1257677E+00
          2   -1    0    0  502    0  0.00000000000E+00  0.00000000000E+00  0.19794465042E+04  0.19794465042E+04  0.00000000000E+00 0. -1.
          1   -1    0    0  501    0 -0.00000000000E+00 -0.00000000000E+00 -0.10480273153E+04  0.10480273153E+04  0.00000000000E+00 0. -1.
         25    2    1    2    0    0  0.73310584316E+02 -0.22144474826E+03 -0.23457525944E+03  0.35364034902E+03  0.12499490313E+03 0.  0.
          2    1    1    2  501    0 -0.53520280313E+02  0.44680421269E+02 -0.74817571458E+03  0.75141710144E+03  0.00000000000E+00 0. -1.
          1    1    1    2  502    0 -0.19790304003E+02  0.17676432699E+03  0.19141701629E+04  0.19224163691E+04  0.00000000000E+00 0. -1.
         22    1    3    3    0    0  0.36082207761E+02 -0.19972810653E+03 -0.23503378225E+03  0.31053843732E+03  0.00000000000E+00 0. -1.
         22    1    3    3    0    0  0.37228376556E+02 -0.21716641729E+02  0.45852280936E+00  0.43101911700E+02  0.00000000000E+00 0. -1.
</event>
<event>
 7    1  0.6485470E-006  0.1939250E+03  0.7818608E-02  0.1270312E+00
          2   -1    0    0  502    0  0.00000000000E+00  0.00000000000E+00  0.90214641948E+03  0.90214641948E+03  0.00000000000E+00 0. -1.
          1   -1    0    0  501    0 -0.00000000000E+00 -0.00000000000E+00 -0.98215434624E+03  0.98215434624E+03  0.00000000000E+00 0. -1.
         25    2    1    2    0    0  0.64352951754E+02 -0.14529986662E+03  0.21045197505E+03  0.29183646164E+03  0.12500053161E+03 0.  0.
          2    1    1    2  501    0  0.47395361236E+02 -0.31205715375E+02 -0.92380954925E+03  0.92555075507E+03  0.00000000000E+00 0. -1.
          1    1    1    2  502    0 -0.11174831299E+03  0.17650558200E+03  0.63334964744E+03  0.66691354900E+03  0.00000000000E+00 0. -1.
         22    1    3    3    0    0  0.85955281528E+02 -0.42664712184E+02  0.83863804565E+02  0.12744302964E+03  0.00000000000E+00 0.  1.
         22    1    3    3    0    0 -0.21602329773E+02 -0.10263515444E+03  0.12658817048E+03  0.16439343200E+03  0.00000000000E+00 0.  1.
</event>
<event>
 7    1  0.6485470E-006  0.3774244E+02  0.7818608E-02  0.1590417E+00
          2   -1    0    0  502    0  0.00000000000E+00  0.00000000000E+00  0.48380990493E+03  0.48380990493E+03  0.00000000000E+00 0. -1.
          1   -1    0    0  501    0 -0.00000000000E+00 -0.00000000000E+00 -0.12474842046E+04  0.12474842046E+04  0.00000000000E+00 0. -1.
         25    2    1    2    0    0  0.35109461690E+02 -0.41500745253E+02 -0.36570437543E+03  0.39028744831E+03  0.12501846238E+03 0.  0.
          2    1    1    2  501    0 -0.33459857457E+02  0.16574406333E+02 -0.86875610017E+03  0.86955818355E+03  0.00000000000E+00 0. -1.
          1    1    1    2  502    0 -0.16496042327E+01  0.24926338920E+02  0.47078617598E+03  0.47144847763E+03  0.00000000000E+00 0. -1.
         22    1    3    3    0    0  0.37499919527E+02  0.15664198324E+02 -0.32034267245E+02  0.51747515414E+02  0.00000000000E+00 0.  1.
         22    1    3    3    0    0 -0.23904578366E+01 -0.57164943576E+02 -0.33367010819E+03  0.33853993289E+03  0.00000000000E+00 0.  1.
</event>
<event>
 7    1  0.6485470E-006  0.1197962E+03  0.7818608E-02  0.1354924E+00
          2   -1    0    0  502    0  0.00000000000E+00  0.00000000000E+00  0.91441571310E+03  0.91441571310E+03  0.00000000000E+00 0. -1.
          1   -1    0    0  501    0 -0.00000000000E+00 -0.00000000000E+00 -0.88269703712E+03  0.88269703712E+03  0.00000000000E+00 0. -1.
         25    2    1    2    0    0  0.58688449765E+02  0.13434069353E+03 -0.10493602557E+03  0.21938219904E+03  0.12500089487E+03 0.  0.
          2    1    1    2  501    0 -0.71606392886E+02 -0.93614606365E+02 -0.71517920307E+03  0.72482581530E+03  0.00000000000E+00 0. -1.
          1    1    1    2  502    0  0.12917943121E+02 -0.40726087166E+02  0.85183390462E+03  0.85290473588E+03  0.00000000000E+00 0. -1.
         22    1    3    3    0    0 -0.21541982023E+02  0.31002803101E+02 -0.76780850291E+02  0.85560094443E+02  0.00000000000E+00 0.  1.
         22    1    3    3    0    0  0.80230431788E+02  0.10333789043E+03 -0.28155175280E+02  0.13382210460E+03  0.00000000000E+00 0.  1.
</event>
<event>
 7    1  0.6485470E-006  0.4605349E+02  0.7818608E-02  0.1554930E+00
          2   -1    0    0  502    0  0.00000000000E+00  0.00000000000E+00  0.16952778167E+03  0.16952778167E+03  0.00000000000E+00 0. -1.
          1   -1    0    0  501    0 -0.00000000000E+00 -0.00000000000E+00 -0.12400812281E+04  0.12400812281E+04  0.00000000000E+00 0. -1.
         25    2    1    2    0    0 -0.12224610785E+02  0.27574052947E+02  0.33530503893E+02  0.13288705902E+03  0.12499962504E+03 0.  0.
          2    1    1    2  501    0  0.37747201006E+02 -0.26572402287E+02 -0.11880553264E+04  0.11889518082E+04  0.00000000000E+00 0. -1.
          1    1    1    2  502    0 -0.25522590221E+02 -0.10016506600E+01  0.83971376072E+02  0.87770142503E+02  0.00000000000E+00 0. -1.
         22    1    3    3    0    0 -0.65466483223E+02  0.27962887308E+02  0.24381990887E+01  0.71230108149E+02  0.00000000000E+00 0. -1.
         22    1    3    3    0    0  0.53241872438E+02 -0.38883436066E+00  0.31092304804E+02  0.61656950872E+02  0.00000000000E+00 0. -1.
</event>
<event>
 7    1  0.6485470E-006  0.1031110E+03  0.7818608E-02  0.1378794E+00
          2   -1    0    0  502    0  0.00000000000E+00  0.00000000000E+00  0.27154197478E+03  0.27154197478E+03  0.00000000000E+00 0. -1.
          1   -1    0    0  501    0 -0.00000000000E+00 -0.00000000000E+00 -0.17493127296E+04  0.17493127296E+04  0.00000000000E+00 0. -1.
         25    2    1    2    0    0 -0.45138489312E+02  0.12595629326E+03 -0.30029923926E+02  0.18554498539E+03  0.12499069663E+03 0.  0.
          2    1    1    2  501    0 -0.58604964584E+01 -0.40276399065E+02 -0.16284281174E+04  0.16289366676E+04  0.00000000000E+00 0. -1.
          1    1    1    2  502    0  0.50998985770E+02 -0.85679894197E+02  0.18068728649E+03  0.20637305134E+03  0.00000000000E+00 0. -1.
         22    1    3    3    0    0  0.12443636231E+02  0.82525223901E+02  0.33014292961E+02  0.89750767141E+02  0.00000000000E+00 0.  1.
         22    1    3    3    0    0 -0.57582125543E+02  0.43431069361E+02 -0.63044216887E+02  0.95794218254E+02  0.00000000000E+00 0.  1.
</event>
<event>
 7    1  0.6485470E-006  0.2884719E+02  0.7818608E-02  0.1654023E+00
          2   -1    0    0  502    0  0.00000000000E+00  0.00000000000E+00  0.93110484230E+03  0.93110484230E+03  0.00000000000E+00 0. -1.
          1   -1    0    0  501    0 -0.00000000000E+00 -0.00000000000E+00 -0.13134415388E+03  0.13134415388E+03  0.00000000000E+00 0. -1.
         25    2    1    2    0    0 -0.37434149100E+02  0.88506512305E+01  0.34435025340E+03  0.36835010419E+03  0.12500021077E+03 0.  0.
          2    1    1    2  501    0  0.18521683245E+02  0.12824864395E+02 -0.11791723310E+03  0.12005000524E+03  0.00000000000E+00 0. -1.
          1    1    1    2  502    0  0.18912465855E+02 -0.21675515626E+02  0.57332766811E+03  0.57404888674E+03  0.00000000000E+00 0. -1.
         22    1    3    3    0    0 -0.25758182998E+02 -0.54882289560E+02  0.11473078522E+03  0.12976402728E+03  0.00000000000E+00 0.  1.
         22    1    3    3    0    0 -0.11675966102E+02  0.63732940791E+02  0.22961946818E+03  0.23858607691E+03  0.00000000000E+00 0.  1.
</event>
<event>
 7    1  0.6485470E-006  0.3734348E+02  0.7818608E-02  0.1563663E+00
          2   -1    0    0  502    0  0.00000000000E+00  0.00000000000E+00  0.16089762447E+04  0.16089762447E+04  0.00000000000E+00 0. -1.
          1   -1    0    0  501    0 -0.00000000000E+00 -0.00000000000E+00 -0.82101836272E+02  0.82101836272E+02  0.00000000000E+00 0. -1.
         25    2    1    2    0    0 -0.69493515051E+01 -0.46922895884E+02  0.61688119019E+02  0.14724179909E+03  0.12499868690E+03 0.  0.
          2    1    1    2  501    0  0.27432345274E+02  0.25275732523E+02 -0.30297523948E+02  0.48055553053E+02  0.00000000000E+00 0. -1.
          1    1    1    2  502    0 -0.20482993769E+02  0.21647163361E+02  0.14954838134E+04  0.14957807288E+04  0.00000000000E+00 0. -1.
         22    1    3    3    0    0 -0.64181208472E+02 -0.34431988007E+02  0.20605681400E+02  0.75692690698E+02  0.00000000000E+00 0.  1.
         22    1    3    3    0    0  0.57231856967E+02 -0.12490907877E+02  0.41082437619E+02  0.71549108396E+02  0.00000000000E+00 0.  1.
</event>
<event>
 7    1  0.6485470E-006  0.1189386E+03  0.7818608E-02  0.1436123E+00
          2   -1    0    0  502    0  0.00000000000E+00  0.00000000000E+00  0.12188805876E+04  0.12188805876E+04  0.00000000000E+00 0. -1.
          1   -1    0    0  501    0 -0.00000000000E+00 -0.00000000000E+00 -0.42688710987E+03  0.42688710987E+03  0.00000000000E+00 0. -1.
         25    2    1    2    0    0  0.91042010676E+02 -0.38987879856E+02 -0.31553477931E+03  0.35354775754E+03  0.12500046969E+03 0.  0.
          2    1    1    2  501    0  0.13582447626E+02 -0.17958815331E+02 -0.87967935720E+02  0.90803962724E+02  0.00000000000E+00 0. -1.
          1    1    1    2  502    0 -0.10462445830E+03  0.56946695188E+02  0.11954961928E+04  0.12014159772E+04  0.00000000000E+00 0. -1.
         22    1    3    3    0    0  0.52728297092E+02 -0.78146424670E+02 -0.25518061655E+03  0.27203728433E+03  0.00000000000E+00 0.  1.
         22    1    3    3    0    0  0.38313713584E+02  0.39158544813E+02 -0.60354162765E+02  0.81510473214E+02  0.00000000000E+00 0.  1.
</event>
<event>
 7    1  0.6485470E-006  0.6173891E+02  0.7818608E-02  0.1484202E+00
          2   -1    0    0  502    0  0.00000000000E+00  0.00000000000E+00  0.10315897252E+04  0.10315897252E+04  0.00000000000E+00 0. -1.
          1   -1    0    0  501    0 -0.00000000000E+00 -0.00000000000E+00 -0.76245427233E+02  0.76245427233E+02  0.00000000000E+00 0. -1.
         25    2    1    2    0    0  0.70273503031E+02  0.25841863101E+02  0.52611347583E+03  0.54591757870E+03  0.12499778468E+03 0.  0.
          2    1    1    2  501    0 -0.26424363386E+02  0.15412335598E+02 -0.60874377383E+02  0.68128385352E+02  0.00000000000E+00 0. -1.
          1    1    1    2  502    0 -0.43849139645E+02 -0.41254198698E+02  0.49010519954E+03  0.49378918839E+03  0.00000000000E+00 0. -1.
         22    1    3    3    0    0  0.58672946139E+02  0.30199351662E+02  0.10113998108E+03  0.12076345151E+03  0.00000000000E+00 0. -1.
         22    1    3    3    0    0  0.11600556892E+02 -0.43574885611E+01  0.42497349475E+03  0.42515412719E+03  0.00000000000E+00 0. -1.
</event>
<event>
 7    1  0.6485470E-006  0.1283673E+03  0.7818608E-02  0.1364638E+00
          2   -1    0    0  502    0  0.00000000000E+00  0.00000000000E+00  0.29092519747E+03  0.29092519747E+03  0.00000000000E+00 0. -1.
          1   -1    0    0  501    0 -0.00000000000E+00 -0.00000000000E+00 -0.82278309103E+03  0.82278309103E+03  0.00000000000E+00 0. -1.
         25    2    1    2    0    0  0.11585511939E+03 -0.78594808725E+02 -0.63269199881E+02  0.19806900656E+03  0.12501514732E+03 0.  0.
          2    1    1    2  501    0 -0.12056797390E+03  0.42152095126E+02 -0.68465694301E+03  0.69646863897E+03  0.00000000000E+00 0. -1.
          1    1    1    2  502    0  0.47128545131E+01  0.36442713598E+02  0.21606824933E+03  0.21917064297E+03  0.00000000000E+00 0. -1.
         22    1    3    3    0    0  0.97806692142E+02 -0.76048363767E+02  0.83428611392E+01  0.12417369283E+03  0.00000000000E+00 0.  1.
         22    1    3    3    0    0  0.18048427247E+02 -0.25464449577E+01 -0.71612061020E+02  0.73895313732E+02  0.00000000000E+00 0.  1.
</event>
<event>
 7    1  0.6485470E-006  0.9940783E+02  0.7818608E-02  0.1398188E+00
          2   -1    0    0  502    0  0.00000000000E+00  0.00000000000E+00  0.30193635400E+04  0.30193635400E+04  0.00000000000E+00 0. -1.
          1   -1    0    0  501    0 -0.00000000000E+00 -0.00000000000E+00 -0.52345532035E+03  0.52345532035E+03  0.00000000000E+00 0. -1.
         25    2    1    2    0    0  0.54258397237E+02  0.43023298407E+02  0.12799060809E+03  0.19183814913E+03  0.12500120730E+03 0.  0.
          2    1    1    2  501    0  0.36109287144E+02  0.45894101872E+00 -0.48998759723E+03  0.49131653410E+03  0.00000000000E+00 0. -1.
          1    1    1    2  502    0 -0.90367684381E+02 -0.43482239425E+02  0.28579052088E+04  0.28596641772E+04  0.00000000000E+00 0. -1.
         22    1    3    3    0    0  0.26888088810E+02 -0.14582967217E+02 -0.15880174702E+02  0.34464651475E+02  0.00000000000E+00 0.  1.
         22    1    3    3    0    0  0.27370308428E+02  0.57606265624E+02  0.14387078279E+03  0.15737349766E+03  0.00000000000E+00 0.  1.
</event>
<event>
 7    1  0.6485470E-006  0.4518394E+02  0.7818608E-02  0.1481307E+00
          2   -1    0    0  502    0  0.00000000000E+00  0.00000000000E+00  0.12326034675E+04  0.12326034675E+04  0.00000000000E+00 0. -1.
          1   -1    0    0  501    0 -0.00000000000E+00 -0.00000000000E+00 -0.14296908555E+03  0.14296908555E+03  0.00000000000E+00 0. -1.
         25    2    1    2    0    0 -0.65066897544E+02 -0.40099160761E+02  0.48571767918E+03  0.50733438793E+03  0.12499949383E+03 0.  0.
          2    1    1    2  501    0  0.22421439472E+02  0.39030767475E+02 -0.12768862688E+03  0.13539020345E+03  0.00000000000E+00 0. -1.
          1    1    1    2  502    0  0.42645458072E+02  0.10683932854E+01  0.73160532965E+03  0.73284796167E+03  0.00000000000E+00 0. -1.
         22    1    3    3    0    0 -0.20490264748E+02  0.39836051810E+02  0.82685274576E+02  0.94040505129E+02  0.00000000000E+00 0. -1.
         22    1    3    3    0    0 -0.44576632796E+02 -0.79935212570E+02  0.40303240460E+03  0.41329388280E+03  0.00000000000E+00 0. -1.
</event>
<event>
 7    1  0.6485470E-006  0.6127718E+02  0.7818608E-02  0.1423868E+00
          2   -1    0    0  502    0  0.00000000000E+00  0.00000000000E+00  0.68094897050E+02  0.68094897050E+02  0.00000000000E+00 0. -1.
          1   -1    0    0  501    0 -0.00000000000E+00 -0.00000000000E+00 -0.72213856979E+03  0.72213856979E+03  0.00000000000E+00 0. -1.
         25    2    1    2    0    0 -0.33468505898E+02  0.88031223819E+02 -0.14498098289E+03  0.21334194426E+03  0.12500265009E+03 0.  0.
          2    1    1    2  501    0  0.36978626862E+02 -0.30540107556E+02 -0.51658297947E+03  0.51880448311E+03  0.00000000000E+00 0. -1.
          1    1    1    2  502    0 -0.35101209643E+01 -0.57491116263E+02  0.75202896163E+01  0.58087039469E+02  0.00000000000E+00 0. -1.
         22    1    3    3    0    0  0.16490790074E+02 -0.20477968201E+02 -0.10743210505E+01  0.26314397288E+02  0.00000000000E+00 0.  1.
         22    1    3    3    0    0 -0.49959295972E+02  0.10850919202E+03 -0.14390666184E+03  0.18702754698E+03  0.00000000000E+00 0.  1.
</event>
<event>
 7    1  0.6485470E-006  0.7097320E+02  0.7818608E-02  0.1518986E+00
          2   -1    0    0  502    0  0.00000000000E+00  0.00000000000E+00  0.71425434409E+03  0.71425434409E+03  0.00000000000E+00 0. -1.
          1   -1    0    0  501    0 -0.00000000000E+00 -0.00000000000E+00 -0.63156958932E+02  0.63156958932E+02  0.00000000000E+00 0. -1.
         25    2    1    2    0    0 -0.60209316067E+01  0.55684007035E+02  0.19012408148E+03  0.23432257415E+03  0.12499176829E+03 0.  0.
          2    1    1    2  501    0 -0.15694196056E+02  0.13898265757E+02 -0.35535295672E+02  0.41258051570E+02  0.00000000000E+00 0. -1.
          1    1    1    2  502    0  0.21715127663E+02 -0.69582272792E+02  0.49650859935E+03  0.50183067730E+03  0.00000000000E+00 0. -1.
         22    1    3    3    0    0 -0.11720610292E+02  0.44098251994E+02  0.19132284359E+01  0.45669343959E+02  0.00000000000E+00 0. -1.
         22    1    3    3    0    0  0.56996786855E+01  0.11585755041E+02  0.18821085305E+03  0.18865323019E+03  0.00000000000E+00 0. -1.
</event>
<event>
 7    1  0.6485470E-006  0.8741359E+02  0.7818608E-02  0.1398659E+00
          2   -1    0    0  502    0  0.00000000000E+00  0.00000000000E+00  0.56780748356E+03  0.56780748356E+03  0.00000000000E+00 0. -1.
          1   -1    0    0  501    0 -0.00000000000E+00 -0.00000000000E+00 -0.13619387494E+03  0.13619387494E+03  0.00000000000E+00 0. -1.
         25    2    1    2    0    0 -0.65789755779E+02  0.51904731563E+02  0.47931773041E+02  0.15793852604E+03  0.12499892006E+03 0.  0.
          2    1    1    2  501    0  0.29285155865E+02  0.28571323126E+02 -0.71502229466E+02  0.82380274811E+02  0.00000000000E+00 0. -1.
          1    1    1    2  502    0  0.36504599914E+02 -0.80476054690E+02  0.45518406505E+03  0.46368255765E+03  0.00000000000E+00 0. -1.
         22    1    3    3    0    0  0.30830292798E+02 -0.12880448195E+02  0.42671648247E+01  0.33684144569E+02  0.00000000000E+00 0. -1.
         22    1    3    3    0    0 -0.96620048578E+02  0.64785179758E+02  0.43664608217E+02  0.12425438147E+03  0.00000000000E+00 0. -1.
</event>
<event>
 7    1  0.6485470E-006  0.4812771E+02  0.7818608E-02  0.1545218E+00
          2   -1    0    0  502    0  0.00000000000E+00  0.00000000000E+00  0.38682135344E+03  0.38682135344E+03  0.00000000000E+00 0. -1.
          1   -1    0    0  501    0 -0.00000000000E+00 -0.00000000000E+00 -0.91244738015E+03  0.91244738015E+03  0.00000000000E+00 0. -1.
         25    2    1    2    0    0 -0.37338688740E+02  0.31077374393E+01  0.19108485176E+03  0.23139482813E+03  0.12500524070E+03 0.  0.
          2    1    1    2  501    0  0.42679404818E+02  0.22352550446E+02 -0.89067417858E+03  0.89197626678E+03  0.00000000000E+00 0. -1.
          1    1    1    2  502    0 -0.53407160778E+01 -0.25460287885E+02  0.17396330011E+03  0.17589763868E+03  0.00000000000E+00 0. -1.
         22    1    3    3    0    0 -0.17349474521E+02  0.29520530670E+02  0.19505138209E+03  0.19803410730E+03  0.00000000000E+00 0.  1.
         22    1    3    3    0    0 -0.19989214219E+02 -0.26412793231E+02 -0.39665303327E+01  0.33360720829E+02  0.00000000000E+00 0.  1.
</event>
<event>
 7    1  0.6485470E-006  0.8288073E+02  0.7818608E-02  0.1368174E+00
          2   -1    0    0  502    0  0.00000000000E+00  0.00000000000E+00  0.11706253768E+04  0.11706253768E+04  0.00000000000E+00 0. -1.
          1   -1    0    0  501    0 -0.00000000000E+00 -0.00000000000E+00 -0.51075181936E+02  0.51075181936E+02  0.00000000000E+00 0. -1.
         25    2    1    2    0    0  0.69910739876E+02  0.51289895326E+02  0.79345588917E+03  0.80790863565E+03  0.12500380230E+03 0.  0.
          2    1    1    2  501    0 -0.22927437337E+02 -0.80386041580E+02  0.55334218016E+00  0.83593595755E+02  0.00000000000E+00 0. -1.
          1    1    1    2  502    0 -0.46983302540E+02  0.29096146254E+02  0.32554096348E+03  0.33019832729E+03  0.00000000000E+00 0. -1.
         22    1    3    3    0    0  0.97204467020E+02  0.11502695442E+02  0.62724031282E+03  0.63483181272E+03  0.00000000000E+00 0. -1.
         22    1    3    3    0    0 -0.27293727143E+02  0.39787199884E+02  0.16621557635E+03  0.17307682293E+03  0.00000000000E+00 0. -1.
</event>
<event>
 7    1  0.6485470E-006  0.1125392E+03  0.7818608E-02  0.1420957E+00
          2   -1    0    0  502    0  0.00000000000E+00  0.00000000000E+00  0.46619299785E+03  0.46619299785E+03  0.00000000000E+00 0. -1.
          1   -1    0    0  501    0 -0.00000000000E+00 -0.00000000000E+00 -0.10092748242E+04  0.10092748242E+04  0.00000000000E+00 0. -1.
         25    2    1    2    0    0  0.80121740987E+02  0.51357006900E+02 -0.26058835372E+03  0.30428003007E+03  0.12499204402E+03 0.  0.
          2    1    1    2  501    0  0.16673209628E+01  0.26650648709E+02 -0.71940160946E+03  0.71989701536E+03  0.00000000000E+00 0. -1.
          1    1    1    2  502    0 -0.81789061950E+02 -0.78007655609E+02  0.43690813686E+03  0.45129077660E+03  0.00000000000E+00 0. -1.
         22    1    3    3    0    0  0.15208385005E+01  0.56141446552E+01  0.13927053372E+02  0.15092858761E+02  0.00000000000E+00 0.  1.
         22    1    3    3    0    0  0.78600902486E+02  0.45742862244E+02 -0.27451540709E+03  0.28918717131E+03  0.00000000000E+00 0.  1.
</event>
<event>
 7    1  0.6485470E-006  0.7790891E+02  0.7818608E-02  0.1368758E+00
          2   -1    0    0  502    0  0.00000000000E+00  0.00000000000E+00  0.37734507978E+02  0.37734507978E+02  0.00000000000E+00 0. -1.
          1   -1    0    0  501    0 -0.00000000000E+00 -0.00000000000E+00 -0.46147042839E+04  0.46147042839E+04  0.00000000000E+00 0. -1.
         25    2    1    2    0    0 -0.79237208710E+01 -0.13059128953E+03 -0.30913768121E+04  0.30966679557E+04  0.12499985163E+03 0.  0.
          2    1    1    2  501    0 -0.14463684382E+02  0.56689308576E+02 -0.14769069912E+04  0.14780653356E+04  0.00000000000E+00 0. -1.
          1    1    1    2  502    0  0.22387405253E+02  0.73901980957E+02 -0.86859726783E+01  0.77705500608E+02  0.00000000000E+00 0. -1.
         22    1    3    3    0    0 -0.28554493266E+02 -0.10601835314E+03 -0.11983921484E+04  0.12034113975E+04  0.00000000000E+00 0.  1.
         22    1    3    3    0    0  0.20630772395E+02 -0.24572936393E+02 -0.18929846637E+04  0.18932565582E+04  0.00000000000E+00 0.  1.
</event>
<event>
 7    1  0.6485470E-006  0.2366949E+03  0.7818608E-02  0.1283735E+00
          2   -1    0    0  502    0  0.00000000000E+00  0.00000000000E+00  0.54794943329E+03  0.54794943329E+03  0.00000000000E+00 0. -1.
          1   -1    0    0  501    0 -0.00000000000E+00 -0.00000000000E+00 -0.13523303784E+04  0.13523303784E+04  0.00000000000E+00 0. -1.
         25    2    1    2    0    0 -0.17176176231E+03  0.97130048574E+02  0.23376369667E+03  0.33046348869E+03  0.12499720857E+03 0.  0.
          2    1    1    2  501    0  0.20725094435E+03 -0.11744571657E+03 -0.12914475284E+04  0.13132338592E+04  0.00000000000E+00 0. -1.
          1    1    1    2  502    0 -0.35489182033E+02  0.20315667996E+02  0.25330288658E+03  0.25658246386E+03  0.00000000000E+00 0. -1.
         22    1    3    3    0    0 -0.50979801902E+02 -0.10444693952E+02  0.78629369612E+01  0.52629436739E+02  0.00000000000E+00 0.  1.
         22    1    3    3    0    0 -0.12078196041E+03  0.10757474253E+03  0.22590075971E+03  0.27783405196E+03  0.00000000000E+00 0.  1.
</event>
<event>
 7    1  0.6485470E-006  0.1872021E+03  0.7818608E-02  0.1334313E+00
          2   -1    0    0  502    0  0.00000000000E+00  0.00000000000E+00  0.10941333403E+03  0.10941333403E+03  0.00000000000E+00 0. -1.
          1   -1    0    0  501    0 -0.00000000000E+00 -0.00000000000E+00 -0.17084824783E+04  0.17084824783E+04  0.00000000000E+00 0. -1.
         25    2    1    2    0    0 -0.24655519204E+02  0.16077991797E+03 -0.38646626573E+03  0.43753804635E+03  0.12500116324E+03 0.  0.
          2    1    1    2  501    0  0.38283191978E+02 -0.19044458955E+03 -0.12857053677E+04  0.13002972880E+04  0.00000000000E+00 0. -1.
          1    1    1    2  502    0 -0.13627672774E+02  0.29664671589E+02  0.73102489215E+02  0.80060477984E+02  0.00000000000E+00 0. -1.
         22    1    3    3    0    0 -0.10360152699E+02  0.61009538777E+02 -0.29504001976E+03  0.30145996392E+03  0.00000000000E+00 0. -1.
         22    1    3    3    0    0 -0.14295366505E+02  0.99770379188E+02 -0.91426245963E+02  0.13607808243E+03  0.00000000000E+00 0. -1.
</event>
<event>
 7    1  0.6485470E-006  0.9029459E+02  0.7818608E-02  0.1451577E+00
          2   -1    0    0  502    0  0.00000000000E+00  0.00000000000E+00  0.95106354823E+02  0.95106354823E+02  0.00000000000E+00 0. -1.
          1   -1    0    0  501    0 -0.00000000000E+00 -0.00000000000E+00 -0.80024270695E+03  0.80024270695E+03  0.00000000000E+00 0. -1.
         25    2    1    2    0    0  0.98777599613E+02 -0.22473214816E+02 -0.41464973503E+03  0.44477299978E+03  0.12500623584E+03 0.  0.
          2    1    1    2  501    0 -0.89895481891E+01  0.24866361389E+02 -0.34466731896E+03  0.34568006692E+03  0.00000000000E+00 0. -1.
          1    1    1    2  502    0 -0.89788051424E+02 -0.23931465727E+01  0.54180701864E+02  0.10489599508E+03  0.00000000000E+00 0. -1.
         22    1    3    3    0    0  0.37828783213E+02  0.36242077971E+02 -0.28616342898E+03  0.29091925536E+03  0.00000000000E+00 0.  1.
         22    1    3    3    0    0  0.60948816400E+02 -0.58715292787E+02 -0.12848630606E+03  0.15385374442E+03  0.00000000000E+00 0.  1.
</event>
<event>
 7    1  0.6485470E-006  0.2781840E+02  0.7818608E-02  0.1629291E+00
          2   -1    0    0  502    0  0.00000000000E+00  0.00000000000E+00  0.10017530676E+04  0.10017530676E+04  0.00000000000E+00 0. -1.
          1   -1    0    0  501    0 -0.00000000000E+00 -0.00000000000E+00 -0.11036703181E+03  0.11036703181E+03  0.00000000000E+00 0. -1.
         25    2    1    2    0    0  0.47840833007E+02 -0.22399765298E+02  0.34005229757E+02  0.13990011298E+03  0.12500076468E+03 0.  0.
          2    1    1    2  501    0 -0.20584365333E+02  0.17321451416E+02 -0.54046035276E+02  0.60371538860E+02  0.00000000000E+00 0. -1.
          1    1    1    2  502    0 -0.27256467674E+02  0.50783138824E+01  0.91142684126E+03  0.91184844754E+03  0.00000000000E+00 0. -1.
         22    1    3    3    0    0 -0.21367437467E+02 -0.53520399820E+02  0.23417078062E+01  0.57675680978E+02  0.00000000000E+00 0.  1.
         22    1    3    3    0    0  0.69208270474E+02  0.31120634522E+02  0.31663521951E+02  0.82224431998E+02  0.00000000000E+00 0.  1.
</event>
<event>
 7    1  0.6485470E-006  0.1482089E+03  0.7818608E-02  0.1271980E+00
          2   -1    0    0  502    0  0.00000000000E+00  0.00000000000E+00  0.65105811097E+03  0.65105811097E+03  0.00000000000E+00 0. -1.
          1   -1    0    0  501    0 -0.00000000000E+00 -0.00000000000E+00 -0.15820525426E+04  0.15820525426E+04  0.00000000000E+00 0. -1.
         25    2    1    2    0    0  0.60771831186E+02 -0.78923158050E+02  0.69913713749E+02  0.17445072252E+03  0.12499218725E+03 0.  0.
          2    1    1    2  501    0 -0.13315339869E+03  0.68956243398E+02 -0.15235622554E+04  0.15309234916E+04  0.00000000000E+00 0. -1.
          1    1    1    2  502    0  0.72381567508E+02  0.99669146521E+01  0.52265411006E+03  0.52773643940E+03  0.00000000000E+00 0. -1.
         22    1    3    3    0    0  0.24607581332E+02 -0.82766519291E+02 -0.97327902456E+01  0.86893940988E+02  0.00000000000E+00 0. -1.
         22    1    3    3    0    0  0.36164249854E+02  0.38433612406E+01  0.79646503995E+02  0.87556781529E+02  0.00000000000E+00 0. -1.
</event>
<event>
 7    1  0.6485470E-006  0.9983347E+02  0.7818608E-02  0.1423690E+00
          2   -1    0    0  502    0  0.00000000000E+00  0.00000000000E+00  0.18524108530E+04  0.18524108530E+04  0.00000000000E+00 0. -1.
          1   -1    0    0  501    0 -0.00000000000E+00 -0.00000000000E+00 -0.16682889933E+04  0.16682889933E+04  0.00000000000E+00 0. -1.
         25    2    1    2    0    0 -0.81314546209E+02 -0.43843874667E+02  0.81814335219E+01  0.15564781956E+03  0.12499986844E+03 0.  0.
          2    1    1    2  501    0 -0.16795613869E+02  0.24224368522E+02 -0.15930058192E+04  0.15932785233E+04  0.00000000000E+00 0. -1.
          1    1    1    2  502    0  0.98110160077E+02  0.19619506145E+02  0.17689462454E+04  0.17717735035E+04  0.00000000000E+00 0. -1.
         22    1    3    3    0    0 -0.53467334741E+02  0.26391631005E+02 -0.34483214743E+02  0.68879359538E+02  0.00000000000E+00 0.  1.
         22    1    3    3    0    0 -0.27847211468E+02 -0.70235505672E+02  0.42664648265E+02  0.86768460025E+02  0.00000000000E+00 0.  1.
</event>
<event>
 7    1  0.6485470E-006  0.1235389E+03  0.7818608E-02  0.1306235E+00
          2   -1    0    0  502    0  0.00000000000E+00  0.00000000000E+00  0.18655660488E+04  0.18655660488E+04  0.00000000000E+00 0. -1.
          1   -1    0    0  501    0 -0.00000000000E+00 -0.00000000000E+00 -0.14485231032E+03  0.14485231032E+03  0.00000000000E+00 0. -1.
         25    2    1    2    0    0  0.56875290468E+02  0.62696257638E+02  0.24607919806E+03  0.28869866396E+03  0.12500530977E+03 0.  0.
          2    1    1    2  501    0 -0.11923053417E+03 -0.50342722955E+02 -0.88822756006E+02  0.15697067248E+03  0.00000000000E+00 0. -1.
          1    1    1    2  502    0  0.62355243703E+02 -0.12353534683E+02  0.15634572964E+04  0.15647490227E+04  0.00000000000E+00 0. -1.
         22    1    3    3    0    0  0.21761522967E+02  0.91038259831E+02  0.21327088352E+03  0.23290770359E+03  0.00000000000E+00 0. -1.
         22    1    3    3    0    0  0.35113767501E+02 -0.28342002193E+02  0.32808314535E+02  0.55790960371E+02  0.00000000000E+00 0. -1.
</event>
<event>
 7    1  0.6485470E-006  0.1743417E+03  0.7818608E-02  0.1225066E+00
          2   -1    0    0  502    0  0.00000000000E+00  0.00000000000E+00  0.41866641397E+03  0.41866641397E+03  0.00000000000E+00 0. -1.
          1   -1    0    0  501    0 -0.00000000000E+00 -0.00000000000E+00 -0.75453542199E+03  0.75453542199E+03  0.00000000000E+00 0. -1.
         25    2    1    2    0    0 -0.19352347957E+03  0.17524059797E+03  0.31634177919E+02  0.29118311123E+03  0.12500511481E+03 0.  0.
          2    1    1    2  501    0  0.10374814893E+03 -0.13263347242E+03 -0.60318230325E+03  0.62624612363E+03  0.00000000000E+00 0. -1.
          1    1    1    2  502    0  0.89775330644E+02 -0.42607125552E+02  0.23567911731E+03  0.25577260111E+03  0.00000000000E+00 0. -1.
         22    1    3    3    0    0 -0.46756493179E+02  0.31063014195E+02 -0.44683265850E+02  0.71747297874E+02  0.00000000000E+00 0.  1.
         22    1    3    3    0    0 -0.14676698639E+03  0.14417758378E+03  0.76317443769E+02  0.21943581335E+03  0.00000000000E+00 0.  1.
</event>
<event>
 7    1  0.6485470E-006  0.8477182E+02  0.7818608E-02  0.1411820E+00
          2   -1    0    0  502    0  0.00000000000E+00  0.00000000000E+00  0.84769623964E+02  0.84769623964E+02  0.00000000000E+00 0. -1.
          1   -1    0    0  501    0 -0.00000000000E+00 -0.00000000000E+00 -0.28927566497E+04  0.28927566497E+04  0.00000000000E+00 0. -1.
         25    2    1    2    0    0  0.10643239248E+03  0.47474882615E+02 -0.10506820475E+04  0.10644900621E+04  0.12499843546E+03 0.  0.
          2    1    1    2  501    0 -0.77512964850E+02 -0.22755922511E+02 -0.18295784907E+04  0.18313611182E+04  0.00000000000E+00 0. -1.
          1    1    1    2  502    0 -0.28919427631E+02 -0.24718960103E+02  0.72273512377E+02  0.81675093354E+02  0.00000000000E+00 0. -1.
         22    1    3    3    0    0  0.56299005461E+02 -0.39673600769E+02 -0.36003730770E+03  0.36656573155E+03  0.00000000000E+00 0. -1.
         22    1    3    3    0    0  0.50133387020E+02  0.87148483384E+02 -0.69064473976E+03  0.69792433057E+03  0.00000000000E+00 0. -1.
</event>
<event>
 7    1  0.7715057E-006  0.7687296E+02  0.7818608E-02  0.1348452E+00
          2   -1    0    0  502    0  0.00000000000E+00  0.00000000000E+00  0.74890028619E+03  0.74890028619E+03  0.00000000000E+00 0. -1.
          1   -1    0    0  501    0 -0.00000000000E+00 -0.00000000000E+00 -0.26375654607E+04  0.26375654607E+04  0.00000000000E+00 0. -1.
         25    2    1    2    0    0 -0.21144932686E+02 -0.10158154026E+03 -0.38099819634E+03  0.41418722634E+03  0.12500206138E+03 0.  0.
          2    1    1    2  501    0  0.60657314149E+02  0.35637866438E+02 -0.22374008048E+04  0.22385065845E+04  0.00000000000E+00 0. -1.
          1    1    1    2  502    0 -0.39512381462E+02  0.65943673823E+02  0.72973382666E+03  0.73377193608E+03  0.00000000000E+00 0. -1.
         22    1    3    3    0    0  0.49495264369E+02 -0.18903878848E+02 -0.10702993197E+03  0.11942589404E+03  0.00000000000E+00 0.  1.
         22    1    3    3    0    0 -0.70640197055E+02 -0.82677661414E+02 -0.27396826437E+03  0.29476133230E+03  0.00000000000E+00 0.  1.
</event>
<event>
 7    1  0.6485470E-006  0.8326086E+02  0.7818608E-02  0.1414852E+00
          2   -1    0    0  502    0  0.00000000000E+00  0.00000000000E+00  0.33825347985E+03  0.33825347985E+03  0.00000000000E+00 0. -1.
          1   -1    0    0  501    0 -0.00000000000E+00 -0.00000000000E+00 -0.47411138098E+03  0.47411138098E+03  0.00000000000E+00 0. -1.
         25    2    1    2    0    0 -0.25296630084E+02  0.39152709464E+02 -0.20886261919E+03  0.24783414374E+03  0.12500125981E+03 0.  0.
          2    1    1    2  501    0 -0.14999029073E+02  0.34733039714E+02 -0.23869218751E+03  0.24167191666E+03  0.00000000000E+00 0. -1.
          1    1    1    2  502    0  0.40295659157E+02 -0.73885749178E+02  0.31169690557E+03  0.32285880043E+03  0.00000000000E+00 0. -1.
         22    1    3    3    0    0 -0.34052783428E+02 -0.22057404197E+01 -0.20217338002E+03  0.20503300451E+03  0.00000000000E+00 0.  1.
         22    1    3    3    0    0  0.87561533440E+01  0.41358449884E+02 -0.66892391669E+01  0.42801139223E+02  0.00000000000E+00 0.  1.
</event>
<event>
 7    1  0.6485470E-006  0.5942670E+02  0.7818608E-02  0.1477547E+00
          2   -1    0    0  502    0  0.00000000000E+00  0.00000000000E+00  0.43766698756E+02  0.43766698756E+02  0.00000000000E+00 0. -1.
          1   -1    0    0  501    0 -0.00000000000E+00 -0.00000000000E+00 -0.89122771281E+03  0.89122771281E+03  0.00000000000E+00 0. -1.
         25    2    1    2    0    0 -0.45625336304E+02 -0.26317852308E+02 -0.40609117346E+03  0.42814591381E+03  0.12499832675E+03 0.  0.
          2    1    1    2  501    0  0.61980639102E+02 -0.26988137622E+01 -0.46299671549E+03  0.46713471480E+03  0.00000000000E+00 0. -1.
          1    1    1    2  502    0 -0.16355302799E+02  0.29016666071E+02  0.21626874886E+02  0.39713782958E+02  0.00000000000E+00 0. -1.
         22    1    3    3    0    0 -0.11296580266E+02 -0.21669318243E+02 -0.42374400850E+01  0.24801773673E+02  0.00000000000E+00 0. -1.
         22    1    3    3    0    0 -0.34328756037E+02 -0.46485340654E+01 -0.40185373337E+03  0.40334414014E+03  0.00000000000E+00 0. -1.
</event>
<event>
 7    1  0.6485470E-006  0.5339475E+02  0.7818608E-02  0.1430419E+00
          2   -1    0    0  502    0  0.00000000000E+00  0.00000000000E+00  0.20659277080E+03  0.20659277080E+03  0.00000000000E+00 0. -1.
          1   -1    0    0  501    0 -0.00000000000E+00 -0.00000000000E+00 -0.15337583894E+04  0.15337583894E+04  0.00000000000E+00 0. -1.
         25    2    1    2    0    0  0.84291135657E+01 -0.25991963855E+02 -0.16898679488E+03  0.21196158937E+03  0.12499818551E+03 0.  0.
          2    1    1    2  501    0  0.44875203552E+02  0.29098247410E+02 -0.13388886466E+04  0.13399564545E+04  0.00000000000E+00 0. -1.
          1    1    1    2  502    0 -0.53304317118E+02 -0.31062835540E+01  0.18070982293E+03  0.18843311631E+03  0.00000000000E+00 0. -1.
         22    1    3    3    0    0  0.35069616722E+01 -0.28120984397E+02  0.12086686881E+02  0.30808708889E+02  0.00000000000E+00 0.  1.
         22    1    3    3    0    0  0.49221518934E+01  0.21290205416E+01 -0.18107348177E+03  0.18115288048E+03  0.00000000000E+00 0.  1.
</event>
<event>
 7    1  0.6485470E-006  0.1340363E+03  0.7818608E-02  0.1381288E+00
          2   -1    0    0  502    0  0.00000000000E+00  0.00000000000E+00  0.48099857805E+03  0.48099857805E+03  0.00000000000E+00 0. -1.
          1   -1    0    0  501    0 -0.00000000000E+00 -0.00000000000E+00 -0.12562459728E+04  0.12562459728E+04  0.00000000000E+00 0. -1.
         25    2    1    2    0    0 -0.77193521087E+02  0.14404071016E+03 -0.18394895789E+03  0.27598726856E+03  0.12500074966E+03 0.  0.
          2    1    1    2  501    0  0.14502205759E+02 -0.27035875749E+02 -0.10159137842E+04  0.10163769328E+04  0.00000000000E+00 0. -1.
          1    1    1    2  502    0  0.62691315328E+02 -0.11700483441E+03  0.42461534728E+03  0.44488034957E+03  0.00000000000E+00 0. -1.
         22    1    3    3    0    0 -0.67792994296E+02  0.27277902770E+02 -0.12513863741E+03  0.14491256891E+03  0.00000000000E+00 0. -1.
         22    1    3    3    0    0 -0.94005267906E+01  0.11676280739E+03 -0.58810320484E+02  0.13107469965E+03  0.00000000000E+00 0. -1.
</event>
<event>
 7    1  0.6485470E-006  0.8323015E+02  0.7818608E-02  0.1440295E+00
          2   -1    0    0  502    0  0.00000000000E+00  0.00000000000E+00  0.17117867957E+04  0.17117867957E+04  0.00000000000E+00 0. -1.
          1   -1    0    0  501    0 -0.00000000000E+00 -0.00000000000E+00 -0.13149390599E+03  0.13149390599E+03  0.00000000000E+00 0. -1.
         25    2    1    2    0    0 -0.11321125569E+03 -0.78234539176E+01  0.54997089177E+03  0.57530088775E+03  0.12500053918E+03 0.  0.
          2    1    1    2  501    0  0.82408589536E+02  0.29431332418E+01 -0.10428285585E+03  0.13294642412E+03  0.00000000000E+00 0. -1.
          1    1    1    2  502    0  0.30802666150E+02  0.48803206758E+01  0.11346048538E+04  0.11350333899E+04  0.00000000000E+00 0. -1.
         22    1    3    3    0    0 -0.56333547676E+02 -0.41576709098E+02  0.11003778702E+03  0.13042394683E+03  0.00000000000E+00 0. -1.
         22    1    3    3    0    0 -0.56877708010E+02  0.33753255180E+02  0.43993310475E+03  0.44487694092E+03  0.00000000000E+00 0. -1.
</event>
<event>
 7    1  0.6485470E-006  0.1605535E+03  0.7818608E-02  0.1229141E+00
          2   -1    0    0  502    0  0.00000000000E+00  0.00000000000E+00  0.45113299903E+03  0.45113299903E+03  0.00000000000E+00 0. -1.
          1   -1    0    0  501    0 -0.00000000000E+00 -0.00000000000E+00 -0.46165670812E+03  0.46165670812E+03  0.00000000000E+00 0. -1.
         25    2    1    2    0    0 -0.22202500490E+03 -0.92110338271E+02  0.14935335835E+03  0.30937222897E+03  0.12500133273E+03 0.  0.
          2    1    1    2  501    0  0.99876338691E+02  0.26916574815E+02 -0.35184058724E+03  0.36673094206E+03  0.00000000000E+00 0. -1.
          1    1    1    2  502    0  0.12214866621E+03  0.65193763456E+02  0.19196351980E+03  0.23668653613E+03  0.00000000000E+00 0. -1.
         22    1    3    3    0    0 -0.10643543205E+03 -0.22095326326E+02  0.10209783277E+01  0.10870946158E+03  0.00000000000E+00 0. -1.
         22    1    3    3    0    0 -0.11558957286E+03 -0.70015011945E+02  0.14833238002E+03  0.20066276738E+03  0.00000000000E+00 0. -1.
</event>
<event>
 7    1  0.6485470E-006  0.3349372E+02  0.7818608E-02  0.1626659E+00
          2   -1    0    0  502    0  0.00000000000E+00  0.00000000000E+00  0.33136569762E+03  0.33136569762E+03  0.00000000000E+00 0. -1.
          1   -1    0    0  501    0 -0.00000000000E+00 -0.00000000000E+00 -0.15788980760E+04  0.15788980760E+04  0.00000000000E+00 0. -1.
         25    2    1    2    0    0 -0.35632205685E+02 -0.14590558579E+02 -0.29278293189E+03  0.32067100772E+03  0.12500204599E+03 0.  0.
          2    1    1    2  501    0  0.30738855099E+01  0.22478847935E+02 -0.12711857038E+04  0.12713881551E+04  0.00000000000E+00 0. -1.
          1    1    1    2  502    0  0.32558320175E+02 -0.78882893553E+01  0.31643625737E+03  0.31820461074E+03  0.00000000000E+00 0. -1.
         22    1    3    3    0    0  0.19207196144E+02  0.29914912298E+02 -0.24318980982E+02  0.43072394843E+02  0.00000000000E+00 0. -1.
         22    1    3    3    0    0 -0.54839401830E+02 -0.44505470878E+02 -0.26846395091E+03  0.27759861287E+03  0.00000000000E+00 0. -1.
</event>
<event>
 7    1  0.6485470E-006  0.1586883E+03  0.7818608E-02  0.1198082E+00
          2   -1    0    0  502    0  0.00000000000E+00  0.00000000000E+00  0.33787708136E+04  0.33787708136E+04  0.00000000000E+00 0. -1.
          1   -1    0    0  501    0 -0.00000000000E+00 -0.00000000000E+00 -0.34101502767E+03  0.34101502767E+03  0.00000000000E+00 0. -1.
         25    2    1    2    0    0  0.91929752541E+01  0.19476293560E+03  0.15791457279E+03  0.28031528811E+03  0.12499014589E+03 0.  0.
          2    1    1    2  501    0  0.11246060474E+03 -0.11490795503E+03 -0.25488981223E+03  0.30136363770E+03  0.00000000000E+00 0. -1.
          1    1    1    2  502    0 -0.12165358000E+03 -0.79854980568E+02  0.31347310254E+04  0.31381069155E+04  0.00000000000E+00 0. -1.
         22    1    3    3    0    0  0.17801360634E+02  0.18010702880E+03  0.75390616681E+02  0.19605911187E+03  0.00000000000E+00 0.  1.
         22    1    3    3    0    0 -0.86083853795E+01  0.14655906805E+02  0.82523956110E+02  0.84256176243E+02  0.00000000000E+00 0.  1.
</event>
<event>
 7    1  0.6485470E-006  0.9147501E+02  0.7818608E-02  0.1366897E+00
          2   -1    0    0  502    0  0.00000000000E+00  0.00000000000E+00  0.27149635996E+04  0.27149635996E+04  0.00000000000E+00 0. -1.
          1   -1    0    0  501    0 -0.00000000000E+00 -0.00000000000E+00 -0.85366469958E+03  0.85366469958E+03  0.00000000000E+00 0. -1.
         25    2    1    2    0    0 -0.27918242054E+02 -0.49252681407E+02  0.58044429180E+02  0.14899424497E+03  0.12499949763E+03 0.  0.
          2    1    1    2  501    0  0.78522255257E+02  0.48969315641E+02 -0.80529453260E+03  0.81059424046E+03  0.00000000000E+00 0. -1.
          1    1    1    2  502    0 -0.50604013204E+02  0.28336576551E+00  0.26085490034E+04  0.26090398137E+04  0.00000000000E+00 0. -1.
         22    1    3    3    0    0 -0.24007597000E+02 -0.23874370246E+02  0.96773860075E+02  0.10252575414E+03  0.00000000000E+00 0. -1.
         22    1    3    3    0    0 -0.39106450538E+01 -0.25378311160E+02 -0.38729430895E+02  0.46468490825E+02  0.00000000000E+00 0. -1.
</event>
<event>
 7    1  0.6485470E-006  0.4910769E+02  0.7818608E-02  0.1540333E+00
          2   -1    0    0  502    0  0.00000000000E+00  0.00000000000E+00  0.31564882378E+04  0.31564882378E+04  0.00000000000E+00 0. -1.
          1   -1    0    0  501    0 -0.00000000000E+00 -0.00000000000E+00 -0.55001960678E+03  0.55001960678E+03  0.00000000000E+00 0. -1.
         25    2    1    2    0    0  0.30104543811E+02  0.14146379601E+01  0.25464351682E+03  0.28526648185E+03  0.12500144099E+03 0.  0.
          2    1    1    2  501    0  0.14983770504E+02 -0.21633702440E+02 -0.53417270422E+03  0.53482053850E+03  0.00000000000E+00 0. -1.
          1    1    1    2  502    0 -0.45088314315E+02  0.20219064480E+02  0.28859978184E+04  0.28864208242E+04  0.00000000000E+00 0. -1.
         22    1    3    3    0    0 -0.46699738844E+02 -0.15233084287E+02  0.11450295855E+03  0.12459470286E+03  0.00000000000E+00 0.  1.
         22    1    3    3    0    0  0.76804282655E+02  0.16647722247E+02  0.14014055827E+03  0.16067177899E+03  0.00000000000E+00 0.  1.
</event>
<event>
 7    1  0.6485470E-006  0.4220850E+03  0.7818608E-02  0.1189990E+00
          2   -1    0    0  502    0  0.00000000000E+00  0.00000000000E+00  0.21080439606E+03  0.21080439606E+03  0.00000000000E+00 0. -1.
          1   -1    0    0  501    0 -0.00000000000E+00 -0.00000000000E+00 -0.37436033715E+04  0.37436033715E+04  0.00000000000E+00 0. -1.
         25    2    1    2    0    0 -0.40922481640E+03  0.17495930485E+03 -0.63191409343E+03  0.78295331088E+03  0.12499902730E+03 0.  0.
          2    1    1    2  501    0  0.36128840685E+03 -0.21069350437E+03 -0.30143359994E+04  0.30432125431E+04  0.00000000000E+00 0. -1.
          1    1    1    2  502    0  0.47936409552E+02  0.35734199511E+02  0.11345111732E+03  0.12824191357E+03  0.00000000000E+00 0. -1.
         22    1    3    3    0    0 -0.38113528039E+03  0.18028005909E+03 -0.62435502012E+03  0.75338183733E+03  0.00000000000E+00 0.  1.
         22    1    3    3    0    0 -0.28089536005E+02 -0.53207542368E+01 -0.75590733112E+01  0.29571473550E+02  0.00000000000E+00 0.  1.
</event>
<event>
 7    1  0.6485470E-006  0.1731478E+03  0.7818608E-02  0.1334565E+00
          2   -1    0    0  502    0  0.00000000000E+00  0.00000000000E+00  0.89048606090E+03  0.89048606090E+03  0.00000000000E+00 0. -1.
          1   -1    0    0  501    0 -0.00000000000E+00 -0.00000000000E+00 -0.73839262694E+03  0.73839262694E+03  0.00000000000E+00 0. -1.
         25    2    1    2    0    0  0.80155597898E+02 -0.13806653569E+03 -0.33974716452E+03  0.39565246901E+03  0.12500180911E+03 0.  0.
          2    1    1    2  501    0 -0.23713693307E+02 -0.26037108162E+02 -0.36109863754E+03  0.36281192963E+03  0.00000000000E+00 0. -1.
          1    1    1    2  502    0 -0.56441904590E+02  0.16410364386E+03  0.85293923601E+03  0.87041428920E+03  0.00000000000E+00 0. -1.
         22    1    3    3    0    0  0.99192922777E+02 -0.14280079070E+03 -0.25480930151E+03  0.30847865710E+03  0.00000000000E+00 0. -1.
         22    1    3    3    0    0 -0.19037324880E+02  0.47342550064E+01 -0.84937863013E+02  0.87173811906E+02  0.00000000000E+00 0. -1.
</event>
<event>
 7    1  0.6485470E-006  0.4210425E+02  0.7818608E-02  0.1502693E+00
          2   -1    0    0  502    0  0.00000000000E+00  0.00000000000E+00  0.26584309437E+04  0.26584309437E+04  0.00000000000E+00 0. -1.
          1   -1    0    0  501    0 -0.00000000000E+00 -0.00000000000E+00 -0.22389767206E+03  0.22389767206E+03  0.00000000000E+00 0. -1.
         25    2    1    2    0    0  0.18844283683E+02 -0.55367338552E+02 -0.49658888587E+02  0.14666835114E+03  0.12499980322E+03 0.  0.
          2    1    1    2  501    0 -0.35708082352E+02  0.16789914187E+02 -0.12246410731E+03  0.12866400407E+03  0.00000000000E+00 0. -1.
          1    1    1    2  502    0  0.16863798669E+02  0.38577424365E+02  0.26066562675E+04  0.26069962605E+04  0.00000000000E+00 0. -1.
         22    1    3    3    0    0  0.13660349052E+02 -0.90746161587E+02 -0.59761290853E+02  0.10951202155E+03  0.00000000000E+00 0.  1.
         22    1    3    3    0    0  0.51839346313E+01  0.35378823035E+02  0.10102402267E+02  0.37156329597E+02  0.00000000000E+00 0.  1.
</event>
<event>
 7    1  0.6485470E-006  0.3791084E+02  0.7818608E-02  0.1530305E+00
          2   -1    0    0  502    0  0.00000000000E+00  0.00000000000E+00  0.37334279872E+03  0.37334279872E+03  0.00000000000E+00 0. -1.
          1   -1    0    0  501    0 -0.00000000000E+00 -0.00000000000E+00 -0.65552026606E+02  0.65552026606E+02  0.00000000000E+00 0. -1.
         25    2    1    2    0    0 -0.28757986038E+02 -0.18349487964E+02  0.31619283523E+03  0.34171237970E+03  0.12500286366E+03 0.  0.
          2    1    1    2  501    0  0.23151215261E+02 -0.30020880265E+02 -0.25370034119E+02  0.45616561149E+02  0.00000000000E+00 0. -1.
          1    1    1    2  502    0  0.56067707775E+01  0.48370368229E+02  0.16967971003E+02  0.51565884469E+02  0.00000000000E+00 0. -1.
         22    1    3    3    0    0 -0.33664488015E+02 -0.63459577889E+02  0.11600450001E+03  0.13644581269E+03  0.00000000000E+00 0. -1.
         22    1    3    3    0    0  0.49065019764E+01  0.45110089925E+02  0.20018833522E+03  0.20526656701E+03  0.00000000000E+00 0. -1.
</event>
<event>
 7    1  0.6485470E-006  0.6246703E+02  0.7818608E-02  0.1477506E+00
          2   -1    0    0  502    0  0.00000000000E+00  0.00000000000E+00  0.49116207901E+02  0.49116207901E+02  0.00000000000E+00 0. -1.
          1   -1    0    0  501    0 -0.00000000000E+00 -0.00000000000E+00 -0.17639375477E+04  0.17639375477E+04  0.00000000000E+00 0. -1.
         25    2    1    2    0    0  0.52436366431E+02  0.33189714028E+02 -0.44055808642E+03  0.46213429032E+03  0.12500218053E+03 0.  0.
          2    1    1    2  501    0 -0.62937237924E+02 -0.32830373764E+01 -0.13051452177E+04  0.13066659533E+04  0.00000000000E+00 0. -1.
          1    1    1    2  502    0  0.10500871493E+02 -0.29906676651E+02  0.30881964261E+02  0.44253512031E+02  0.00000000000E+00 0. -1.
         22    1    3    3    0    0  0.53677158962E+02 -0.21146996954E+02 -0.36223507736E+03  0.36680060543E+03  0.00000000000E+00 0. -1.
         22    1    3    3    0    0 -0.12407925316E+01  0.54336710982E+02 -0.78323009064E+02  0.95333684893E+02  0.00000000000E+00 0. -1.
</event>
<event>
 7    1  0.6485470E-006  0.9227686E+02  0.7818608E-02  0.1480761E+00
          2   -1    0    0  502    0  0.00000000000E+00  0.00000000000E+00  0.11614781171E+04  0.11614781171E+04  0.00000000000E+00 0. -1.
          1   -1    0    0  501    0 -0.00000000000E+00 -0.00000000000E+00 -0.10353805703E+03  0.10353805703E+03  0.00000000000E+00 0. -1.
         25    2    1    2    0    0  0.14139347048E+02  0.76296808149E+02  0.22761016575E+03  0.27102109190E+03  0.12499968253E+03 0.  0.
          2    1    1    2  501    0 -0.27727258656E+01 -0.93917542232E+02 -0.54697135270E+02  0.10871968246E+03  0.00000000000E+00 0. -1.
          1    1    1    2  502    0 -0.11366621182E+02  0.17620734083E+02  0.88502702962E+03  0.88527539981E+03  0.00000000000E+00 0. -1.
         22    1    3    3    0    0 -0.57553384641E+01 -0.24373018235E+02  0.11897747934E+03  0.12158457356E+03  0.00000000000E+00 0. -1.
         22    1    3    3    0    0  0.19894685512E+02  0.10066982638E+03  0.10863268641E+03  0.14943651833E+03  0.00000000000E+00 0. -1.
</event>
<event>
 7    1  0.6485470E-006  0.8650369E+02  0.7818608E-02  0.1342920E+00
          2   -1    0    0  502    0  0.00000000000E+00  0.00000000000E+00  0.65454328809E+03  0.65454328809E+03  0.00000000000E+00 0. -1.
          1   -1    0    0  501    0 -0.00000000000E+00 -0.00000000000E+00 -0.11603116915E+03  0.11603116915E+03  0.00000000000E+00 0. -1.
         25    2    1    2    0    0 -0.14435734819E+01 -0.93733154843E+02  0.43723380062E+03  0.46431549690E+03  0.12500998373E+03 0.  0.
          2    1    1    2  501    0 -0.60100797468E+02  0.26194389786E+02 -0.79892941724E+02  0.10334957208E+03  0.00000000000E+00 0. -1.
          1    1    1    2  502    0  0.61544370950E+02  0.67538765057E+02  0.18117126004E+03  0.20290938826E+03  0.00000000000E+00 0. -1.
         22    1    3    3    0    0  0.52242939695E+02 -0.22816591843E+02  0.95732418463E+02  0.11142090269E+03  0.00000000000E+00 0. -1.
         22    1    3    3    0    0 -0.53686513177E+02 -0.70916562999E+02  0.34150138216E+03  0.35289459421E+03  0.00000000000E+00 0. -1.
</event>
<event>
 7    1  0.1595340E-005  0.7527211E+02  0.7818608E-02  0.1355483E+00
          2   -1    0    0  502    0  0.00000000000E+00  0.00000000000E+00  0.12205537964E+04  0.12205537964E+04  0.00000000000E+00 0. -1.
          1   -1    0    0  501    0 -0.00000000000E+00 -0.00000000000E+00 -0.19262955076E+04  0.19262955076E+04  0.00000000000E+00 0. -1.
         25    2    1    2    0    0 -0.78232129001E+01  0.62447826200E+01 -0.64986305203E+03  0.66185164605E+03  0.12500166005E+03 0.  0.
          2    1    1    2  501    0  0.78472513164E+02  0.19727650747E+02 -0.12679811321E+04  0.12705602178E+04  0.00000000000E+00 0. -1.
          1    1    1    2  502    0 -0.70649300264E+02 -0.25972433367E+02  0.12121024730E+04  0.12144374401E+04  0.00000000000E+00 0. -1.
         22    1    3    3    0    0 -0.25932426662E+02 -0.26737251046E+02 -0.58881751444E+02  0.69673754019E+02  0.00000000000E+00 0.  1.
         22    1    3    3    0    0  0.18109213762E+02  0.32982033666E+02 -0.59098130058E+03  0.59217789203E+03  0.00000000000E+00 0.  1.
</event>
<event>
 7    1  0.6485470E-006  0.4998407E+02  0.7818608E-02  0.1564241E+00
          2   -1    0    0  502    0  0.00000000000E+00  0.00000000000E+00  0.14688373811E+04  0.14688373811E+04  0.00000000000E+00 0. -1.
          1   -1    0    0  501    0 -0.00000000000E+00 -0.00000000000E+00 -0.45404044950E+02  0.45404044950E+02  0.00000000000E+00 0. -1.
         25    2    1    2    0    0 -0.38845005230E+02  0.48822092430E+01  0.37194034108E+03  0.39433156816E+03  0.12499999172E+03 0.  0.
          2    1    1    2  501    0  0.48366032927E+02  0.15155036086E+02 -0.15255367791E+02  0.52930846454E+02  0.00000000000E+00 0. -1.
          1    1    1    2  502    0 -0.95210276971E+01 -0.20037245329E+02  0.10667483628E+04  0.10669790114E+04  0.00000000000E+00 0. -1.
         22    1    3    3    0    0 -0.28987377171E+02 -0.23352099394E+02  0.36033576986E+03  0.36225330312E+03  0.00000000000E+00 0.  1.
         22    1    3    3    0    0 -0.98576280594E+01  0.28234308637E+02  0.11604571225E+02  0.32078265048E+02  0.00000000000E+00 0.  1.
</event>
<event>
 7    1  0.6485470E-006  0.6207067E+02  0.7818608E-02  0.1420409E+00
          2   -1    0    0  502    0  0.00000000000E+00  0.00000000000E+00  0.14483606263E+03  0.14483606263E+03  0.00000000000E+00 0. -1.
          1   -1    0    0  501    0 -0.00000000000E+00 -0.00000000000E+00 -0.23630040507E+04  0.23630040507E+04  0.00000000000E+00 0. -1.
         25    2    1    2    0    0 -0.12062073653E+02 -0.70441881992E+01 -0.75883161669E+03  0.76918510060E+03  0.12500072910E+03 0.  0.
          2    1    1    2  501    0 -0.38837469053E+02 -0.29247506713E+02 -0.15916105239E+04  0.15923529211E+04  0.00000000000E+00 0. -1.
          1    1    1    2  502    0  0.50899542706E+02  0.36291694912E+02  0.13227415255E+03  0.14630209158E+03  0.00000000000E+00 0. -1.
         22    1    3    3    0    0  0.23019931597E+02  0.39211858158E+02 -0.13083871745E+03  0.13851446515E+03  0.00000000000E+00 0. -1.
         22    1    3    3    0    0 -0.35082005250E+02 -0.46256046357E+02 -0.62799289925E+03  0.63067063545E+03  0.00000000000E+00 0. -1.
</event>
<event>
 7    1  0.6485470E-006  0.1404734E+03  0.7818608E-02  0.1313611E+00
          2   -1    0    0  502    0  0.00000000000E+00  0.00000000000E+00  0.13730622536E+04  0.13730622536E+04  0.00000000000E+00 0. -1.
          1   -1    0    0  501    0 -0.00000000000E+00 -0.00000000000E+00 -0.73878318248E+03  0.73878318248E+03  0.00000000000E+00 0. -1.
         25    2    1    2    0    0  0.32781607822E+02 -0.16156955802E+03 -0.25583727401E+03  0.32902451947E+03  0.12500027098E+03 0.  0.
          2    1    1    2  501    0 -0.63474881396E+02  0.11924281873E+03 -0.43560459805E+03  0.45606937655E+03  0.00000000000E+00 0. -1.
          1    1    1    2  502    0  0.30693273574E+02  0.42326739288E+02  0.13257209432E+04  0.13267515401E+04  0.00000000000E+00 0. -1.
         22    1    3    3    0    0  0.41799808132E+02 -0.14108640862E+03 -0.11590578821E+03  0.18731457605E+03  0.00000000000E+00 0. -1.
         22    1    3    3    0    0 -0.90182003103E+01 -0.20483149398E+02 -0.13993148580E+03  0.14170994342E+03  0.00000000000E+00 0. -1.
</event>
<event>
 7    1  0.6485470E-006  0.9239623E+02  0.7818608E-02  0.1472558E+00
          2   -1    0    0  502    0  0.00000000000E+00  0.00000000000E+00  0.15834839203E+04  0.15834839203E+04  0.00000000000E+00 0. -1.
          1   -1    0    0  501    0 -0.00000000000E+00 -0.00000000000E+00 -0.22920733964E+03  0.22920733964E+03  0.00000000000E+00 0. -1.
         25    2    1    2    0    0 -0.68550495457E+01 -0.73890074604E+02  0.15466999514E+02  0.14618803904E+03  0.12499991942E+03 0.  0.
          2    1    1    2  501    0 -0.15072791179E+02 -0.16294669933E+02 -0.16165453335E+03  0.16317136224E+03  0.00000000000E+00 0. -1.
          1    1    1    2  502    0  0.21927840725E+02  0.90184744536E+02  0.15004641145E+04  0.15033318586E+04  0.00000000000E+00 0. -1.
         22    1    3    3    0    0  0.36099263903E+02 -0.97413346157E+01 -0.37191190419E+02  0.52737416501E+02  0.00000000000E+00 0. -1.
         22    1    3    3    0    0 -0.42954313449E+02 -0.64148739988E+02  0.52658189933E+02  0.93450622539E+02  0.00000000000E+00 0. -1.
</event>
<event>
 7    1  0.6485470E-006  0.7616920E+02  0.7818608E-02  0.1484975E+00
          2   -1    0    0  502    0  0.00000000000E+00  0.00000000000E+00  0.81081912927E+03  0.81081912927E+03  0.00000000000E+00 0. -1.
          1   -1    0    0  501    0 -0.00000000000E+00 -0.00000000000E+00 -0.96514464258E+02  0.96514464258E+02  0.00000000000E+00 0. -1.
         25    2    1    2    0    0  0.53033043893E+01  0.94580405430E+02  0.59097546362E+02  0.16760465887E+03  0.12500089424E+03 0.  0.
          2    1    1    2  501    0  0.26863828423E+01 -0.71249612545E+02 -0.11796565694E+02  0.72269515722E+02  0.00000000000E+00 0. -1.
          1    1    1    2  502    0 -0.79896872316E+01 -0.23330792886E+02  0.66700368434E+03  0.66745941893E+03  0.00000000000E+00 0. -1.
         22    1    3    3    0    0  0.45640454292E+02  0.26602455617E+02  0.70122466556E+02  0.87794658315E+02  0.00000000000E+00 0. -1.
         22    1    3    3    0    0 -0.40337149902E+02  0.67977949813E+02 -0.11024920194E+02  0.79810000554E+02  0.00000000000E+00 0. -1.
</event>
<event>
 7    1  0.6485470E-006  0.1225319E+03  0.7818608E-02  0.1244848E+00
          2   -1    0    0  502    0  0.00000000000E+00  0.00000000000E+00  0.19737535415E+04  0.19737535415E+04  0.00000000000E+00 0. -1.
          1   -1    0    0  501    0 -0.00000000000E+00 -0.00000000000E+00 -0.19377574921E+03  0.19377574921E+03  0.00000000000E+00 0. -1.
         25    2    1    2    0    0 -0.27383187976E+02 -0.10361832473E+02  0.15441960291E+03  0.20081705503E+03  0.12499947709E+03 0.  0.
          2    1    1    2  501    0 -0.43057523043E+02  0.11471755925E+03 -0.14604602650E+03  0.19063974021E+03  0.00000000000E+00 0. -1.
          1    1    1    2  502    0  0.70440711019E+02 -0.10435572678E+03  0.17716042159E+04  0.17760724955E+04  0.00000000000E+00 0. -1.
         22    1    3    3    0    0  0.52831501406E+01 -0.44414542034E+02  0.14623819632E+03  0.15292538469E+03  0.00000000000E+00 0. -1.
         22    1    3    3    0    0 -0.32666338117E+02  0.34052709561E+02  0.81814065918E+01  0.47891670342E+02  0.00000000000E+00 0. -1.
</event>
<event>
 7    1  0.6485470E-006  0.4583954E+02  0.7818608E-02  0.1534321E+00
          2   -1    0    0  502    0  0.00000000000E+00  0.00000000000E+00  0.20954967965E+04  0.20954967965E+04  0.00000000000E+00 0. -1.
          1   -1    0    0  501    0 -0.00000000000E+00 -0.00000000000E+00 -0.32262511128E+02  0.32262511128E+02  0.00000000000E+00 0. -1.
         25    2    1    2    0    0  0.49179844129E+02  0.34169273092E+02  0.24609686512E+03  0.28244408322E+03  0.12499918733E+03 0.  0.
          2    1    1    2  501    0 -0.28558244585E+02  0.66461145133E+01  0.17730132414E+01  0.29374951027E+02  0.00000000000E+00 0. -1.
          1    1    1    2  502    0 -0.20621599545E+02 -0.40815387605E+02  0.18153644070E+04  0.18159402733E+04  0.00000000000E+00 0. -1.
         22    1    3    3    0    0  0.43702274001E+02 -0.40670810816E+02  0.14271929324E+03  0.15470229561E+03  0.00000000000E+00 0.  1.
         22    1    3    3    0    0  0.54775701281E+01  0.74840083908E+02  0.10337757188E+03  0.12774178761E+03  0.00000000000E+00 0.  1.
</event>
<event>
 7    1  0.6485470E-006  0.2811838E+03  0.7818608E-02  0.1194399E+00
          2   -1    0    0  502    0  0.00000000000E+00  0.00000000000E+00  0.65045693639E+03  0.65045693639E+03  0.00000000000E+00 0. -1.
          1   -1    0    0  501    0 -0.00000000000E+00 -0.00000000000E+00 -0.69540147337E+03  0.69540147337E+03  0.00000000000E+00 0. -1.
         25    2    1    2    0    0  0.30603820058E+03 -0.13507270920E+03  0.22354493121E+03  0.42130966172E+03  0.12500191118E+03 0.  0.
          2    1    1    2  501    0 -0.63379483174E+02  0.57387302401E+02 -0.54318971511E+03  0.54987755725E+03  0.00000000000E+00 0. -1.
          1    1    1    2  502    0 -0.24265871740E+03  0.77685406801E+02  0.27470024691E+03  0.37467119080E+03  0.00000000000E+00 0. -1.
         22    1    3    3    0    0  0.12887558908E+03  0.39001394935E+01  0.55617327663E+02  0.14041871558E+03  0.00000000000E+00 0. -1.
         22    1    3    3    0    0  0.17716261150E+03 -0.13897284870E+03  0.16792760355E+03  0.28089094614E+03  0.00000000000E+00 0. -1.
</event>
<event>
 7    1  0.6485470E-006  0.1705116E+03  0.7818608E-02  0.1244048E+00
          2   -1    0    0  502    0  0.00000000000E+00  0.00000000000E+00  0.33716305451E+03  0.33716305451E+03  0.00000000000E+00 0. -1.
          1   -1    0    0  501    0 -0.00000000000E+00 -0.00000000000E+00 -0.80127170301E+03  0.80127170301E+03  0.00000000000E+00 0. -1.
         25    2    1    2    0    0  0.33848238859E+01 -0.21318923996E+03  0.82908961864E+01  0.24729860680E+03  0.12500701141E+03 0.  0.
          2    1    1    2  501    0 -0.57571926891E+02  0.60679270327E+02 -0.64739076642E+03  0.65277201615E+03  0.00000000000E+00 0. -1.
          1    1    1    2  502    0  0.54187103005E+02  0.15250996963E+03  0.17499122173E+03  0.23836413458E+03  0.00000000000E+00 0. -1.
         22    1    3    3    0    0 -0.11463083742E+02 -0.13416054613E+03 -0.54514935272E+02  0.14526641937E+03  0.00000000000E+00 0.  1.
         22    1    3    3    0    0  0.14847907628E+02 -0.79028693821E+02  0.62805831458E+02  0.10203218744E+03  0.00000000000E+00 0.  1.
</event>
<event>
 7    1  0.6485470E-006  0.1073400E+03  0.7818608E-02  0.1315615E+00
          2   -1    0    0  502    0  0.00000000000E+00  0.00000000000E+00  0.27240519331E+04  0.27240519331E+04  0.00000000000E+00 0. -1.
          1   -1    0    0  501    0 -0.00000000000E+00 -0.00000000000E+00 -0.65788397790E+03  0.65788397790E+03  0.00000000000E+00 0. -1.
         25    2    1    2    0    0  0.64633902976E+02 -0.89355635858E+02  0.10088018297E+04  0.10224814619E+04  0.12500094911E+03 0.  0.
          2    1    1    2  501    0 -0.63660059728E+02 -0.21520820963E+02 -0.64750435821E+03  0.65098206030E+03  0.00000000000E+00 0. -1.
          1    1    1    2  502    0 -0.97384324846E+00  0.11087645682E+03  0.17048704837E+04  0.17084723888E+04  0.00000000000E+00 0. -1.
         22    1    3    3    0    0 -0.82901878916E+01  0.19884466555E+02  0.46388731696E+02  0.51147176402E+02  0.00000000000E+00 0.  1.
         22    1    3    3    0    0  0.72924090868E+02 -0.10924010241E+03  0.96241309803E+03  0.97133428554E+03  0.00000000000E+00 0.  1.
</event>
<event>
 7    1  0.6485470E-006  0.1480063E+03  0.7818608E-02  0.1290261E+00
          2   -1    0    0  502    0  0.00000000000E+00  0.00000000000E+00  0.38251218802E+04  0.38251218802E+04  0.00000000000E+00 0. -1.
          1   -1    0    0  501    0 -0.00000000000E+00 -0.00000000000E+00 -0.28559921393E+03  0.28559921393E+03  0.00000000000E+00 0. -1.
         25    2    1    2    0    0  0.21239165599E+02 -0.87233254754E+02  0.12519910064E+04  0.12614147925E+04  0.12500022337E+03 0.  0.
          2    1    1    2  501    0 -0.55858056245E+02  0.13806557899E+03 -0.26074719511E+03  0.30028540808E+03  0.00000000000E+00 0. -1.
          1    1    1    2  502    0  0.34618890646E+02 -0.50832324234E+02  0.25482788550E+04  0.25490208935E+04  0.00000000000E+00 0. -1.
         22    1    3    3    0    0 -0.66390424911E+01 -0.10018205010E+03  0.11617852961E+04  0.11661156008E+04  0.00000000000E+00 0. -1.
         22    1    3    3    0    0  0.27878208090E+02  0.12948795343E+02  0.90205710246E+02  0.95299191750E+02  0.00000000000E+00 0. -1.
</event>
<event>
 7    1  0.6485470E-006  0.6300438E+02  0.7818608E-02  0.1422679E+00
          2   -1    0    0  502    0  0.00000000000E+00  0.00000000000E+00  0.40042122672E+03  0.40042122672E+03  0.00000000000E+00 0. -1.
          1   -1    0    0  501    0 -0.00000000000E+00 -0.00000000000E+00 -0.75630849467E+02  0.75630849467E+02  0.00000000000E+00 0. -1.
         25    2    1    2    0    0  0.51335966422E+02  0.82461633481E+02  0.20407351995E+03  0.25827583353E+03  0.12500040878E+03 0.  0.
          2    1    1    2  501    0 -0.38807931555E+02 -0.26638703928E+02 -0.30506730129E+02  0.56092215875E+02  0.00000000000E+00 0. -1.
          1    1    1    2  502    0 -0.12528034866E+02 -0.55822929553E+02  0.15122358743E+03  0.16168402678E+03  0.00000000000E+00 0. -1.
         22    1    3    3    0    0  0.34202421455E+02  0.67908140069E+02  0.28393717178E+02  0.81163565078E+02  0.00000000000E+00 0.  1.
         22    1    3    3    0    0  0.17133544966E+02  0.14553493412E+02  0.17567980277E+03  0.17711226845E+03  0.00000000000E+00 0.  1.
</event>
<event>
 7    1  0.6485470E-006  0.7698797E+02  0.7818608E-02  0.1367983E+00
          2   -1    0    0  502    0  0.00000000000E+00  0.00000000000E+00  0.25835924092E+04  0.25835924092E+04  0.00000000000E+00 0. -1.
          1   -1    0    0  501    0 -0.00000000000E+00 -0.00000000000E+00 -0.39879182401E+03  0.39879182401E+03  0.00000000000E+00 0. -1.
         25    2    1    2    0    0 -0.27579718745E+02  0.10106894859E+02  0.13101643170E+04  0.13164417737E+04  0.12500246356E+03 0.  0.
          2    1    1    2  501    0  0.33750815476E+02 -0.69373733564E+02 -0.39118479305E+03  0.39871966940E+03  0.00000000000E+00 0. -1.
          1    1    1    2  502    0 -0.61710967313E+01  0.59266838704E+02  0.12658210613E+04  0.12672227902E+04  0.00000000000E+00 0. -1.
         22    1    3    3    0    0 -0.58290661967E+02 -0.34453449628E+02  0.92767210230E+03  0.93013997379E+03  0.00000000000E+00 0. -1.
         22    1    3    3    0    0  0.30710943222E+02  0.44560344487E+02  0.38249221465E+03  0.38630179990E+03  0.00000000000E+00 0. -1.
</event>
<event>
 7    1  0.6485470E-006  0.5838144E+02  0.7818608E-02  0.1417013E+00
          2   -1    0    0  502    0  0.00000000000E+00  0.00000000000E+00  0.24060945589E+04  0.24060945589E+04  0.00000000000E+00 0. -1.
          1   -1    0    0  501    0 -0.00000000000E+00 -0.00000000000E+00 -0.16218133895E+03  0.16218133895E+03  0.00000000000E+00 0. -1.
         25    2    1    2    0    0 -0.34276065693E+01 -0.89650489800E+02  0.84889164917E+02  0.17572347673E+03  0.12499444445E+03 0.  0.
          2    1    1    2  501    0  0.34024095466E+02  0.46298974218E+02 -0.10936693259E+03  0.12354092452E+03  0.00000000000E+00 0. -1.
          1    1    1    2  502    0 -0.30596488897E+02  0.43351515582E+02  0.22683909876E+04  0.22690114966E+04  0.00000000000E+00 0. -1.
         22    1    3    3    0    0  0.19193632711E+02 -0.43373684459E+02  0.10898319501E+03  0.11885709417E+03  0.00000000000E+00 0. -1.
         22    1    3    3    0    0 -0.22621239280E+02 -0.46276805342E+02 -0.24094030091E+02  0.56866382558E+02  0.00000000000E+00 0. -1.
</event>
<event>
 7    1  0.6485470E-006  0.1788021E+03  0.7818608E-02  0.1337025E+00
          2   -1    0    0  502    0  0.00000000000E+00  0.00000000000E+00  0.10355006927E+04  0.10355006927E+04  0.00000000000E+00 0. -1.
          1   -1    0    0  501    0 -0.00000000000E+00 -0.00000000000E+00 -0.29763874966E+04  0.29763874966E+04  0.00000000000E+00 0. -1.
         25    2    1    2    0    0  0.13384368199E+03 -0.14499979253E+03  0.12895462073E+03  0.26682194191E+03  0.12500233370E+03 0.  0.
          2    1    1    2  501    0 -0.13906152034E+03  0.11203004167E+03 -0.29043778776E+04  0.29098624869E+04  0.00000000000E+00 0. -1.
          1    1    1    2  502    0  0.52178383456E+01  0.32969750867E+02  0.83453645299E+03  0.83520376057E+03  0.00000000000E+00 0. -1.
         22    1    3    3    0    0  0.56239656884E+02 -0.28466285959E+02  0.10828579850E+03  0.12529582036E+03  0.00000000000E+00 0.  1.
         22    1    3    3    0    0  0.77604025110E+02 -0.11653350658E+03  0.20668822235E+02  0.14152612155E+03  0.00000000000E+00 0.  1.
</event>
<event>
 7    1  0.6485470E-006  0.6282882E+02  0.7818608E-02  0.1421503E+00
          2   -1    0    0  502    0  0.00000000000E+00  0.00000000000E+00  0.99746506560E+03  0.99746506560E+03  0.00000000000E+00 0. -1.
          1   -1    0    0  501    0 -0.00000000000E+00 -0.00000000000E+00 -0.78663705736E+03  0.78663705736E+03  0.00000000000E+00 0. -1.
         25    2    1    2    0    0 -0.85329349382E+02 -0.48277538348E+02  0.53998870586E+03  0.56287175026E+03  0.12499994486E+03 0.  0.
          2    1    1    2  501    0  0.37736185095E+02  0.50155678366E+02 -0.77264772339E+03  0.77519295417E+03  0.00000000000E+00 0. -1.
          1    1    1    2  502    0  0.47593164287E+02 -0.18781400176E+01  0.44348702578E+03  0.44603741853E+03  0.00000000000E+00 0. -1.
         22    1    3    3    0    0  0.51601432398E+01 -0.65260286569E+02  0.18935819654E+03  0.20035483193E+03  0.00000000000E+00 0. -1.
         22    1    3    3    0    0 -0.90489492622E+02  0.16982748221E+02  0.35063050932E+03  0.36251691833E+03  0.00000000000E+00 0. -1.
</event>
<event>
 7    1  0.6485470E-006  0.6512373E+02  0.7818608E-02  0.1417969E+00
          2   -1    0    0  502    0  0.00000000000E+00  0.00000000000E+00  0.43723591226E+03  0.43723591226E+03  0.00000000000E+00 0. -1.
          1   -1    0    0  501    0 -0.00000000000E+00 -0.00000000000E+00 -0.22234389316E+04  0.22234389316E+04  0.00000000000E+00 0. -1.
         25    2    1    2    0    0 -0.11858757657E+02 -0.13705815535E+02 -0.19821237410E+04  0.19861442463E+04  0.12500385226E+03 0.  0.
          2    1    1    2  501    0 -0.24955938366E+02 -0.40084251744E+02 -0.23449783861E+03  0.23920447824E+03  0.00000000000E+00 0. -1.
          1    1    1    2  502    0  0.36814696023E+02  0.53790067279E+02  0.43041856023E+03  0.43532611933E+03  0.00000000000E+00 0. -1.
         22    1    3    3    0    0  0.21021964268E+02  0.44095645277E+02 -0.46392501416E+03  0.46648983662E+03  0.00000000000E+00 0.  1.
         22    1    3    3    0    0 -0.32880721925E+02 -0.57801460812E+02 -0.15181987268E+04  0.15196544097E+04  0.00000000000E+00 0.  1.
</event>
<event>
 7    1  0.6485470E-006  0.6557028E+02  0.7818608E-02  0.1387705E+00
          2   -1    0    0  502    0  0.00000000000E+00  0.00000000000E+00  0.18434577161E+03  0.18434577161E+03  0.00000000000E+00 0. -1.
          1   -1    0    0  501    0 -0.00000000000E+00 -0.00000000000E+00 -0.10636391654E+04  0.10636391654E+04  0.00000000000E+00 0. -1.
         25    2    1    2    0    0  0.37625579934E+02 -0.10199208115E+03 -0.69426772040E+03  0.71375841508E+03  0.12500135451E+03 0.  0.
          2    1    1    2  501    0 -0.46416910829E+02  0.37285547430E+02 -0.35092407466E+03  0.35593882598E+03  0.00000000000E+00 0. -1.
          1    1    1    2  502    0  0.87913308944E+01  0.64706533720E+02  0.16589840124E+03  0.17828769598E+03  0.00000000000E+00 0. -1.
         22    1    3    3    0    0 -0.33115011320E+02 -0.66898815354E+02 -0.47230060483E+03  0.47816306506E+03  0.00000000000E+00 0.  1.
         22    1    3    3    0    0  0.70740591255E+02 -0.35093265796E+02 -0.22196711557E+03  0.23559535002E+03  0.00000000000E+00 0.  1.
</event>
<event>
 7    1  0.6485470E-006  0.1305856E+03  0.7818608E-02  0.1265258E+00
          2   -1    0    0  502    0  0.00000000000E+00  0.00000000000E+00  0.32150576851E+04  0.32150576851E+04  0.00000000000E+00 0. -1.
          1   -1    0    0  501    0 -0.00000000000E+00 -0.00000000000E+00 -0.40066000278E+02  0.40066000278E+02  0.00000000000E+00 0. -1.
         25    2    1    2    0    0 -0.11793248333E+03 -0.20630823029E-01  0.19056542456E+03  0.25661043443E+03  0.12500265186E+03 0.  0.
          2    1    1    2  501    0  0.17585988388E+02  0.86741804239E+02  0.35935714154E+03  0.37009588320E+03  0.00000000000E+00 0. -1.
          1    1    1    2  502    0  0.10034649494E+03 -0.86721173416E+02  0.26250691187E+04  0.26284173677E+04  0.00000000000E+00 0. -1.
         22    1    3    3    0    0 -0.13795463932E+03  0.20758593600E+02  0.17507116982E+03  0.22385780357E+03  0.00000000000E+00 0. -1.
         22    1    3    3    0    0  0.20022155990E+02 -0.20779224423E+02  0.15494254737E+02  0.32752630856E+02  0.00000000000E+00 0. -1.
</event>
<event>
 7    1  0.6485470E-006  0.7116989E+02  0.7818608E-02  0.1393800E+00
          2   -1    0    0  502    0  0.00000000000E+00  0.00000000000E+00  0.15358340321E+04  0.15358340321E+04  0.00000000000E+00 0. -1.
          1   -1    0    0  501    0 -0.00000000000E+00 -0.00000000000E+00 -0.91402825641E+02  0.91402825641E+02  0.00000000000E+00 0. -1.
         25    2    1    2    0    0 -0.41529134629E+02 -0.32992906716E+02  0.14665718590E+03  0.19986543177E+03  0.12499863889E+03 0.  0.
          2    1    1    2  501    0 -0.30241896984E+02  0.42589097454E+02 -0.53142738299E+02  0.74515462751E+02  0.00000000000E+00 0. -1.
          1    1    1    2  502    0  0.71771031614E+02 -0.95961907378E+01  0.13509167588E+04  0.13528559632E+04  0.00000000000E+00 0. -1.
         22    1    3    3    0    0 -0.56298960278E+02  0.27138890017E+02  0.33588548994E+02  0.70952680733E+02  0.00000000000E+00 0.  1.
         22    1    3    3    0    0  0.14769825649E+02 -0.60131796733E+02  0.11306863691E+03  0.12891275104E+03  0.00000000000E+00 0.  1.
</event>
<event>
 7    1  0.6485470E-006  0.1367329E+03  0.7818608E-02  0.1291201E+00
          2   -1    0    0  502    0  0.00000000000E+00  0.00000000000E+00  0.94202393855E+03  0.94202393855E+03  0.00000000000E+00 0. -1.
          1   -1    0    0  501    0 -0.00000000000E+00 -0.00000000000E+00 -0.40238721563E+03  0.40238721563E+03  0.00000000000E+00 0. -1.
         25    2    1    2    0    0 -0.10960367284E+03 -0.95639080280E+02  0.43647288256E+02  0.19669671858E+03  0.12499885821E+03 0.  0.
          2    1    1    2  501    0  0.13309262037E+03  0.33971788105E+02 -0.30997865347E+03  0.33904939698E+03  0.00000000000E+00 0. -1.
          1    1    1    2  502    0 -0.23488947529E+02  0.61667292175E+02  0.80596808814E+03  0.80866503861E+03  0.00000000000E+00 0. -1.
         22    1    3    3    0    0 -0.89688662986E+02 -0.64209031524E+01  0.53698265027E+02  0.10473198142E+03  0.00000000000E+00 0. -1.
         22    1    3    3    0    0 -0.19915009852E+02 -0.89218177128E+02 -0.10050976771E+02  0.91964737163E+02  0.00000000000E+00 0. -1.
</event>
<event>
 7    1  0.6485470E-006  0.5749718E+02  0.7818608E-02  0.1542210E+00
          2   -1    0    0  502    0  0.00000000000E+00  0.00000000000E+00  0.20221650852E+04  0.20221650852E+04  0.00000000000E+00 0. -1.
          1   -1    0    0  501    0 -0.00000000000E+00 -0.00000000000E+00 -0.19482771650E+03  0.19482771650E+03  0.00000000000E+00 0. -1.
         25    2    1    2    0    0  0.31848007468E+02 -0.72099204270E+02  0.35883188928E+03  0.38806937119E+03  0.12499968502E+03 0.  0.
          2    1    1    2  501    0 -0.67964467805E+01  0.21137985457E+02 -0.17903401311E+03  0.18040560958E+03  0.00000000000E+00 0. -1.
          1    1    1    2  502    0 -0.25051560687E+02  0.50961218813E+02  0.16475394925E+04  0.16485178209E+04  0.00000000000E+00 0. -1.
         22    1    3    3    0    0 -0.35763611861E+02 -0.54655764878E+02  0.95948422248E+02  0.11607061773E+03  0.00000000000E+00 0. -1.
         22    1    3    3    0    0  0.67611619328E+02 -0.17443439392E+02  0.26288346703E+03  0.27199875346E+03  0.00000000000E+00 0. -1.
</event>
<event>
 7    1  0.6485470E-006  0.1731482E+03  0.7818608E-02  0.1373873E+00
          2   -1    0    0  502    0  0.00000000000E+00  0.00000000000E+00  0.24916516094E+04  0.24916516094E+04  0.00000000000E+00 0. -1.
          1   -1    0    0  501    0 -0.00000000000E+00 -0.00000000000E+00 -0.23944637567E+03  0.23944637567E+03  0.00000000000E+00 0. -1.
         25    2    1    2    0    0  0.14706434822E+03 -0.68957116814E+02 -0.37025626729E+02  0.20828075410E+03  0.12500787582E+03 0.  0.
          2    1    1    2  501    0  0.18485870678E+02  0.17178531087E+02 -0.11226438446E+03  0.11506572628E+03  0.00000000000E+00 0. -1.
          1    1    1    2  502    0 -0.16555021890E+03  0.51778585727E+02  0.24014952450E+04  0.24077515047E+04  0.00000000000E+00 0. -1.
         22    1    3    3    0    0  0.84763504913E+02 -0.43797598107E+02 -0.83333703230E+02  0.12667907270E+03  0.00000000000E+00 0. -1.
         22    1    3    3    0    0  0.62300843307E+02 -0.25159518707E+02  0.46308076501E+02  0.81601681402E+02  0.00000000000E+00 0. -1.
</event>
<event>
 7    1  0.6485470E-006  0.1234457E+03  0.7818608E-02  0.1320544E+00
          2   -1    0    0  502    0  0.00000000000E+00  0.00000000000E+00  0.40738333366E+03  0.40738333366E+03  0.00000000000E+00 0. -1.
          1   -1    0    0  501    0 -0.00000000000E+00 -0.00000000000E+00 -0.17335856707E+04  0.17335856707E+04  0.00000000000E+00 0. -1.
         25    2    1    2    0    0 -0.80908397355E+02  0.72945264815E+01 -0.32111456219E+03  0.35403450657E+03  0.12500596353E+03 0.  0.
          2    1    1    2  501    0  0.13049120605E+03  0.18535058418E+02 -0.13908807927E+04  0.13971116214E+04  0.00000000000E+00 0. -1.
          1    1    1    2  502    0 -0.49582808698E+02 -0.25829584899E+02  0.38579301780E+03  0.38982287639E+03  0.00000000000E+00 0. -1.
         22    1    3    3    0    0  0.12935247225E+02  0.27565799569E+02 -0.16468067811E+02  0.34617787105E+02  0.00000000000E+00 0. -1.
         22    1    3    3    0    0 -0.93843644580E+02 -0.20271273087E+02 -0.30464649438E+03  0.31941671947E+03  0.00000000000E+00 0. -1.
</event>
<event>
 7    1  0.6485470E-006  0.8089399E+02  0.7818608E-02  0.1477800E+00
          2   -1    0    0  502    0  0.00000000000E+00  0.00000000000E+00  0.19560205089E+04  0.19560205089E+04  0.00000000000E+00 0. -1.
          1   -1    0    0  501    0 -0.00000000000E+00 -0.00000000000E+00 -0.15709212023E+02  0.15709212023E+02  0.00000000000E+00 0. -1.
         25    2    1    2    0    0  0.28173319106E+02 -0.73989884609E+02  0.13649941838E+04  0.13729917068E+04  0.12501546417E+03 0.  0.
          2    1    1    2  501    0 -0.48622792342E+01  0.81283140397E+02  0.13438750477E+03  0.15713240312E+03  0.00000000000E+00 0. -1.
          1    1    1    2  502    0 -0.23311039872E+02 -0.72932557875E+01  0.44092960832E+03  0.44160561099E+03  0.00000000000E+00 0. -1.
         22    1    3    3    0    0 -0.24355451043E+02 -0.67599570378E+02  0.11222003582E+04  0.11244983476E+04  0.00000000000E+00 0. -1.
         22    1    3    3    0    0  0.52528770149E+02 -0.63903142308E+01  0.24279382556E+03  0.24849335915E+03  0.00000000000E+00 0. -1.
</event>
<event>
 7    1  0.6485470E-006  0.5028530E+02  0.7818608E-02  0.1476754E+00
          2   -1    0    0  502    0  0.00000000000E+00  0.00000000000E+00  0.79678372540E+03  0.79678372540E+03  0.00000000000E+00 0. -1.
          1   -1    0    0  501    0 -0.00000000000E+00 -0.00000000000E+00 -0.19640010902E+03  0.19640010902E+03  0.00000000000E+00 0. -1.
         25    2    1    2    0    0 -0.48441300906E+02 -0.74270346299E+02 -0.64173874482E+02  0.16615011174E+03  0.12499971797E+03 0.  0.
          2    1    1    2  501    0  0.16008361993E+02  0.36204221885E+02 -0.75521359152E+02  0.85267162637E+02  0.00000000000E+00 0. -1.
          1    1    1    2  502    0  0.32432938913E+02  0.38066124415E+02  0.74007885002E+03  0.74176656004E+03  0.00000000000E+00 0. -1.
         22    1    3    3    0    0 -0.42047610637E+02 -0.71881878836E+02 -0.99740074956E+02  0.12993493994E+03  0.00000000000E+00 0.  1.
         22    1    3    3    0    0 -0.63936902695E+01 -0.23884674636E+01  0.35566200475E+02  0.36215171797E+02  0.00000000000E+00 0.  1.
</event>
<event>
 7    1  0.6485470E-006  0.1616506E+03  0.7818608E-02  0.1383226E+00
          2   -1    0    0  502    0  0.00000000000E+00  0.00000000000E+00  0.57709288336E+03  0.57709288336E+03  0.00000000000E+00 0. -1.
          1   -1    0    0  501    0 -0.00000000000E+00 -0.00000000000E+00 -0.10953151195E+04  0.10953151195E+04  0.00000000000E+00 0. -1.
         25    2    1    2    0    0  0.11030985721E+03 -0.14390074686E+03 -0.73437218257E+03  0.76668475839E+03  0.12500930635E+03 0.  0.
          2    1    1    2  501    0 -0.12157827790E+01  0.25011725397E+02 -0.33270252372E+03  0.33364357304E+03  0.00000000000E+00 0. -1.
          1    1    1    2  502    0 -0.10909407443E+03  0.11888902146E+03  0.54885247014E+03  0.57207967145E+03  0.00000000000E+00 0. -1.
         22    1    3    3    0    0  0.10628721346E+03 -0.48797184429E+02 -0.29968731063E+03  0.32169958207E+03  0.00000000000E+00 0. -1.
         22    1    3    3    0    0  0.40226437436E+01 -0.95103562430E+02 -0.43468487194E+03  0.44498517632E+03  0.00000000000E+00 0. -1.
</event>
<event>
 7    1  0.6485470E-006  0.9757825E+02  0.7818608E-02  0.1307617E+00
          2   -1    0    0  502    0  0.00000000000E+00  0.00000000000E+00  0.42374837716E+03  0.42374837716E+03  0.00000000000E+00 0. -1.
          1   -1    0    0  501    0 -0.00000000000E+00 -0.00000000000E+00 -0.22826336535E+03  0.22826336535E+03  0.00000000000E+00 0. -1.
         25    2    1    2    0    0  0.24893897794E+02  0.21532152549E+02  0.28493326043E+02  0.13236479562E+03  0.12500091899E+03 0.  0.
          2    1    1    2  501    0 -0.85711895442E+02 -0.72688322045E+02 -0.15305320903E+03  0.18988261104E+03  0.00000000000E+00 0. -1.
          1    1    1    2  502    0  0.60817997648E+02  0.51156169495E+02  0.32004489480E+03  0.32976433585E+03  0.00000000000E+00 0. -1.
         22    1    3    3    0    0  0.42541689095E+02  0.41107990389E+02  0.64643508930E+02  0.87626739250E+02  0.00000000000E+00 0.  1.
         22    1    3    3    0    0 -0.17647791301E+02 -0.19575837840E+02 -0.36150182887E+02  0.44738056369E+02  0.00000000000E+00 0.  1.
</event>
<event>
 7    1  0.6485470E-006  0.4600464E+02  0.7818608E-02  0.1578715E+00
          2   -1    0    0  502    0  0.00000000000E+00  0.00000000000E+00  0.36720735106E+04  0.36720735106E+04  0.00000000000E+00 0. -1.
          1   -1    0    0  501    0 -0.00000000000E+00 -0.00000000000E+00 -0.14515905483E+02  0.14515905483E+02  0.00000000000E+00 0. -1.
         25    2    1    2    0    0  0.61885343375E+02 -0.22162892220E+02  0.88137489776E+03  0.89261835286E+03  0.12499929577E+03 0.  0.
          2    1    1    2  501    0 -0.17324862735E+02  0.13592337518E+02  0.52120955284E+01  0.22628929444E+02  0.00000000000E+00 0. -1.
          1    1    1    2  502    0 -0.44560480640E+02  0.85705547014E+01  0.27709706118E+04  0.27713421338E+04  0.00000000000E+00 0. -1.
         22    1    3    3    0    0  0.64074399630E+02  0.41486165414E+02  0.42173111822E+03  0.42858344191E+03  0.00000000000E+00 0. -1.
         22    1    3    3    0    0 -0.21890562549E+01 -0.63649057634E+02  0.45964377954E+03  0.46403491095E+03  0.00000000000E+00 0. -1.
</event>
<event>
 7    1  0.1350959E-005  0.1343910E+03  0.7818608E-02  0.1344177E+00
          2   -1    0    0  502    0  0.00000000000E+00  0.00000000000E+00  0.14459525336E+04  0.14459525336E+04  0.00000000000E+00 0. -1.
          1   -1    0    0  501    0 -0.00000000000E+00 -0.00000000000E+00 -0.21305209665E+04  0.21305209665E+04  0.00000000000E+00 0. -1.
         25    2    1    2    0    0  0.15097350981E+03 -0.21104539100E+02 -0.69181474850E+03  0.71935267214E+03  0.12498887324E+03 0.  0.
          2    1    1    2  501    0 -0.27374953937E+02 -0.31516371655E+02 -0.14214801508E+04  0.14220929959E+04  0.00000000000E+00 0. -1.
          1    1    1    2  502    0 -0.12359855587E+03  0.52620910755E+02  0.14287264663E+04  0.14350278321E+04  0.00000000000E+00 0. -1.
         22    1    3    3    0    0  0.10565288812E+03 -0.66977162044E+02 -0.54201276238E+03  0.55626100671E+03  0.00000000000E+00 0. -1.
         22    1    3    3    0    0  0.45320621689E+02  0.45872622944E+02 -0.14980198611E+03  0.16309166542E+03  0.00000000000E+00 0. -1.
</event>
<event>
 7    1  0.6485470E-006  0.1226874E+03  0.7818608E-02  0.1350490E+00
          2   -1    0    0  502    0  0.00000000000E+00  0.00000000000E+00  0.95038593947E+03  0.95038593947E+03  0.00000000000E+00 0. -1.
          1   -1    0    0  501    0 -0.00000000000E+00 -0.00000000000E+00 -0.14711379837E+03  0.14711379837E+03  0.00000000000E+00 0. -1.
         25    2    1    2    0    0  0.92267063386E+02  0.11553972688E+03  0.32150764528E+03  0.37530428986E+03  0.12499401803E+03 0.  0.
          2    1    1    2  501    0 -0.96730589702E+02 -0.72449957779E+02 -0.88811294742E+02  0.14997749645E+03  0.00000000000E+00 0. -1.
          1    1    1    2  502    0  0.44635263158E+01 -0.43089769103E+02  0.57057579057E+03  0.57221795153E+03  0.00000000000E+00 0. -1.
         22    1    3    3    0    0  0.56277045923E+02  0.46697128346E+01  0.19618984912E+03  0.20415525713E+03  0.00000000000E+00 0.  1.
         22    1    3    3    0    0  0.35990017463E+02  0.11087001405E+03  0.12531779616E+03  0.17114903273E+03  0.00000000000E+00 0.  1.
</event>
<event>
 7    1  0.6485470E-006  0.4333291E+02  0.7818608E-02  0.1487188E+00
          2   -1    0    0  502    0  0.00000000000E+00  0.00000000000E+00  0.14816255834E+04  0.14816255834E+04  0.00000000000E+00 0. -1.
          1   -1    0    0  501    0 -0.00000000000E+00 -0.00000000000E+00 -0.16255273116E+02  0.16255273116E+02  0.00000000000E+00 0. -1.
         25    2    1    2    0    0 -0.15536683571E+02 -0.29880577386E+02  0.51552397813E+03  0.53152949942E+03  0.12499759708E+03 0.  0.
          2    1    1    2  501    0  0.42138732956E+02 -0.67851681330E+01  0.51605272505E+02  0.66968764899E+02  0.00000000000E+00 0. -1.
          1    1    1    2  502    0 -0.26602049385E+02  0.36665745519E+02  0.89824105962E+03  0.89938259218E+03  0.00000000000E+00 0. -1.
         22    1    3    3    0    0 -0.68412767529E+02 -0.20736294131E+02  0.35941499273E+03  0.36645523281E+03  0.00000000000E+00 0. -1.
         22    1    3    3    0    0  0.52876083957E+02 -0.91442832547E+01  0.15610898540E+03  0.16507426660E+03  0.00000000000E+00 0. -1.
</event>
<event>
 7    1  0.6485470E-006  0.1348499E+03  0.7818608E-02  0.1303572E+00
          2   -1    0    0  502    0  0.00000000000E+00  0.00000000000E+00  0.33382409880E+04  0.33382409880E+04  0.00000000000E+00 0. -1.
          1   -1    0    0  501    0 -0.00000000000E+00 -0.00000000000E+00 -0.38875197871E+03  0.38875197871E+03  0.00000000000E+00 0. -1.
         25    2    1    2    0    0 -0.82406656682E+02  0.26758024085E+02  0.13948918933E+03  0.20637104144E+03  0.12499969555E+03 0.  0.
          2    1    1    2  501    0 -0.54714315061E+02 -0.23812262105E+02 -0.35130831435E+03  0.35634002277E+03  0.00000000000E+00 0. -1.
          1    1    1    2  502    0  0.13712097174E+03 -0.29457619800E+01  0.31613081343E+04  0.31642819025E+04  0.00000000000E+00 0. -1.
         22    1    3    3    0    0 -0.13513018502E+02 -0.14482767446E+02 -0.19788695335E+02  0.27999012215E+02  0.00000000000E+00 0. -1.
         22    1    3    3    0    0 -0.68893638180E+02  0.41240791532E+02  0.15927788467E+03  0.17837202923E+03  0.00000000000E+00 0. -1.
</event>
<event>
 7    1  0.6485470E-006  0.7178874E+02  0.7818608E-02  0.1375663E+00
          2   -1    0    0  502    0  0.00000000000E+00  0.00000000000E+00  0.19162609551E+03  0.19162609551E+03  0.00000000000E+00 0. -1.
          1   -1    0    0  501    0 -0.00000000000E+00 -0.00000000000E+00 -0.83505744047E+03  0.83505744047E+03  0.00000000000E+00 0. -1.
         25    2    1    2    0    0 -0.95755643981E+02  0.42099786827E+02 -0.18355421386E+03  0.24547810114E+03  0.12500325319E+03 0.  0.
          2    1    1    2  501    0  0.57277251016E+02  0.17791725731E+02 -0.61111514727E+03  0.61405126188E+03  0.00000000000E+00 0. -1.
          1    1    1    2  502    0  0.38478392964E+02 -0.59891512558E+02  0.15123801617E+03  0.16715417296E+03  0.00000000000E+00 0. -1.
         22    1    3    3    0    0 -0.53172231447E+02 -0.40841458456E+02 -0.99291714066E+02  0.11980882859E+03  0.00000000000E+00 0. -1.
         22    1    3    3    0    0 -0.42583412534E+02  0.82941245283E+02 -0.84262499794E+02  0.12566927255E+03  0.00000000000E+00 0. -1.
</event>
<event>
 7    1  0.6485470E-006  0.1994226E+03  0.7818608E-02  0.1355538E+00
          2   -1    0    0  502    0  0.00000000000E+00  0.00000000000E+00  0.99835551506E+03  0.99835551506E+03  0.00000000000E+00 0. -1.
          1   -1    0    0  501    0 -0.00000000000E+00 -0.00000000000E+00 -0.44107485663E+03  0.44107485663E+03  0.00000000000E+00 0. -1.
         25    2    1    2    0    0  0.21030464404E+03  0.47026491611E+02 -0.13284714372E+03  0.28233590041E+03  0.12500265135E+03 0.  0.
          2    1    1    2  501    0 -0.13271298825E+02 -0.21812953578E+02 -0.22206300563E+03  0.22352608525E+03  0.00000000000E+00 0. -1.
          1    1    1    2  502    0 -0.19703334521E+03 -0.25213538033E+02  0.91219080777E+03  0.93356838604E+03  0.00000000000E+00 0. -1.
         22    1    3    3    0    0  0.85791324155E+02  0.82486535210E+02 -0.73836559851E+02  0.14005719318E+03  0.00000000000E+00 0.  1.
         22    1    3    3    0    0  0.12451331988E+03 -0.35460043599E+02 -0.59010583869E+02  0.14227870722E+03  0.00000000000E+00 0.  1.
</event>
<event>
 7    1  0.6485470E-006  0.7224121E+02  0.7818608E-02  0.1419844E+00
          2   -1    0    0  502    0  0.00000000000E+00  0.00000000000E+00  0.12102255898E+04  0.12102255898E+04  0.00000000000E+00 0. -1.
          1   -1    0    0  501    0 -0.00000000000E+00 -0.00000000000E+00 -0.32723616960E+03  0.32723616960E+03  0.00000000000E+00 0. -1.
         25    2    1    2    0    0  0.22458798675E+02 -0.89594593454E+02 -0.18690108131E+03  0.24307701998E+03  0.12499133824E+03 0.  0.
          2    1    1    2  501    0 -0.41859286396E+02  0.52393789729E+02 -0.10182150829E+03  0.12192181351E+03  0.00000000000E+00 0. -1.
          1    1    1    2  502    0  0.19400487721E+02  0.37200803725E+02  0.11717120098E+04  0.11724629260E+04  0.00000000000E+00 0. -1.
         22    1    3    3    0    0 -0.33312775472E+02  0.13633577316E+02 -0.28268898562E+02  0.45768395930E+02  0.00000000000E+00 0. -1.
         22    1    3    3    0    0  0.55771574147E+02 -0.10322817077E+03 -0.15863218275E+03  0.19730862405E+03  0.00000000000E+00 0. -1.
</event>
<event>
 7    1  0.6485470E-006  0.8889396E+02  0.7818608E-02  0.1433514E+00
          2   -1    0    0  502    0  0.00000000000E+00  0.00000000000E+00  0.22229458832E+04  0.22229458832E+04  0.00000000000E+00 0. -1.
          1   -1    0    0  501    0 -0.00000000000E+00 -0.00000000000E+00 -0.56489259102E+03  0.56489259102E+03  0.00000000000E+00 0. -1.
         25    2    1    2    0    0 -0.90553659092E+02 -0.72234088477E+02  0.99371620512E+01  0.17070914329E+03  0.12500054280E+03 0.  0.
          2    1    1    2  501    0  0.74815589457E+02  0.45846398882E+02 -0.48042208835E+03  0.48836937628E+03  0.00000000000E+00 0. -1.
          1    1    1    2  502    0  0.15738069635E+02  0.26387689594E+02  0.21285382185E+04  0.21287599547E+04  0.00000000000E+00 0. -1.
         22    1    3    3    0    0 -0.12221972370E+03 -0.59183340026E+02  0.12464566946E+02  0.13636602959E+03  0.00000000000E+00 0. -1.
         22    1    3    3    0    0  0.31666064607E+02 -0.13050748450E+02 -0.25274048950E+01  0.34343113696E+02  0.00000000000E+00 0. -1.
</event>
<event>
 7    1  0.6485470E-006  0.6396949E+02  0.7818608E-02  0.1397756E+00
          2   -1    0    0  502    0  0.00000000000E+00  0.00000000000E+00  0.29320475646E+04  0.29320475646E+04  0.00000000000E+00 0. -1.
          1   -1    0    0  501    0 -0.00000000000E+00 -0.00000000000E+00 -0.18673430534E+02  0.18673430534E+02  0.00000000000E+00 0. -1.
         25    2    1    2    0    0  0.58474467453E+01  0.33671093825E+02  0.75692980762E+03  0.76794341012E+03  0.12500564906E+03 0.  0.
          2    1    1    2  501    0 -0.54418817596E+02  0.14474135373E+02  0.50245308265E+02  0.75468531892E+02  0.00000000000E+00 0. -1.
          1    1    1    2  502    0  0.48571370851E+02 -0.48145229198E+02  0.21061990181E+04  0.21073090531E+04  0.00000000000E+00 0. -1.
         22    1    3    3    0    0  0.57591652168E+02  0.48674031331E+02  0.41491592683E+03  0.42171220763E+03  0.00000000000E+00 0. -1.
         22    1    3    3    0    0 -0.51744205423E+02 -0.15002937506E+02  0.34201388079E+03  0.34623120249E+03  0.00000000000E+00 0. -1.
</event>
<event>
 7    1  0.6485470E-006  0.5213641E+02  0.7818608E-02  0.1451770E+00
          2   -1    0    0  502    0  0.00000000000E+00  0.00000000000E+00  0.50743699993E+03  0.50743699993E+03  0.00000000000E+00 0. -1.
          1   -1    0    0  501    0 -0.00000000000E+00 -0.00000000000E+00 -0.43667304242E+02  0.43667304242E+02  0.00000000000E+00 0. -1.
         25    2    1    2    0    0  0.17146753447E+02 -0.14835391276E+02  0.29638726450E+03  0.32247100647E+03  0.12501215727E+03 0.  0.
          2    1    1    2  501    0  0.37738426513E+02  0.35972434466E+02  0.98314239626E+00  0.52145675238E+02  0.00000000000E+00 0. -1.
          1    1    1    2  502    0 -0.54885179960E+02 -0.21137043190E+02  0.16639928880E+03  0.17648762247E+03  0.00000000000E+00 0. -1.
         22    1    3    3    0    0  0.16108865089E+02  0.19356041418E+02  0.10972461971E+01  0.25206265552E+02  0.00000000000E+00 0. -1.
         22    1    3    3    0    0  0.10378883583E+01 -0.34191432695E+02  0.29529001830E+03  0.29726474091E+03  0.00000000000E+00 0. -1.
</event>
<event>
 7    1  0.6485470E-006  0.1478588E+03  0.7818608E-02  0.1334169E+00
          2   -1    0    0  502    0  0.00000000000E+00  0.00000000000E+00  0.32337959008E+03  0.32337959008E+03  0.00000000000E+00 0. -1.
          1   -1    0    0  501    0 -0.00000000000E+00 -0.00000000000E+00 -0.11807472048E+04  0.11807472048E+04  0.00000000000E+00 0. -1.
         25    2    1    2    0    0 -0.11861634460E+03  0.11797553295E+03 -0.27587529062E+03  0.34600209917E+03  0.12498885180E+03 0.  0.
          2    1    1    2  501    0  0.40839832415E+02  0.66879141114E+01 -0.85055179289E+03  0.85155796778E+03  0.00000000000E+00 0. -1.
          1    1    1    2  502    0  0.77776512189E+02 -0.12466344707E+03  0.26905946882E+03  0.30656672788E+03  0.00000000000E+00 0. -1.
         22    1    3    3    0    0  0.42194775271E+01 -0.14914837858E+02 -0.70894053949E+02  0.72568748538E+02  0.00000000000E+00 0. -1.
         22    1    3    3    0    0 -0.12283582213E+03  0.13289037081E+03 -0.20498123667E+03  0.27343335063E+03  0.00000000000E+00 0. -1.
</event>
<event>
 7    1  0.6485470E-006  0.1031964E+03  0.7818608E-02  0.1327833E+00
          2   -1    0    0  502    0  0.00000000000E+00  0.00000000000E+00  0.30493527846E+04  0.30493527846E+04  0.00000000000E+00 0. -1.
          1   -1    0    0  501    0 -0.00000000000E+00 -0.00000000000E+00 -0.19443414865E+02  0.19443414865E+02  0.00000000000E+00 0. -1.
         25    2    1    2    0    0  0.40107956096E+02  0.87716845537E+02  0.16345119249E+04  0.16421234100E+04  0.12504866118E+03 0.  0.
          2    1    1    2  501    0  0.20458059142E+02 -0.10388756296E+03  0.17411269608E+03  0.20378024649E+03  0.00000000000E+00 0. -1.
          1    1    1    2  502    0 -0.60566015238E+02  0.16170717425E+02  0.12212847487E+04  0.12228925430E+04  0.00000000000E+00 0. -1.
         22    1    3    3    0    0 -0.32067637930E+02  0.74477684413E+02  0.68563464671E+03  0.69041301237E+03  0.00000000000E+00 0. -1.
         22    1    3    3    0    0  0.72175594027E+02  0.13239161124E+02  0.94887727822E+03  0.95171039759E+03  0.00000000000E+00 0. -1.
</event>
<event>
 7    1  0.6485470E-006  0.5138588E+02  0.7818608E-02  0.1448107E+00
          2   -1    0    0  502    0  0.00000000000E+00  0.00000000000E+00  0.53442841393E+03  0.53442841393E+03  0.00000000000E+00 0. -1.
          1   -1    0    0  501    0 -0.00000000000E+00 -0.00000000000E+00 -0.80982190155E+02  0.80982190155E+02  0.00000000000E+00 0. -1.
         25    2    1    2    0    0  0.50354213931E+02 -0.31160210801E+01  0.16541303443E+03  0.21338242663E+03  0.12500132634E+03 0.  0.
          2    1    1    2  501    0 -0.27618315931E+02  0.45010024437E+02 -0.42679217963E+02  0.67898374948E+02  0.00000000000E+00 0. -1.
          1    1    1    2  502    0 -0.22735898000E+02 -0.41894003357E+02  0.33071240731E+03  0.33412980251E+03  0.00000000000E+00 0. -1.
         22    1    3    3    0    0  0.45175988022E+02 -0.16296491625E+01  0.18635453583E+03  0.19175906413E+03  0.00000000000E+00 0.  1.
         22    1    3    3    0    0  0.51782259091E+01 -0.14863719176E+01 -0.20941501401E+02  0.21623362504E+02  0.00000000000E+00 0.  1.
</event>
<event>
 7    1  0.6485470E-006  0.4880670E+02  0.7818608E-02  0.1567258E+00
          2   -1    0    0  502    0  0.00000000000E+00  0.00000000000E+00  0.31080525028E+04  0.31080525028E+04  0.00000000000E+00 0. -1.
          1   -1    0    0  501    0 -0.00000000000E+00 -0.00000000000E+00 -0.19754795338E+03  0.19754795338E+03  0.00000000000E+00 0. -1.
         25    2    1    2    0    0 -0.16674098979E+02  0.61669711396E+02  0.39868676262E+03  0.42266420343E+03  0.12495085152E+03 0.  0.
          2    1    1    2  501    0  0.18030612651E+02 -0.13108890851E+02 -0.18467013309E+03  0.18601076331E+03  0.00000000000E+00 0. -1.
          1    1    1    2  502    0 -0.13565136716E+01 -0.48560820545E+02  0.26964879199E+04  0.26969254894E+04  0.00000000000E+00 0. -1.
         22    1    3    3    0    0  0.46452046136E+02  0.35554400419E+02  0.96449967329E+02  0.11280294401E+03  0.00000000000E+00 0. -1.
         22    1    3    3    0    0 -0.63126145115E+02  0.26115310977E+02  0.30223679529E+03  0.30986125942E+03  0.00000000000E+00 0. -1.
</event>
<event>
 7    1  0.6485470E-006  0.4141974E+02  0.7818608E-02  0.1600449E+00
          2   -1    0    0  502    0  0.00000000000E+00  0.00000000000E+00  0.29341299989E+04  0.29341299989E+04  0.00000000000E+00 0. -1.
          1   -1    0    0  501    0 -0.00000000000E+00 -0.00000000000E+00 -0.70814552942E+01  0.70814552942E+01  0.00000000000E+00 0. -1.
         25    2    1    2    0    0  0.63563871930E+01  0.33862983389E+02  0.15465539954E+04  0.15519800728E+04  0.12500312172E+03 0.  0.
          2    1    1    2  501    0  0.14252567198E+02 -0.39708961058E+02  0.99717455260E+02  0.10827515017E+03  0.00000000000E+00 0. -1.
          1    1    1    2  502    0 -0.20608954391E+02  0.58459776689E+01  0.12807770930E+04  0.12809562313E+04  0.00000000000E+00 0. -1.
         22    1    3    3    0    0 -0.47706210294E+02  0.53294020472E+02  0.93620080775E+03  0.93892922393E+03  0.00000000000E+00 0.  1.
         22    1    3    3    0    0  0.54062597487E+02 -0.19431037084E+02  0.61035318761E+03  0.61305084885E+03  0.00000000000E+00 0.  1.
</event>
<event>
 7    1  0.6485470E-006  0.1324515E+03  0.7818608E-02  0.1392494E+00
          2   -1    0    0  502    0  0.00000000000E+00  0.00000000000E+00  0.25018468754E+03  0.25018468754E+03  0.00000000000E+00 0. -1.
          1   -1    0    0  501    0 -0.00000000000E+00 -0.00000000000E+00 -0.36166173942E+03  0.36166173942E+03  0.00000000000E+00 0. -1.
         25    2    1    2    0    0  0.61931621555E+02  0.87601575664E+02  0.85353163431E+02  0.18552385673E+03  0.12499750838E+03 0.  0.
          2    1    1    2  501    0 -0.73421649596E+02 -0.11353152659E+03 -0.29480233740E+03  0.32432786544E+03  0.00000000000E+00 0. -1.
          1    1    1    2  502    0  0.11490028041E+02  0.25929950927E+02  0.97972122087E+02  0.10199470479E+03  0.00000000000E+00 0. -1.
         22    1    3    3    0    0 -0.21751394205E+02  0.30235435822E+02  0.74747037365E+02  0.83513018890E+02  0.00000000000E+00 0.  1.
         22    1    3    3    0    0  0.83683015761E+02  0.57366139842E+02  0.10606126065E+02  0.10201083784E+03  0.00000000000E+00 0.  1.
</event>
<event>
 7    1  0.6485470E-006  0.3176558E+02  0.7818608E-02  0.1597478E+00
          2   -1    0    0  502    0  0.00000000000E+00  0.00000000000E+00  0.86990951551E+03  0.86990951551E+03  0.00000000000E+00 0. -1.
          1   -1    0    0  501    0 -0.00000000000E+00 -0.00000000000E+00 -0.10322756462E+04  0.10322756462E+04  0.00000000000E+00 0. -1.
         25    2    1    2    0    0 -0.37625489985E+02 -0.20330779652E+02  0.24932945455E+03  0.28216975308E+03  0.12500229816E+03 0.  0.
          2    1    1    2  501    0  0.26796785900E+02 -0.95187529917E+01 -0.10152390507E+04  0.10156372406E+04  0.00000000000E+00 0. -1.
          1    1    1    2  502    0  0.10828704085E+02  0.29849532644E+02  0.60354346541E+03  0.60437816809E+03  0.00000000000E+00 0. -1.
         22    1    3    3    0    0 -0.28702611355E+02 -0.70996966508E+02  0.11344743638E+03  0.13687486976E+03  0.00000000000E+00 0. -1.
         22    1    3    3    0    0 -0.89228786292E+01  0.50666186856E+02  0.13588201818E+03  0.14529488331E+03  0.00000000000E+00 0. -1.
</event>
<event>
 7    1  0.6485470E-006  0.7843687E+02  0.7818608E-02  0.1400784E+00
          2   -1    0    0  502    0  0.00000000000E+00  0.00000000000E+00  0.33462481565E+03  0.33462481565E+03  0.00000000000E+00 0. -1.
          1   -1    0    0  501    0 -0.00000000000E+00 -0.00000000000E+00 -0.13976329763E+04  0.13976329763E+04  0.00000000000E+00 0. -1.
         25    2    1    2    0    0  0.55039698995E+02 -0.39131372289E+02  0.39937571475E+02  0.14757093368E+03  0.12498615159E+03 0.  0.
          2    1    1    2  501    0 -0.25915745734E+02 -0.36586619685E+02 -0.13365988647E+04  0.13373506391E+04  0.00000000000E+00 0. -1.
          1    1    1    2  502    0 -0.29123953262E+02  0.75717991974E+02  0.23365313259E+03  0.24733621921E+03  0.00000000000E+00 0. -1.
         22    1    3    3    0    0  0.52062012400E+02 -0.80466826119E+02  0.44892224052E+02  0.10583324157E+03  0.00000000000E+00 0. -1.
         22    1    3    3    0    0  0.29776865950E+01  0.41335453830E+02 -0.49546525765E+01  0.41737692113E+02  0.00000000000E+00 0. -1.
</event>
<event>
 7    1  0.6485470E-006  0.1019411E+03  0.7818608E-02  0.1352914E+00
          2   -1    0    0  502    0  0.00000000000E+00  0.00000000000E+00  0.49487471457E+03  0.49487471457E+03  0.00000000000E+00 0. -1.
          1   -1    0    0  501    0 -0.00000000000E+00 -0.00000000000E+00 -0.11644702051E+04  0.11644702051E+04  0.00000000000E+00 0. -1.
         25    2    1    2    0    0  0.13991271477E+03 -0.35155882225E+02 -0.52795682140E+02  0.19804963254E+03  0.12499907634E+03 0.  0.
          2    1    1    2  501    0 -0.10059902891E+03  0.25548485180E+01 -0.10350540407E+04  0.10399344013E+04  0.00000000000E+00 0. -1.
          1    1    1    2  502    0 -0.39313685862E+02  0.32601033707E+02  0.41825423228E+03  0.42136088584E+03  0.00000000000E+00 0. -1.
         22    1    3    3    0    0  0.63519288904E+02 -0.13057024122E+02 -0.89450301777E+02  0.11048322239E+03  0.00000000000E+00 0. -1.
         22    1    3    3    0    0  0.76393425867E+02 -0.22098858103E+02  0.36654619637E+02  0.87566410147E+02  0.00000000000E+00 0. -1.
</event>
<event>
 7    1  0.6485470E-006  0.8829530E+02  0.7818608E-02  0.1405083E+00
          2   -1    0    0  502    0  0.00000000000E+00  0.00000000000E+00  0.15808180884E+04  0.15808180884E+04  0.00000000000E+00 0. -1.
          1   -1    0    0  501    0 -0.00000000000E+00 -0.00000000000E+00 -0.23501794911E+03  0.23501794911E+03  0.00000000000E+00 0. -1.
         25    2    1    2    0    0  0.64247645903E+01 -0.97958124971E+02  0.99484878370E+02  0.18750922914E+03  0.12500159255E+03 0.  0.
          2    1    1    2  501    0  0.33364495262E+02  0.19215092253E+02 -0.18769594626E+03  0.19160422113E+03  0.00000000000E+00 0. -1.
          1    1    1    2  502    0 -0.39789259852E+02  0.78743032718E+02  0.14340112072E+04  0.14367225872E+04  0.00000000000E+00 0. -1.
         22    1    3    3    0    0  0.40102215335E+02 -0.94988629649E+02  0.11127819569E+03  0.15170321115E+03  0.00000000000E+00 0.  1.
         22    1    3    3    0    0 -0.33677450745E+02 -0.29694953223E+01 -0.11793317316E+02  0.35806017992E+02  0.00000000000E+00 0.  1.
</event>
<event>
 7    1  0.6485470E-006  0.1206783E+03  0.7818608E-02  0.1393440E+00
          2   -1    0    0  502    0  0.00000000000E+00  0.00000000000E+00  0.11806411702E+03  0.11806411702E+03  0.00000000000E+00 0. -1.
          1   -1    0    0  501    0 -0.00000000000E+00 -0.00000000000E+00 -0.32346491600E+04  0.32346491600E+04  0.00000000000E+00 0. -1.
         25    2    1    2    0    0  0.94864276586E+02  0.11327633435E+03 -0.15333942522E+04  0.15455595188E+04  0.12500213818E+03 0.  0.
          2    1    1    2  501    0 -0.86043964457E+01 -0.29671334053E+02 -0.16627710504E+04  0.16630580236E+04  0.00000000000E+00 0. -1.
          1    1    1    2  502    0 -0.86259880140E+02 -0.83605000293E+02  0.79580259683E+02  0.14409573459E+03  0.00000000000E+00 0. -1.
         22    1    3    3    0    0  0.98458950282E+02  0.22124749552E+02 -0.71215777617E+03  0.71927210956E+03  0.00000000000E+00 0. -1.
         22    1    3    3    0    0 -0.35946736961E+01  0.91151584794E+02 -0.82123647606E+03  0.82628740926E+03  0.00000000000E+00 0. -1.
</event>
<event>
 7    1  0.6485470E-006  0.1603942E+03  0.7818608E-02  0.1367940E+00
          2   -1    0    0  502    0  0.00000000000E+00  0.00000000000E+00  0.24921592209E+03  0.24921592209E+03  0.00000000000E+00 0. -1.
          1   -1    0    0  501    0 -0.00000000000E+00 -0.00000000000E+00 -0.40545024564E+04  0.40545024564E+04  0.00000000000E+00 0. -1.
         25    2    1    2    0    0 -0.13153046888E+03  0.43921945418E+02  0.36482884580E+02  0.19022468444E+03  0.12500011267E+03 0.  0.
          2    1    1    2  501    0  0.14510277678E+03 -0.69109688871E+02 -0.39744828330E+04  0.39777311064E+04  0.00000000000E+00 0. -1.
          1    1    1    2  502    0 -0.13572307892E+02  0.25187743454E+02  0.13271341404E+03  0.13576258773E+03  0.00000000000E+00 0. -1.
         22    1    3    3    0    0 -0.54622277581E+02 -0.10645433697E+02  0.70641674483E+02  0.89928664176E+02  0.00000000000E+00 0.  1.
         22    1    3    3    0    0 -0.76908191303E+02  0.54567379115E+02 -0.34158789902E+02  0.10029602026E+03  0.00000000000E+00 0.  1.
</event>
