<event>
 7    1  0.5993218E-006  0.8125331E+02  0.7818608E-02  0.1397278E+00
          2   -1    0    0  502    0  0.00000000000E+00  0.00000000000E+00  0.33007470287E+04  0.33007470287E+04  0.00000000000E+00 0. -1.
          1   -1    0    0  501    0 -0.00000000000E+00 -0.00000000000E+00 -0.42018940524E+03  0.42018940524E+03  0.00000000000E+00 0. -1.
         25    2    1    2    0    0  0.11941752998E+02  0.39112158569E+02 -0.11530461100E+02  0.13202307699E+03  0.12499909965E+03 0.  0.
          2    1    1    2  501    0 -0.35035887924E+02 -0.77151808525E+02 -0.34310547144E+03  0.35341375120E+03  0.00000000000E+00 0. -1.
          1    1    1    2  502    0  0.23094134926E+02  0.38039649956E+02  0.32351935560E+04  0.32354996058E+04  0.00000000000E+00 0. -1.
         22    1    3    3    0    0 -0.48639948154E+02  0.38065263835E+02  0.18394965371E+02  0.64445198566E+02  0.00000000000E+00 0. -1.
         22    1    3    3    0    0  0.60581701152E+02  0.10468947343E+01 -0.29925426471E+02  0.67577878426E+02  0.00000000000E+00 0. -1.
</event>
<event>
 7    1  0.5993218E-006  0.9303948E+02  0.7818608E-02  0.1382176E+00
          2   -1    0    0  502    0  0.00000000000E+00  0.00000000000E+00  0.95485066698E+03  0.95485066698E+03  0.00000000000E+00 0. -1.
          1   -1    0    0  501    0 -0.00000000000E+00 -0.00000000000E+00 -0.40376131258E+03  0.40376131258E+03  0.00000000000E+00 0. -1.
         25    2    1    2    0    0 -0.37850170286E+02 -0.54814948045E+02  0.16283567874E+03  0.21582006408E+03  0.12500211145E+03 0.  0.
          2    1    1    2  501    0 -0.43774334880E+02  0.30498568407E+01 -0.37292670602E+03  0.37549943021E+03  0.00000000000E+00 0. -1.
          1    1    1    2  502    0  0.81624505166E+02  0.51765091204E+02  0.76118038168E+03  0.76729248528E+03  0.00000000000E+00 0. -1.
         22    1    3    3    0    0 -0.37081628360E+02 -0.82815690215E+02  0.58907264743E+02  0.10818295405E+03  0.00000000000E+00 0. -1.
         22    1    3    3    0    0 -0.76854192580E+00  0.28000742170E+02  0.10392841400E+03  0.10763711003E+03  0.00000000000E+00 0. -1.
</event>
<event>
 7    1  0.5993218E-006  0.7311469E+02  0.7818608E-02  0.1434014E+00
          2   -1    0    0  502    0  0.00000000000E+00  0.00000000000E+00  0.18853859179E+04  0.18853859179E+04  0.00000000000E+00 0. -1.
          1   -1    0    0  501    0 -0.00000000000E+00 -0.00000000000E+00 -0.98596982864E+02  0.98596982864E+02  0.00000000000E+00 0. -1.
         25    2    1    2    0    0 -0.29079687804E+02  0.98008443063E+02  0.11829222031E+04  0.11938934691E+04  0.12500157514E+03 0.  0.
          2    1    1    2  501    0  0.10108067452E+02 -0.35815648669E+02 -0.87806185869E+02  0.95366975385E+02  0.00000000000E+00 0. -1.
          1    1    1    2  502    0  0.18971620353E+02 -0.62192794394E+02  0.69167291781E+03  0.69472245630E+03  0.00000000000E+00 0. -1.
         22    1    3    3    0    0  0.20541335506E+02  0.46828635469E+00  0.62510731139E+03  0.62544489487E+03  0.00000000000E+00 0.  1.
         22    1    3    3    0    0 -0.49621023310E+02  0.97540156709E+02  0.55781489173E+03  0.56844857424E+03  0.00000000000E+00 0.  1.
</event>
<event>
 7    1  0.5993218E-006  0.2011268E+03  0.7818608E-02  0.1272245E+00
          2   -1    0    0  502    0  0.00000000000E+00  0.00000000000E+00  0.44860674244E+03  0.44860674244E+03  0.00000000000E+00 0. -1.
          1   -1    0    0  501    0 -0.00000000000E+00 -0.00000000000E+00 -0.12048020122E+04  0.12048020122E+04  0.00000000000E+00 0. -1.
         25    2    1    2    0    0  0.82263251768E+02  0.20920246449E+03 -0.66481230265E+02  0.26566211609E+03  0.12499476873E+03 0.  0.
          2    1    1    2  501    0 -0.51941436063E+02 -0.13642445691E+02 -0.10099069382E+04  0.10113337990E+04  0.00000000000E+00 0. -1.
          1    1    1    2  502    0 -0.30321815705E+02 -0.19556001880E+03  0.32019289867E+03  0.37641283960E+03  0.00000000000E+00 0. -1.
         22    1    3    3    0    0  0.88736641245E+02  0.10459832799E+03  0.75063477814E+01  0.13737302128E+03  0.00000000000E+00 0.  1.
         22    1    3    3    0    0 -0.64733894771E+01  0.10460413650E+03 -0.73987578046E+02  0.12828909482E+03  0.00000000000E+00 0.  1.
</event>
<event>
 7    1  0.5993218E-006  0.5168787E+02  0.7818608E-02  0.1466859E+00
          2   -1    0    0  502    0  0.00000000000E+00  0.00000000000E+00  0.62322611145E+02  0.62322611145E+02  0.00000000000E+00 0. -1.
          1   -1    0    0  501    0 -0.00000000000E+00 -0.00000000000E+00 -0.12182582278E+04  0.12182582278E+04  0.00000000000E+00 0. -1.
         25    2    1    2    0    0  0.47436323051E+01 -0.16055944573E+02 -0.24561848780E+03  0.27610481475E+03  0.12500052711E+03 0.  0.
          2    1    1    2  501    0  0.18321894238E+02  0.50354144599E+02 -0.94741945702E+03  0.94893353783E+03  0.00000000000E+00 0. -1.
          1    1    1    2  502    0 -0.23065526543E+02 -0.34298200026E+02  0.37102328141E+02  0.55542486380E+02  0.00000000000E+00 0. -1.
         22    1    3    3    0    0  0.49210342365E+02  0.27107300092E+02 -0.16575754798E+03  0.17502007950E+03  0.00000000000E+00 0. -1.
         22    1    3    3    0    0 -0.44466710060E+02 -0.43163244664E+02 -0.79860939817E+02  0.10108473526E+03  0.00000000000E+00 0. -1.
</event>
<event>
 7    1  0.5993218E-006  0.7996544E+02  0.7818608E-02  0.1355875E+00
          2   -1    0    0  502    0  0.00000000000E+00  0.00000000000E+00  0.84578725773E+02  0.84578725773E+02  0.00000000000E+00 0. -1.
          1   -1    0    0  501    0 -0.00000000000E+00 -0.00000000000E+00 -0.17986161885E+04  0.17986161885E+04  0.00000000000E+00 0. -1.
         25    2    1    2    0    0 -0.10025528205E+03 -0.69024971661E+02 -0.49540506668E+03  0.52522765141E+03  0.12498934925E+03 0.  0.
          2    1    1    2  501    0  0.22132995831E+02  0.59511900335E+02 -0.12650210869E+04  0.12666135504E+04  0.00000000000E+00 0. -1.
          1    1    1    2  502    0  0.78122286220E+02  0.95130713260E+01  0.46388690884E+02  0.91353712416E+02  0.00000000000E+00 0. -1.
         22    1    3    3    0    0 -0.17960452630E+02  0.16918824240E+02 -0.26278343497E+03  0.26393930774E+03  0.00000000000E+00 0. -1.
         22    1    3    3    0    0 -0.82294829422E+02 -0.85943795901E+02 -0.23262163170E+03  0.26128834367E+03  0.00000000000E+00 0. -1.
</event>
<event>
 7    1  0.5993218E-006  0.7667517E+02  0.7818608E-02  0.1452676E+00
          2   -1    0    0  502    0  0.00000000000E+00  0.00000000000E+00  0.46984118773E+03  0.46984118773E+03  0.00000000000E+00 0. -1.
          1   -1    0    0  501    0 -0.00000000000E+00 -0.00000000000E+00 -0.43825369922E+03  0.43825369922E+03  0.00000000000E+00 0. -1.
         25    2    1    2    0    0 -0.98448983873E+02 -0.24264549221E+02 -0.15004061161E+03  0.22003958414E+03  0.12499705069E+03 0.  0.
          2    1    1    2  501    0  0.67725064359E+02  0.27441243249E+02 -0.24737482590E+03  0.25794187458E+03  0.00000000000E+00 0. -1.
          1    1    1    2  502    0  0.30723919513E+02 -0.31766940285E+01  0.42900292602E+03  0.43011342824E+03  0.00000000000E+00 0. -1.
         22    1    3    3    0    0 -0.15653885860E+02 -0.32027594991E+02  0.12241429692E+02  0.37691691184E+02  0.00000000000E+00 0.  1.
         22    1    3    3    0    0 -0.82795098013E+02  0.77630457705E+01 -0.16228204131E+03  0.18234789296E+03  0.00000000000E+00 0.  1.
</event>
<event>
 7    1  0.5993218E-006  0.1131442E+03  0.7818608E-02  0.1358190E+00
          2   -1    0    0  502    0  0.00000000000E+00  0.00000000000E+00  0.10792440620E+04  0.10792440620E+04  0.00000000000E+00 0. -1.
          1   -1    0    0  501    0 -0.00000000000E+00 -0.00000000000E+00 -0.36026486121E+03  0.36026486121E+03  0.00000000000E+00 0. -1.
         25    2    1    2    0    0 -0.46274057400E+02  0.75153553002E+02  0.36210831872E+03  0.39311230004E+03  0.12500200413E+03 0.  0.
          2    1    1    2  501    0 -0.43123273802E+02  0.87724271707E+01 -0.33796816547E+03  0.34082114531E+03  0.00000000000E+00 0. -1.
          1    1    1    2  502    0  0.89397331202E+02 -0.83925980172E+02  0.69483904752E+03  0.70557547784E+03  0.00000000000E+00 0. -1.
         22    1    3    3    0    0 -0.12742120391E+02 -0.35134405804E+02  0.77307500124E+02  0.85867558942E+02  0.00000000000E+00 0. -1.
         22    1    3    3    0    0 -0.33531937009E+02  0.11028795881E+03  0.28480081860E+03  0.30724474110E+03  0.00000000000E+00 0. -1.
</event>
<event>
 7    1  0.5993218E-006  0.8968652E+02  0.7818608E-02  0.1434773E+00
          2   -1    0    0  502    0  0.00000000000E+00  0.00000000000E+00  0.72210229510E+03  0.72210229510E+03  0.00000000000E+00 0. -1.
          1   -1    0    0  501    0 -0.00000000000E+00 -0.00000000000E+00 -0.68363351733E+02  0.68363351733E+02  0.00000000000E+00 0. -1.
         25    2    1    2    0    0  0.85126627197E+02  0.51572807638E+02  0.76566991227E+02  0.17718291984E+03  0.12499994316E+03 0.  0.
          2    1    1    2  501    0 -0.25978979624E+02  0.15330987695E+02  0.94805690328E+00  0.30180215008E+02  0.00000000000E+00 0. -1.
          1    1    1    2  502    0 -0.59147647573E+02 -0.66903795333E+02  0.57622389523E+03  0.58310251198E+03  0.00000000000E+00 0. -1.
         22    1    3    3    0    0  0.55919395278E+02  0.93345274360E+02  0.51810049344E+02  0.12051804938E+03  0.00000000000E+00 0. -1.
         22    1    3    3    0    0  0.29207231919E+02 -0.41772466722E+02  0.24756941883E+02  0.56664870456E+02  0.00000000000E+00 0. -1.
</event>
<event>
 7    1  0.5993218E-006  0.8724475E+02  0.7818608E-02  0.1341943E+00
          2   -1    0    0  502    0  0.00000000000E+00  0.00000000000E+00  0.34539102319E+03  0.34539102319E+03  0.00000000000E+00 0. -1.
          1   -1    0    0  501    0 -0.00000000000E+00 -0.00000000000E+00 -0.71865200190E+03  0.71865200190E+03  0.00000000000E+00 0. -1.
         25    2    1    2    0    0  0.25832741526E+02 -0.90945966692E+00 -0.90092311675E+02  0.15623522874E+03  0.12499865769E+03 0.  0.
          2    1    1    2  501    0  0.63260956233E+02  0.17188617646E+02 -0.58705931972E+03  0.59070808529E+03  0.00000000000E+00 0. -1.
          1    1    1    2  502    0 -0.89093697759E+02 -0.16279157979E+02  0.30389065268E+03  0.31709971106E+03  0.00000000000E+00 0. -1.
         22    1    3    3    0    0  0.19878875614E+02  0.43681294879E+02 -0.99324407058E+02  0.11031121002E+03  0.00000000000E+00 0.  1.
         22    1    3    3    0    0  0.59538659117E+01 -0.44590754546E+02  0.92320953836E+01  0.45924018721E+02  0.00000000000E+00 0.  1.
</event>
<event>
 7    1  0.5993218E-006  0.3535300E+03  0.7818608E-02  0.1213236E+00
          2   -1    0    0  502    0  0.00000000000E+00  0.00000000000E+00  0.19107052326E+04  0.19107052326E+04  0.00000000000E+00 0. -1.
          1   -1    0    0  501    0 -0.00000000000E+00 -0.00000000000E+00 -0.19129396685E+03  0.19129396685E+03  0.00000000000E+00 0. -1.
         25    2    1    2    0    0  0.91301549538E+02 -0.33821512931E+03  0.80084501035E+02  0.38047813686E+03  0.12499855471E+03 0.  0.
          2    1    1    2  501    0 -0.14679606474E+03  0.33783552401E+03  0.80411436502E+03  0.88446697956E+03  0.00000000000E+00 0. -1.
          1    1    1    2  502    0  0.55494515199E+02  0.37960529642E+00  0.83521239966E+03  0.83705408300E+03  0.00000000000E+00 0. -1.
         22    1    3    3    0    0  0.96271441631E+02 -0.34351575645E+03  0.63481836642E+02  0.36235508688E+03  0.00000000000E+00 0. -1.
         22    1    3    3    0    0 -0.49698920931E+01  0.53006271436E+01  0.16602664393E+02  0.18123049977E+02  0.00000000000E+00 0. -1.
</event>
<event>
 7    1  0.5993218E-006  0.8648364E+02  0.7818608E-02  0.1340135E+00
          2   -1    0    0  502    0  0.00000000000E+00  0.00000000000E+00  0.14030988947E+03  0.14030988947E+03  0.00000000000E+00 0. -1.
          1   -1    0    0  501    0 -0.00000000000E+00 -0.00000000000E+00 -0.10218015272E+04  0.10218015272E+04  0.00000000000E+00 0. -1.
         25    2    1    2    0    0  0.54995895670E+02  0.39683722413E+02 -0.17872175495E+03  0.22839567076E+03  0.12499508135E+03 0.  0.
          2    1    1    2  501    0 -0.88596086308E+02  0.18482743281E+02 -0.80572096337E+03  0.81078798037E+03  0.00000000000E+00 0. -1.
          1    1    1    2  502    0  0.33600190638E+02 -0.58166465694E+02  0.10295108059E+03  0.12292776553E+03  0.00000000000E+00 0. -1.
         22    1    3    3    0    0  0.85553391871E+02  0.24033336514E+01 -0.74117392220E+02  0.11321902094E+03  0.00000000000E+00 0. -1.
         22    1    3    3    0    0 -0.30557496201E+02  0.37280388762E+02 -0.10460436273E+03  0.11517664982E+03  0.00000000000E+00 0. -1.
</event>
<event>
 7    1  0.5993218E-006  0.6683176E+02  0.7818608E-02  0.1435125E+00
          2   -1    0    0  502    0  0.00000000000E+00  0.00000000000E+00  0.14764446557E+02  0.14764446557E+02  0.00000000000E+00 0. -1.
          1   -1    0    0  501    0 -0.00000000000E+00 -0.00000000000E+00 -0.15271381879E+04  0.15271381879E+04  0.00000000000E+00 0. -1.
         25    2    1    2    0    0 -0.66210374526E+02 -0.28428205038E+02 -0.74513734603E+03  0.75897697421E+03  0.12499762555E+03 0.  0.
          2    1    1    2  501    0  0.37351997442E+02  0.56664186141E+02 -0.70796015257E+03  0.71120572223E+03  0.00000000000E+00 0. -1.
          1    1    1    2  502    0  0.28858377084E+02 -0.28235981103E+02 -0.59276242777E+02  0.71719938054E+02  0.00000000000E+00 0. -1.
         22    1    3    3    0    0 -0.67482365105E+02 -0.32421882123E+02 -0.19582236689E+03  0.20964600500E+03  0.00000000000E+00 0. -1.
         22    1    3    3    0    0  0.12719905790E+01  0.39936770850E+01 -0.54931497914E+03  0.54933096920E+03  0.00000000000E+00 0. -1.
</event>
<event>
 7    1  0.5993218E-006  0.1372964E+03  0.7818608E-02  0.1223064E+00
          2   -1    0    0  502    0  0.00000000000E+00  0.00000000000E+00  0.15987312907E+04  0.15987312907E+04  0.00000000000E+00 0. -1.
          1   -1    0    0  501    0 -0.00000000000E+00 -0.00000000000E+00 -0.22429314629E+03  0.22429314629E+03  0.00000000000E+00 0. -1.
         25    2    1    2    0    0  0.83231063591E+02  0.39471499863E+02  0.93824188241E+02  0.18141896720E+03  0.12499781643E+03 0.  0.
          2    1    1    2  501    0  0.99642324903E+00 -0.14789671483E+03 -0.14633974895E+03  0.20806189761E+03  0.00000000000E+00 0. -1.
          1    1    1    2  502    0 -0.84227486840E+02  0.10842521496E+03  0.14269537051E+04  0.14335435722E+04  0.00000000000E+00 0. -1.
         22    1    3    3    0    0  0.71598946220E+02 -0.28769033099E+02  0.79379659019E+02  0.11070319160E+03  0.00000000000E+00 0. -1.
         22    1    3    3    0    0  0.11632117371E+02  0.68240532962E+02  0.14444529222E+02  0.70715775594E+02  0.00000000000E+00 0. -1.
</event>
<event>
 7    1  0.5993218E-006  0.5799112E+02  0.7818608E-02  0.1470853E+00
          2   -1    0    0  502    0  0.00000000000E+00  0.00000000000E+00  0.19897700321E+03  0.19897700321E+03  0.00000000000E+00 0. -1.
          1   -1    0    0  501    0 -0.00000000000E+00 -0.00000000000E+00 -0.62075490207E+03  0.62075490207E+03  0.00000000000E+00 0. -1.
         25    2    1    2    0    0 -0.27373524011E+02 -0.16471508741E+02 -0.21506023668E+02  0.13079660622E+03  0.12499849090E+03 0.  0.
          2    1    1    2  501    0  0.27124903534E+02  0.52270024006E+02 -0.54076031331E+03  0.54395738091E+03  0.00000000000E+00 0. -1.
          1    1    1    2  502    0  0.24862047776E+00 -0.35798515265E+02  0.14048843812E+03  0.14497791815E+03  0.00000000000E+00 0. -1.
         22    1    3    3    0    0  0.41512893700E+02  0.22846264812E+02 -0.20088511196E+02  0.51466692543E+02  0.00000000000E+00 0.  1.
         22    1    3    3    0    0 -0.68886417712E+02 -0.39317773552E+02 -0.14175124713E+01  0.79329913676E+02  0.00000000000E+00 0.  1.
</event>
<event>
 7    1  0.5993218E-006  0.6218721E+02  0.7818608E-02  0.1428244E+00
          2   -1    0    0  502    0  0.00000000000E+00  0.00000000000E+00  0.36531864198E+03  0.36531864198E+03  0.00000000000E+00 0. -1.
          1   -1    0    0  501    0 -0.00000000000E+00 -0.00000000000E+00 -0.69605670710E+03  0.69605670710E+03  0.00000000000E+00 0. -1.
         25    2    1    2    0    0 -0.45382662112E+02 -0.49883715088E+02  0.24792563825E+02  0.14417601476E+03  0.12499632379E+03 0.  0.
          2    1    1    2  501    0  0.14143993118E+01  0.62370969456E+02 -0.63296145123E+03  0.63602856626E+03  0.00000000000E+00 0. -1.
          1    1    1    2  502    0  0.43968262800E+02 -0.12487254368E+02  0.27743082228E+03  0.28117076805E+03  0.00000000000E+00 0. -1.
         22    1    3    3    0    0 -0.61179358248E+02 -0.41234057702E+02 -0.35051358676E+02  0.81680837014E+02  0.00000000000E+00 0.  1.
         22    1    3    3    0    0  0.15796696136E+02 -0.86496573860E+01  0.59843922502E+02  0.62495177751E+02  0.00000000000E+00 0.  1.
</event>
<event>
 7    1  0.5993218E-006  0.6742390E+02  0.7818608E-02  0.1490892E+00
          2   -1    0    0  502    0  0.00000000000E+00  0.00000000000E+00  0.28567590774E+03  0.28567590774E+03  0.00000000000E+00 0. -1.
          1   -1    0    0  501    0 -0.00000000000E+00 -0.00000000000E+00 -0.19423562568E+03  0.19423562568E+03  0.00000000000E+00 0. -1.
         25    2    1    2    0    0  0.22270257633E+02  0.42073136928E+02  0.68039947239E+01  0.13393202983E+03  0.12500152417E+03 0.  0.
          2    1    1    2  501    0  0.25435424463E+02  0.82223515130E+01 -0.12362606537E+03  0.12648308947E+03  0.00000000000E+00 0. -1.
          1    1    1    2  502    0 -0.47705682096E+02 -0.50295488441E+02  0.20826235271E+03  0.21949641413E+03  0.00000000000E+00 0. -1.
         22    1    3    3    0    0  0.38966847959E+02  0.27410010676E+02  0.59804852535E+02  0.76461390988E+02  0.00000000000E+00 0.  1.
         22    1    3    3    0    0 -0.16696590326E+02  0.14663126252E+02 -0.53000857811E+02  0.57470638840E+02  0.00000000000E+00 0.  1.
</event>
<event>
 7    1  0.5993218E-006  0.2189624E+03  0.7818608E-02  0.1295088E+00
          2   -1    0    0  502    0  0.00000000000E+00  0.00000000000E+00  0.10052856131E+03  0.10052856131E+03  0.00000000000E+00 0. -1.
          1   -1    0    0  501    0 -0.00000000000E+00 -0.00000000000E+00 -0.10834978359E+04  0.10834978359E+04  0.00000000000E+00 0. -1.
         25    2    1    2    0    0  0.16237978118E+03 -0.16799191193E+03 -0.24189695941E+03  0.35878568430E+03  0.12499820989E+03 0.  0.
          2    1    1    2  501    0 -0.17251453934E+03  0.12956414839E+03 -0.75335821203E+03  0.78364324183E+03  0.00000000000E+00 0. -1.
          1    1    1    2  502    0  0.10134758160E+02  0.38427763536E+02  0.12285896899E+02  0.41597471029E+02  0.00000000000E+00 0. -1.
         22    1    3    3    0    0  0.89954159322E+02 -0.15371873492E+03 -0.21732931462E+03  0.28098617624E+03  0.00000000000E+00 0. -1.
         22    1    3    3    0    0  0.72425621859E+02 -0.14273177009E+02 -0.24567644790E+02  0.77799508058E+02  0.00000000000E+00 0. -1.
</event>
<event>
 7    1  0.5993218E-006  0.1045897E+03  0.7818608E-02  0.1422944E+00
          2   -1    0    0  502    0  0.00000000000E+00  0.00000000000E+00  0.79540327187E+03  0.79540327187E+03  0.00000000000E+00 0. -1.
          1   -1    0    0  501    0 -0.00000000000E+00 -0.00000000000E+00 -0.58831648276E+03  0.58831648276E+03  0.00000000000E+00 0. -1.
         25    2    1    2    0    0  0.71223351341E+02  0.55839198046E+02 -0.61958518812E+01  0.15444990843E+03  0.12500241526E+03 0.  0.
          2    1    1    2  501    0  0.25099590825E+02 -0.13068451012E+02 -0.50374445628E+03  0.50453865175E+03  0.00000000000E+00 0. -1.
          1    1    1    2  502    0 -0.96322942166E+02 -0.42770747035E+02  0.71702709727E+03  0.72473119445E+03  0.00000000000E+00 0. -1.
         22    1    3    3    0    0  0.59599853254E+02  0.74059554558E+02  0.40241583836E+02  0.10322957521E+03  0.00000000000E+00 0. -1.
         22    1    3    3    0    0  0.11623498088E+02 -0.18220356512E+02 -0.46437435717E+02  0.51220333220E+02  0.00000000000E+00 0. -1.
</event>
<event>
 7    1  0.5993218E-006  0.8144383E+02  0.7818608E-02  0.1490284E+00
          2   -1    0    0  502    0  0.00000000000E+00  0.00000000000E+00  0.26960836143E+04  0.26960836143E+04  0.00000000000E+00 0. -1.
          1   -1    0    0  501    0 -0.00000000000E+00 -0.00000000000E+00 -0.82805894910E+03  0.82805894910E+03  0.00000000000E+00 0. -1.
         25    2    1    2    0    0  0.66152100790E+02 -0.57120981719E+02 -0.10631328449E+03  0.18591416173E+03  0.12499061597E+03 0.  0.
          2    1    1    2  501    0 -0.19898150875E+02 -0.98974722798E+01 -0.68113987894E+03  0.68150233385E+03  0.00000000000E+00 0. -1.
          1    1    1    2  502    0 -0.46253949915E+02  0.67018453999E+02  0.26554778286E+04  0.26567260678E+04  0.00000000000E+00 0. -1.
         22    1    3    3    0    0  0.84931479965E+02 -0.52498628804E+02 -0.12434556075E+03  0.15947188089E+03  0.00000000000E+00 0. -1.
         22    1    3    3    0    0 -0.18779379175E+02 -0.46223529150E+01  0.18032276263E+02  0.26442280838E+02  0.00000000000E+00 0. -1.
</event>
<event>
 7    1  0.5993218E-006  0.9848493E+02  0.7818608E-02  0.1399203E+00
          2   -1    0    0  502    0  0.00000000000E+00  0.00000000000E+00  0.14510704760E+04  0.14510704760E+04  0.00000000000E+00 0. -1.
          1   -1    0    0  501    0 -0.00000000000E+00 -0.00000000000E+00 -0.10520244007E+03  0.10520244007E+03  0.00000000000E+00 0. -1.
         25    2    1    2    0    0 -0.45134007122E+02  0.75988136236E+02  0.16634595546E+03  0.22606423934E+03  0.12499115153E+03 0.  0.
          2    1    1    2  501    0 -0.33125279245E+02 -0.14495699701E+02 -0.68907492186E+02  0.77818069329E+02  0.00000000000E+00 0. -1.
          1    1    1    2  502    0  0.78259286367E+02 -0.61492436535E+02  0.12484295727E+04  0.12523906075E+04  0.00000000000E+00 0. -1.
         22    1    3    3    0    0 -0.41975627090E+02  0.10019906688E+03  0.76266072715E+02  0.13273402021E+03  0.00000000000E+00 0. -1.
         22    1    3    3    0    0 -0.31583800318E+01 -0.24210930642E+02  0.90079882749E+02  0.93330219131E+02  0.00000000000E+00 0. -1.
</event>
<event>
 7    1  0.5993218E-006  0.8112733E+02  0.7818608E-02  0.1490949E+00
          2   -1    0    0  502    0  0.00000000000E+00  0.00000000000E+00  0.75815965618E+02  0.75815965618E+02  0.00000000000E+00 0. -1.
          1   -1    0    0  501    0 -0.00000000000E+00 -0.00000000000E+00 -0.19268700457E+04  0.19268700457E+04  0.00000000000E+00 0. -1.
         25    2    1    2    0    0  0.92256099666E+02 -0.40472696518E+02 -0.11563133639E+04  0.11674051178E+04  0.12499954572E+03 0.  0.
          2    1    1    2  501    0 -0.22205167936E+02  0.31311959827E+00 -0.74159364646E+03  0.74192607718E+03  0.00000000000E+00 0. -1.
          1    1    1    2  502    0 -0.70050931730E+02  0.40159576920E+02  0.46852930294E+02  0.93354816329E+02  0.00000000000E+00 0. -1.
         22    1    3    3    0    0  0.10829570981E+03 -0.46364455643E+02 -0.11293886954E+04  0.11355159395E+04  0.00000000000E+00 0.  1.
         22    1    3    3    0    0 -0.16039610149E+02  0.58917591243E+01 -0.26924668439E+02  0.31889178256E+02  0.00000000000E+00 0.  1.
</event>
<event>
 7    1  0.5993218E-006  0.1243359E+03  0.7818608E-02  0.1305488E+00
          2   -1    0    0  502    0  0.00000000000E+00  0.00000000000E+00  0.19765082372E+04  0.19765082372E+04  0.00000000000E+00 0. -1.
          1   -1    0    0  501    0 -0.00000000000E+00 -0.00000000000E+00 -0.33947627784E+03  0.33947627784E+03  0.00000000000E+00 0. -1.
         25    2    1    2    0    0 -0.27862354319E+02  0.13725316847E+03  0.52908015681E+03  0.56139630189E+03  0.12500100960E+03 0.  0.
          2    1    1    2  501    0 -0.49212100781E+02 -0.40275821275E+02 -0.31747883545E+03  0.32378508860E+03  0.00000000000E+00 0. -1.
          1    1    1    2  502    0  0.77074455100E+02 -0.96977347197E+02  0.14254306380E+04  0.14308031245E+04  0.00000000000E+00 0. -1.
         22    1    3    3    0    0 -0.35822262327E+02  0.14768672938E+03  0.52653685452E+03  0.54802888945E+03  0.00000000000E+00 0. -1.
         22    1    3    3    0    0  0.79599080077E+01 -0.10433560905E+02  0.25433022922E+01  0.13367412435E+02  0.00000000000E+00 0. -1.
</event>
<event>
 7    1  0.5993218E-006  0.8896939E+02  0.7818608E-02  0.1319453E+00
          2   -1    0    0  502    0  0.00000000000E+00  0.00000000000E+00  0.92332043181E+03  0.92332043181E+03  0.00000000000E+00 0. -1.
          1   -1    0    0  501    0 -0.00000000000E+00 -0.00000000000E+00 -0.12144039063E+03  0.12144039063E+03  0.00000000000E+00 0. -1.
         25    2    1    2    0    0 -0.43836467140E+02  0.97882526689E+02  0.10465379371E+03  0.19514136888E+03  0.12500044971E+03 0.  0.
          2    1    1    2  501    0 -0.40415261316E+02 -0.67100225687E+02 -0.52660317279E+02  0.94387195373E+02  0.00000000000E+00 0. -1.
          1    1    1    2  502    0  0.84251728456E+02 -0.30782301002E+02  0.74988656476E+03  0.75523225819E+03  0.00000000000E+00 0. -1.
         22    1    3    3    0    0 -0.83409189704E+02  0.41318388819E+02  0.42796333774E+02  0.10244915015E+03  0.00000000000E+00 0. -1.
         22    1    3    3    0    0  0.39572722563E+02  0.56564137870E+02  0.61857459934E+02  0.92692218732E+02  0.00000000000E+00 0. -1.
</event>
<event>
 7    1  0.5993218E-006  0.1321744E+03  0.7818608E-02  0.1421840E+00
          2   -1    0    0  502    0  0.00000000000E+00  0.00000000000E+00  0.61095965782E+03  0.61095965782E+03  0.00000000000E+00 0. -1.
          1   -1    0    0  501    0 -0.00000000000E+00 -0.00000000000E+00 -0.45284600556E+03  0.45284600556E+03  0.00000000000E+00 0. -1.
         25    2    1    2    0    0  0.66424608273E+02  0.91267328973E+02 -0.15383252194E+02  0.16911457310E+03  0.12498456090E+03 0.  0.
          2    1    1    2  501    0 -0.81478442338E+02 -0.10810036890E+03 -0.34763971915E+03  0.37306541069E+03  0.00000000000E+00 0. -1.
          1    1    1    2  502    0  0.15053834065E+02  0.16833039930E+02  0.52113662360E+03  0.52162567960E+03  0.00000000000E+00 0. -1.
         22    1    3    3    0    0 -0.28424222038E+02  0.21513647779E+02 -0.34765112870E+02  0.49793438444E+02  0.00000000000E+00 0. -1.
         22    1    3    3    0    0  0.94848830310E+02  0.69753681194E+02  0.19381860676E+02  0.11932113465E+03  0.00000000000E+00 0. -1.
</event>
<event>
 7    1  0.5993218E-006  0.2958751E+02  0.7818608E-02  0.1661767E+00
          2   -1    0    0  502    0  0.00000000000E+00  0.00000000000E+00  0.15039665769E+04  0.15039665769E+04  0.00000000000E+00 0. -1.
          1   -1    0    0  501    0 -0.00000000000E+00 -0.00000000000E+00 -0.64776566257E+03  0.64776566257E+03  0.00000000000E+00 0. -1.
         25    2    1    2    0    0  0.39540104708E+02 -0.17201669687E+02  0.83690147641E+03  0.84728237141E+03  0.12499607345E+03 0.  0.
          2    1    1    2  501    0 -0.20508247075E+02 -0.46732494448E+01 -0.64208536271E+03  0.64242979419E+03  0.00000000000E+00 0. -1.
          1    1    1    2  502    0 -0.19031857633E+02  0.21874919132E+02  0.66138480062E+03  0.66202007386E+03  0.00000000000E+00 0. -1.
         22    1    3    3    0    0  0.51958453155E+02  0.14903755833E+02  0.77135366754E+03  0.77324529305E+03  0.00000000000E+00 0. -1.
         22    1    3    3    0    0 -0.12418348446E+02 -0.32105425520E+02  0.65547808861E+02  0.74037078363E+02  0.00000000000E+00 0. -1.
</event>
<event>
 7    1  0.5993218E-006  0.1857209E+03  0.7818608E-02  0.1283716E+00
          2   -1    0    0  502    0  0.00000000000E+00  0.00000000000E+00  0.99855804110E+03  0.99855804110E+03  0.00000000000E+00 0. -1.
          1   -1    0    0  501    0 -0.00000000000E+00 -0.00000000000E+00 -0.57191155603E+03  0.57191155603E+03  0.00000000000E+00 0. -1.
         25    2    1    2    0    0 -0.72175454200E+01  0.20021638482E+03  0.32379282811E+03  0.40075485844E+03  0.12499586919E+03 0.  0.
          2    1    1    2  501    0 -0.41130312130E+02 -0.18073439091E+03 -0.51620035179E+03  0.54847007742E+03  0.00000000000E+00 0. -1.
          1    1    1    2  502    0  0.48347857550E+02 -0.19481993906E+02  0.61905400875E+03  0.62124466128E+03  0.00000000000E+00 0. -1.
         22    1    3    3    0    0 -0.26487299140E+02 -0.53654736162E+01  0.59627968634E+02  0.65466479715E+02  0.00000000000E+00 0. -1.
         22    1    3    3    0    0  0.19269753720E+02  0.20558185843E+03  0.26416485947E+03  0.33528837872E+03  0.00000000000E+00 0. -1.
</event>
<event>
 7    1  0.5993218E-006  0.1870029E+03  0.7818608E-02  0.1290424E+00
          2   -1    0    0  502    0  0.00000000000E+00  0.00000000000E+00  0.32093576907E+03  0.32093576907E+03  0.00000000000E+00 0. -1.
          1   -1    0    0  501    0 -0.00000000000E+00 -0.00000000000E+00 -0.11178507477E+04  0.11178507477E+04  0.00000000000E+00 0. -1.
         25    2    1    2    0    0  0.19886749987E+03 -0.10329131259E+02 -0.39319449501E+03  0.45812847245E+03  0.12499925162E+03 0.  0.
          2    1    1    2  501    0 -0.20450987811E+02 -0.44089842608E+02 -0.66104965157E+03  0.66283391507E+03  0.00000000000E+00 0. -1.
          1    1    1    2  502    0 -0.17841651206E+03  0.54418973867E+02  0.25732916792E+03  0.31782412928E+03  0.00000000000E+00 0. -1.
         22    1    3    3    0    0  0.59956756076E+02 -0.57277354805E+02 -0.19228686469E+03  0.20940331015E+03  0.00000000000E+00 0.  1.
         22    1    3    3    0    0  0.13891074380E+03  0.46948223546E+02 -0.20090763032E+03  0.24872516229E+03  0.00000000000E+00 0.  1.
</event>
<event>
 7    1  0.5993218E-006  0.1051354E+03  0.7818608E-02  0.1281118E+00
          2   -1    0    0  502    0  0.00000000000E+00  0.00000000000E+00  0.27333515927E+03  0.27333515927E+03  0.00000000000E+00 0. -1.
          1   -1    0    0  501    0 -0.00000000000E+00 -0.00000000000E+00 -0.13813051445E+04  0.13813051445E+04  0.00000000000E+00 0. -1.
         25    2    1    2    0    0 -0.10970048575E+03  0.50231659410E+01 -0.45533320325E+03  0.48477410708E+03  0.12497271759E+03 0.  0.
          2    1    1    2  501    0  0.75200186193E+02  0.82819707524E+02 -0.89905812736E+03  0.90599099793E+03  0.00000000000E+00 0. -1.
          1    1    1    2  502    0  0.34500299559E+02 -0.87842873465E+02  0.24642134535E+03  0.26387519878E+03  0.00000000000E+00 0. -1.
         22    1    3    3    0    0 -0.44814802511E+02  0.11523476461E+02 -0.38904582172E+03  0.39178796362E+03  0.00000000000E+00 0. -1.
         22    1    3    3    0    0 -0.64885683241E+02 -0.65003105196E+01 -0.66287381525E+02  0.92986143462E+02  0.00000000000E+00 0. -1.
</event>
<event>
 7    1  0.5993218E-006  0.1778032E+03  0.7818608E-02  0.1299896E+00
          2   -1    0    0  502    0  0.00000000000E+00  0.00000000000E+00  0.22569179400E+03  0.22569179400E+03  0.00000000000E+00 0. -1.
          1   -1    0    0  501    0 -0.00000000000E+00 -0.00000000000E+00 -0.23130227786E+04  0.23130227786E+04  0.00000000000E+00 0. -1.
         25    2    1    2    0    0  0.16570222424E+03 -0.69967812722E+02 -0.16449745309E+03  0.27392741837E+03  0.12499638606E+03 0.  0.
          2    1    1    2  501    0 -0.17638001365E+03  0.24390375047E+02 -0.20867420911E+04  0.20943250356E+04  0.00000000000E+00 0. -1.
          1    1    1    2  502    0  0.10677789407E+02  0.45577437675E+02  0.16390855959E+03  0.17046211872E+03  0.00000000000E+00 0. -1.
         22    1    3    3    0    0 -0.11048587314E+02 -0.19825887814E+02  0.57885470704E+01  0.23423159190E+02  0.00000000000E+00 0.  1.
         22    1    3    3    0    0  0.17675081156E+03 -0.50141924908E+02 -0.17028600016E+03  0.25050425918E+03  0.00000000000E+00 0.  1.
</event>
<event>
 7    1  0.5993218E-006  0.2317690E+03  0.7818608E-02  0.1302582E+00
          2   -1    0    0  502    0  0.00000000000E+00  0.00000000000E+00  0.24078155526E+04  0.24078155526E+04  0.00000000000E+00 0. -1.
          1   -1    0    0  501    0 -0.00000000000E+00 -0.00000000000E+00 -0.14712202491E+03  0.14712202491E+03  0.00000000000E+00 0. -1.
         25    2    1    2    0    0  0.26127157729E+01  0.20487452682E+03  0.36257748683E+03  0.43482059891E+03  0.12500448493E+03 0.  0.
          2    1    1    2  501    0 -0.14548447688E+02  0.31871922875E+02 -0.10104742023E+03  0.10694885663E+03  0.00000000000E+00 0. -1.
          1    1    1    2  502    0  0.11935731915E+02 -0.23674644970E+03  0.19991634611E+04  0.20131681220E+04  0.00000000000E+00 0. -1.
         22    1    3    3    0    0  0.14904054349E+02  0.10553720224E+03  0.29600296303E+03  0.31460766999E+03  0.00000000000E+00 0.  1.
         22    1    3    3    0    0 -0.12291338576E+02  0.99337324587E+02  0.66574523799E+02  0.12021292892E+03  0.00000000000E+00 0.  1.
</event>
<event>
 7    1  0.5993218E-006  0.3830861E+02  0.7818608E-02  0.1534391E+00
          2   -1    0    0  502    0  0.00000000000E+00  0.00000000000E+00  0.69685337853E+03  0.69685337853E+03  0.00000000000E+00 0. -1.
          1   -1    0    0  501    0 -0.00000000000E+00 -0.00000000000E+00 -0.90344367980E+03  0.90344367980E+03  0.00000000000E+00 0. -1.
         25    2    1    2    0    0 -0.65049188684E+01 -0.13410599373E+02  0.60329510400E+03  0.61628811770E+03  0.12499561336E+03 0.  0.
          2    1    1    2  501    0  0.38305752478E+02 -0.13737171029E+01 -0.89298768593E+03  0.89380994904E+03  0.00000000000E+00 0. -1.
          1    1    1    2  502    0 -0.31800833610E+02  0.14784316475E+02  0.83102280663E+02  0.90198991587E+02  0.00000000000E+00 0. -1.
         22    1    3    3    0    0  0.42643932897E+02  0.18553795106E+02  0.10870278809E+03  0.11823300920E+03  0.00000000000E+00 0.  1.
         22    1    3    3    0    0 -0.49148851765E+02 -0.31964394478E+02  0.49459231591E+03  0.49805510850E+03  0.00000000000E+00 0.  1.
</event>
<event>
 7    1  0.5993218E-006  0.1007098E+03  0.7818608E-02  0.1308070E+00
          2   -1    0    0  502    0  0.00000000000E+00  0.00000000000E+00  0.27466344915E+04  0.27466344915E+04  0.00000000000E+00 0. -1.
          1   -1    0    0  501    0 -0.00000000000E+00 -0.00000000000E+00 -0.38746696702E+03  0.38746696702E+03  0.00000000000E+00 0. -1.
         25    2    1    2    0    0  0.68727046503E+02 -0.12517485681E+03  0.32482672595E+03  0.37620338574E+03  0.12499773541E+03 0.  0.
          2    1    1    2  501    0  0.17343578161E+02  0.74696605255E+02 -0.35666283915E+03  0.36481332674E+03  0.00000000000E+00 0. -1.
          1    1    1    2  502    0 -0.86070624664E+02  0.50478251550E+02  0.23910036377E+04  0.23930847461E+04  0.00000000000E+00 0. -1.
         22    1    3    3    0    0  0.93918229381E+02 -0.92902133198E+02  0.30129131839E+03  0.32898008860E+03  0.00000000000E+00 0. -1.
         22    1    3    3    0    0 -0.25191182877E+02 -0.32272723608E+02  0.23535407562E+02  0.47223297142E+02  0.00000000000E+00 0. -1.
</event>
<event>
 7    1  0.5993218E-006  0.4778260E+02  0.7818608E-02  0.1515121E+00
          2   -1    0    0  502    0  0.00000000000E+00  0.00000000000E+00  0.24494493321E+04  0.24494493321E+04  0.00000000000E+00 0. -1.
          1   -1    0    0  501    0 -0.00000000000E+00 -0.00000000000E+00 -0.10952618031E+04  0.10952618031E+04  0.00000000000E+00 0. -1.
         25    2    1    2    0    0  0.57308114936E+02  0.59856630251E+01  0.22631795981E+03  0.26488031776E+03  0.12498686172E+03 0.  0.
          2    1    1    2  501    0 -0.36792458731E+02 -0.30486942577E+02 -0.10753342172E+04  0.10763952886E+04  0.00000000000E+00 0. -1.
          1    1    1    2  502    0 -0.20515656205E+02  0.24501279552E+02  0.22032037864E+04  0.22034355288E+04  0.00000000000E+00 0. -1.
         22    1    3    3    0    0 -0.47558326826E+01 -0.75095850893E+01  0.19291208408E+03  0.19311676260E+03  0.00000000000E+00 0. -1.
         22    1    3    3    0    0  0.62063947619E+02  0.13495248114E+02  0.33405875736E+02  0.71763555161E+02  0.00000000000E+00 0. -1.
</event>
<event>
 7    1  0.5993218E-006  0.1643318E+03  0.7818608E-02  0.1253635E+00
          2   -1    0    0  502    0  0.00000000000E+00  0.00000000000E+00  0.85945718289E+03  0.85945718289E+03  0.00000000000E+00 0. -1.
          1   -1    0    0  501    0 -0.00000000000E+00 -0.00000000000E+00 -0.38826811403E+03  0.38826811403E+03  0.00000000000E+00 0. -1.
         25    2    1    2    0    0 -0.19589012570E+03  0.61871318793E+02  0.57446459404E+03  0.62276121050E+03  0.12498381522E+03 0.  0.
          2    1    1    2  501    0  0.78612796276E+02  0.61161561195E+01 -0.34170930648E+03  0.35068879258E+03  0.00000000000E+00 0. -1.
          1    1    1    2  502    0  0.11727732943E+03 -0.67987474912E+02  0.23843378131E+03  0.27427529384E+03  0.00000000000E+00 0. -1.
         22    1    3    3    0    0 -0.16768716075E+03  0.31066851720E+01  0.47594446104E+03  0.50463032545E+03  0.00000000000E+00 0. -1.
         22    1    3    3    0    0 -0.28202964954E+02  0.58764633621E+02  0.98520133000E+02  0.11813088505E+03  0.00000000000E+00 0. -1.
</event>
<event>
 7    1  0.5993218E-006  0.1962562E+03  0.7818608E-02  0.1256467E+00
          2   -1    0    0  502    0  0.00000000000E+00  0.00000000000E+00  0.17796908701E+04  0.17796908701E+04  0.00000000000E+00 0. -1.
          1   -1    0    0  501    0 -0.00000000000E+00 -0.00000000000E+00 -0.19706771452E+03  0.19706771452E+03  0.00000000000E+00 0. -1.
         25    2    1    2    0    0 -0.18215238999E+03 -0.12595320993E+02  0.90512806418E+03  0.93178307133E+03  0.12499897665E+03 0.  0.
          2    1    1    2  501    0 -0.18595136323E+02 -0.61444966527E+02 -0.16430873995E+03  0.17640471941E+03  0.00000000000E+00 0. -1.
          1    1    1    2  502    0  0.20074752631E+03  0.74040287520E+02  0.84180383132E+03  0.86857079385E+03  0.00000000000E+00 0. -1.
         22    1    3    3    0    0 -0.96005093043E+02  0.19996282694E+02  0.22493954583E+03  0.24538669175E+03  0.00000000000E+00 0.  1.
         22    1    3    3    0    0 -0.86147296946E+02 -0.32591603687E+02  0.68018851835E+03  0.68639637958E+03  0.00000000000E+00 0.  1.
</event>
<event>
 7    1  0.5993218E-006  0.1021092E+03  0.7818608E-02  0.1373235E+00
          2   -1    0    0  502    0  0.00000000000E+00  0.00000000000E+00  0.33445606969E+03  0.33445606969E+03  0.00000000000E+00 0. -1.
          1   -1    0    0  501    0 -0.00000000000E+00 -0.00000000000E+00 -0.22966870404E+03  0.22966870404E+03  0.00000000000E+00 0. -1.
         25    2    1    2    0    0 -0.73932921962E+02  0.51802218918E+01 -0.11310010368E+02  0.14575817442E+03  0.12499846969E+03 0.  0.
          2    1    1    2  501    0  0.10970311364E+03  0.18715505477E+02 -0.12851333801E+03  0.17000212155E+03  0.00000000000E+00 0. -1.
          1    1    1    2  502    0 -0.35770191675E+02 -0.23895727368E+02  0.24461071403E+03  0.24836447776E+03  0.00000000000E+00 0. -1.
         22    1    3    3    0    0 -0.34750177379E+02  0.48525659213E+02 -0.48147949939E+02  0.76684675870E+02  0.00000000000E+00 0. -1.
         22    1    3    3    0    0 -0.39182744583E+02 -0.43345437321E+02  0.36837939571E+02  0.69073498547E+02  0.00000000000E+00 0. -1.
</event>
<event>
 7    1  0.5993218E-006  0.5450507E+02  0.7818608E-02  0.1527710E+00
          2   -1    0    0  502    0  0.00000000000E+00  0.00000000000E+00  0.47961084385E+03  0.47961084385E+03  0.00000000000E+00 0. -1.
          1   -1    0    0  501    0 -0.00000000000E+00 -0.00000000000E+00 -0.13543001792E+04  0.13543001792E+04  0.00000000000E+00 0. -1.
         25    2    1    2    0    0  0.43443371199E+02 -0.11963612359E+02 -0.51435263750E+03  0.53123760152E+03  0.12499719616E+03 0.  0.
          2    1    1    2  501    0 -0.54956285862E+02 -0.11077594732E+02 -0.83020698497E+03  0.83209767718E+03  0.00000000000E+00 0. -1.
          1    1    1    2  502    0  0.11512914663E+02  0.23041207092E+02  0.46987028714E+03  0.47057574434E+03  0.00000000000E+00 0. -1.
         22    1    3    3    0    0  0.36680212569E+01  0.35040557208E+02 -0.39835563802E+03  0.39991062673E+03  0.00000000000E+00 0. -1.
         22    1    3    3    0    0  0.39775349942E+02 -0.47004169568E+02 -0.11599699948E+03  0.13132697479E+03  0.00000000000E+00 0. -1.
</event>
<event>
 7    1  0.5993218E-006  0.1201297E+03  0.7818608E-02  0.1346299E+00
          2   -1    0    0  502    0  0.00000000000E+00  0.00000000000E+00  0.17741337473E+04  0.17741337473E+04  0.00000000000E+00 0. -1.
          1   -1    0    0  501    0 -0.00000000000E+00 -0.00000000000E+00 -0.15098719598E+04  0.15098719598E+04  0.00000000000E+00 0. -1.
         25    2    1    2    0    0  0.59621490863E+01  0.92561592832E+02  0.51221302625E+03  0.53534104121E+03  0.12499860180E+03 0.  0.
          2    1    1    2  501    0  0.35186527295E+02  0.29407560898E+02 -0.14946423719E+04  0.14953456845E+04  0.00000000000E+00 0. -1.
          1    1    1    2  502    0 -0.41148676381E+02 -0.12196915373E+03  0.12466911331E+04  0.12533189815E+04  0.00000000000E+00 0. -1.
         22    1    3    3    0    0 -0.24624871256E+02  0.11284940808E+03  0.43118651131E+03  0.44638904638E+03  0.00000000000E+00 0.  1.
         22    1    3    3    0    0  0.30587020343E+02 -0.20287815252E+02  0.81026514942E+02  0.88951994833E+02  0.00000000000E+00 0.  1.
</event>
<event>
 7    1  0.5993218E-006  0.1209934E+03  0.7818608E-02  0.1407944E+00
          2   -1    0    0  502    0  0.00000000000E+00  0.00000000000E+00  0.58007429691E+03  0.58007429691E+03  0.00000000000E+00 0. -1.
          1   -1    0    0  501    0 -0.00000000000E+00 -0.00000000000E+00 -0.11400091900E+04  0.11400091900E+04  0.00000000000E+00 0. -1.
         25    2    1    2    0    0  0.11558186692E+03 -0.98406611287E+01 -0.19848179347E+03  0.26167926837E+03  0.12500004232E+03 0.  0.
          2    1    1    2  501    0 -0.11613403364E+03  0.37308638611E+02 -0.90549250353E+03  0.91367156146E+03  0.00000000000E+00 0. -1.
          1    1    1    2  502    0  0.55216672290E+00 -0.27467977482E+02  0.54403940392E+03  0.54473265708E+03  0.00000000000E+00 0. -1.
         22    1    3    3    0    0  0.47909480456E+02  0.53886301866E+02 -0.54864612809E+02  0.90604511946E+02  0.00000000000E+00 0.  1.
         22    1    3    3    0    0  0.67672386464E+02 -0.63726962995E+02 -0.14361718067E+03  0.17107475642E+03  0.00000000000E+00 0.  1.
</event>
<event>
 7    1  0.5993218E-006  0.6968550E+02  0.7818608E-02  0.1373941E+00
          2   -1    0    0  502    0  0.00000000000E+00  0.00000000000E+00  0.30025680892E+04  0.30025680892E+04  0.00000000000E+00 0. -1.
          1   -1    0    0  501    0 -0.00000000000E+00 -0.00000000000E+00 -0.63046743792E+03  0.63046743792E+03  0.00000000000E+00 0. -1.
         25    2    1    2    0    0 -0.46093942882E+02 -0.90116673056E+02  0.31235282684E+03  0.35133084852E+03  0.12499364124E+03 0.  0.
          2    1    1    2  501    0 -0.16658289108E+02  0.60413287085E+02 -0.60891880943E+03  0.61213509973E+03  0.00000000000E+00 0. -1.
          1    1    1    2  502    0  0.62752231990E+02  0.29703385970E+02  0.26686666339E+04  0.26695695789E+04  0.00000000000E+00 0. -1.
         22    1    3    3    0    0  0.18175197767E+02 -0.64898019213E+02  0.24784231483E+03  0.25684217670E+03  0.00000000000E+00 0.  1.
         22    1    3    3    0    0 -0.64269140649E+02 -0.25218653842E+02  0.64510512009E+02  0.94488671813E+02  0.00000000000E+00 0.  1.
</event>
<event>
 7    1  0.5993218E-006  0.4107417E+02  0.7818608E-02  0.1506443E+00
          2   -1    0    0  502    0  0.00000000000E+00  0.00000000000E+00  0.27985001018E+02  0.27985001018E+02  0.00000000000E+00 0. -1.
          1   -1    0    0  501    0 -0.00000000000E+00 -0.00000000000E+00 -0.93357085126E+03  0.93357085126E+03  0.00000000000E+00 0. -1.
         25    2    1    2    0    0 -0.13938134846E+02  0.17249015326E+02 -0.60396841072E+03  0.61716657650E+03  0.12499976743E+03 0.  0.
          2    1    1    2  501    0  0.34020563028E+02  0.19923804174E+02 -0.29950187660E+03  0.30208563483E+03  0.00000000000E+00 0. -1.
          1    1    1    2  502    0 -0.20082428183E+02 -0.37172819500E+02 -0.21155629130E+01  0.42303640951E+02  0.00000000000E+00 0. -1.
         22    1    3    3    0    0 -0.52142040167E+02 -0.24358640029E+02 -0.43985514224E+03  0.44360419504E+03  0.00000000000E+00 0.  1.
         22    1    3    3    0    0  0.38203905321E+02  0.41607655355E+02 -0.16411326848E+03  0.17356238146E+03  0.00000000000E+00 0.  1.
</event>
<event>
 7    1  0.5993218E-006  0.9094549E+02  0.7818608E-02  0.1342001E+00
          2   -1    0    0  502    0  0.00000000000E+00  0.00000000000E+00  0.49957971580E+03  0.49957971580E+03  0.00000000000E+00 0. -1.
          1   -1    0    0  501    0 -0.00000000000E+00 -0.00000000000E+00 -0.11413787939E+04  0.11413787939E+04  0.00000000000E+00 0. -1.
         25    2    1    2    0    0 -0.96804356659E+02  0.36665128182E+02 -0.70287368226E+02  0.17685807787E+03  0.12499220169E+03 0.  0.
          2    1    1    2  501    0  0.87592929372E+02  0.25512028246E+02 -0.10135338042E+04  0.10176316412E+04  0.00000000000E+00 0. -1.
          1    1    1    2  502    0  0.92114272874E+01 -0.62177156428E+02  0.44202209432E+03  0.44646879067E+03  0.00000000000E+00 0. -1.
         22    1    3    3    0    0  0.17540552909E+02 -0.20764604048E+02  0.60685961126E+01  0.27850810336E+02  0.00000000000E+00 0. -1.
         22    1    3    3    0    0 -0.11434490957E+03  0.57429732230E+02 -0.76355964339E+02  0.14900726753E+03  0.00000000000E+00 0. -1.
</event>
<event>
 7    1  0.5993218E-006  0.6771813E+02  0.7818608E-02  0.1418619E+00
          2   -1    0    0  502    0  0.00000000000E+00  0.00000000000E+00  0.34809891167E+03  0.34809891167E+03  0.00000000000E+00 0. -1.
          1   -1    0    0  501    0 -0.00000000000E+00 -0.00000000000E+00 -0.10353784313E+04  0.10353784313E+04  0.00000000000E+00 0. -1.
         25    2    1    2    0    0 -0.18651745127E+02 -0.72336035469E+02  0.67188863760E+02  0.16037121061E+03  0.12499676858E+03 0.  0.
          2    1    1    2  501    0 -0.25515032618E+02  0.62811080073E+02 -0.98543366136E+03  0.98776300276E+03  0.00000000000E+00 0. -1.
          1    1    1    2  502    0  0.44166777745E+02  0.95249553959E+01  0.23096527797E+03  0.23534312962E+03  0.00000000000E+00 0. -1.
         22    1    3    3    0    0 -0.22879693832E+02 -0.81879955879E+02  0.96882988346E+02  0.12889577571E+03  0.00000000000E+00 0.  1.
         22    1    3    3    0    0  0.42279487054E+01  0.95439204099E+01 -0.29694124586E+02  0.31475434898E+02  0.00000000000E+00 0.  1.
</event>
<event>
 7    1  0.7103181E-006  0.8696221E+02  0.7818608E-02  0.1339135E+00
          2   -1    0    0  502    0  0.00000000000E+00  0.00000000000E+00  0.12049886764E+04  0.12049886764E+04  0.00000000000E+00 0. -1.
          1   -1    0    0  501    0 -0.00000000000E+00 -0.00000000000E+00 -0.65706192062E+03  0.65706192062E+03  0.00000000000E+00 0. -1.
         25    2    1    2    0    0  0.53087363612E+02 -0.42614340609E+02 -0.26216679266E+03  0.29831507601E+03  0.12500482871E+03 0.  0.
          2    1    1    2  501    0 -0.14748445346E+02  0.98030391843E+02 -0.36932258620E+03  0.38239592969E+03  0.00000000000E+00 0. -1.
          1    1    1    2  502    0 -0.38338918265E+02 -0.55416051235E+02  0.11794161346E+04  0.11813395913E+04  0.00000000000E+00 0. -1.
         22    1    3    3    0    0 -0.18470054014E+01  0.72182708709E+01 -0.20379477580E+03  0.20393093318E+03  0.00000000000E+00 0. -1.
         22    1    3    3    0    0  0.54934369013E+02 -0.49832611479E+02 -0.58372016858E+02  0.94384142830E+02  0.00000000000E+00 0. -1.
</event>
<event>
 7    1  0.5993218E-006  0.9497538E+02  0.7818608E-02  0.1395029E+00
          2   -1    0    0  502    0  0.00000000000E+00  0.00000000000E+00  0.37193602732E+03  0.37193602732E+03  0.00000000000E+00 0. -1.
          1   -1    0    0  501    0 -0.00000000000E+00 -0.00000000000E+00 -0.12933095872E+04  0.12933095872E+04  0.00000000000E+00 0. -1.
         25    2    1    2    0    0  0.68725499477E+02  0.41873790739E+01 -0.42574226860E+03  0.44902374612E+03  0.12500046753E+03 0.  0.
          2    1    1    2  501    0  0.22724702852E+02 -0.31399136498E+02 -0.84915997825E+03  0.85004410859E+03  0.00000000000E+00 0. -1.
          1    1    1    2  502    0 -0.91450202329E+02  0.27211757424E+02  0.35352868699E+03  0.36617775980E+03  0.00000000000E+00 0. -1.
         22    1    3    3    0    0  0.72981946340E+02  0.35445035887E+02 -0.40046096951E+03  0.40859723832E+03  0.00000000000E+00 0.  1.
         22    1    3    3    0    0 -0.42564468627E+01 -0.31257656814E+02 -0.25281299095E+02  0.40426507805E+02  0.00000000000E+00 0.  1.
</event>
<event>
 7    1  0.5993218E-006  0.7019213E+02  0.7818608E-02  0.1496087E+00
          2   -1    0    0  502    0  0.00000000000E+00  0.00000000000E+00  0.16475188154E+04  0.16475188154E+04  0.00000000000E+00 0. -1.
          1   -1    0    0  501    0 -0.00000000000E+00 -0.00000000000E+00 -0.10637958288E+02  0.10637958288E+02  0.00000000000E+00 0. -1.
         25    2    1    2    0    0  0.61374732029E+02 -0.37701675676E+02  0.12953988217E+04  0.13034076470E+04  0.12500045156E+03 0.  0.
          2    1    1    2  501    0 -0.69122535843E+02  0.14175762711E+02  0.27124925316E+03  0.28027671068E+03  0.00000000000E+00 0. -1.
          1    1    1    2  502    0  0.77478038133E+01  0.23525912965E+02  0.70232782260E+02  0.74472416026E+02  0.00000000000E+00 0. -1.
         22    1    3    3    0    0  0.83298782954E+02 -0.51953803277E+02  0.12128351079E+04  0.12168019082E+04  0.00000000000E+00 0. -1.
         22    1    3    3    0    0 -0.21924050925E+02  0.14252127602E+02  0.82563713847E+02  0.86605738807E+02  0.00000000000E+00 0. -1.
</event>
<event>
 7    1  0.5993218E-006  0.6729674E+02  0.7818608E-02  0.1398234E+00
          2   -1    0    0  502    0  0.00000000000E+00  0.00000000000E+00  0.84231138716E+03  0.84231138716E+03  0.00000000000E+00 0. -1.
          1   -1    0    0  501    0 -0.00000000000E+00 -0.00000000000E+00 -0.13508170930E+04  0.13508170930E+04  0.00000000000E+00 0. -1.
         25    2    1    2    0    0  0.18742809362E+02  0.33876213583E+01 -0.65004243255E+03  0.66222734829E+03  0.12500851100E+03 0.  0.
          2    1    1    2  501    0  0.41682173308E+02 -0.33257155669E+02 -0.69229693227E+03  0.69434752423E+03  0.00000000000E+00 0. -1.
          1    1    1    2  502    0 -0.60424982670E+02  0.29869534310E+02  0.83383365898E+03  0.83655360764E+03  0.00000000000E+00 0. -1.
         22    1    3    3    0    0 -0.20260471271E+02  0.11553508268E+02 -0.58817444912E+03  0.58863669003E+03  0.00000000000E+00 0. -1.
         22    1    3    3    0    0  0.39003280633E+02 -0.81658869096E+01 -0.61867983429E+02  0.73590658257E+02  0.00000000000E+00 0. -1.
</event>
<event>
 7    1  0.5993218E-006  0.1941075E+03  0.7818608E-02  0.1358209E+00
          2   -1    0    0  502    0  0.00000000000E+00  0.00000000000E+00  0.12365729325E+03  0.12365729325E+03  0.00000000000E+00 0. -1.
          1   -1    0    0  501    0 -0.00000000000E+00 -0.00000000000E+00 -0.64805825104E+03  0.64805825104E+03  0.00000000000E+00 0. -1.
         25    2    1    2    0    0 -0.10292849912E+03 -0.15463939366E+03 -0.45140103932E+03  0.50388098770E+03  0.12500213382E+03 0.  0.
          2    1    1    2  501    0  0.15110076002E+02 -0.20723414510E+02 -0.66865855137E+02  0.71615758664E+02  0.00000000000E+00 0. -1.
          1    1    1    2  502    0  0.87818423114E+02  0.17536280818E+03 -0.61340633394E+01  0.19621879793E+03  0.00000000000E+00 0. -1.
         22    1    3    3    0    0 -0.93795387930E+02 -0.29811806351E+02 -0.18533151503E+03  0.20984301051E+03  0.00000000000E+00 0. -1.
         22    1    3    3    0    0 -0.91331111862E+01 -0.12482758731E+03 -0.26606952429E+03  0.29403797719E+03  0.00000000000E+00 0. -1.
</event>
<event>
 7    1  0.5993218E-006  0.1088321E+03  0.7818608E-02  0.1273016E+00
          2   -1    0    0  502    0  0.00000000000E+00  0.00000000000E+00  0.37223047907E+03  0.37223047907E+03  0.00000000000E+00 0. -1.
          1   -1    0    0  501    0 -0.00000000000E+00 -0.00000000000E+00 -0.11803575545E+03  0.11803575545E+03  0.00000000000E+00 0. -1.
         25    2    1    2    0    0 -0.80178869570E+02  0.48927620911E+02  0.79033180186E+02  0.17519666083E+03  0.12500025273E+03 0.  0.
          2    1    1    2  501    0  0.23942208106E+02 -0.12981038261E+03  0.23279176181E+02  0.13403687853E+03  0.00000000000E+00 0. -1.
          1    1    1    2  502    0  0.56236661464E+02  0.80882761699E+02  0.15188236726E+03  0.18103269516E+03  0.00000000000E+00 0. -1.
         22    1    3    3    0    0  0.61134536719E+01 -0.13417640855E+02 -0.23271864972E+02  0.27549720529E+02  0.00000000000E+00 0. -1.
         22    1    3    3    0    0 -0.86292323242E+02  0.62345261766E+02  0.10230504516E+03  0.14764694030E+03  0.00000000000E+00 0. -1.
</event>
<event>
 7    1  0.5993218E-006  0.1158255E+03  0.7818608E-02  0.1356557E+00
          2   -1    0    0  502    0  0.00000000000E+00  0.00000000000E+00  0.67962083077E+03  0.67962083077E+03  0.00000000000E+00 0. -1.
          1   -1    0    0  501    0 -0.00000000000E+00 -0.00000000000E+00 -0.26978793603E+03  0.26978793603E+03  0.00000000000E+00 0. -1.
         25    2    1    2    0    0  0.69965590542E+02  0.23967099014E+02  0.31910556238E+03  0.35060336990E+03  0.12499902940E+03 0.  0.
          2    1    1    2  501    0 -0.11089304701E+03 -0.38951756416E+02 -0.23893263952E+03  0.26627676097E+03  0.00000000000E+00 0. -1.
          1    1    1    2  502    0  0.40927456466E+02  0.14984657402E+02  0.32965997189E+03  0.33252863593E+03  0.00000000000E+00 0. -1.
         22    1    3    3    0    0  0.60659876836E+02  0.20322777321E+02  0.49695200505E+02  0.81007708825E+02  0.00000000000E+00 0.  1.
         22    1    3    3    0    0  0.93057137064E+01  0.36443216929E+01  0.26941036187E+03  0.26959566108E+03  0.00000000000E+00 0.  1.
</event>
<event>
 7    1  0.5993218E-006  0.1905814E+03  0.7818608E-02  0.1243091E+00
          2   -1    0    0  502    0  0.00000000000E+00  0.00000000000E+00  0.11445279876E+04  0.11445279876E+04  0.00000000000E+00 0. -1.
          1   -1    0    0  501    0 -0.00000000000E+00 -0.00000000000E+00 -0.79104336996E+03  0.79104336996E+03  0.00000000000E+00 0. -1.
         25    2    1    2    0    0  0.88948992225E+02 -0.23214787110E+03 -0.14856807816E+02  0.27865877153E+03  0.12500171573E+03 0.  0.
          2    1    1    2  501    0  0.12473494251E+02  0.74525991586E+02 -0.63334720436E+03  0.63783884544E+03  0.00000000000E+00 0. -1.
          1    1    1    2  502    0 -0.10142248648E+03  0.15762187951E+03  0.10016886298E+04  0.10190737406E+04  0.00000000000E+00 0. -1.
         22    1    3    3    0    0  0.71448283283E+02 -0.17053663150E+03  0.45756125517E+02  0.19047630532E+03  0.00000000000E+00 0. -1.
         22    1    3    3    0    0  0.17500708942E+02 -0.61611239601E+02 -0.60612933333E+02  0.88182466204E+02  0.00000000000E+00 0. -1.
</event>
<event>
 7    1  0.5993218E-006  0.1815397E+03  0.7818608E-02  0.1251109E+00
          2   -1    0    0  502    0  0.00000000000E+00  0.00000000000E+00  0.38145305033E+04  0.38145305033E+04  0.00000000000E+00 0. -1.
          1   -1    0    0  501    0 -0.00000000000E+00 -0.00000000000E+00 -0.54293001425E+03  0.54293001425E+03  0.00000000000E+00 0. -1.
         25    2    1    2    0    0 -0.13537803611E+03  0.11200082798E+02  0.22905322798E+03  0.29418089916E+03  0.12499746265E+03 0.  0.
          2    1    1    2  501    0  0.16838120813E+03 -0.76529949807E+02 -0.49321787021E+03  0.52675699517E+03  0.00000000000E+00 0. -1.
          1    1    1    2  502    0 -0.33003172011E+02  0.65329867009E+02  0.35357651313E+04  0.35365226232E+04  0.00000000000E+00 0. -1.
         22    1    3    3    0    0 -0.97764022165E+02 -0.46701714094E+02  0.17772211151E+03  0.20814418813E+03  0.00000000000E+00 0. -1.
         22    1    3    3    0    0 -0.37614013949E+02  0.57901796892E+02  0.51331116466E+02  0.86036711039E+02  0.00000000000E+00 0. -1.
</event>
<event>
 7    1  0.5993218E-006  0.7680868E+02  0.7818608E-02  0.1406281E+00
          2   -1    0    0  502    0  0.00000000000E+00  0.00000000000E+00  0.33852794642E+03  0.33852794642E+03  0.00000000000E+00 0. -1.
          1   -1    0    0  501    0 -0.00000000000E+00 -0.00000000000E+00 -0.16149750681E+03  0.16149750681E+03  0.00000000000E+00 0. -1.
         25    2    1    2    0    0  0.74308379487E+02 -0.70813317748E+01  0.30422822806E+02  0.14873280079E+03  0.12499606939E+03 0.  0.
          2    1    1    2  501    0 -0.70033489259E+02 -0.36555243353E+02 -0.84724929104E+02  0.11584165506E+03  0.00000000000E+00 0. -1.
          1    1    1    2  502    0 -0.42748902279E+01  0.43636575127E+02  0.23133254591E+03  0.23545099739E+03  0.00000000000E+00 0. -1.
         22    1    3    3    0    0  0.10467835247E+03 -0.16754493920E+02  0.20035595925E+01  0.10602964111E+03  0.00000000000E+00 0. -1.
         22    1    3    3    0    0 -0.30369972987E+02  0.96731621453E+01  0.28419263213E+02  0.42703159681E+02  0.00000000000E+00 0. -1.
</event>
<event>
 7    1  0.5993218E-006  0.6924377E+02  0.7818608E-02  0.1398754E+00
          2   -1    0    0  502    0  0.00000000000E+00  0.00000000000E+00  0.96065749287E+03  0.96065749287E+03  0.00000000000E+00 0. -1.
          1   -1    0    0  501    0 -0.00000000000E+00 -0.00000000000E+00 -0.53394457691E+02  0.53394457691E+02  0.00000000000E+00 0. -1.
         25    2    1    2    0    0 -0.66455112945E+02  0.81009312065E+02  0.14246832826E+03  0.21656630230E+03  0.12499979224E+03 0.  0.
          2    1    1    2  501    0  0.49434639806E+02 -0.32285448275E+02  0.41069370339E+02  0.71922367613E+02  0.00000000000E+00 0. -1.
          1    1    1    2  502    0  0.17020473139E+02 -0.48723863791E+02  0.72372533658E+03  0.72556328064E+03  0.00000000000E+00 0. -1.
         22    1    3    3    0    0 -0.20820809474E+02  0.17310314985E+02 -0.21671757661E+02  0.34681669396E+02  0.00000000000E+00 0.  1.
         22    1    3    3    0    0 -0.45634303470E+02  0.63698997081E+02  0.16414008592E+03  0.18188463291E+03  0.00000000000E+00 0.  1.
</event>
<event>
 7    1  0.5993218E-006  0.1194280E+03  0.7818608E-02  0.1429605E+00
          2   -1    0    0  502    0  0.00000000000E+00  0.00000000000E+00  0.30654770152E+03  0.30654770152E+03  0.00000000000E+00 0. -1.
          1   -1    0    0  501    0 -0.00000000000E+00 -0.00000000000E+00 -0.27189522417E+03  0.27189522417E+03  0.00000000000E+00 0. -1.
         25    2    1    2    0    0  0.10581901836E+03  0.70598069227E+02  0.61532364235E+02  0.18865405501E+03  0.12498947394E+03 0.  0.
          2    1    1    2  501    0 -0.85391046477E+02 -0.82326380784E+02 -0.19053950483E+03  0.22444279158E+03  0.00000000000E+00 0. -1.
          1    1    1    2  502    0 -0.20427971887E+02  0.11728311556E+02  0.16365961795E+03  0.16534607911E+03  0.00000000000E+00 0. -1.
         22    1    3    3    0    0  0.48385511347E+02 -0.56857903894E+01 -0.29312066315E+02  0.56856689600E+02  0.00000000000E+00 0. -1.
         22    1    3    3    0    0  0.57433507017E+02  0.76283859617E+02  0.90844430550E+02  0.13179736541E+03  0.00000000000E+00 0. -1.
</event>
<event>
 7    1  0.5993218E-006  0.6813842E+02  0.7818608E-02  0.1434316E+00
          2   -1    0    0  502    0  0.00000000000E+00  0.00000000000E+00  0.14293365305E+04  0.14293365305E+04  0.00000000000E+00 0. -1.
          1   -1    0    0  501    0 -0.00000000000E+00 -0.00000000000E+00 -0.30518779794E+03  0.30518779794E+03  0.00000000000E+00 0. -1.
         25    2    1    2    0    0  0.17912864796E+02  0.10438135449E+03  0.94443813796E+03  0.95854548960E+03  0.12501888381E+03 0.  0.
          2    1    1    2  501    0 -0.21011921048E+02 -0.64660247198E+02 -0.29340976155E+03  0.30118389161E+03  0.00000000000E+00 0. -1.
          1    1    1    2  502    0  0.30990562518E+01 -0.39721107296E+02  0.47312035611E+03  0.47479494719E+03  0.00000000000E+00 0. -1.
         22    1    3    3    0    0 -0.35486913434E+02  0.64817553028E+02  0.24355540704E+03  0.25451890402E+03  0.00000000000E+00 0. -1.
         22    1    3    3    0    0  0.53399778230E+02  0.39563801466E+02  0.70088273092E+03  0.70402658558E+03  0.00000000000E+00 0. -1.
</event>
<event>
 7    1  0.5993218E-006  0.2158672E+03  0.7818608E-02  0.1145417E+00
          2   -1    0    0  502    0  0.00000000000E+00  0.00000000000E+00  0.63516085677E+03  0.63516085677E+03  0.00000000000E+00 0. -1.
          1   -1    0    0  501    0 -0.00000000000E+00 -0.00000000000E+00 -0.14438052596E+04  0.14438052596E+04  0.00000000000E+00 0. -1.
         25    2    1    2    0    0 -0.11678344818E+03  0.32882334204E+01  0.44866916824E+01  0.17115113977E+03  0.12499358382E+03 0.  0.
          2    1    1    2  501    0 -0.73615465662E+02  0.18065453524E+03 -0.13208723643E+04  0.13352000227E+04  0.00000000000E+00 0. -1.
          1    1    1    2  502    0  0.19039891384E+03 -0.18394276866E+03  0.50774126971E+03  0.57261495397E+03  0.00000000000E+00 0. -1.
         22    1    3    3    0    0 -0.10423889552E+03 -0.39405125023E+02 -0.29362501967E+02  0.11524177949E+03  0.00000000000E+00 0.  1.
         22    1    3    3    0    0 -0.12544552655E+02  0.42693358443E+02  0.33849193649E+02  0.55909360282E+02  0.00000000000E+00 0.  1.
</event>
<event>
 7    1  0.5993218E-006  0.2139951E+03  0.7818608E-02  0.1265103E+00
          2   -1    0    0  502    0  0.00000000000E+00  0.00000000000E+00  0.36674634498E+03  0.36674634498E+03  0.00000000000E+00 0. -1.
          1   -1    0    0  501    0 -0.00000000000E+00 -0.00000000000E+00 -0.12135958188E+04  0.12135958188E+04  0.00000000000E+00 0. -1.
         25    2    1    2    0    0 -0.10801402667E+03  0.20751965873E+03 -0.13815738834E+03  0.29907127338E+03  0.12499889557E+03 0.  0.
          2    1    1    2  501    0  0.13686051149E+03 -0.16176284838E+03 -0.98101009295E+03  0.10036328119E+04  0.00000000000E+00 0. -1.
          1    1    1    2  502    0 -0.28846484815E+02 -0.45756810350E+02  0.27231800750E+03  0.27763807842E+03  0.00000000000E+00 0. -1.
         22    1    3    3    0    0 -0.99465887753E+02  0.78349662468E+02 -0.29374982627E+02  0.12998085259E+03  0.00000000000E+00 0. -1.
         22    1    3    3    0    0 -0.85481389195E+01  0.12916999626E+03 -0.10878240571E+03  0.16909042079E+03  0.00000000000E+00 0. -1.
</event>
<event>
 7    1  0.5993218E-006  0.8527729E+02  0.7818608E-02  0.1385504E+00
          2   -1    0    0  502    0  0.00000000000E+00  0.00000000000E+00  0.24984771436E+04  0.24984771436E+04  0.00000000000E+00 0. -1.
          1   -1    0    0  501    0 -0.00000000000E+00 -0.00000000000E+00 -0.57670069421E+02  0.57670069421E+02  0.00000000000E+00 0. -1.
         25    2    1    2    0    0  0.10264292627E+03  0.91910320905E+01  0.81407405306E+03  0.83003703373E+03  0.12499947247E+03 0.  0.
          2    1    1    2  501    0 -0.79081990973E+02  0.31013646592E+02 -0.12808858372E+02  0.85906195492E+02  0.00000000000E+00 0. -1.
          1    1    1    2  502    0 -0.23560935295E+02 -0.40204678683E+02  0.16395418795E+04  0.16402039838E+04  0.00000000000E+00 0. -1.
         22    1    3    3    0    0  0.30072424893E+02 -0.56569481903E+02  0.31926886761E+03  0.32563333190E+03  0.00000000000E+00 0. -1.
         22    1    3    3    0    0  0.72570501374E+02  0.65760513993E+02  0.49480518545E+03  0.50440370183E+03  0.00000000000E+00 0. -1.
</event>
<event>
 7    1  0.5993218E-006  0.1127702E+03  0.7818608E-02  0.1348250E+00
          2   -1    0    0  502    0  0.00000000000E+00  0.00000000000E+00  0.16285032080E+04  0.16285032080E+04  0.00000000000E+00 0. -1.
          1   -1    0    0  501    0 -0.00000000000E+00 -0.00000000000E+00 -0.12508380796E+04  0.12508380796E+04  0.00000000000E+00 0. -1.
         25    2    1    2    0    0  0.10235723931E+03 -0.10874675095E+03  0.15161807855E+03  0.24681123253E+03  0.12499952992E+03 0.  0.
          2    1    1    2  501    0 -0.94061089825E+02  0.61428082805E+02 -0.12002139316E+04  0.12054602356E+04  0.00000000000E+00 0. -1.
          1    1    1    2  502    0 -0.82961494811E+01  0.47318668143E+02  0.14262609815E+04  0.14270698195E+04  0.00000000000E+00 0. -1.
         22    1    3    3    0    0  0.66018461463E+01 -0.35387947251E+02 -0.16739727146E+02  0.39700247457E+02  0.00000000000E+00 0. -1.
         22    1    3    3    0    0  0.95755393160E+02 -0.73358803697E+02  0.16835780570E+03  0.20711098507E+03  0.00000000000E+00 0. -1.
</event>
<event>
 7    1  0.5993218E-006  0.8453608E+02  0.7818608E-02  0.1388130E+00
          2   -1    0    0  502    0  0.00000000000E+00  0.00000000000E+00  0.88942624482E+03  0.88942624482E+03  0.00000000000E+00 0. -1.
          1   -1    0    0  501    0 -0.00000000000E+00 -0.00000000000E+00 -0.24584689137E+03  0.24584689137E+03  0.00000000000E+00 0. -1.
         25    2    1    2    0    0  0.46570469392E+02 -0.10955399977E+03  0.93482838148E+02  0.19630438309E+03  0.12500192921E+03 0.  0.
          2    1    1    2  501    0  0.65642857023E+01  0.45551591147E+02 -0.18934764266E+03  0.19486037844E+03  0.00000000000E+00 0. -1.
          1    1    1    2  502    0 -0.53134755095E+02  0.64002408621E+02  0.73944415796E+03  0.74410837467E+03  0.00000000000E+00 0. -1.
         22    1    3    3    0    0  0.41598791133E+02 -0.13779639270E+03  0.77697055150E+02  0.16356997782E+03  0.00000000000E+00 0.  1.
         22    1    3    3    0    0  0.49716782588E+01  0.28242392935E+02  0.15785782998E+02  0.32734405268E+02  0.00000000000E+00 0.  1.
</event>
<event>
 7    1  0.5993218E-006  0.1056942E+03  0.7818608E-02  0.1414046E+00
          2   -1    0    0  502    0  0.00000000000E+00  0.00000000000E+00  0.53030027157E+03  0.53030027157E+03  0.00000000000E+00 0. -1.
          1   -1    0    0  501    0 -0.00000000000E+00 -0.00000000000E+00 -0.48631730868E+03  0.48631730868E+03  0.00000000000E+00 0. -1.
         25    2    1    2    0    0 -0.10418626491E+03  0.64715568195E+02  0.19759306409E+03  0.26402884349E+03  0.12500131462E+03 0.  0.
          2    1    1    2  501    0  0.99285862486E+02 -0.35128531728E+02 -0.44620267426E+03  0.45846321853E+03  0.00000000000E+00 0. -1.
          1    1    1    2  502    0  0.49004024218E+01 -0.29587036466E+02  0.29259257305E+03  0.29412551823E+03  0.00000000000E+00 0. -1.
         22    1    3    3    0    0  0.25361885143E+02  0.31661919180E+02  0.35461955453E+02  0.53881839508E+02  0.00000000000E+00 0. -1.
         22    1    3    3    0    0 -0.12954815005E+03  0.33053649015E+02  0.16213110864E+03  0.21014700398E+03  0.00000000000E+00 0. -1.
</event>
<event>
 7    1  0.5993218E-006  0.8887153E+02  0.7818608E-02  0.1390376E+00
          2   -1    0    0  502    0  0.00000000000E+00  0.00000000000E+00  0.14876116832E+03  0.14876116832E+03  0.00000000000E+00 0. -1.
          1   -1    0    0  501    0 -0.00000000000E+00 -0.00000000000E+00 -0.43174697968E+03  0.43174697968E+03  0.00000000000E+00 0. -1.
         25    2    1    2    0    0 -0.81666562032E+02  0.70479084900E+02 -0.25688385194E+03  0.30536989977E+03  0.12499893415E+03 0.  0.
          2    1    1    2  501    0  0.77165234310E+02 -0.27721939925E+02 -0.13506225637E+03  0.15800250769E+03  0.00000000000E+00 0. -1.
          1    1    1    2  502    0  0.45013277214E+01 -0.42757144975E+02  0.10896029696E+03  0.11713574054E+03  0.00000000000E+00 0. -1.
         22    1    3    3    0    0 -0.10548240392E+03  0.76614379820E+02 -0.24613606480E+03  0.27853054254E+03  0.00000000000E+00 0. -1.
         22    1    3    3    0    0  0.23815841884E+02 -0.61352949197E+01 -0.10747787136E+02  0.26839357233E+02  0.00000000000E+00 0. -1.
</event>
<event>
 7    1  0.5993218E-006  0.1659650E+03  0.7818608E-02  0.1191144E+00
          2   -1    0    0  502    0  0.00000000000E+00  0.00000000000E+00  0.13741279090E+04  0.13741279090E+04  0.00000000000E+00 0. -1.
          1   -1    0    0  501    0 -0.00000000000E+00 -0.00000000000E+00 -0.92863062454E+03  0.92863062454E+03  0.00000000000E+00 0. -1.
         25    2    1    2    0    0 -0.10408469496E+03 -0.10031903583E+03  0.26450645930E+02  0.19293141329E+03  0.12500144354E+03 0.  0.
          2    1    1    2  501    0 -0.63945829806E+02  0.13583544905E+03 -0.83281512652E+03  0.84623954843E+03  0.00000000000E+00 0. -1.
          1    1    1    2  502    0  0.16803052477E+03 -0.35516413219E+02  0.12518617650E+04  0.12635875718E+04  0.00000000000E+00 0. -1.
         22    1    3    3    0    0 -0.31945736443E+02 -0.46725627950E+02  0.72478677319E+02  0.91961802125E+02  0.00000000000E+00 0.  1.
         22    1    3    3    0    0 -0.72138958520E+02 -0.53593407876E+02 -0.46028031390E+02  0.10096961116E+03  0.00000000000E+00 0.  1.
</event>
<event>
 7    1  0.5993218E-006  0.3524906E+02  0.7818608E-02  0.1578851E+00
          2   -1    0    0  502    0  0.00000000000E+00  0.00000000000E+00  0.27311472279E+03  0.27311472279E+03  0.00000000000E+00 0. -1.
          1   -1    0    0  501    0 -0.00000000000E+00 -0.00000000000E+00 -0.13079326012E+04  0.13079326012E+04  0.00000000000E+00 0. -1.
         25    2    1    2    0    0 -0.39213293999E+02 -0.39495873727E+02 -0.10692631457E+04  0.10779827767E+04  0.12500234275E+03 0.  0.
          2    1    1    2  501    0  0.12789579668E+02  0.28254652973E+02 -0.23250995959E+03  0.23456935024E+03  0.00000000000E+00 0. -1.
          1    1    1    2  502    0  0.26423714331E+02  0.11241220754E+02  0.26695522683E+03  0.26849519708E+03  0.00000000000E+00 0. -1.
         22    1    3    3    0    0 -0.74312153666E+02 -0.13994016665E+02 -0.90271099841E+03  0.90587265956E+03  0.00000000000E+00 0. -1.
         22    1    3    3    0    0  0.35098859666E+02 -0.25501857062E+02 -0.16655214725E+03  0.17211011713E+03  0.00000000000E+00 0. -1.
</event>
<event>
 7    1  0.5993218E-006  0.7794148E+02  0.7818608E-02  0.1376267E+00
          2   -1    0    0  502    0  0.00000000000E+00  0.00000000000E+00  0.85660556441E+03  0.85660556441E+03  0.00000000000E+00 0. -1.
          1   -1    0    0  501    0 -0.00000000000E+00 -0.00000000000E+00 -0.73541418490E+03  0.73541418490E+03  0.00000000000E+00 0. -1.
         25    2    1    2    0    0  0.17212968688E+02  0.18522885830E+02 -0.24444235878E+03  0.27571107295E+03  0.12500058156E+03 0.  0.
          2    1    1    2  501    0  0.51677967925E+02  0.18735333317E+02 -0.47191514414E+03  0.47510580754E+03  0.00000000000E+00 0. -1.
          1    1    1    2  502    0 -0.68890936613E+02 -0.37258219147E+02  0.83754888243E+03  0.84120286882E+03  0.00000000000E+00 0. -1.
         22    1    3    3    0    0 -0.32229982971E+01 -0.22668448715E+02 -0.22437603341E+03  0.22554123936E+03  0.00000000000E+00 0. -1.
         22    1    3    3    0    0  0.20435966985E+02  0.41191334546E+02 -0.20066325369E+02  0.50169833586E+02  0.00000000000E+00 0. -1.
</event>
<event>
 7    1  0.5993218E-006  0.1522596E+03  0.7818608E-02  0.1416487E+00
          2   -1    0    0  502    0  0.00000000000E+00  0.00000000000E+00  0.48175855602E+04  0.48175855602E+04  0.00000000000E+00 0. -1.
          1   -1    0    0  501    0 -0.00000000000E+00 -0.00000000000E+00 -0.63447501365E+03  0.63447501365E+03  0.00000000000E+00 0. -1.
         25    2    1    2    0    0 -0.16769917572E+03  0.96402983572E+01 -0.18552667819E+03  0.27975212013E+03  0.12500060602E+03 0.  0.
          2    1    1    2  501    0  0.16975340678E+02  0.11364627145E+02 -0.40036147248E+03  0.40088230890E+03  0.00000000000E+00 0. -1.
          1    1    1    2  502    0  0.15072383505E+03 -0.21004925502E+02  0.47689986972E+04  0.47714261448E+04  0.00000000000E+00 0. -1.
         22    1    3    3    0    0 -0.12124104258E+03  0.63807760204E+02 -0.13476440145E+03  0.19217769008E+03  0.00000000000E+00 0. -1.
         22    1    3    3    0    0 -0.46458133149E+02 -0.54167461847E+02 -0.50762276744E+02  0.87574430051E+02  0.00000000000E+00 0. -1.
</event>
<event>
 7    1  0.5993218E-006  0.1439359E+03  0.7818608E-02  0.1254953E+00
          2   -1    0    0  502    0  0.00000000000E+00  0.00000000000E+00  0.24099233152E+04  0.24099233152E+04  0.00000000000E+00 0. -1.
          1   -1    0    0  501    0 -0.00000000000E+00 -0.00000000000E+00 -0.27407560590E+04  0.27407560590E+04  0.00000000000E+00 0. -1.
         25    2    1    2    0    0 -0.20680816774E+03 -0.12783691981E+02 -0.19586484106E+03  0.31132183195E+03  0.12500082425E+03 0.  0.
          2    1    1    2  501    0  0.69691521968E+02  0.55119679479E+02 -0.24841789668E+04  0.24857675326E+04  0.00000000000E+00 0. -1.
          1    1    1    2  502    0  0.13711664578E+03 -0.42335987499E+02  0.23492110640E+04  0.23535900097E+04  0.00000000000E+00 0. -1.
         22    1    3    3    0    0 -0.43706913133E+00  0.23250613466E+02  0.17628918096E+01  0.23321445999E+02  0.00000000000E+00 0. -1.
         22    1    3    3    0    0 -0.20637109861E+03 -0.36034305447E+02 -0.19762773287E+03  0.28800038595E+03  0.00000000000E+00 0. -1.
</event>
<event>
 7    1  0.5993218E-006  0.1478912E+03  0.7818608E-02  0.1272664E+00
          2   -1    0    0  502    0  0.00000000000E+00  0.00000000000E+00  0.14764374674E+04  0.14764374674E+04  0.00000000000E+00 0. -1.
          1   -1    0    0  501    0 -0.00000000000E+00 -0.00000000000E+00 -0.21589148260E+03  0.21589148260E+03  0.00000000000E+00 0. -1.
         25    2    1    2    0    0 -0.90509288212E+02 -0.60935397692E+02  0.22078338441E+03  0.27617923843E+03  0.12499845984E+03 0.  0.
          2    1    1    2  501    0  0.78390623332E+02  0.13265911574E+03 -0.15535995746E+03  0.21881555519E+03  0.00000000000E+00 0. -1.
          1    1    1    2  502    0  0.12118664881E+02 -0.71723718045E+02  0.11951225579E+04  0.11973341564E+04  0.00000000000E+00 0. -1.
         22    1    3    3    0    0 -0.10746755155E+03 -0.82442550800E+02  0.16083865609E+03  0.21027392162E+03  0.00000000000E+00 0. -1.
         22    1    3    3    0    0  0.16958263340E+02  0.21507153108E+02  0.59944728320E+02  0.65905316809E+02  0.00000000000E+00 0. -1.
</event>
<event>
 7    1  0.5993218E-006  0.1170242E+03  0.7818608E-02  0.1338458E+00
          2   -1    0    0  502    0  0.00000000000E+00  0.00000000000E+00  0.90640143761E+03  0.90640143761E+03  0.00000000000E+00 0. -1.
          1   -1    0    0  501    0 -0.00000000000E+00 -0.00000000000E+00 -0.72854744840E+02  0.72854744840E+02  0.00000000000E+00 0. -1.
         25    2    1    2    0    0  0.71917082512E+02  0.11577298047E+03  0.88642144904E+02  0.20508001920E+03  0.12499973863E+03 0.  0.
          2    1    1    2  501    0  0.20803658597E+02 -0.45873444024E+02  0.55047359433E+02  0.74614856820E+02  0.00000000000E+00 0. -1.
          1    1    1    2  502    0 -0.92720741109E+02 -0.69899536446E+02  0.68985718843E+03  0.69956130643E+03  0.00000000000E+00 0. -1.
         22    1    3    3    0    0  0.70846471662E+02  0.23782932306E+01  0.42510499916E+02  0.82656042905E+02  0.00000000000E+00 0.  1.
         22    1    3    3    0    0  0.10706108497E+01  0.11339468724E+03  0.46131644988E+02  0.12242397629E+03  0.00000000000E+00 0.  1.
</event>
<event>
 7    1  0.5993218E-006  0.1178801E+03  0.7818608E-02  0.1259611E+00
          2   -1    0    0  502    0  0.00000000000E+00  0.00000000000E+00  0.93271869285E+03  0.93271869285E+03  0.00000000000E+00 0. -1.
          1   -1    0    0  501    0 -0.00000000000E+00 -0.00000000000E+00 -0.39902612526E+03  0.39902612526E+03  0.00000000000E+00 0. -1.
         25    2    1    2    0    0 -0.20686031732E+02  0.65180657648E+02 -0.19866405768E+02  0.14385969217E+03  0.12499802763E+03 0.  0.
          2    1    1    2  501    0  0.11805993091E+03  0.12575695227E+01 -0.30199206815E+03  0.32425135002E+03  0.00000000000E+00 0. -1.
          1    1    1    2  502    0 -0.97373899182E+02 -0.66438227171E+02  0.85555104151E+03  0.86363377592E+03  0.00000000000E+00 0. -1.
         22    1    3    3    0    0  0.39923250006E+02  0.68801895274E+02  0.13060577055E+01  0.79556724864E+02  0.00000000000E+00 0.  1.
         22    1    3    3    0    0 -0.60609281738E+02 -0.36212376259E+01 -0.21172463474E+02  0.64302967306E+02  0.00000000000E+00 0.  1.
</event>
<event>
 7    1  0.5993218E-006  0.7913657E+02  0.7818608E-02  0.1340494E+00
          2   -1    0    0  502    0  0.00000000000E+00  0.00000000000E+00  0.20846316948E+04  0.20846316948E+04  0.00000000000E+00 0. -1.
          1   -1    0    0  501    0 -0.00000000000E+00 -0.00000000000E+00 -0.19007474237E+04  0.19007474237E+04  0.00000000000E+00 0. -1.
         25    2    1    2    0    0 -0.11263317983E+03  0.40463241614E+02  0.36680520066E+03  0.40557857219E+03  0.12499766345E+03 0.  0.
          2    1    1    2  501    0  0.68963849979E+02  0.24487786714E+02 -0.18797466862E+04  0.18811707176E+04  0.00000000000E+00 0. -1.
          1    1    1    2  502    0  0.43669329853E+02 -0.64951028327E+02  0.16968257567E+04  0.16986298287E+04  0.00000000000E+00 0. -1.
         22    1    3    3    0    0 -0.83377867371E+02 -0.32456149345E+02  0.14626123663E+03  0.17145734087E+03  0.00000000000E+00 0. -1.
         22    1    3    3    0    0 -0.29255312461E+02  0.72919390959E+02  0.22054396402E+03  0.23412123132E+03  0.00000000000E+00 0. -1.
</event>
<event>
 7    1  0.5993218E-006  0.6936827E+02  0.7818608E-02  0.1409204E+00
          2   -1    0    0  502    0  0.00000000000E+00  0.00000000000E+00  0.14417162738E+03  0.14417162738E+03  0.00000000000E+00 0. -1.
          1   -1    0    0  501    0 -0.00000000000E+00 -0.00000000000E+00 -0.15517638627E+04  0.15517638627E+04  0.00000000000E+00 0. -1.
         25    2    1    2    0    0 -0.89254200005E+01 -0.49426100199E+02  0.32746632630E+02  0.13863486995E+03  0.12499873085E+03 0.  0.
          2    1    1    2  501    0 -0.45533613097E+02 -0.13349176759E+02 -0.14687171876E+04  0.14694834765E+04  0.00000000000E+00 0. -1.
          1    1    1    2  502    0  0.54459033097E+02  0.62775276959E+02  0.28378319704E+02  0.87817143613E+02  0.00000000000E+00 0. -1.
         22    1    3    3    0    0  0.36300345356E+02 -0.23810204805E+01  0.58162501760E+02  0.68602193423E+02  0.00000000000E+00 0.  1.
         22    1    3    3    0    0 -0.45225765356E+02 -0.47045079719E+02 -0.25415869129E+02  0.70032676526E+02  0.00000000000E+00 0.  1.
</event>
<event>
 7    1  0.5993218E-006  0.6043972E+02  0.7818608E-02  0.1417363E+00
          2   -1    0    0  502    0  0.00000000000E+00  0.00000000000E+00  0.91549929932E+03  0.91549929932E+03  0.00000000000E+00 0. -1.
          1   -1    0    0  501    0 -0.00000000000E+00 -0.00000000000E+00 -0.15466523822E+04  0.15466523822E+04  0.00000000000E+00 0. -1.
         25    2    1    2    0    0 -0.76350613210E+02 -0.41818803439E+02 -0.58923548361E+02  0.16332699316E+03  0.12500197473E+03 0.  0.
          2    1    1    2  501    0  0.26722210867E+02  0.54060815519E+02 -0.14341362449E+04  0.14354035729E+04  0.00000000000E+00 0. -1.
          1    1    1    2  502    0  0.49628402342E+02 -0.12242012080E+02  0.86190671036E+03  0.86342111541E+03  0.00000000000E+00 0. -1.
         22    1    3    3    0    0 -0.53332570975E+02 -0.16562308085E+02  0.33269895207E+02  0.65004300650E+02  0.00000000000E+00 0.  1.
         22    1    3    3    0    0 -0.23018042235E+02 -0.25256495354E+02 -0.92193443568E+02  0.98322692512E+02  0.00000000000E+00 0.  1.
</event>
<event>
 7    1  0.5993218E-006  0.5929296E+02  0.7818608E-02  0.1491194E+00
          2   -1    0    0  502    0  0.00000000000E+00  0.00000000000E+00  0.91008029675E+03  0.91008029675E+03  0.00000000000E+00 0. -1.
          1   -1    0    0  501    0 -0.00000000000E+00 -0.00000000000E+00 -0.44210559277E+02  0.44210559277E+02  0.00000000000E+00 0. -1.
         25    2    1    2    0    0 -0.33566769343E+02 -0.45374695839E+02  0.47725911746E+03  0.49657362796E+03  0.12499404689E+03 0.  0.
          2    1    1    2  501    0  0.67034472858E+01  0.59462733219E+02 -0.76241075151E+01  0.60323128755E+02  0.00000000000E+00 0. -1.
          1    1    1    2  502    0  0.26863322057E+02 -0.14088037381E+02  0.39623472753E+03  0.39739409931E+03  0.00000000000E+00 0. -1.
         22    1    3    3    0    0  0.19869220302E+02  0.25617429392E+02  0.25746708140E+03  0.25950016688E+03  0.00000000000E+00 0. -1.
         22    1    3    3    0    0 -0.53435989645E+02 -0.70992125230E+02  0.21979203606E+03  0.23707346108E+03  0.00000000000E+00 0. -1.
</event>
<event>
 7    1  0.5993218E-006  0.1644829E+03  0.7818608E-02  0.1321555E+00
          2   -1    0    0  502    0  0.00000000000E+00  0.00000000000E+00  0.82142113860E+03  0.82142113860E+03  0.00000000000E+00 0. -1.
          1   -1    0    0  501    0 -0.00000000000E+00 -0.00000000000E+00 -0.15964272837E+04  0.15964272837E+04  0.00000000000E+00 0. -1.
         25    2    1    2    0    0 -0.15779092957E+03  0.12080885407E+03 -0.48523605040E+03  0.53904740943E+03  0.12500131331E+03 0.  0.
          2    1    1    2  501    0  0.12624181282E+03 -0.93721706328E+02 -0.10780348979E+04  0.10894402207E+04  0.00000000000E+00 0. -1.
          1    1    1    2  502    0  0.31549116754E+02 -0.27087147745E+02  0.78826480314E+03  0.78936079216E+03  0.00000000000E+00 0. -1.
         22    1    3    3    0    0  0.29252650682E+01 -0.20512795854E+02 -0.45695665478E+02  0.50173955524E+02  0.00000000000E+00 0.  1.
         22    1    3    3    0    0 -0.16071619464E+03  0.14132164993E+03 -0.43954038492E+03  0.48887345391E+03  0.00000000000E+00 0.  1.
</event>
<event>
 7    1  0.5993218E-006  0.1031762E+03  0.7818608E-02  0.1384980E+00
          2   -1    0    0  502    0  0.00000000000E+00  0.00000000000E+00  0.85317447796E+03  0.85317447796E+03  0.00000000000E+00 0. -1.
          1   -1    0    0  501    0 -0.00000000000E+00 -0.00000000000E+00 -0.17666212708E+04  0.17666212708E+04  0.00000000000E+00 0. -1.
         25    2    1    2    0    0 -0.21458008716E+02  0.10076514948E+03  0.48476035799E+03  0.51110822832E+03  0.12499981955E+03 0.  0.
          2    1    1    2  501    0  0.38491677972E+02  0.38053703551E+01 -0.17453286119E+04  0.17457571577E+04  0.00000000000E+00 0. -1.
          1    1    1    2  502    0 -0.17033669257E+02 -0.10457051983E+03  0.34712146104E+03  0.36293036277E+03  0.00000000000E+00 0. -1.
         22    1    3    3    0    0  0.26561918772E+02 -0.76130656459E+01  0.21078192093E+03  0.21258530638E+03  0.00000000000E+00 0.  1.
         22    1    3    3    0    0 -0.48019927488E+02  0.10837821512E+03  0.27397843706E+03  0.29852292194E+03  0.00000000000E+00 0.  1.
</event>
<event>
 7    1  0.5993218E-006  0.1775847E+03  0.7818608E-02  0.1286463E+00
          2   -1    0    0  502    0  0.00000000000E+00  0.00000000000E+00  0.73134097616E+03  0.73134097616E+03  0.00000000000E+00 0. -1.
          1   -1    0    0  501    0 -0.00000000000E+00 -0.00000000000E+00 -0.10261146329E+04  0.10261146329E+04  0.00000000000E+00 0. -1.
         25    2    1    2    0    0  0.98686298577E+02 -0.13793405669E+03  0.16689787962E+03  0.26878319042E+03  0.12499884683E+03 0.  0.
          2    1    1    2  501    0 -0.40465039406E+02 -0.34411828539E+02 -0.95830195152E+03  0.95977300631E+03  0.00000000000E+00 0. -1.
          1    1    1    2  502    0 -0.58221259171E+02  0.17234588523E+03  0.49663041513E+03  0.52889941237E+03  0.00000000000E+00 0. -1.
         22    1    3    3    0    0  0.96698271681E+02 -0.12920740205E+03  0.77661170279E+02  0.17909876008E+03  0.00000000000E+00 0.  1.
         22    1    3    3    0    0  0.19880268958E+01 -0.87266546356E+01  0.89236709341E+02  0.89684430344E+02  0.00000000000E+00 0.  1.
</event>
<event>
 7    1  0.5993218E-006  0.6572960E+02  0.7818608E-02  0.1411769E+00
          2   -1    0    0  502    0  0.00000000000E+00  0.00000000000E+00  0.42068947090E+03  0.42068947090E+03  0.00000000000E+00 0. -1.
          1   -1    0    0  501    0 -0.00000000000E+00 -0.00000000000E+00 -0.83357361965E+03  0.83357361965E+03  0.00000000000E+00 0. -1.
         25    2    1    2    0    0  0.38797050982E+02  0.84685822347E+02 -0.54309954945E+03  0.56503052513E+03  0.12500189617E+03 0.  0.
          2    1    1    2  501    0  0.35036558386E+01 -0.59786028297E+02 -0.27480172463E+03  0.28125190247E+03  0.00000000000E+00 0. -1.
          1    1    1    2  502    0 -0.42300706820E+02 -0.24899794050E+02  0.40501712532E+03  0.40798066295E+03  0.00000000000E+00 0. -1.
         22    1    3    3    0    0  0.84739575380E+02  0.55353244486E+02 -0.34032321701E+03  0.35505586792E+03  0.00000000000E+00 0. -1.
         22    1    3    3    0    0 -0.45942524398E+02  0.29332577862E+02 -0.20277633244E+03  0.20997465721E+03  0.00000000000E+00 0. -1.
</event>
<event>
 7    1  0.5993218E-006  0.6254676E+02  0.7818608E-02  0.1426971E+00
          2   -1    0    0  502    0  0.00000000000E+00  0.00000000000E+00  0.31013509512E+03  0.31013509512E+03  0.00000000000E+00 0. -1.
          1   -1    0    0  501    0 -0.00000000000E+00 -0.00000000000E+00 -0.16042341587E+04  0.16042341587E+04  0.00000000000E+00 0. -1.
         25    2    1    2    0    0 -0.26789712406E+02  0.95800926008E+01 -0.32263388695E+03  0.34716778590E+03  0.12499351860E+03 0.  0.
          2    1    1    2  501    0 -0.32028645128E+01  0.45774622029E+02 -0.12655861571E+04  0.12664177413E+04  0.00000000000E+00 0. -1.
          1    1    1    2  502    0  0.29992576919E+02 -0.55354714630E+02  0.29412098044E+03  0.30078372668E+03  0.00000000000E+00 0. -1.
         22    1    3    3    0    0 -0.62578351759E+02  0.19784861418E+02 -0.88967195117E+02  0.11055610638E+03  0.00000000000E+00 0.  1.
         22    1    3    3    0    0  0.35788639353E+02 -0.10204768817E+02 -0.23366669184E+03  0.23661167953E+03  0.00000000000E+00 0.  1.
</event>
<event>
 7    1  0.5993218E-006  0.1101427E+03  0.7818608E-02  0.1281396E+00
          2   -1    0    0  502    0  0.00000000000E+00  0.00000000000E+00  0.84510379033E+02  0.84510379033E+02  0.00000000000E+00 0. -1.
          1   -1    0    0  501    0 -0.00000000000E+00 -0.00000000000E+00 -0.60189740535E+03  0.60189740535E+03  0.00000000000E+00 0. -1.
         25    2    1    2    0    0 -0.56034662334E+02  0.12865870657E+03 -0.27809726347E+03  0.33564386829E+03  0.12500308883E+03 0.  0.
          2    1    1    2  501    0  0.86660182342E+02 -0.23717963755E+02 -0.22276785897E+03  0.24020417981E+03  0.00000000000E+00 0. -1.
          1    1    1    2  502    0 -0.30625520008E+02 -0.10494074281E+03 -0.16521903878E+02  0.11055973628E+03  0.00000000000E+00 0. -1.
         22    1    3    3    0    0 -0.21040620818E+02  0.14157805519E+03 -0.17544732636E+03  0.22642618613E+03  0.00000000000E+00 0. -1.
         22    1    3    3    0    0 -0.34994041516E+02 -0.12919348621E+02 -0.10264993711E+03  0.10921768217E+03  0.00000000000E+00 0. -1.
</event>
<event>
 7    1  0.5993218E-006  0.3723467E+02  0.7818608E-02  0.1546547E+00
          2   -1    0    0  502    0  0.00000000000E+00  0.00000000000E+00  0.31053087059E+03  0.31053087059E+03  0.00000000000E+00 0. -1.
          1   -1    0    0  501    0 -0.00000000000E+00 -0.00000000000E+00 -0.16011700578E+04  0.16011700578E+04  0.00000000000E+00 0. -1.
         25    2    1    2    0    0 -0.31761341849E+02  0.58272920439E+02 -0.31080627873E+02  0.14489739966E+03  0.12499893962E+03 0.  0.
          2    1    1    2  501    0  0.49939142595E+01 -0.32961615223E+02 -0.15116585173E+04  0.15120260844E+04  0.00000000000E+00 0. -1.
          1    1    1    2  502    0  0.26767427589E+02 -0.25311305216E+02  0.25209995790E+03  0.25477744431E+03  0.00000000000E+00 0. -1.
         22    1    3    3    0    0  0.16569693183E+02 -0.22149079253E+02  0.23546704814E+02  0.36326075366E+02  0.00000000000E+00 0. -1.
         22    1    3    3    0    0 -0.48331035032E+02  0.80421999692E+02 -0.54627332687E+02  0.10857132429E+03  0.00000000000E+00 0. -1.
</event>
<event>
 7    1  0.5993218E-006  0.1442882E+03  0.7818608E-02  0.1283790E+00
          2   -1    0    0  502    0  0.00000000000E+00  0.00000000000E+00  0.86154917008E+03  0.86154917008E+03  0.00000000000E+00 0. -1.
          1   -1    0    0  501    0 -0.00000000000E+00 -0.00000000000E+00 -0.11545384484E+03  0.11545384484E+03  0.00000000000E+00 0. -1.
         25    2    1    2    0    0  0.54362739693E+02 -0.82704001110E+02  0.17061006411E+03  0.23351199087E+03  0.12499918655E+03 0.  0.
          2    1    1    2  501    0 -0.41681257649E+00 -0.67045070647E+02 -0.59021919837E+02  0.89324141485E+02  0.00000000000E+00 0. -1.
          1    1    1    2  502    0 -0.53945927117E+02  0.14974907176E+03  0.63450718097E+03  0.65416688257E+03  0.00000000000E+00 0. -1.
         22    1    3    3    0    0  0.87834282803E+02 -0.28097361170E+02  0.77278664467E+02  0.12031755866E+03  0.00000000000E+00 0.  1.
         22    1    3    3    0    0 -0.33471543110E+02 -0.54606639940E+02  0.93331399639E+02  0.11319443221E+03  0.00000000000E+00 0.  1.
</event>
<event>
 7    1  0.5993218E-006  0.1045108E+03  0.7818608E-02  0.1353913E+00
          2   -1    0    0  502    0  0.00000000000E+00  0.00000000000E+00  0.18617259923E+04  0.18617259923E+04  0.00000000000E+00 0. -1.
          1   -1    0    0  501    0 -0.00000000000E+00 -0.00000000000E+00 -0.27758791098E+03  0.27758791098E+03  0.00000000000E+00 0. -1.
         25    2    1    2    0    0  0.66189779452E+02  0.94437624129E+02  0.87253610725E+03  0.88895607856E+03  0.12499639754E+03 0.  0.
          2    1    1    2  501    0 -0.90861369373E+02 -0.51644272138E+02 -0.25858873037E+03  0.27891047087E+03  0.00000000000E+00 0. -1.
          1    1    1    2  502    0  0.24671589921E+02 -0.42793351991E+02  0.97019070440E+03  0.97144735381E+03  0.00000000000E+00 0. -1.
         22    1    3    3    0    0 -0.32911620134E+02  0.27081873886E+01  0.23215607713E+03  0.23449297040E+03  0.00000000000E+00 0.  1.
         22    1    3    3    0    0  0.99101399585E+02  0.91729436740E+02  0.64038003013E+03  0.65446310816E+03  0.00000000000E+00 0.  1.
</event>
<event>
 7    1  0.5993218E-006  0.6028814E+02  0.7818608E-02  0.1463948E+00
          2   -1    0    0  502    0  0.00000000000E+00  0.00000000000E+00  0.99919906676E+02  0.99919906676E+02  0.00000000000E+00 0. -1.
          1   -1    0    0  501    0 -0.00000000000E+00 -0.00000000000E+00 -0.27956892308E+04  0.27956892308E+04  0.00000000000E+00 0. -1.
         25    2    1    2    0    0  0.65623996104E+02  0.33142514402E+02 -0.10487247965E+04  0.10587034239E+04  0.12499722337E+03 0.  0.
          2    1    1    2  501    0 -0.54291757604E+01 -0.35778307566E+02 -0.17322064946E+04  0.17325844577E+04  0.00000000000E+00 0. -1.
          1    1    1    2  502    0 -0.60194820344E+02  0.26357931645E+01  0.85161966977E+02  0.10432125585E+03  0.00000000000E+00 0. -1.
         22    1    3    3    0    0 -0.25253938706E+02  0.45889779666E+02 -0.43842597158E+03  0.44154384364E+03  0.00000000000E+00 0.  1.
         22    1    3    3    0    0  0.90877934810E+02 -0.12747265264E+02 -0.61029882495E+03  0.61715958029E+03  0.00000000000E+00 0.  1.
</event>
<event>
 7    1  0.5993218E-006  0.5877102E+02  0.7818608E-02  0.1441556E+00
          2   -1    0    0  502    0  0.00000000000E+00  0.00000000000E+00  0.54624110346E+03  0.54624110346E+03  0.00000000000E+00 0. -1.
          1   -1    0    0  501    0 -0.00000000000E+00 -0.00000000000E+00 -0.16669050105E+04  0.16669050105E+04  0.00000000000E+00 0. -1.
         25    2    1    2    0    0  0.84321836770E+02 -0.27524316528E+02 -0.12020751116E+04  0.12118071968E+04  0.12499739285E+03 0.  0.
          2    1    1    2  501    0 -0.50992351912E+02 -0.82038977300E+00 -0.45766118013E+03  0.46049391830E+03  0.00000000000E+00 0. -1.
          1    1    1    2  502    0 -0.33329484858E+02  0.28344706301E+02  0.53907238464E+03  0.54084499888E+03  0.00000000000E+00 0. -1.
         22    1    3    3    0    0 -0.32782543927E+02 -0.10346346352E+02 -0.23046625167E+03  0.23301595487E+03  0.00000000000E+00 0. -1.
         22    1    3    3    0    0  0.11710438070E+03 -0.17177970176E+02 -0.97160885991E+03  0.97879124194E+03  0.00000000000E+00 0. -1.
</event>
<event>
 7    1  0.5993218E-006  0.1540785E+03  0.7818608E-02  0.1400086E+00
          2   -1    0    0  502    0  0.00000000000E+00  0.00000000000E+00  0.14112221558E+04  0.14112221558E+04  0.00000000000E+00 0. -1.
          1   -1    0    0  501    0 -0.00000000000E+00 -0.00000000000E+00 -0.10883167690E+03  0.10883167690E+03  0.00000000000E+00 0. -1.
         25    2    1    2    0    0 -0.11438609279E+03 -0.77697526660E+02  0.50913167582E+03  0.54218144303E+03  0.12499827989E+03 0.  0.
          2    1    1    2  501    0 -0.20329607081E+02 -0.10651151296E+02 -0.83417210126E+02  0.86516882128E+02  0.00000000000E+00 0. -1.
          1    1    1    2  502    0  0.13471569987E+03  0.88348677957E+02  0.87667601325E+03  0.89135550758E+03  0.00000000000E+00 0. -1.
         22    1    3    3    0    0 -0.10113555453E+03  0.49716610682E+01  0.24508078386E+03  0.26517486386E+03  0.00000000000E+00 0.  1.
         22    1    3    3    0    0 -0.13250538261E+02 -0.82669187728E+02  0.26405089195E+03  0.27700657917E+03  0.00000000000E+00 0.  1.
</event>
<event>
 7    1  0.5993218E-006  0.1287864E+03  0.7818608E-02  0.1319857E+00
          2   -1    0    0  502    0  0.00000000000E+00  0.00000000000E+00  0.13427539528E+04  0.13427539528E+04  0.00000000000E+00 0. -1.
          1   -1    0    0  501    0 -0.00000000000E+00 -0.00000000000E+00 -0.42680788892E+03  0.42680788892E+03  0.00000000000E+00 0. -1.
         25    2    1    2    0    0  0.92717548832E+02  0.23442048111E+02  0.11862433281E+03  0.19709088546E+03  0.12500804501E+03 0.  0.
          2    1    1    2  501    0  0.39000426153E+02 -0.37231311083E+02 -0.38197463121E+03  0.38576135454E+03  0.00000000000E+00 0. -1.
          1    1    1    2  502    0 -0.13171797499E+03  0.13789262972E+02  0.11792963622E+04  0.11867096017E+04  0.00000000000E+00 0. -1.
         22    1    3    3    0    0  0.95068737547E+02  0.56556495483E+02  0.51110310912E+02  0.12185633312E+03  0.00000000000E+00 0. -1.
         22    1    3    3    0    0 -0.23511887149E+01 -0.33114447372E+02  0.67514021899E+02  0.75234552342E+02  0.00000000000E+00 0. -1.
</event>
<event>
 7    1  0.5993218E-006  0.5325628E+02  0.7818608E-02  0.1516673E+00
          2   -1    0    0  502    0  0.00000000000E+00  0.00000000000E+00  0.44657753361E+02  0.44657753361E+02  0.00000000000E+00 0. -1.
          1   -1    0    0  501    0 -0.00000000000E+00 -0.00000000000E+00 -0.38339515928E+03  0.38339515928E+03  0.00000000000E+00 0. -1.
         25    2    1    2    0    0  0.67097417134E+02 -0.12400588063E+02 -0.17216116967E+03  0.22343659363E+03  0.12501441941E+03 0.  0.
          2    1    1    2  501    0 -0.23963098670E+02 -0.15194164872E+02 -0.14713201024E+03  0.14984298842E+03  0.00000000000E+00 0. -1.
          1    1    1    2  502    0 -0.43134318464E+02  0.27594752934E+02 -0.19444226022E+02  0.54773330595E+02  0.00000000000E+00 0. -1.
         22    1    3    3    0    0 -0.63808740313E+01 -0.23633251713E+02  0.10191275138E+02  0.26516188053E+02  0.00000000000E+00 0.  1.
         22    1    3    3    0    0  0.73478291165E+02  0.11232663650E+02 -0.18235244480E+03  0.19692040557E+03  0.00000000000E+00 0.  1.
</event>
<event>
 7    1  0.5993218E-006  0.1542832E+03  0.7818608E-02  0.1199285E+00
          2   -1    0    0  502    0  0.00000000000E+00  0.00000000000E+00  0.20259918732E+04  0.20259918732E+04  0.00000000000E+00 0. -1.
          1   -1    0    0  501    0 -0.00000000000E+00 -0.00000000000E+00 -0.97768686372E+03  0.97768686372E+03  0.00000000000E+00 0. -1.
         25    2    1    2    0    0  0.12645035834E+03 -0.64277981411E+02  0.18872939939E+03  0.26714330827E+03  0.12500163576E+03 0.  0.
          2    1    1    2  501    0 -0.12525141232E+03 -0.90085437019E+02 -0.92879144452E+03  0.94151837457E+03  0.00000000000E+00 0. -1.
          1    1    1    2  502    0 -0.11989460148E+01  0.15436341843E+03  0.17883670546E+04  0.17950170541E+04  0.00000000000E+00 0. -1.
         22    1    3    3    0    0  0.25277013204E+02 -0.13591664348E+02  0.14173797295E+03  0.14461436205E+03  0.00000000000E+00 0.  1.
         22    1    3    3    0    0  0.10117334513E+03 -0.50686317063E+02  0.46991426438E+02  0.12252894622E+03  0.00000000000E+00 0.  1.
</event>
<event>
 7    1  0.5993218E-006  0.1432763E+03  0.7818608E-02  0.1362404E+00
          2   -1    0    0  502    0  0.00000000000E+00  0.00000000000E+00  0.26126200304E+04  0.26126200304E+04  0.00000000000E+00 0. -1.
          1   -1    0    0  501    0 -0.00000000000E+00 -0.00000000000E+00 -0.11360086703E+03  0.11360086703E+03  0.00000000000E+00 0. -1.
         25    2    1    2    0    0  0.94851955106E+02 -0.97889847111E+02  0.73638110895E+03  0.75925014590E+03  0.12499732351E+03 0.  0.
          2    1    1    2  501    0 -0.73538186935E+02  0.12379100217E+03 -0.51202990068E+02  0.15281957777E+03  0.00000000000E+00 0. -1.
          1    1    1    2  502    0 -0.21313768172E+02 -0.25901155064E+02  0.18138410445E+04  0.18141511737E+04  0.00000000000E+00 0. -1.
         22    1    3    3    0    0  0.11135984896E+03 -0.85351115170E+02  0.71788722710E+03  0.73146968471E+03  0.00000000000E+00 0.  1.
         22    1    3    3    0    0 -0.16507893854E+02 -0.12538731940E+02  0.18493881850E+02  0.27780461192E+02  0.00000000000E+00 0.  1.
</event>
<event>
 7    1  0.5993218E-006  0.1284244E+03  0.7818608E-02  0.1267879E+00
          2   -1    0    0  502    0  0.00000000000E+00  0.00000000000E+00  0.31086213753E+03  0.31086213753E+03  0.00000000000E+00 0. -1.
          1   -1    0    0  501    0 -0.00000000000E+00 -0.00000000000E+00 -0.95391161768E+03  0.95391161768E+03  0.00000000000E+00 0. -1.
         25    2    1    2    0    0  0.62880516162E+02 -0.20096098124E+03 -0.12181772952E+03  0.27350183354E+03  0.12499767370E+03 0.  0.
          2    1    1    2  501    0 -0.40023790356E+02  0.11625936749E+03 -0.74283090012E+03  0.75293817177E+03  0.00000000000E+00 0. -1.
          1    1    1    2  502    0 -0.22856725807E+02  0.84701613757E+02  0.22159914950E+03  0.23833374991E+03  0.00000000000E+00 0. -1.
         22    1    3    3    0    0  0.74638341505E+02 -0.12059484489E+03 -0.19954003255E+02  0.14322067198E+03  0.00000000000E+00 0.  1.
         22    1    3    3    0    0 -0.11757825342E+02 -0.80366136349E+02 -0.10186372626E+03  0.13028116156E+03  0.00000000000E+00 0.  1.
</event>
<event>
 7    1  0.5993218E-006  0.4052692E+02  0.7818608E-02  0.1554051E+00
          2   -1    0    0  502    0  0.00000000000E+00  0.00000000000E+00  0.50333614933E+03  0.50333614933E+03  0.00000000000E+00 0. -1.
          1   -1    0    0  501    0 -0.00000000000E+00 -0.00000000000E+00 -0.20911190728E+02  0.20911190728E+02  0.00000000000E+00 0. -1.
         25    2    1    2    0    0 -0.18049250887E+02 -0.11752182919E+02  0.29554978397E+03  0.32162554151E+03  0.12501769830E+03 0.  0.
          2    1    1    2  501    0  0.24610870998E+02  0.40193898021E+02  0.92173524082E+02  0.10352392453E+03  0.00000000000E+00 0. -1.
          1    1    1    2  502    0 -0.65616201104E+01 -0.28441715101E+02  0.94701650554E+02  0.99097874014E+02  0.00000000000E+00 0. -1.
         22    1    3    3    0    0 -0.41425103885E+02 -0.59870930229E+02  0.18506210210E+03  0.19886817028E+03  0.00000000000E+00 0.  1.
         22    1    3    3    0    0  0.23375852997E+02  0.48118747310E+02  0.11048768187E+03  0.12275737123E+03  0.00000000000E+00 0.  1.
</event>
<event>
 7    1  0.5993218E-006  0.1865804E+03  0.7818608E-02  0.1334010E+00
          2   -1    0    0  502    0  0.00000000000E+00  0.00000000000E+00  0.18730058858E+04  0.18730058858E+04  0.00000000000E+00 0. -1.
          1   -1    0    0  501    0 -0.00000000000E+00 -0.00000000000E+00 -0.15768151802E+03  0.15768151802E+03  0.00000000000E+00 0. -1.
         25    2    1    2    0    0  0.11863782399E+03 -0.18188486173E+03  0.67702371448E+02  0.25955538048E+03  0.12501339221E+03 0.  0.
          2    1    1    2  501    0 -0.22734434297E+02  0.23699701274E+02 -0.51983931314E+02  0.61488693743E+02  0.00000000000E+00 0. -1.
          1    1    1    2  502    0 -0.95903389688E+02  0.15818516045E+03  0.16996059277E+04  0.17096433296E+04  0.00000000000E+00 0. -1.
         22    1    3    3    0    0  0.78310976911E+02 -0.10441051721E+03  0.10207790910E+03  0.16569268160E+03  0.00000000000E+00 0.  1.
         22    1    3    3    0    0  0.40326847074E+02 -0.77474344518E+02 -0.34375537650E+02  0.93862698886E+02  0.00000000000E+00 0.  1.
</event>
<event>
 7    1  0.5993218E-006  0.4614366E+02  0.7818608E-02  0.1517789E+00
          2   -1    0    0  502    0  0.00000000000E+00  0.00000000000E+00  0.11985070653E+04  0.11985070653E+04  0.00000000000E+00 0. -1.
          1   -1    0    0  501    0 -0.00000000000E+00 -0.00000000000E+00 -0.10010979360E+03  0.10010979360E+03  0.00000000000E+00 0. -1.
         25    2    1    2    0    0 -0.17555786467E+02  0.36303055786E+01  0.14817314932E+03  0.19468186478E+03  0.12499744612E+03 0.  0.
          2    1    1    2  501    0 -0.17615944283E+02  0.27315799003E+02 -0.72858718232E+02  0.79780117765E+02  0.00000000000E+00 0. -1.
          1    1    1    2  502    0  0.35171730750E+02 -0.30946104582E+02  0.10230828406E+04  0.10241548763E+04  0.00000000000E+00 0. -1.
         22    1    3    3    0    0 -0.78548040425E+01  0.62502495582E+02  0.99103607666E+02  0.11742991507E+03  0.00000000000E+00 0. -1.
         22    1    3    3    0    0 -0.97009824242E+01 -0.58872190003E+02  0.49069541659E+02  0.77251949712E+02  0.00000000000E+00 0. -1.
</event>
<event>
 7    1  0.5993218E-006  0.8528922E+02  0.7818608E-02  0.1398348E+00
          2   -1    0    0  502    0  0.00000000000E+00  0.00000000000E+00  0.10880294023E+04  0.10880294023E+04  0.00000000000E+00 0. -1.
          1   -1    0    0  501    0 -0.00000000000E+00 -0.00000000000E+00 -0.11152141517E+03  0.11152141517E+03  0.00000000000E+00 0. -1.
         25    2    1    2    0    0  0.78038263274E+02  0.55605052513E+02  0.57054644636E+03  0.59188687735E+03  0.12499974288E+03 0.  0.
          2    1    1    2  501    0 -0.37830626198E+02  0.18328486361E+02 -0.92786711206E+02  0.10186492756E+03  0.00000000000E+00 0. -1.
          1    1    1    2  502    0 -0.40207637076E+02 -0.73933538874E+02  0.49874825197E+03  0.50579901255E+03  0.00000000000E+00 0. -1.
         22    1    3    3    0    0  0.32017472139E+02 -0.11121224961E+02  0.41595526053E+03  0.41733389382E+03  0.00000000000E+00 0.  1.
         22    1    3    3    0    0  0.46020791136E+02  0.66726277474E+02  0.15459118583E+03  0.17455298353E+03  0.00000000000E+00 0.  1.
</event>
<event>
 7    1  0.5993218E-006  0.2131603E+03  0.7818608E-02  0.1255719E+00
          2   -1    0    0  502    0  0.00000000000E+00  0.00000000000E+00  0.13620217725E+04  0.13620217725E+04  0.00000000000E+00 0. -1.
          1   -1    0    0  501    0 -0.00000000000E+00 -0.00000000000E+00 -0.17487888881E+03  0.17487888881E+03  0.00000000000E+00 0. -1.
         25    2    1    2    0    0  0.20375517480E+03  0.66605676407E+02  0.18645273168E+03  0.31039008537E+03  0.12499958622E+03 0.  0.
          2    1    1    2  501    0  0.10245765176E+02 -0.58656928977E+02 -0.93889384693E+02  0.11117925876E+03  0.00000000000E+00 0. -1.
          1    1    1    2  502    0 -0.21400093998E+03 -0.79487474300E+01  0.10945795367E+04  0.11153313171E+04  0.00000000000E+00 0. -1.
         22    1    3    3    0    0 -0.13752390268E+02 -0.82313200172E+01  0.23707403135E+02  0.28616845226E+02  0.00000000000E+00 0. -1.
         22    1    3    3    0    0  0.21750756507E+03  0.74836996424E+02  0.16274532855E+03  0.28177324014E+03  0.00000000000E+00 0. -1.
</event>
<event>
 7    1  0.5993218E-006  0.1314359E+03  0.7818608E-02  0.1308787E+00
          2   -1    0    0  502    0  0.00000000000E+00  0.00000000000E+00  0.24050538953E+04  0.24050538953E+04  0.00000000000E+00 0. -1.
          1   -1    0    0  501    0 -0.00000000000E+00 -0.00000000000E+00 -0.38665894956E+03  0.38665894956E+03  0.00000000000E+00 0. -1.
         25    2    1    2    0    0  0.41020993763E+02  0.79838213301E+02  0.21977701775E+02  0.15545007526E+03  0.12499937716E+03 0.  0.
          2    1    1    2  501    0 -0.95309050277E+02 -0.10129576998E+03 -0.30441839595E+03  0.33468673094E+03  0.00000000000E+00 0. -1.
          1    1    1    2  502    0  0.54288056513E+02  0.21457556674E+02  0.23008356399E+04  0.23015760387E+04  0.00000000000E+00 0. -1.
         22    1    3    3    0    0 -0.17932191120E+02  0.26594796890E+02 -0.42424789141E+02  0.53185613032E+02  0.00000000000E+00 0. -1.
         22    1    3    3    0    0  0.58953184883E+02  0.53243416412E+02  0.64402490916E+02  0.10226446223E+03  0.00000000000E+00 0. -1.
</event>
<event>
 7    1  0.5993218E-006  0.7728823E+02  0.7818608E-02  0.1482257E+00
          2   -1    0    0  502    0  0.00000000000E+00  0.00000000000E+00  0.19853978804E+04  0.19853978804E+04  0.00000000000E+00 0. -1.
          1   -1    0    0  501    0 -0.00000000000E+00 -0.00000000000E+00 -0.13788981995E+03  0.13788981995E+03  0.00000000000E+00 0. -1.
         25    2    1    2    0    0 -0.56101642474E+01  0.61304709444E+02  0.28064161004E+03  0.31333091855E+03  0.12500723935E+03 0.  0.
          2    1    1    2  501    0  0.19076714413E+02  0.15803779198E+02 -0.11936551092E+03  0.12190900569E+03  0.00000000000E+00 0. -1.
          1    1    1    2  502    0 -0.13466550165E+02 -0.77108488643E+02  0.16862319613E+04  0.16880477761E+04  0.00000000000E+00 0. -1.
         22    1    3    3    0    0  0.11401408978E+02  0.37327503275E+02  0.89365003656E+01  0.40039925901E+02  0.00000000000E+00 0.  1.
         22    1    3    3    0    0 -0.17011573225E+02  0.23977206170E+02  0.27170510968E+03  0.27329099265E+03  0.00000000000E+00 0.  1.
</event>
<event>
 7    1  0.5993218E-006  0.1085024E+03  0.7818608E-02  0.1374536E+00
          2   -1    0    0  502    0  0.00000000000E+00  0.00000000000E+00  0.83603884266E+03  0.83603884266E+03  0.00000000000E+00 0. -1.
          1   -1    0    0  501    0 -0.00000000000E+00 -0.00000000000E+00 -0.50602143306E+03  0.50602143306E+03  0.00000000000E+00 0. -1.
         25    2    1    2    0    0  0.59453883943E+02  0.94859476086E+02  0.22788510040E+03  0.28299980843E+03  0.12499675222E+03 0.  0.
          2    1    1    2  501    0  0.27500297008E+02 -0.29118495805E+02 -0.47249266827E+03  0.47418717264E+03  0.00000000000E+00 0. -1.
          1    1    1    2  502    0 -0.86954180951E+02 -0.65740980281E+02  0.57462497746E+03  0.58487329465E+03  0.00000000000E+00 0. -1.
         22    1    3    3    0    0  0.32719622198E+02  0.10440323968E+03  0.22983306777E+03  0.25454635958E+03  0.00000000000E+00 0. -1.
         22    1    3    3    0    0  0.26734261745E+02 -0.95437635939E+01 -0.19479673693E+01  0.28453448850E+02  0.00000000000E+00 0. -1.
</event>
<event>
 7    1  0.5993218E-006  0.4621634E+02  0.7818608E-02  0.1492091E+00
          2   -1    0    0  502    0  0.00000000000E+00  0.00000000000E+00  0.39884812666E+03  0.39884812666E+03  0.00000000000E+00 0. -1.
          1   -1    0    0  501    0 -0.00000000000E+00 -0.00000000000E+00 -0.42444014654E+03  0.42444014654E+03  0.00000000000E+00 0. -1.
         25    2    1    2    0    0 -0.63080679035E+02 -0.72648029966E+01 -0.15042268222E+03  0.20562995975E+03  0.12499899036E+03 0.  0.
          2    1    1    2  501    0  0.33075380582E+02  0.31665153790E+02 -0.24326482226E+03  0.24753673771E+03  0.00000000000E+00 0. -1.
          1    1    1    2  502    0  0.30005298453E+02 -0.24400350793E+02  0.36809548460E+03  0.37012157575E+03  0.00000000000E+00 0. -1.
         22    1    3    3    0    0 -0.23390118129E+02  0.52355506094E+02 -0.10828398490E+03  0.12253006990E+03  0.00000000000E+00 0. -1.
         22    1    3    3    0    0 -0.39690560906E+02 -0.59620309090E+02 -0.42138697314E+02  0.83099889846E+02  0.00000000000E+00 0. -1.
</event>
<event>
 7    1  0.5993218E-006  0.4941017E+02  0.7818608E-02  0.1509763E+00
          2   -1    0    0  502    0  0.00000000000E+00  0.00000000000E+00  0.27995286684E+04  0.27995286684E+04  0.00000000000E+00 0. -1.
          1   -1    0    0  501    0 -0.00000000000E+00 -0.00000000000E+00 -0.16776675110E+02  0.16776675110E+02  0.00000000000E+00 0. -1.
         25    2    1    2    0    0  0.24755870918E+02  0.27233748168E+02  0.16645387827E+04  0.16696314606E+04  0.12500129944E+03 0.  0.
          2    1    1    2  501    0  0.28097692823E+02 -0.15403367927E+02  0.53415274504E+01  0.32485011944E+02  0.00000000000E+00 0. -1.
          1    1    1    2  502    0 -0.52853563741E+02 -0.11830380241E+02  0.11128716831E+04  0.11141888710E+04  0.00000000000E+00 0. -1.
         22    1    3    3    0    0  0.35094154349E+02  0.53394213619E+02  0.15619446761E+04  0.15632510077E+04  0.00000000000E+00 0.  1.
         22    1    3    3    0    0 -0.10338283432E+02 -0.26160465451E+02  0.10259410663E+03  0.10638045296E+03  0.00000000000E+00 0.  1.
</event>
<event>
 7    1  0.5993218E-006  0.6587802E+02  0.7818608E-02  0.1432803E+00
          2   -1    0    0  502    0  0.00000000000E+00  0.00000000000E+00  0.37541382387E+03  0.37541382387E+03  0.00000000000E+00 0. -1.
          1   -1    0    0  501    0 -0.00000000000E+00 -0.00000000000E+00 -0.11809980064E+03  0.11809980064E+03  0.00000000000E+00 0. -1.
         25    2    1    2    0    0  0.15976793035E+00 -0.28545345388E+02  0.18255717124E+03  0.22308436326E+03  0.12499860035E+03 0.  0.
          2    1    1    2  501    0 -0.20008135732E+02  0.65198044776E+02 -0.82904490404E+02  0.10735112979E+03  0.00000000000E+00 0. -1.
          1    1    1    2  502    0  0.19848367801E+02 -0.36652699388E+02  0.15766134239E+03  0.16307813146E+03  0.00000000000E+00 0. -1.
         22    1    3    3    0    0 -0.59651968114E+02 -0.16536451523E+02  0.60124339367E+02  0.86294540460E+02  0.00000000000E+00 0. -1.
         22    1    3    3    0    0  0.59811736045E+02 -0.12008893865E+02  0.12243283188E+03  0.13678982280E+03  0.00000000000E+00 0. -1.
</event>
<event>
 7    1  0.5993218E-006  0.1300456E+03  0.7818608E-02  0.1313466E+00
          2   -1    0    0  502    0  0.00000000000E+00  0.00000000000E+00  0.44534261303E+03  0.44534261303E+03  0.00000000000E+00 0. -1.
          1   -1    0    0  501    0 -0.00000000000E+00 -0.00000000000E+00 -0.50584083095E+03  0.50584083095E+03  0.00000000000E+00 0. -1.
         25    2    1    2    0    0  0.81756585745E+02 -0.12710386125E+03 -0.17650559453E+03  0.26385422736E+03  0.12500119015E+03 0.  0.
          2    1    1    2  501    0  0.23392961850E+02  0.51485739497E+02 -0.27223854653E+03  0.27805006429E+03  0.00000000000E+00 0. -1.
          1    1    1    2  502    0 -0.10514954760E+03  0.75618121756E+02  0.38824592313E+03  0.40927915232E+03  0.00000000000E+00 0. -1.
         22    1    3    3    0    0  0.10017133070E+02 -0.10800644946E+03 -0.55382485332E+02  0.12179062263E+03  0.00000000000E+00 0.  1.
         22    1    3    3    0    0  0.71739452675E+02 -0.19097411794E+02 -0.12112310919E+03  0.14206360473E+03  0.00000000000E+00 0.  1.
</event>
<event>
 7    1  0.5993218E-006  0.4754017E+02  0.7818608E-02  0.1524658E+00
          2   -1    0    0  502    0  0.00000000000E+00  0.00000000000E+00  0.15504245767E+03  0.15504245767E+03  0.00000000000E+00 0. -1.
          1   -1    0    0  501    0 -0.00000000000E+00 -0.00000000000E+00 -0.23897348956E+03  0.23897348956E+03  0.00000000000E+00 0. -1.
         25    2    1    2    0    0 -0.74861645165E+02 -0.13731009134E+02 -0.65154567061E+02  0.16019995832E+03  0.12500440995E+03 0.  0.
          2    1    1    2  501    0  0.28884343662E+02  0.85907111752E+01 -0.11935873481E+03  0.12310407468E+03  0.00000000000E+00 0. -1.
          1    1    1    2  502    0  0.45977301503E+02  0.51402979592E+01  0.10058226999E+03  0.11071191423E+03  0.00000000000E+00 0. -1.
         22    1    3    3    0    0  0.17664377789E+02  0.34337285976E+02 -0.33807228241E+02  0.51322588908E+02  0.00000000000E+00 0.  1.
         22    1    3    3    0    0 -0.92526022954E+02 -0.48068295111E+02 -0.31347338820E+02  0.10887736941E+03  0.00000000000E+00 0.  1.
</event>
<event>
 7    1  0.5993218E-006  0.6548902E+02  0.7818608E-02  0.1434086E+00
          2   -1    0    0  502    0  0.00000000000E+00  0.00000000000E+00  0.12552454567E+04  0.12552454567E+04  0.00000000000E+00 0. -1.
          1   -1    0    0  501    0 -0.00000000000E+00 -0.00000000000E+00 -0.11996281241E+03  0.11996281241E+03  0.00000000000E+00 0. -1.
         25    2    1    2    0    0  0.24090509429E+02 -0.53622174560E+02  0.96102499229E+02  0.16826546260E+03  0.12498754057E+03 0.  0.
          2    1    1    2  501    0 -0.59388644097E+02  0.31749449593E+02 -0.69913642383E+02  0.97071911429E+02  0.00000000000E+00 0. -1.
          1    1    1    2  502    0  0.35298134668E+02  0.21872724967E+02  0.11090937874E+04  0.11098708951E+04  0.00000000000E+00 0. -1.
         22    1    3    3    0    0  0.11179042423E+02  0.26151312055E+02  0.81271604915E+02  0.86104215212E+02  0.00000000000E+00 0. -1.
         22    1    3    3    0    0  0.12911467006E+02 -0.79773486615E+02  0.14830894314E+02  0.82161247393E+02  0.00000000000E+00 0. -1.
</event>
<event>
 7    1  0.5993218E-006  0.1161406E+03  0.7818608E-02  0.1367593E+00
          2   -1    0    0  502    0  0.00000000000E+00  0.00000000000E+00  0.59334597942E+03  0.59334597942E+03  0.00000000000E+00 0. -1.
          1   -1    0    0  501    0 -0.00000000000E+00 -0.00000000000E+00 -0.20486423485E+03  0.20486423485E+03  0.00000000000E+00 0. -1.
         25    2    1    2    0    0  0.97223930135E+02  0.20754269353E+02  0.79388933880E+02  0.17835742297E+03  0.12500214085E+03 0.  0.
          2    1    1    2  501    0 -0.10393578467E+03 -0.59809400426E+02 -0.13122039444E+03  0.17775996071E+03  0.00000000000E+00 0. -1.
          1    1    1    2  502    0  0.67118545337E+01  0.39055131073E+02  0.44031320513E+03  0.44209283060E+03  0.00000000000E+00 0. -1.
         22    1    3    3    0    0  0.64595170063E+01 -0.45321426072E+02  0.11658159867E+02  0.47240551570E+02  0.00000000000E+00 0.  1.
         22    1    3    3    0    0  0.90764413128E+02  0.66075695425E+02  0.67730774012E+02  0.13111687140E+03  0.00000000000E+00 0.  1.
</event>
<event>
 7    1  0.5993218E-006  0.5638782E+02  0.7818608E-02  0.1489097E+00
          2   -1    0    0  502    0  0.00000000000E+00  0.00000000000E+00  0.11969055639E+04  0.11969055639E+04  0.00000000000E+00 0. -1.
          1   -1    0    0  501    0 -0.00000000000E+00 -0.00000000000E+00 -0.38044271346E+02  0.38044271346E+02  0.00000000000E+00 0. -1.
         25    2    1    2    0    0 -0.82422598898E+01 -0.65995176317E+02  0.31689888740E+03  0.34709299753E+03  0.12500138379E+03 0.  0.
          2    1    1    2  501    0 -0.20964532135E+02  0.52049156967E+02  0.12149338361E+02  0.57412827584E+02  0.00000000000E+00 0. -1.
          1    1    1    2  502    0  0.29206792025E+02  0.13946019350E+02  0.82981306678E+03  0.83044401013E+03  0.00000000000E+00 0. -1.
         22    1    3    3    0    0  0.21732127841E+01 -0.49845289940E+02  0.27330990767E+02  0.56888125644E+02  0.00000000000E+00 0. -1.
         22    1    3    3    0    0 -0.10415472674E+02 -0.16149886377E+02  0.28956789664E+03  0.29020487188E+03  0.00000000000E+00 0. -1.
</event>
<event>
 7    1  0.5993218E-006  0.1367929E+03  0.7818608E-02  0.1392070E+00
          2   -1    0    0  502    0  0.00000000000E+00  0.00000000000E+00  0.57216357880E+02  0.57216357880E+02  0.00000000000E+00 0. -1.
          1   -1    0    0  501    0 -0.00000000000E+00 -0.00000000000E+00 -0.18908176031E+04  0.18908176031E+04  0.00000000000E+00 0. -1.
         25    2    1    2    0    0 -0.42870330806E+02  0.14998706409E+03 -0.75428708836E+03  0.78032769371E+03  0.12501325222E+03 0.  0.
          2    1    1    2  501    0  0.46603696661E+02 -0.12268621753E+03 -0.11149568963E+04  0.11226543071E+04  0.00000000000E+00 0. -1.
          1    1    1    2  502    0 -0.37333658552E+01 -0.27300846566E+02  0.35642739456E+02  0.45051960221E+02  0.00000000000E+00 0. -1.
         22    1    3    3    0    0 -0.58419196130E+02  0.11620484886E+03 -0.71298139501E+03  0.72474743118E+03  0.00000000000E+00 0.  1.
         22    1    3    3    0    0  0.15548865324E+02  0.33782215229E+02 -0.41305693357E+02  0.55580262525E+02  0.00000000000E+00 0.  1.
</event>
<event>
 7    1  0.5993218E-006  0.5890722E+02  0.7818608E-02  0.1409681E+00
          2   -1    0    0  502    0  0.00000000000E+00  0.00000000000E+00  0.11543274172E+04  0.11543274172E+04  0.00000000000E+00 0. -1.
          1   -1    0    0  501    0 -0.00000000000E+00 -0.00000000000E+00 -0.82861484923E+03  0.82861484923E+03  0.00000000000E+00 0. -1.
         25    2    1    2    0    0 -0.60199592875E+01 -0.84973148648E+00  0.44052495154E+03  0.45795673915E+03  0.12500072019E+03 0.  0.
          2    1    1    2  501    0 -0.53501068119E+02  0.24651491370E+02 -0.81737978841E+03  0.81949971252E+03  0.00000000000E+00 0. -1.
          1    1    1    2  502    0  0.59521027406E+02 -0.23801759883E+02  0.70256740488E+03  0.70548581479E+03  0.00000000000E+00 0. -1.
         22    1    3    3    0    0 -0.51051098719E+02  0.37574839287E+02  0.18140717247E+03  0.19216306995E+03  0.00000000000E+00 0. -1.
         22    1    3    3    0    0  0.45031139431E+02 -0.38424570773E+02  0.25911777907E+03  0.26579366920E+03  0.00000000000E+00 0. -1.
</event>
<event>
 7    1  0.5993218E-006  0.1833447E+03  0.7818608E-02  0.1376552E+00
          2   -1    0    0  502    0  0.00000000000E+00  0.00000000000E+00  0.15814610932E+04  0.15814610932E+04  0.00000000000E+00 0. -1.
          1   -1    0    0  501    0 -0.00000000000E+00 -0.00000000000E+00 -0.15576030688E+03  0.15576030688E+03  0.00000000000E+00 0. -1.
         25    2    1    2    0    0 -0.49357669268E+02 -0.18170303817E+03  0.43693290657E+03  0.49192281290E+03  0.12500206162E+03 0.  0.
          2    1    1    2  501    0  0.69079066241E+02  0.16927004522E+03 -0.62923775912E+02  0.19334856393E+03  0.00000000000E+00 0. -1.
          1    1    1    2  502    0 -0.19721396972E+02  0.12432992956E+02  0.10516916556E+04  0.10519500232E+04  0.00000000000E+00 0. -1.
         22    1    3    3    0    0  0.68906932328E+01 -0.11717306529E+03  0.35313566902E+03  0.37213144132E+03  0.00000000000E+00 0.  1.
         22    1    3    3    0    0 -0.56248362501E+02 -0.64529972884E+02  0.83797237552E+02  0.11979137158E+03  0.00000000000E+00 0.  1.
</event>
<event>
 7    1  0.5993218E-006  0.6801824E+02  0.7818608E-02  0.1402325E+00
          2   -1    0    0  502    0  0.00000000000E+00  0.00000000000E+00  0.50023282472E+03  0.50023282472E+03  0.00000000000E+00 0. -1.
          1   -1    0    0  501    0 -0.00000000000E+00 -0.00000000000E+00 -0.17143821200E+04  0.17143821200E+04  0.00000000000E+00 0. -1.
         25    2    1    2    0    0  0.89756260144E+02  0.33256180122E+02  0.12817048965E+03  0.20301653797E+03  0.12500352203E+03 0.  0.
          2    1    1    2  501    0 -0.42621067166E+02 -0.52932601835E+02 -0.16743167297E+04  0.16756953562E+04  0.00000000000E+00 0. -1.
          1    1    1    2  502    0 -0.47135192978E+02  0.19676421714E+02  0.33199694476E+03  0.33590305048E+03  0.00000000000E+00 0. -1.
         22    1    3    3    0    0  0.60042279781E+02 -0.42702548337E+02  0.77807510257E+02  0.10715685535E+03  0.00000000000E+00 0.  1.
         22    1    3    3    0    0  0.29713980363E+02  0.75958728459E+02  0.50362979393E+02  0.95859682617E+02  0.00000000000E+00 0.  1.
</event>
<event>
 7    1  0.5993218E-006  0.1721291E+03  0.7818608E-02  0.1319009E+00
          2   -1    0    0  502    0  0.00000000000E+00  0.00000000000E+00  0.26728281070E+03  0.26728281070E+03  0.00000000000E+00 0. -1.
          1   -1    0    0  501    0 -0.00000000000E+00 -0.00000000000E+00 -0.99132718001E+03  0.99132718001E+03  0.00000000000E+00 0. -1.
         25    2    1    2    0    0 -0.12907519823E+03  0.10391165700E+03 -0.32526849751E+03  0.38585297382E+03  0.12499953070E+03 0.  0.
          2    1    1    2  501    0  0.10822234836E+03 -0.13880387021E+03 -0.62171179133E+03  0.64614560476E+03  0.00000000000E+00 0. -1.
          1    1    1    2  502    0  0.20852849872E+02  0.34892213218E+02  0.22293591953E+03  0.22661141213E+03  0.00000000000E+00 0. -1.
         22    1    3    3    0    0 -0.77891443833E+02  0.49319682063E+02 -0.28771585240E+03  0.30212566886E+03  0.00000000000E+00 0. -1.
         22    1    3    3    0    0 -0.51183754398E+02  0.54591974933E+02 -0.37552645110E+02  0.83727304961E+02  0.00000000000E+00 0. -1.
</event>
<event>
 7    1  0.5993218E-006  0.1345390E+03  0.7818608E-02  0.1424536E+00
          2   -1    0    0  502    0  0.00000000000E+00  0.00000000000E+00  0.22652102339E+04  0.22652102339E+04  0.00000000000E+00 0. -1.
          1   -1    0    0  501    0 -0.00000000000E+00 -0.00000000000E+00 -0.15035597348E+04  0.15035597348E+04  0.00000000000E+00 0. -1.
         25    2    1    2    0    0 -0.12548809844E+03  0.59669708252E+02 -0.87177034280E+02  0.20623303987E+03  0.12499797797E+03 0.  0.
          2    1    1    2  501    0  0.14450605983E+02  0.16231992358E+02 -0.13547170338E+04  0.13548913386E+04  0.00000000000E+00 0. -1.
          1    1    1    2  502    0  0.11103749246E+03 -0.75901700610E+02  0.22035445672E+04  0.22076455903E+04  0.00000000000E+00 0. -1.
         22    1    3    3    0    0 -0.10922711928E+03  0.96000260948E+02 -0.79377082957E+02  0.16567237243E+03  0.00000000000E+00 0. -1.
         22    1    3    3    0    0 -0.16260979157E+02 -0.36330552696E+02 -0.77999513232E+01  0.40560667438E+02  0.00000000000E+00 0. -1.
</event>
<event>
 7    1  0.5993218E-006  0.1507293E+03  0.7818608E-02  0.1313798E+00
          2   -1    0    0  502    0  0.00000000000E+00  0.00000000000E+00  0.19495963162E+04  0.19495963162E+04  0.00000000000E+00 0. -1.
          1   -1    0    0  501    0 -0.00000000000E+00 -0.00000000000E+00 -0.33305406301E+02  0.33305406301E+02  0.00000000000E+00 0. -1.
         25    2    1    2    0    0 -0.88425070466E+02  0.89212733463E+02  0.51855763715E+03  0.54800061043E+03  0.12499896435E+03 0.  0.
          2    1    1    2  501    0  0.10277462521E+03 -0.13569277423E+03  0.38442214651E+03  0.42042304800E+03  0.00000000000E+00 0. -1.
          1    1    1    2  502    0 -0.14349554741E+02  0.46480040767E+02  0.10133111262E+04  0.10144780641E+04  0.00000000000E+00 0. -1.
         22    1    3    3    0    0 -0.49678653311E+02  0.80572734546E+02  0.49009753572E+03  0.49915481433E+03  0.00000000000E+00 0. -1.
         22    1    3    3    0    0 -0.38746417156E+02  0.86399989168E+01  0.28460101428E+02  0.48845796104E+02  0.00000000000E+00 0. -1.
</event>
<event>
 7    1  0.5993218E-006  0.5037260E+02  0.7818608E-02  0.1540255E+00
          2   -1    0    0  502    0  0.00000000000E+00  0.00000000000E+00  0.97802294057E+03  0.97802294057E+03  0.00000000000E+00 0. -1.
          1   -1    0    0  501    0 -0.00000000000E+00 -0.00000000000E+00 -0.50238479108E+02  0.50238479108E+02  0.00000000000E+00 0. -1.
         25    2    1    2    0    0 -0.11306228983E+02 -0.71540767711E+02  0.17832515111E+03  0.22950727731E+03  0.12501127374E+03 0.  0.
          2    1    1    2  501    0  0.13741257913E+01  0.47872111556E+02 -0.95462566374E+00  0.47901342327E+02  0.00000000000E+00 0. -1.
          1    1    1    2  502    0  0.99321031919E+01  0.23668656155E+02  0.75041393602E+03  0.75085280004E+03  0.00000000000E+00 0. -1.
         22    1    3    3    0    0  0.53115464363E+02 -0.35396421631E+02  0.11791374120E+03  0.13408135435E+03  0.00000000000E+00 0.  1.
         22    1    3    3    0    0 -0.64421693346E+02 -0.36144346080E+02  0.60411409904E+02  0.95425922965E+02  0.00000000000E+00 0.  1.
</event>
<event>
 7    1  0.5993218E-006  0.1240967E+03  0.7818608E-02  0.1395634E+00
          2   -1    0    0  502    0  0.00000000000E+00  0.00000000000E+00  0.18630917650E+04  0.18630917650E+04  0.00000000000E+00 0. -1.
          1   -1    0    0  501    0 -0.00000000000E+00 -0.00000000000E+00 -0.18156610901E+04  0.18156610901E+04  0.00000000000E+00 0. -1.
         25    2    1    2    0    0  0.26015416302E+02 -0.97717181648E+02  0.44559473352E+03  0.47371284384E+03  0.12499496954E+03 0.  0.
          2    1    1    2  501    0 -0.11889756117E+02  0.12363968938E+03 -0.17993054756E+04  0.18035876285E+04  0.00000000000E+00 0. -1.
          1    1    1    2  502    0 -0.14125660185E+02 -0.25922507735E+02  0.14011414170E+04  0.14014523827E+04  0.00000000000E+00 0. -1.
         22    1    3    3    0    0  0.10324593292E+02 -0.36148826332E+02  0.38190311114E+03  0.38374903410E+03  0.00000000000E+00 0. -1.
         22    1    3    3    0    0  0.15690823010E+02 -0.61568355315E+02  0.63691622375E+02  0.89963809745E+02  0.00000000000E+00 0. -1.
</event>
<event>
 7    1  0.5993218E-006  0.1533306E+03  0.7818608E-02  0.1337054E+00
          2   -1    0    0  502    0  0.00000000000E+00  0.00000000000E+00  0.12067333824E+04  0.12067333824E+04  0.00000000000E+00 0. -1.
          1   -1    0    0  501    0 -0.00000000000E+00 -0.00000000000E+00 -0.64623888149E+03  0.64623888149E+03  0.00000000000E+00 0. -1.
         25    2    1    2    0    0  0.47517356051E+02  0.17862207946E+03 -0.10647813333E+03  0.24723695044E+03  0.12499908155E+03 0.  0.
          2    1    1    2  501    0 -0.49254808353E+02 -0.13974550725E+03 -0.45734280804E+03  0.48074659334E+03  0.00000000000E+00 0. -1.
          1    1    1    2  502    0  0.17374523021E+01 -0.38876572207E+02  0.11243154423E+04  0.11249887201E+04  0.00000000000E+00 0. -1.
         22    1    3    3    0    0 -0.10574195962E+02  0.15581762817E+03 -0.52618274089E+02  0.16480178894E+03  0.00000000000E+00 0. -1.
         22    1    3    3    0    0  0.58091552012E+02  0.22804451285E+02 -0.53859859245E+02  0.82435161500E+02  0.00000000000E+00 0. -1.
</event>
<event>
 7    1  0.5993218E-006  0.2614285E+02  0.7818608E-02  0.1647705E+00
          2   -1    0    0  502    0  0.00000000000E+00  0.00000000000E+00  0.76874397292E+03  0.76874397292E+03  0.00000000000E+00 0. -1.
          1   -1    0    0  501    0 -0.00000000000E+00 -0.00000000000E+00 -0.80360289448E+03  0.80360289448E+03  0.00000000000E+00 0. -1.
         25    2    1    2    0    0  0.11965423991E+02  0.39606470803E+01 -0.59963962870E+01  0.12577678428E+03  0.12499993840E+03 0.  0.
          2    1    1    2  501    0  0.28477260437E+01 -0.25602885520E+02 -0.73724868381E+03  0.73769860992E+03  0.00000000000E+00 0. -1.
          1    1    1    2  502    0 -0.14813150035E+02  0.21642238440E+02  0.70838615854E+03  0.70887147320E+03  0.00000000000E+00 0. -1.
         22    1    3    3    0    0  0.14232828072E+02  0.58009596063E+02 -0.29709901724E+02  0.66711055236E+02  0.00000000000E+00 0. -1.
         22    1    3    3    0    0 -0.22674040805E+01 -0.54048948982E+02  0.23713505437E+02  0.59065729044E+02  0.00000000000E+00 0. -1.
</event>
<event>
 7    1  0.5993218E-006  0.6840889E+02  0.7818608E-02  0.1372647E+00
          2   -1    0    0  502    0  0.00000000000E+00  0.00000000000E+00  0.84732852216E+02  0.84732852216E+02  0.00000000000E+00 0. -1.
          1   -1    0    0  501    0 -0.00000000000E+00 -0.00000000000E+00 -0.56327538597E+03  0.56327538597E+03  0.00000000000E+00 0. -1.
         25    2    1    2    0    0  0.23306358458E+02 -0.88787419120E+02 -0.39410104465E+03  0.42351650208E+03  0.12499680794E+03 0.  0.
          2    1    1    2  501    0 -0.55543642167E+02  0.32896850218E+02 -0.13024516871E+03  0.14536541168E+03  0.00000000000E+00 0. -1.
          1    1    1    2  502    0  0.32237283709E+02  0.55890568902E+02  0.45803679608E+02  0.79126324436E+02  0.00000000000E+00 0. -1.
         22    1    3    3    0    0 -0.20723188471E+02 -0.72932347646E+02 -0.98845427139E+02  0.12457526376E+03  0.00000000000E+00 0.  1.
         22    1    3    3    0    0  0.44029546928E+02 -0.15855071474E+02 -0.29525561752E+03  0.29894123832E+03  0.00000000000E+00 0.  1.
</event>
<event>
 7    1  0.5993218E-006  0.8624299E+02  0.7818608E-02  0.1336158E+00
          2   -1    0    0  502    0  0.00000000000E+00  0.00000000000E+00  0.15360920264E+03  0.15360920264E+03  0.00000000000E+00 0. -1.
          1   -1    0    0  501    0 -0.00000000000E+00 -0.00000000000E+00 -0.11520826066E+04  0.11520826066E+04  0.00000000000E+00 0. -1.
         25    2    1    2    0    0 -0.20116659401E+02 -0.64639565354E+01 -0.20027502611E+03  0.23702690825E+03  0.12500082572E+03 0.  0.
          2    1    1    2  501    0 -0.65030748871E+02 -0.25162857785E+02 -0.91670470319E+03  0.91935285965E+03  0.00000000000E+00 0. -1.
          1    1    1    2  502    0  0.85147408272E+02  0.31626814320E+02  0.11850632538E+03  0.14931204129E+03  0.00000000000E+00 0. -1.
         22    1    3    3    0    0  0.48467423677E+02  0.11186857198E+02 -0.48167305263E+02  0.69241073274E+02  0.00000000000E+00 0.  1.
         22    1    3    3    0    0 -0.68584083078E+02 -0.17650813734E+02 -0.15210772085E+03  0.16778583498E+03  0.00000000000E+00 0.  1.
</event>
<event>
 7    1  0.5993218E-006  0.5120725E+02  0.7818608E-02  0.1469035E+00
          2   -1    0    0  502    0  0.00000000000E+00  0.00000000000E+00  0.64790606061E+03  0.64790606061E+03  0.00000000000E+00 0. -1.
          1   -1    0    0  501    0 -0.00000000000E+00 -0.00000000000E+00 -0.30833172155E+03  0.30833172155E+03  0.00000000000E+00 0. -1.
         25    2    1    2    0    0 -0.80341289166E+02  0.39776076394E+02  0.22907371422E+03  0.27592757902E+03  0.12499761325E+03 0.  0.
          2    1    1    2  501    0  0.35521543600E+02 -0.20621493166E+02 -0.28190882582E+03  0.28488526132E+03  0.00000000000E+00 0. -1.
          1    1    1    2  502    0  0.44819745565E+02 -0.19154583229E+02  0.39240945066E+03  0.39542494182E+03  0.00000000000E+00 0. -1.
         22    1    3    3    0    0 -0.74491594888E+02 -0.10926299572E+01  0.44468081859E+02  0.86761753402E+02  0.00000000000E+00 0.  1.
         22    1    3    3    0    0 -0.58496942781E+01  0.40868706351E+02  0.18460563236E+03  0.18916582562E+03  0.00000000000E+00 0.  1.
</event>
<event>
 7    1  0.5993218E-006  0.8349041E+02  0.7818608E-02  0.1437125E+00
          2   -1    0    0  502    0  0.00000000000E+00  0.00000000000E+00  0.83278082880E+02  0.83278082880E+02  0.00000000000E+00 0. -1.
          1   -1    0    0  501    0 -0.00000000000E+00 -0.00000000000E+00 -0.54618943335E+03  0.54618943335E+03  0.00000000000E+00 0. -1.
         25    2    1    2    0    0 -0.38918928909E+02  0.66564837926E+02 -0.19460977117E+03  0.24381205930E+03  0.12500318616E+03 0.  0.
          2    1    1    2  501    0  0.26505247729E+02  0.17635651978E+02 -0.29480087465E+03  0.29651492386E+03  0.00000000000E+00 0. -1.
          1    1    1    2  502    0  0.12413681180E+02 -0.84200489904E+02  0.26499295354E+02  0.89140533063E+02  0.00000000000E+00 0. -1.
         22    1    3    3    0    0 -0.12079368409E+02  0.80587697939E+02 -0.48997642194E+02  0.95084473711E+02  0.00000000000E+00 0.  1.
         22    1    3    3    0    0 -0.26839560500E+02 -0.14022860013E+02 -0.14561212898E+03  0.14872758559E+03  0.00000000000E+00 0.  1.
</event>
<event>
 7    1  0.5993218E-006  0.1703085E+03  0.7818608E-02  0.1228709E+00
          2   -1    0    0  502    0  0.00000000000E+00  0.00000000000E+00  0.31114295529E+04  0.31114295529E+04  0.00000000000E+00 0. -1.
          1   -1    0    0  501    0 -0.00000000000E+00 -0.00000000000E+00 -0.14497102371E+04  0.14497102371E+04  0.00000000000E+00 0. -1.
         25    2    1    2    0    0  0.26065362899E+03  0.47326820723E+01  0.17336132137E+04  0.17575557087E+04  0.12499832720E+03 0.  0.
          2    1    1    2  501    0 -0.16684354023E+03 -0.32915597282E+02 -0.14309413873E+04  0.14410112620E+04  0.00000000000E+00 0. -1.
          1    1    1    2  502    0 -0.93810088753E+02  0.28182915210E+02  0.13590474893E+04  0.13625728192E+04  0.00000000000E+00 0. -1.
         22    1    3    3    0    0  0.87321678513E+02  0.61404444654E+02  0.64414249041E+03  0.65292811956E+03  0.00000000000E+00 0.  1.
         22    1    3    3    0    0  0.17333195047E+03 -0.56671762582E+02  0.10894707233E+04  0.11046275891E+04  0.00000000000E+00 0.  1.
</event>
<event>
 7    1  0.5993218E-006  0.2413915E+03  0.7818608E-02  0.1358025E+00
          2   -1    0    0  502    0  0.00000000000E+00  0.00000000000E+00  0.18014755511E+04  0.18014755511E+04  0.00000000000E+00 0. -1.
          1   -1    0    0  501    0 -0.00000000000E+00 -0.00000000000E+00 -0.18269788155E+03  0.18269788155E+03  0.00000000000E+00 0. -1.
         25    2    1    2    0    0  0.24459223215E+03 -0.57085060634E+02  0.62136662524E+03  0.68176598535E+03  0.12499724656E+03 0.  0.
          2    1    1    2  501    0 -0.23704927492E+03  0.37856314146E+02 -0.57865409754E+02  0.24692886608E+03  0.00000000000E+00 0. -1.
          1    1    1    2  502    0 -0.75429572331E+01  0.19228746488E+02  0.10552764541E+04  0.10554785813E+04  0.00000000000E+00 0. -1.
         22    1    3    3    0    0  0.18757104678E+03  0.11585032591E+02  0.36937639517E+03  0.41443459301E+03  0.00000000000E+00 0. -1.
         22    1    3    3    0    0  0.57021185371E+02 -0.68670093225E+02  0.25199023007E+03  0.26733139235E+03  0.00000000000E+00 0. -1.
</event>
<event>
 7    1  0.5993218E-006  0.1110080E+03  0.7818608E-02  0.1377261E+00
          2   -1    0    0  502    0  0.00000000000E+00  0.00000000000E+00  0.52660678639E+03  0.52660678639E+03  0.00000000000E+00 0. -1.
          1   -1    0    0  501    0 -0.00000000000E+00 -0.00000000000E+00 -0.46141891548E+03  0.46141891548E+03  0.00000000000E+00 0. -1.
         25    2    1    2    0    0 -0.27123961370E+02 -0.78493292401E+02  0.14386576792E+03  0.20789266813E+03  0.12500038420E+03 0.  0.
          2    1    1    2  501    0 -0.22798502846E+02 -0.30753377512E+02 -0.41822185519E+03  0.41997031100E+03  0.00000000000E+00 0. -1.
          1    1    1    2  502    0  0.49922464216E+02  0.10924666991E+03  0.33954395818E+03  0.36016272275E+03  0.00000000000E+00 0. -1.
         22    1    3    3    0    0  0.29816408864E+02  0.19933926078E+02  0.41966851008E+02  0.55205038085E+02  0.00000000000E+00 0. -1.
         22    1    3    3    0    0 -0.56940370234E+02 -0.98427218479E+02  0.10189891692E+03  0.15268763004E+03  0.00000000000E+00 0. -1.
</event>
<event>
 7    1  0.5993218E-006  0.1039372E+03  0.7818608E-02  0.1436955E+00
          2   -1    0    0  502    0  0.00000000000E+00  0.00000000000E+00  0.21052421424E+04  0.21052421424E+04  0.00000000000E+00 0. -1.
          1   -1    0    0  501    0 -0.00000000000E+00 -0.00000000000E+00 -0.12353771039E+02  0.12353771039E+02  0.00000000000E+00 0. -1.
         25    2    1    2    0    0  0.92285157719E+02  0.25428524886E+02  0.15814980965E+04  0.15893156830E+04  0.12499980251E+03 0.  0.
          2    1    1    2  501    0 -0.10662891522E+03 -0.42170138686E+01  0.42331366401E+03  0.43655694578E+03  0.00000000000E+00 0. -1.
          1    1    1    2  502    0  0.14343757505E+02 -0.21211511017E+02  0.88076610788E+02  0.91723284649E+02  0.00000000000E+00 0. -1.
         22    1    3    3    0    0  0.11918697570E+03  0.23722694966E+02  0.14499742469E+04  0.14550579432E+04  0.00000000000E+00 0. -1.
         22    1    3    3    0    0 -0.26901817976E+02  0.17058299199E+01  0.13152384962E+03  0.13425773976E+03  0.00000000000E+00 0. -1.
</event>
<event>
 7    1  0.5993218E-006  0.5557600E+02  0.7818608E-02  0.1456876E+00
          2   -1    0    0  502    0  0.00000000000E+00  0.00000000000E+00  0.23486105359E+03  0.23486105359E+03  0.00000000000E+00 0. -1.
          1   -1    0    0  501    0 -0.00000000000E+00 -0.00000000000E+00 -0.93198201756E+03  0.93198201756E+03  0.00000000000E+00 0. -1.
         25    2    1    2    0    0  0.15217122159E+02  0.15545986094E+02  0.15569499390E+02  0.12783142048E+03  0.12500089704E+03 0.  0.
          2    1    1    2  501    0 -0.55630963430E+02 -0.69189482601E+01 -0.87232020968E+03  0.87411968526E+03  0.00000000000E+00 0. -1.
          1    1    1    2  502    0  0.40413841271E+02 -0.86270378339E+01  0.15962974632E+03  0.16489196542E+03  0.00000000000E+00 0. -1.
         22    1    3    3    0    0 -0.31494135392E+02  0.56424421193E+02  0.44594085487E+01  0.64772541989E+02  0.00000000000E+00 0. -1.
         22    1    3    3    0    0  0.46711257551E+02 -0.40878435099E+02  0.11110090841E+02  0.63058878492E+02  0.00000000000E+00 0. -1.
</event>
<event>
 7    1  0.5993218E-006  0.7276756E+02  0.7818608E-02  0.1404093E+00
          2   -1    0    0  502    0  0.00000000000E+00  0.00000000000E+00  0.27139149959E+04  0.27139149959E+04  0.00000000000E+00 0. -1.
          1   -1    0    0  501    0 -0.00000000000E+00 -0.00000000000E+00 -0.56579167138E+03  0.56579167138E+03  0.00000000000E+00 0. -1.
         25    2    1    2    0    0 -0.87664392358E+02 -0.52900573854E+02  0.16269439489E+03  0.22929780929E+03  0.12499801125E+03 0.  0.
          2    1    1    2  501    0  0.15723684332E+02  0.44379874873E+02 -0.53092688232E+03  0.53301047073E+03  0.00000000000E+00 0. -1.
          1    1    1    2  502    0  0.71940708027E+02  0.85206989816E+01  0.25163558119E+04  0.25173983872E+04  0.00000000000E+00 0. -1.
         22    1    3    3    0    0 -0.41663846319E+02 -0.92136555334E+02  0.10170505661E+03  0.14341875561E+03  0.00000000000E+00 0.  1.
         22    1    3    3    0    0 -0.46000546040E+02  0.39235981479E+02  0.60989338280E+02  0.85879053689E+02  0.00000000000E+00 0.  1.
</event>
<event>
 7    1  0.5993218E-006  0.3167210E+03  0.7818608E-02  0.1329858E+00
          2   -1    0    0  502    0  0.00000000000E+00  0.00000000000E+00  0.58847706375E+03  0.58847706375E+03  0.00000000000E+00 0. -1.
          1   -1    0    0  501    0 -0.00000000000E+00 -0.00000000000E+00 -0.21456553926E+04  0.21456553926E+04  0.00000000000E+00 0. -1.
         25    2    1    2    0    0 -0.30899995166E+03  0.12558421684E+03 -0.16544853941E+03  0.39274863958E+03  0.12500363616E+03 0.  0.
          2    1    1    2  501    0  0.28894967529E+03 -0.12483912220E+03 -0.18530672179E+04  0.18796102882E+04  0.00000000000E+00 0. -1.
          1    1    1    2  502    0  0.20050276375E+02 -0.74509463670E+00  0.46133742850E+03  0.46177352857E+03  0.00000000000E+00 0. -1.
         22    1    3    3    0    0 -0.94963497637E+02 -0.35403491788E+01 -0.91866019019E+02  0.13217399671E+03  0.00000000000E+00 0. -1.
         22    1    3    3    0    0 -0.21403645403E+03  0.12912456602E+03 -0.73582520391E+02  0.26057464287E+03  0.00000000000E+00 0. -1.
</event>
<event>
 7    1  0.5993218E-006  0.3375400E+02  0.7818608E-02  0.1573695E+00
          2   -1    0    0  502    0  0.00000000000E+00  0.00000000000E+00  0.11221057693E+04  0.11221057693E+04  0.00000000000E+00 0. -1.
          1   -1    0    0  501    0 -0.00000000000E+00 -0.00000000000E+00 -0.36989136534E+03  0.36989136534E+03  0.00000000000E+00 0. -1.
         25    2    1    2    0    0  0.40501689037E+02 -0.19635229464E+02  0.45658562309E+03  0.47552224300E+03  0.12500017332E+03 0.  0.
          2    1    1    2  501    0 -0.32181559039E+02 -0.10188191045E+02 -0.35926613964E+03  0.36084845998E+03  0.00000000000E+00 0. -1.
          1    1    1    2  502    0 -0.83201299983E+01  0.29823420508E+02  0.65489492054E+03  0.65562643168E+03  0.00000000000E+00 0. -1.
         22    1    3    3    0    0  0.37834793639E+02  0.18062687483E+02  0.42266674408E+03  0.42474099030E+03  0.00000000000E+00 0.  1.
         22    1    3    3    0    0  0.26668953983E+01 -0.37697916947E+02  0.33918879006E+02  0.50781252704E+02  0.00000000000E+00 0.  1.
</event>
<event>
 7    1  0.5993218E-006  0.6331403E+02  0.7818608E-02  0.1395998E+00
          2   -1    0    0  502    0  0.00000000000E+00  0.00000000000E+00  0.16139656704E+03  0.16139656704E+03  0.00000000000E+00 0. -1.
          1   -1    0    0  501    0 -0.00000000000E+00 -0.00000000000E+00 -0.16406175964E+04  0.16406175964E+04  0.00000000000E+00 0. -1.
         25    2    1    2    0    0  0.19114323622E+02 -0.98714084012E+02 -0.16883497846E+02  0.16130548022E+03  0.12499831079E+03 0.  0.
          2    1    1    2  501    0  0.21143169578E+02  0.53680910705E+02 -0.15406931763E+04  0.15417730499E+04  0.00000000000E+00 0. -1.
          1    1    1    2  502    0 -0.40257493200E+02  0.45033173307E+02  0.78355644844E+02  0.98935633297E+02  0.00000000000E+00 0. -1.
         22    1    3    3    0    0  0.40025842620E+02  0.13925622585E+02  0.10186973975E+02  0.43586299230E+02  0.00000000000E+00 0. -1.
         22    1    3    3    0    0 -0.20911518998E+02 -0.11263970660E+03 -0.27070471821E+02  0.11771918099E+03  0.00000000000E+00 0. -1.
</event>
<event>
 7    1  0.5993218E-006  0.3582637E+02  0.7818608E-02  0.1561768E+00
          2   -1    0    0  502    0  0.00000000000E+00  0.00000000000E+00  0.12544436452E+04  0.12544436452E+04  0.00000000000E+00 0. -1.
          1   -1    0    0  501    0 -0.00000000000E+00 -0.00000000000E+00 -0.18469729954E+03  0.18469729954E+03  0.00000000000E+00 0. -1.
         25    2    1    2    0    0  0.13350163668E+02 -0.63559076831E+02 -0.43732405546E+02  0.14749746665E+03  0.12499998502E+03 0.  0.
          2    1    1    2  501    0 -0.29278666051E+01  0.33898976941E+02 -0.85619810954E+02  0.92132866385E+02  0.00000000000E+00 0. -1.
          1    1    1    2  502    0 -0.10422297063E+02  0.29660099890E+02  0.11990985622E+04  0.11995106117E+04  0.00000000000E+00 0. -1.
         22    1    3    3    0    0 -0.32680804741E+02 -0.75474399399E+02 -0.54604498954E+02  0.98722192384E+02  0.00000000000E+00 0. -1.
         22    1    3    3    0    0  0.46030968409E+02  0.11915322568E+02  0.10872093407E+02  0.48775274265E+02  0.00000000000E+00 0. -1.
</event>
<event>
 7    1  0.5993218E-006  0.1748850E+03  0.7818608E-02  0.1198908E+00
          2   -1    0    0  502    0  0.00000000000E+00  0.00000000000E+00  0.81858697587E+03  0.81858697587E+03  0.00000000000E+00 0. -1.
          1   -1    0    0  501    0 -0.00000000000E+00 -0.00000000000E+00 -0.28042425932E+03  0.28042425932E+03  0.00000000000E+00 0. -1.
         25    2    1    2    0    0  0.40999157361E+02 -0.61956074947E+02 -0.48479450345E+02  0.15328727348E+03  0.12500897958E+03 0.  0.
          2    1    1    2  501    0 -0.35317401808E+02 -0.12600679437E+03 -0.14206066313E+03  0.19314829305E+03  0.00000000000E+00 0. -1.
          1    1    1    2  502    0 -0.56817555529E+01  0.18796286932E+03  0.72870283002E+03  0.75257566867E+03  0.00000000000E+00 0. -1.
         22    1    3    3    0    0 -0.16386689234E+02 -0.25306097629E+02 -0.74519510457E+02  0.80387061148E+02  0.00000000000E+00 0. -1.
         22    1    3    3    0    0  0.57385846595E+02 -0.36649977318E+02  0.26040060112E+02  0.72900212328E+02  0.00000000000E+00 0. -1.
</event>
<event>
 7    1  0.5993218E-006  0.7745072E+02  0.7818608E-02  0.1385555E+00
          2   -1    0    0  502    0  0.00000000000E+00  0.00000000000E+00  0.59206110610E+03  0.59206110610E+03  0.00000000000E+00 0. -1.
          1   -1    0    0  501    0 -0.00000000000E+00 -0.00000000000E+00 -0.60946635281E+03  0.60946635281E+03  0.00000000000E+00 0. -1.
         25    2    1    2    0    0 -0.11081078047E+03 -0.55147459000E+02 -0.37409651616E+03  0.41339152731E+03  0.12499632052E+03 0.  0.
          2    1    1    2  501    0  0.35904644910E+02  0.36623466135E+02 -0.21002202716E+03  0.21619360233E+03  0.00000000000E+00 0. -1.
          1    1    1    2  502    0  0.74906135559E+02  0.18523992865E+02  0.56671329661E+03  0.57194232927E+03  0.00000000000E+00 0. -1.
         22    1    3    3    0    0  0.22955573953E+02 -0.29438188089E+02 -0.55379302679E+02  0.66786469129E+02  0.00000000000E+00 0.  1.
         22    1    3    3    0    0 -0.13376635442E+03 -0.25709270911E+02 -0.31871721348E+03  0.34660505818E+03  0.00000000000E+00 0.  1.
</event>
<event>
 7    1  0.5993218E-006  0.1101015E+03  0.7818608E-02  0.1424096E+00
          2   -1    0    0  502    0  0.00000000000E+00  0.00000000000E+00  0.10977677575E+04  0.10977677575E+04  0.00000000000E+00 0. -1.
          1   -1    0    0  501    0 -0.00000000000E+00 -0.00000000000E+00 -0.71304350152E+02  0.71304350152E+02  0.00000000000E+00 0. -1.
         25    2    1    2    0    0 -0.11475322705E+03 -0.38837299051E+02  0.35224348846E+03  0.39290814941E+03  0.12499879915E+03 0.  0.
          2    1    1    2  501    0  0.72554804733E+01  0.25638525584E+02 -0.43123111048E+02  0.50691011999E+02  0.00000000000E+00 0. -1.
          1    1    1    2  502    0  0.10749774658E+03  0.13198773467E+02  0.71734302989E+03  0.72547294620E+03  0.00000000000E+00 0. -1.
         22    1    3    3    0    0 -0.13536572571E+03 -0.84104853744E+01  0.29769309149E+03  0.32713268361E+03  0.00000000000E+00 0. -1.
         22    1    3    3    0    0  0.20612498660E+02 -0.30426813676E+02  0.54550396969E+02  0.65775465798E+02  0.00000000000E+00 0. -1.
</event>
<event>
 7    1  0.5993218E-006  0.3033592E+02  0.7818608E-02  0.1631842E+00
          2   -1    0    0  502    0  0.00000000000E+00  0.00000000000E+00  0.18999846594E+04  0.18999846594E+04  0.00000000000E+00 0. -1.
          1   -1    0    0  501    0 -0.00000000000E+00 -0.00000000000E+00 -0.42072319850E+03  0.42072319850E+03  0.00000000000E+00 0. -1.
         25    2    1    2    0    0  0.22343846550E+01 -0.18562415072E+02  0.26325498804E+03  0.29202550592E+03  0.12500460651E+03 0.  0.
          2    1    1    2  501    0  0.21952154365E+02  0.20993903588E+02 -0.40567906755E+03  0.40681463459E+03  0.00000000000E+00 0. -1.
          1    1    1    2  502    0 -0.24186539020E+02 -0.24314885158E+01  0.16216855404E+04  0.16218677174E+04  0.00000000000E+00 0. -1.
         22    1    3    3    0    0 -0.53070941561E+02  0.22357960914E+02  0.11823007035E+03  0.13150951597E+03  0.00000000000E+00 0.  1.
         22    1    3    3    0    0  0.55305326216E+02 -0.40920375986E+02  0.14502491769E+03  0.16051598995E+03  0.00000000000E+00 0.  1.
</event>
<event>
 7    1  0.5993218E-006  0.5668166E+02  0.7818608E-02  0.1499572E+00
          2   -1    0    0  502    0  0.00000000000E+00  0.00000000000E+00  0.10546686511E+04  0.10546686511E+04  0.00000000000E+00 0. -1.
          1   -1    0    0  501    0 -0.00000000000E+00 -0.00000000000E+00 -0.82685486012E+02  0.82685486012E+02  0.00000000000E+00 0. -1.
         25    2    1    2    0    0 -0.65640658508E+02 -0.30735851478E+02  0.55183083540E+03  0.57043469915E+03  0.12500034588E+03 0.  0.
          2    1    1    2  501    0  0.37860334736E+02  0.41913897476E+02 -0.61981636965E+02  0.83856443216E+02  0.00000000000E+00 0. -1.
          1    1    1    2  502    0  0.27780323771E+02 -0.11178045999E+02  0.48213396668E+03  0.48306299479E+03  0.00000000000E+00 0. -1.
         22    1    3    3    0    0 -0.10033576553E+03 -0.10794128423E+02  0.33226252609E+03  0.34724942807E+03  0.00000000000E+00 0. -1.
         22    1    3    3    0    0  0.34695107018E+02 -0.19941723055E+02  0.21956830932E+03  0.22318527108E+03  0.00000000000E+00 0. -1.
</event>
<event>
 7    1  0.5993218E-006  0.8394481E+02  0.7818608E-02  0.1381494E+00
          2   -1    0    0  502    0  0.00000000000E+00  0.00000000000E+00  0.16605389148E+04  0.16605389148E+04  0.00000000000E+00 0. -1.
          1   -1    0    0  501    0 -0.00000000000E+00 -0.00000000000E+00 -0.17570025069E+04  0.17570025069E+04  0.00000000000E+00 0. -1.
         25    2    1    2    0    0 -0.50023083843E+02  0.14038490016E+02  0.71806525616E+02  0.15322617217E+03  0.12499077805E+03 0.  0.
          2    1    1    2  501    0 -0.31872612940E+02 -0.37091909809E+02 -0.17147748354E+04  0.17154720660E+04  0.00000000000E+00 0. -1.
          1    1    1    2  502    0  0.81895696783E+02  0.23053419793E+02  0.15465047177E+04  0.15488431835E+04  0.00000000000E+00 0. -1.
         22    1    3    3    0    0  0.10523079471E+02  0.33003078137E+02  0.81952988200E+02  0.88973201825E+02  0.00000000000E+00 0. -1.
         22    1    3    3    0    0 -0.60546163314E+02 -0.18964588121E+02 -0.10146462585E+02  0.64252970341E+02  0.00000000000E+00 0. -1.
</event>
<event>
 7    1  0.5993218E-006  0.1487200E+03  0.7818608E-02  0.1209871E+00
          2   -1    0    0  502    0  0.00000000000E+00  0.00000000000E+00  0.48939081859E+03  0.48939081859E+03  0.00000000000E+00 0. -1.
          1   -1    0    0  501    0 -0.00000000000E+00 -0.00000000000E+00 -0.13043509860E+04  0.13043509860E+04  0.00000000000E+00 0. -1.
         25    2    1    2    0    0  0.14058658290E+03 -0.16804301856E+02  0.67800326010E+02  0.20067116035E+03  0.12500023414E+03 0.  0.
          2    1    1    2  501    0 -0.56992743532E+02 -0.12429038180E+03 -0.12149415313E+04  0.12226116294E+04  0.00000000000E+00 0. -1.
          1    1    1    2  502    0 -0.83593839371E+02  0.14109468365E+03  0.33218103790E+03  0.37045901484E+03  0.00000000000E+00 0. -1.
         22    1    3    3    0    0  0.12208743063E+03 -0.62558089097E+02  0.35540874392E+02  0.14171100515E+03  0.00000000000E+00 0. -1.
         22    1    3    3    0    0  0.18499152276E+02  0.45753787241E+02  0.32259451618E+02  0.58960155194E+02  0.00000000000E+00 0. -1.
</event>
<event>
 7    1  0.5993218E-006  0.3029225E+02  0.7818608E-02  0.1626966E+00
          2   -1    0    0  502    0  0.00000000000E+00  0.00000000000E+00  0.27743927506E+03  0.27743927506E+03  0.00000000000E+00 0. -1.
          1   -1    0    0  501    0 -0.00000000000E+00 -0.00000000000E+00 -0.87121042978E+03  0.87121042978E+03  0.00000000000E+00 0. -1.
         25    2    1    2    0    0 -0.18573616637E+02  0.17509873427E+02  0.18639811385E+03  0.22587663720E+03  0.12499769390E+03 0.  0.
          2    1    1    2  501    0  0.29927610225E+02  0.48092756529E+01 -0.84899372915E+03  0.84953466269E+03  0.00000000000E+00 0. -1.
          1    1    1    2  502    0 -0.11353993587E+02 -0.22319149080E+02  0.68824460574E+02  0.73238404948E+02  0.00000000000E+00 0. -1.
         22    1    3    3    0    0  0.49552586246E+02  0.19307289056E+02  0.11746438807E+03  0.12894228429E+03  0.00000000000E+00 0. -1.
         22    1    3    3    0    0 -0.68126202883E+02 -0.17974156294E+01  0.68933725785E+02  0.96934352903E+02  0.00000000000E+00 0. -1.
</event>
<event>
 7    1  0.5993218E-006  0.1506347E+03  0.7818608E-02  0.1227092E+00
          2   -1    0    0  502    0  0.00000000000E+00  0.00000000000E+00  0.31663062101E+03  0.31663062101E+03  0.00000000000E+00 0. -1.
          1   -1    0    0  501    0 -0.00000000000E+00 -0.00000000000E+00 -0.13143074560E+04  0.13143074560E+04  0.00000000000E+00 0. -1.
         25    2    1    2    0    0 -0.14859908612E+03  0.37806187126E+02 -0.50711525639E+02  0.20422660629E+03  0.12500340677E+03 0.  0.
          2    1    1    2  501    0  0.62583925438E+02  0.93624932164E+02 -0.11580965222E+04  0.11635591650E+04  0.00000000000E+00 0. -1.
          1    1    1    2  502    0  0.86015160683E+02 -0.13143111929E+03  0.21113121284E+03  0.26315230575E+03  0.00000000000E+00 0. -1.
         22    1    3    3    0    0 -0.16787473792E+03  0.31821949229E+02 -0.61183741523E+02  0.18148833106E+03  0.00000000000E+00 0.  1.
         22    1    3    3    0    0  0.19275651795E+02  0.59842378974E+01  0.10472215884E+02  0.22738275239E+02  0.00000000000E+00 0.  1.
</event>
<event>
 7    1  0.7130553E-006  0.7586092E+02  0.7818608E-02  0.1400414E+00
          2   -1    0    0  502    0  0.00000000000E+00  0.00000000000E+00  0.15460554804E+04  0.15460554804E+04  0.00000000000E+00 0. -1.
          1   -1    0    0  501    0 -0.00000000000E+00 -0.00000000000E+00 -0.73893928439E+03  0.73893928439E+03  0.00000000000E+00 0. -1.
         25    2    1    2    0    0  0.23928616664E+02  0.21974787028E+02 -0.46431885671E+03  0.48194620477E+03  0.12499869454E+03 0.  0.
          2    1    1    2  501    0  0.45760417327E+02  0.82234250409E+01 -0.26282707836E+03  0.26690768747E+03  0.00000000000E+00 0. -1.
          1    1    1    2  502    0 -0.69689033991E+02 -0.30198212069E+02  0.15342621311E+04  0.15361408726E+04  0.00000000000E+00 0. -1.
         22    1    3    3    0    0  0.61004803182E+02 -0.24381248373E+02 -0.18305713305E+03  0.19448893347E+03  0.00000000000E+00 0.  1.
         22    1    3    3    0    0 -0.37076186518E+02  0.46356035401E+02 -0.28126172366E+03  0.28745727130E+03  0.00000000000E+00 0.  1.
</event>
<event>
 7    1  0.5993218E-006  0.1644617E+03  0.7818608E-02  0.1288005E+00
          2   -1    0    0  502    0  0.00000000000E+00  0.00000000000E+00  0.12161095911E+04  0.12161095911E+04  0.00000000000E+00 0. -1.
          1   -1    0    0  501    0 -0.00000000000E+00 -0.00000000000E+00 -0.15444800586E+03  0.15444800586E+03  0.00000000000E+00 0. -1.
         25    2    1    2    0    0  0.10615434477E+03  0.47381043830E+02 -0.38172828056E+02  0.17491386565E+03  0.12499594941E+03 0.  0.
          2    1    1    2  501    0  0.56152126534E+02 -0.65356221255E+01 -0.22540048164E+02  0.60859094983E+02  0.00000000000E+00 0. -1.
          1    1    1    2  502    0 -0.16230647130E+03 -0.40845421705E+02  0.11223744614E+04  0.11347846363E+04  0.00000000000E+00 0. -1.
         22    1    3    3    0    0 -0.19762007862E+02  0.38554871844E+02 -0.18730179615E+02  0.47199944132E+02  0.00000000000E+00 0.  1.
         22    1    3    3    0    0  0.12591635263E+03  0.88261719862E+01 -0.19442648440E+02  0.12771392152E+03  0.00000000000E+00 0.  1.
</event>
<event>
 7    1  0.5993218E-006  0.6677539E+02  0.7818608E-02  0.1489253E+00
          2   -1    0    0  502    0  0.00000000000E+00  0.00000000000E+00  0.10843557600E+03  0.10843557600E+03  0.00000000000E+00 0. -1.
          1   -1    0    0  501    0 -0.00000000000E+00 -0.00000000000E+00 -0.20299625623E+04  0.20299625623E+04  0.00000000000E+00 0. -1.
         25    2    1    2    0    0  0.14885599431E+02  0.42138070764E+02 -0.68195928410E+02  0.14924108626E+03  0.12500007640E+03 0.  0.
          2    1    1    2  501    0 -0.36540256478E+01 -0.67021723815E+02 -0.19178892931E+04  0.19190634705E+04  0.00000000000E+00 0. -1.
          1    1    1    2  502    0 -0.11231573784E+02  0.24883653052E+02  0.64558235196E+02  0.70093581522E+02  0.00000000000E+00 0. -1.
         22    1    3    3    0    0 -0.10676547921E+02 -0.42418431338E+02 -0.15641385058E+02  0.46453901012E+02  0.00000000000E+00 0. -1.
         22    1    3    3    0    0  0.25562147352E+02  0.84556502102E+02 -0.52554543352E+02  0.10278718525E+03  0.00000000000E+00 0. -1.
</event>
<event>
 7    1  0.5993218E-006  0.9411246E+02  0.7818608E-02  0.1365572E+00
          2   -1    0    0  502    0  0.00000000000E+00  0.00000000000E+00  0.50235077111E+02  0.50235077111E+02  0.00000000000E+00 0. -1.
          1   -1    0    0  501    0 -0.00000000000E+00 -0.00000000000E+00 -0.69259786107E+03  0.69259786107E+03  0.00000000000E+00 0. -1.
         25    2    1    2    0    0  0.10843242645E+03  0.60302114873E+02 -0.45111256234E+03  0.48427439578E+03  0.12500084139E+03 0.  0.
          2    1    1    2  501    0 -0.77674452761E+02 -0.21222096415E+02 -0.19265618832E+03  0.20880638133E+03  0.00000000000E+00 0. -1.
          1    1    1    2  502    0 -0.30757973688E+02 -0.39080018458E+02  0.14059666992E+01  0.49752161063E+02  0.00000000000E+00 0. -1.
         22    1    3    3    0    0  0.43365806321E+02  0.51495185846E+02 -0.38591640716E+03  0.39174458597E+03  0.00000000000E+00 0. -1.
         22    1    3    3    0    0  0.65066620129E+02  0.88069290268E+01 -0.65196155180E+02  0.92529809813E+02  0.00000000000E+00 0. -1.
</event>
<event>
 7    1  0.5993218E-006  0.7819746E+02  0.7818608E-02  0.1339142E+00
          2   -1    0    0  502    0  0.00000000000E+00  0.00000000000E+00  0.41692137323E+03  0.41692137323E+03  0.00000000000E+00 0. -1.
          1   -1    0    0  501    0 -0.00000000000E+00 -0.00000000000E+00 -0.28531127921E+03  0.28531127921E+03  0.00000000000E+00 0. -1.
         25    2    1    2    0    0  0.25948664444E+02  0.94271078721E+01  0.29129788494E+02  0.13128639694E+03  0.12500147957E+03 0.  0.
          2    1    1    2  501    0 -0.13536363108E+02 -0.83325922529E+02 -0.22221845344E+03  0.23771302771E+03  0.00000000000E+00 0. -1.
          1    1    1    2  502    0 -0.12412301336E+02  0.73898814657E+02  0.32469875897E+03  0.33323322780E+03  0.00000000000E+00 0. -1.
         22    1    3    3    0    0  0.24022032958E+02  0.39614717950E+02  0.67845581772E+02  0.82154774126E+02  0.00000000000E+00 0. -1.
         22    1    3    3    0    0  0.19266314863E+01 -0.30187610078E+02 -0.38715793278E+02  0.49131622813E+02  0.00000000000E+00 0. -1.
</event>
<event>
 7    1  0.5993218E-006  0.7232900E+02  0.7818608E-02  0.1457605E+00
          2   -1    0    0  502    0  0.00000000000E+00  0.00000000000E+00  0.11379723207E+03  0.11379723207E+03  0.00000000000E+00 0. -1.
          1   -1    0    0  501    0 -0.00000000000E+00 -0.00000000000E+00 -0.29479290538E+03  0.29479290538E+03  0.00000000000E+00 0. -1.
         25    2    1    2    0    0 -0.47494725185E+02  0.83440383936E+02 -0.11097072226E+03  0.19276260418E+03  0.12499949511E+03 0.  0.
          2    1    1    2  501    0  0.22711392899E+02 -0.63860996223E+02 -0.13080964558E+03  0.14732683932E+03  0.00000000000E+00 0. -1.
          1    1    1    2  502    0  0.24783332286E+02 -0.19579387713E+02  0.60784694534E+02  0.68500693953E+02  0.00000000000E+00 0. -1.
         22    1    3    3    0    0 -0.53875255143E+02  0.11116862641E+03 -0.67404057093E+02  0.14072779941E+03  0.00000000000E+00 0.  1.
         22    1    3    3    0    0  0.63805299579E+01 -0.27728242475E+02 -0.43566665164E+02  0.52034804764E+02  0.00000000000E+00 0.  1.
</event>
<event>
 7    1  0.5993218E-006  0.2952077E+03  0.7818608E-02  0.1197614E+00
          2   -1    0    0  502    0  0.00000000000E+00  0.00000000000E+00  0.13171179998E+04  0.13171179998E+04  0.00000000000E+00 0. -1.
          1   -1    0    0  501    0 -0.00000000000E+00 -0.00000000000E+00 -0.44459968660E+03  0.44459968660E+03  0.00000000000E+00 0. -1.
         25    2    1    2    0    0  0.25272379053E+03  0.14227539462E+03  0.27360733840E+03  0.41784807741E+03  0.12499775180E+03 0.  0.
          2    1    1    2  501    0 -0.21160991469E+03 -0.20929387430E+03 -0.31105752262E+03  0.43051070160E+03  0.00000000000E+00 0. -1.
          1    1    1    2  502    0 -0.41113875846E+02  0.67018479683E+02  0.90996849738E+03  0.91335890735E+03  0.00000000000E+00 0. -1.
         22    1    3    3    0    0  0.19851030227E+03  0.54712748130E+02  0.22150827779E+03  0.30243303729E+03  0.00000000000E+00 0. -1.
         22    1    3    3    0    0  0.54213488263E+02  0.87562646488E+02  0.52099060613E+02  0.11541504012E+03  0.00000000000E+00 0. -1.
</event>
<event>
 7    1  0.5993218E-006  0.3922642E+02  0.7818608E-02  0.1597913E+00
          2   -1    0    0  502    0  0.00000000000E+00  0.00000000000E+00  0.18184659994E+04  0.18184659994E+04  0.00000000000E+00 0. -1.
          1   -1    0    0  501    0 -0.00000000000E+00 -0.00000000000E+00 -0.25952848501E+03  0.25952848501E+03  0.00000000000E+00 0. -1.
         25    2    1    2    0    0  0.57834956316E+01  0.25683033566E+02  0.15045342795E+04  0.15099481687E+04  0.12500802646E+03 0.  0.
          2    1    1    2  501    0  0.12950445773E+02  0.18968864555E+02 -0.25441759631E+03  0.25545223659E+03  0.00000000000E+00 0. -1.
          1    1    1    2  502    0 -0.18733941404E+02 -0.44651898121E+02  0.30882083120E+03  0.31259407920E+03  0.00000000000E+00 0. -1.
         22    1    3    3    0    0 -0.21011639456E+02  0.71466752063E+02  0.83565454986E+03  0.83896812356E+03  0.00000000000E+00 0. -1.
         22    1    3    3    0    0  0.26795135088E+02 -0.45783718497E+02  0.66887972968E+03  0.67098004510E+03  0.00000000000E+00 0. -1.
</event>
<event>
 7    1  0.5993218E-006  0.1236825E+03  0.7818608E-02  0.1287921E+00
          2   -1    0    0  502    0  0.00000000000E+00  0.00000000000E+00  0.74260505843E+03  0.74260505843E+03  0.00000000000E+00 0. -1.
          1   -1    0    0  501    0 -0.00000000000E+00 -0.00000000000E+00 -0.68038308014E+03  0.68038308014E+03  0.00000000000E+00 0. -1.
         25    2    1    2    0    0  0.10313490693E+03  0.32863635042E+02 -0.18583972828E+03  0.24875328710E+03  0.12499986279E+03 0.  0.
          2    1    1    2  501    0 -0.12745858767E+03  0.38325049816E+02 -0.45146467064E+03  0.47067488764E+03  0.00000000000E+00 0. -1.
          1    1    1    2  502    0  0.24323680739E+02 -0.71188684859E+02  0.69952637722E+03  0.70355996384E+03  0.00000000000E+00 0. -1.
         22    1    3    3    0    0 -0.93841716043E+01  0.18334480541E+02 -0.11087169538E+03  0.11276856251E+03  0.00000000000E+00 0.  1.
         22    1    3    3    0    0  0.11251907853E+03  0.14529154501E+02 -0.74968032903E+02  0.13598472459E+03  0.00000000000E+00 0.  1.
</event>
<event>
 7    1  0.8052959E-006  0.1033310E+03  0.7818608E-02  0.1378694E+00
          2   -1    0    0  502    0  0.00000000000E+00  0.00000000000E+00  0.21696352597E+04  0.21696352597E+04  0.00000000000E+00 0. -1.
          1   -1    0    0  501    0 -0.00000000000E+00 -0.00000000000E+00 -0.80230820842E+03  0.80230820842E+03  0.00000000000E+00 0. -1.
         25    2    1    2    0    0 -0.51187936568E+02 -0.93011592578E+02 -0.31166607952E+03  0.35218321290E+03  0.12500363644E+03 0.  0.
          2    1    1    2  501    0  0.11942827925E+02  0.10359520282E+03 -0.46440886081E+03  0.47597288493E+03  0.00000000000E+00 0. -1.
          1    1    1    2  502    0  0.39245108643E+02 -0.10583610246E+02  0.21434019917E+04  0.21437873703E+04  0.00000000000E+00 0. -1.
         22    1    3    3    0    0  0.10453067919E+02  0.17417094432E+02 -0.56808815815E+01  0.21092515803E+02  0.00000000000E+00 0.  1.
         22    1    3    3    0    0 -0.61641004487E+02 -0.11042868701E+03 -0.30598519794E+03  0.33109069710E+03  0.00000000000E+00 0.  1.
</event>
<event>
 7    1  0.5993218E-006  0.1993158E+03  0.7818608E-02  0.1271267E+00
          2   -1    0    0  502    0  0.00000000000E+00  0.00000000000E+00  0.18517159070E+03  0.18517159070E+03  0.00000000000E+00 0. -1.
          1   -1    0    0  501    0 -0.00000000000E+00 -0.00000000000E+00 -0.11639304282E+04  0.11639304282E+04  0.00000000000E+00 0. -1.
         25    2    1    2    0    0  0.22302887148E+03  0.89064270236E+02 -0.16974915866E+03  0.31955913153E+03  0.12501575873E+03 0.  0.
          2    1    1    2  501    0 -0.18820238995E+03 -0.46877895340E+02 -0.90147706009E+03  0.92210550726E+03  0.00000000000E+00 0. -1.
          1    1    1    2  502    0 -0.34826481537E+02 -0.42186374896E+02  0.92467381265E+02  0.10743738009E+03  0.00000000000E+00 0. -1.
         22    1    3    3    0    0  0.17014885914E+03  0.11347804475E+03 -0.96967827069E+02  0.22634191038E+03  0.00000000000E+00 0. -1.
         22    1    3    3    0    0  0.52880012344E+02 -0.24413774511E+02 -0.72781331593E+02  0.93217221154E+02  0.00000000000E+00 0. -1.
</event>
<event>
 7    1  0.5993218E-006  0.1453184E+03  0.7818608E-02  0.1330558E+00
          2   -1    0    0  502    0  0.00000000000E+00  0.00000000000E+00  0.14474164015E+04  0.14474164015E+04  0.00000000000E+00 0. -1.
          1   -1    0    0  501    0 -0.00000000000E+00 -0.00000000000E+00 -0.22394013145E+03  0.22394013145E+03  0.00000000000E+00 0. -1.
         25    2    1    2    0    0  0.15777007276E+03 -0.71075546735E+02  0.24524670153E+03  0.32513514014E+03  0.12499514205E+03 0.  0.
          2    1    1    2  501    0 -0.18776234496E+02  0.39196200594E+02 -0.17698259006E+03  0.18224084698E+03  0.00000000000E+00 0. -1.
          1    1    1    2  502    0 -0.13899383826E+03  0.31879346141E+02  0.11552121586E+04  0.11639805459E+04  0.00000000000E+00 0. -1.
         22    1    3    3    0    0  0.82158590792E+02 -0.97460421303E+02  0.11204572670E+03  0.16971391408E+03  0.00000000000E+00 0.  1.
         22    1    3    3    0    0  0.75611481968E+02  0.26384874569E+02  0.13320097484E+03  0.15542122606E+03  0.00000000000E+00 0.  1.
</event>
<event>
 7    1  0.5993218E-006  0.5367916E+02  0.7818608E-02  0.1515077E+00
          2   -1    0    0  502    0  0.00000000000E+00  0.00000000000E+00  0.42862115281E+03  0.42862115281E+03  0.00000000000E+00 0. -1.
          1   -1    0    0  501    0 -0.00000000000E+00 -0.00000000000E+00 -0.17182747504E+04  0.17182747504E+04  0.00000000000E+00 0. -1.
         25    2    1    2    0    0  0.75665648324E+02 -0.14951273438E+02 -0.98286147522E+03  0.99377605750E+03  0.12500136834E+03 0.  0.
          2    1    1    2  501    0 -0.47258179414E+02  0.16586344367E+02 -0.72861700260E+03  0.73033634637E+03  0.00000000000E+00 0. -1.
          1    1    1    2  502    0 -0.28407468910E+02 -0.16350709290E+01  0.42182488022E+03  0.42278349935E+03  0.00000000000E+00 0. -1.
         22    1    3    3    0    0  0.64524964035E+02  0.25921504291E+01 -0.96255995418E+03  0.96472371984E+03  0.00000000000E+00 0. -1.
         22    1    3    3    0    0  0.11140684290E+02 -0.17543423867E+02 -0.20301521038E+02  0.29052337666E+02  0.00000000000E+00 0. -1.
</event>
<event>
 7    1  0.5993218E-006  0.1136558E+03  0.7818608E-02  0.1404474E+00
          2   -1    0    0  502    0  0.00000000000E+00  0.00000000000E+00  0.17545382921E+04  0.17545382921E+04  0.00000000000E+00 0. -1.
          1   -1    0    0  501    0 -0.00000000000E+00 -0.00000000000E+00 -0.12870314340E+04  0.12870314340E+04  0.00000000000E+00 0. -1.
         25    2    1    2    0    0  0.71926381107E+02 -0.65689877310E+02  0.80266265428E+02  0.17763904545E+03  0.12499757127E+03 0.  0.
          2    1    1    2  501    0 -0.77309090131E+01 -0.29043016728E+02 -0.12361482196E+04  0.12365135197E+04  0.00000000000E+00 0. -1.
          1    1    1    2  502    0 -0.64195472093E+02  0.94732894038E+02  0.16233888122E+04  0.16274171609E+04  0.00000000000E+00 0. -1.
         22    1    3    3    0    0  0.58509346243E+02  0.20494936633E+02  0.45931235844E+01  0.62164964486E+02  0.00000000000E+00 0.  1.
         22    1    3    3    0    0  0.13417034864E+02 -0.86184813943E+02  0.75673141844E+02  0.11547408097E+03  0.00000000000E+00 0.  1.
</event>
<event>
 7    1  0.5993218E-006  0.6315529E+02  0.7818608E-02  0.1443407E+00
          2   -1    0    0  502    0  0.00000000000E+00  0.00000000000E+00  0.54508508522E+03  0.54508508522E+03  0.00000000000E+00 0. -1.
          1   -1    0    0  501    0 -0.00000000000E+00 -0.00000000000E+00 -0.22419880918E+04  0.22419880918E+04  0.00000000000E+00 0. -1.
         25    2    1    2    0    0 -0.45515512715E+02 -0.39816730031E+02  0.32467123533E+03  0.35311917172E+03  0.12499881798E+03 0.  0.
          2    1    1    2  501    0  0.63067317661E+02  0.36976767994E+01 -0.22253562811E+04  0.22262528466E+04  0.00000000000E+00 0. -1.
          1    1    1    2  502    0 -0.17551804946E+02  0.36119053231E+02  0.20378203913E+03  0.20770115872E+03  0.00000000000E+00 0. -1.
         22    1    3    3    0    0 -0.33304894443E+02 -0.85180093268E+02  0.22719517855E+03  0.24491327738E+03  0.00000000000E+00 0.  1.
         22    1    3    3    0    0 -0.12210618272E+02  0.45363363238E+02  0.97476056785E+02  0.10820589434E+03  0.00000000000E+00 0.  1.
</event>
<event>
 7    1  0.5993218E-006  0.2363157E+03  0.7818608E-02  0.1226370E+00
          2   -1    0    0  502    0  0.00000000000E+00  0.00000000000E+00  0.16444910987E+04  0.16444910987E+04  0.00000000000E+00 0. -1.
          1   -1    0    0  501    0 -0.00000000000E+00 -0.00000000000E+00 -0.77304611173E+03  0.77304611173E+03  0.00000000000E+00 0. -1.
         25    2    1    2    0    0 -0.68010825648E+02  0.17486312130E+03 -0.16033287169E+03  0.27664708081E+03  0.12499757589E+03 0.  0.
          2    1    1    2  501    0  0.37674782496E+02  0.61737489222E+02 -0.54317836133E+03  0.54797229768E+03  0.00000000000E+00 0. -1.
          1    1    1    2  502    0  0.30336043153E+02 -0.23660061052E+03  0.15749562200E+04  0.15929178319E+04  0.00000000000E+00 0. -1.
         22    1    3    3    0    0  0.33536259905E+02  0.74602619843E+02 -0.46372575888E+02  0.94024717018E+02  0.00000000000E+00 0. -1.
         22    1    3    3    0    0 -0.10154708555E+03  0.10026050146E+03 -0.11396029580E+03  0.18262236379E+03  0.00000000000E+00 0. -1.
</event>
<event>
 7    1  0.5993218E-006  0.1016268E+03  0.7818608E-02  0.1386768E+00
          2   -1    0    0  502    0  0.00000000000E+00  0.00000000000E+00  0.14500745589E+04  0.14500745589E+04  0.00000000000E+00 0. -1.
          1   -1    0    0  501    0 -0.00000000000E+00 -0.00000000000E+00 -0.27344643222E+02  0.27344643222E+02  0.00000000000E+00 0. -1.
         25    2    1    2    0    0 -0.17541044855E+02 -0.81811780059E+02  0.39494387316E+03  0.42261879396E+03  0.12500050580E+03 0.  0.
          2    1    1    2  501    0 -0.46589626332E+01  0.11351779900E+03  0.23452263256E+03  0.26059328810E+03  0.00000000000E+00 0. -1.
          1    1    1    2  502    0  0.22200007488E+02 -0.31706018945E+02  0.79326340998E+03  0.79420712008E+03  0.00000000000E+00 0. -1.
         22    1    3    3    0    0  0.26644307186E+02 -0.70037750939E+02  0.35200087606E+03  0.35988862501E+03  0.00000000000E+00 0. -1.
         22    1    3    3    0    0 -0.44185352041E+02 -0.11774029120E+02  0.42942997093E+02  0.62730168946E+02  0.00000000000E+00 0. -1.
</event>
<event>
 7    1  0.5993218E-006  0.5079028E+02  0.7818608E-02  0.1574940E+00
          2   -1    0    0  502    0  0.00000000000E+00  0.00000000000E+00  0.15785384692E+04  0.15785384692E+04  0.00000000000E+00 0. -1.
          1   -1    0    0  501    0 -0.00000000000E+00 -0.00000000000E+00 -0.14463335432E+03  0.14463335432E+03  0.00000000000E+00 0. -1.
         25    2    1    2    0    0  0.37248567320E+02  0.43871538329E+02  0.67754784540E+00  0.13763301863E+03  0.12502088266E+03 0.  0.
          2    1    1    2  501    0 -0.17130435512E+02 -0.47357837759E+02 -0.67752817630E+02  0.84419552918E+02  0.00000000000E+00 0. -1.
          1    1    1    2  502    0 -0.20118131808E+02  0.34862994299E+01  0.15009803846E+04  0.15011192519E+04  0.00000000000E+00 0. -1.
         22    1    3    3    0    0  0.76903373322E+02  0.31423501692E+02  0.28259914145E+02  0.87750715293E+02  0.00000000000E+00 0.  1.
         22    1    3    3    0    0 -0.39654806002E+02  0.12448036638E+02 -0.27582366300E+02  0.49882303333E+02  0.00000000000E+00 0.  1.
</event>
<event>
 7    1  0.5993218E-006  0.5051257E+02  0.7818608E-02  0.1446159E+00
          2   -1    0    0  502    0  0.00000000000E+00  0.00000000000E+00  0.32438877830E+03  0.32438877830E+03  0.00000000000E+00 0. -1.
          1   -1    0    0  501    0 -0.00000000000E+00 -0.00000000000E+00 -0.43796912436E+03  0.43796912436E+03  0.00000000000E+00 0. -1.
         25    2    1    2    0    0 -0.30080343150E+01 -0.10356244133E+02 -0.40950893945E+02  0.13198121021E+03  0.12500305624E+03 0.  0.
          2    1    1    2  501    0  0.44838234436E+02 -0.20236970355E+02 -0.34734724788E+03  0.35081350151E+03  0.00000000000E+00 0. -1.
          1    1    1    2  502    0 -0.41830200121E+02  0.30593214488E+02  0.27471779577E+03  0.27956319094E+03  0.00000000000E+00 0. -1.
         22    1    3    3    0    0 -0.28060951624E+02  0.74752548030E+01 -0.78352759644E+02  0.83561063805E+02  0.00000000000E+00 0. -1.
         22    1    3    3    0    0  0.25052917309E+02 -0.17831498936E+02  0.37401865700E+02  0.48420146404E+02  0.00000000000E+00 0. -1.
</event>
<event>
 7    1  0.5993218E-006  0.1072649E+04  0.7818608E-02  0.1070681E+00
          2   -1    0    0  502    0  0.00000000000E+00  0.00000000000E+00  0.44599805724E+04  0.44599805724E+04  0.00000000000E+00 0. -1.
          1   -1    0    0  501    0 -0.00000000000E+00 -0.00000000000E+00 -0.97448089615E+03  0.97448089615E+03  0.00000000000E+00 0. -1.
         25    2    1    2    0    0 -0.98897211780E+03 -0.12466076717E+03  0.21208289415E+04  0.23467308399E+04  0.12499631773E+03 0.  0.
          2    1    1    2  501    0  0.10676903712E+04  0.18977793154E+03 -0.51834888798E+03  0.12019417464E+04  0.00000000000E+00 0. -1.
          1    1    1    2  502    0 -0.78718253441E+02 -0.65117164372E+02  0.18830196227E+04  0.18857888821E+04  0.00000000000E+00 0. -1.
         22    1    3    3    0    0 -0.93743878083E+03 -0.99444395992E+02  0.19380807298E+04  0.21551885233E+04  0.00000000000E+00 0. -1.
         22    1    3    3    0    0 -0.51533336968E+02 -0.25216371175E+02  0.18274821171E+03  0.19154231667E+03  0.00000000000E+00 0. -1.
</event>
<event>
 7    1  0.5993218E-006  0.1844872E+03  0.7818608E-02  0.1194914E+00
          2   -1    0    0  502    0  0.00000000000E+00  0.00000000000E+00  0.27860313504E+03  0.27860313504E+03  0.00000000000E+00 0. -1.
          1   -1    0    0  501    0 -0.00000000000E+00 -0.00000000000E+00 -0.61350436248E+03  0.61350436248E+03  0.00000000000E+00 0. -1.
         25    2    1    2    0    0  0.40898745251E+02  0.73539020007E+02 -0.31300908890E+03  0.34739055922E+03  0.12499926427E+03 0.  0.
          2    1    1    2  501    0  0.12499159654E+03  0.34176406657E+02 -0.22598862421E+03  0.26050294480E+03  0.00000000000E+00 0. -1.
          1    1    1    2  502    0 -0.16589034179E+03 -0.10771542666E+03  0.20409648568E+03  0.28421399351E+03  0.00000000000E+00 0. -1.
         22    1    3    3    0    0  0.47762120794E+02  0.92536130913E+02 -0.14694594126E+03  0.18010348514E+03  0.00000000000E+00 0. -1.
         22    1    3    3    0    0 -0.68633755429E+01 -0.18997110906E+02 -0.16606314765E+03  0.16728707408E+03  0.00000000000E+00 0. -1.
</event>
<event>
 7    1  0.5993218E-006  0.1167603E+03  0.7818608E-02  0.1255671E+00
          2   -1    0    0  502    0  0.00000000000E+00  0.00000000000E+00  0.26626536556E+03  0.26626536556E+03  0.00000000000E+00 0. -1.
          1   -1    0    0  501    0 -0.00000000000E+00 -0.00000000000E+00 -0.14586421733E+04  0.14586421733E+04  0.00000000000E+00 0. -1.
         25    2    1    2    0    0 -0.76004060735E+02 -0.26608823409E+02 -0.27216384777E+03  0.31013345987E+03  0.12499982469E+03 0.  0.
          2    1    1    2  501    0 -0.13197141915E+02  0.10795448844E+03 -0.11500392334E+04  0.11551703660E+04  0.00000000000E+00 0. -1.
          1    1    1    2  502    0  0.89201202650E+02 -0.81345665035E+02  0.22982627349E+03  0.25960371292E+03  0.00000000000E+00 0. -1.
         22    1    3    3    0    0 -0.49457252774E+02 -0.68711130515E+02 -0.22936330156E+03  0.24448877973E+03  0.00000000000E+00 0. -1.
         22    1    3    3    0    0 -0.26546807961E+02  0.42102307106E+02 -0.42800546204E+02  0.65644680149E+02  0.00000000000E+00 0. -1.
</event>
<event>
 7    1  0.5993218E-006  0.4170326E+02  0.7818608E-02  0.1596106E+00
          2   -1    0    0  502    0  0.00000000000E+00  0.00000000000E+00  0.91056587609E+03  0.91056587609E+03  0.00000000000E+00 0. -1.
          1   -1    0    0  501    0 -0.00000000000E+00 -0.00000000000E+00 -0.64436604930E+03  0.64436604930E+03  0.00000000000E+00 0. -1.
         25    2    1    2    0    0  0.41335534707E+02 -0.17860753930E+02 -0.11943837852E+03  0.17865706606E+03  0.12500075211E+03 0.  0.
          2    1    1    2  501    0 -0.25595887350E+02  0.33003200556E+02 -0.49430215377E+03  0.49606348375E+03  0.00000000000E+00 0. -1.
          1    1    1    2  502    0 -0.15739647357E+02 -0.15142446626E+02  0.87994035907E+03  0.88021137559E+03  0.00000000000E+00 0. -1.
         22    1    3    3    0    0  0.13497884828E+02  0.32567344466E+02  0.10282317307E+02  0.36722620680E+02  0.00000000000E+00 0. -1.
         22    1    3    3    0    0  0.27837649879E+02 -0.50428098396E+02 -0.12972069583E+03  0.14193444538E+03  0.00000000000E+00 0. -1.
</event>
<event>
 7    1  0.5993218E-006  0.8355623E+02  0.7818608E-02  0.1476826E+00
          2   -1    0    0  502    0  0.00000000000E+00  0.00000000000E+00  0.71563303899E+03  0.71563303899E+03  0.00000000000E+00 0. -1.
          1   -1    0    0  501    0 -0.00000000000E+00 -0.00000000000E+00 -0.97422253226E+02  0.97422253226E+02  0.00000000000E+00 0. -1.
         25    2    1    2    0    0  0.33303914861E+02  0.86836804286E+02  0.26107472869E+03  0.30403104434E+03  0.12500032255E+03 0.  0.
          2    1    1    2  501    0 -0.99081810334E+01 -0.82409157807E+02 -0.52815680569E+02  0.98381591042E+02  0.00000000000E+00 0. -1.
          1    1    1    2  502    0 -0.23395733828E+02 -0.44276464784E+01  0.40995173764E+03  0.41064265683E+03  0.00000000000E+00 0. -1.
         22    1    3    3    0    0 -0.27348256305E+02  0.40120156525E+01  0.15102367003E+03  0.15353231680E+03  0.00000000000E+00 0.  1.
         22    1    3    3    0    0  0.60652171166E+02  0.82824788633E+02  0.11005105866E+03  0.15049872754E+03  0.00000000000E+00 0.  1.
</event>
<event>
 7    1  0.5993218E-006  0.8304927E+02  0.7818608E-02  0.1389609E+00
          2   -1    0    0  502    0  0.00000000000E+00  0.00000000000E+00  0.25479730644E+04  0.25479730644E+04  0.00000000000E+00 0. -1.
          1   -1    0    0  501    0 -0.00000000000E+00 -0.00000000000E+00 -0.13945944524E+04  0.13945944524E+04  0.00000000000E+00 0. -1.
         25    2    1    2    0    0 -0.15634501925E+02 -0.51585155674E+02  0.66765919406E+02  0.15161821009E+03  0.12499971080E+03 0.  0.
          2    1    1    2  501    0 -0.46024181175E+02 -0.49707046287E+01 -0.13510541686E+04  0.13518469956E+04  0.00000000000E+00 0. -1.
          1    1    1    2  502    0  0.61658683100E+02  0.56555860303E+02  0.24376668611E+04  0.24391023112E+04  0.00000000000E+00 0. -1.
         22    1    3    3    0    0  0.22907383929E+01 -0.90675416200E+02  0.31550212686E+02  0.96034860889E+02  0.00000000000E+00 0. -1.
         22    1    3    3    0    0 -0.17925240318E+02  0.39090260525E+02  0.35215706719E+02  0.55583349199E+02  0.00000000000E+00 0. -1.
</event>
<event>
 7    1  0.1114501E-005  0.1029611E+03  0.7818608E-02  0.1290110E+00
          2   -1    0    0  502    0  0.00000000000E+00  0.00000000000E+00  0.13598472628E+04  0.13598472628E+04  0.00000000000E+00 0. -1.
          1   -1    0    0  501    0 -0.00000000000E+00 -0.00000000000E+00 -0.84931589196E+03  0.84931589196E+03  0.00000000000E+00 0. -1.
         25    2    1    2    0    0  0.13255541335E+02  0.11711972057E+02 -0.87748041944E+01  0.12655557401E+03  0.12500574570E+03 0.  0.
          2    1    1    2  501    0  0.79587349307E+02  0.38781716979E+02 -0.77698631865E+03  0.78201400698E+03  0.00000000000E+00 0. -1.
          1    1    1    2  502    0 -0.92842890642E+02 -0.50493689037E+02  0.12962924936E+04  0.13005935737E+04  0.00000000000E+00 0. -1.
         22    1    3    3    0    0 -0.51270957601E+02  0.71653597001E+01 -0.28283109908E+02  0.58991421232E+02  0.00000000000E+00 0. -1.
         22    1    3    3    0    0  0.64526498936E+02  0.45466123573E+01  0.19508305714E+02  0.67564152778E+02  0.00000000000E+00 0. -1.
</event>
<event>
 7    1  0.5993218E-006  0.3199132E+02  0.7818608E-02  0.1585061E+00
          2   -1    0    0  502    0  0.00000000000E+00  0.00000000000E+00  0.38445576476E+03  0.38445576476E+03  0.00000000000E+00 0. -1.
          1   -1    0    0  501    0 -0.00000000000E+00 -0.00000000000E+00 -0.84268683595E+02  0.84268683595E+02  0.00000000000E+00 0. -1.
         25    2    1    2    0    0 -0.74668019652E+01  0.11798933221E+02 -0.55116929413E+00  0.12576934038E+03  0.12499062059E+03 0.  0.
          2    1    1    2  501    0  0.27078610855E+02  0.13932253099E+02 -0.88252375042E+01  0.31705577731E+02  0.00000000000E+00 0. -1.
          1    1    1    2  502    0 -0.19611808890E+02 -0.25731186320E+02  0.30956348796E+03  0.31124953024E+03  0.00000000000E+00 0. -1.
         22    1    3    3    0    0 -0.20755957085E+02  0.60248621225E+02  0.26143885359E+02  0.68878217570E+02  0.00000000000E+00 0.  1.
         22    1    3    3    0    0  0.13289155120E+02 -0.48449688004E+02 -0.26695054653E+02  0.56891122808E+02  0.00000000000E+00 0.  1.
</event>
<event>
 7    1  0.5993218E-006  0.4214468E+02  0.7818608E-02  0.1554258E+00
          2   -1    0    0  502    0  0.00000000000E+00  0.00000000000E+00  0.14944852783E+04  0.14944852783E+04  0.00000000000E+00 0. -1.
          1   -1    0    0  501    0 -0.00000000000E+00 -0.00000000000E+00 -0.29457671990E+04  0.29457671990E+04  0.00000000000E+00 0. -1.
         25    2    1    2    0    0  0.63003199409E+02 -0.18205497193E+02  0.26834204726E+03  0.30320640984E+03  0.12500331745E+03 0.  0.
          2    1    1    2  501    0 -0.35367800765E+02  0.22899137033E+02 -0.29280209136E+04  0.29283240466E+04  0.00000000000E+00 0. -1.
          1    1    1    2  502    0 -0.27635398644E+02 -0.46936398403E+01  0.12083969456E+04  0.12087220209E+04  0.00000000000E+00 0. -1.
         22    1    3    3    0    0  0.40572198072E+02 -0.34868774255E+02  0.26996666609E+03  0.27521616136E+03  0.00000000000E+00 0. -1.
         22    1    3    3    0    0  0.22431001337E+02  0.16663277062E+02 -0.16246188295E+01  0.27990248477E+02  0.00000000000E+00 0. -1.
</event>
<event>
 7    1  0.5993218E-006  0.1648397E+03  0.7818608E-02  0.1316180E+00
          2   -1    0    0  502    0  0.00000000000E+00  0.00000000000E+00  0.14589561146E+04  0.14589561146E+04  0.00000000000E+00 0. -1.
          1   -1    0    0  501    0 -0.00000000000E+00 -0.00000000000E+00 -0.27520719392E+03  0.27520719392E+03  0.00000000000E+00 0. -1.
         25    2    1    2    0    0 -0.18601030251E+03 -0.18428877322E+02 -0.80383313268E+01  0.22500944736E+03  0.12500072188E+03 0.  0.
          2    1    1    2  501    0  0.15705520972E+03 -0.14083343031E+02 -0.11905905985E+03  0.19758476455E+03  0.00000000000E+00 0. -1.
          1    1    1    2  502    0  0.28955092793E+02  0.32512220352E+02  0.13108463119E+04  0.13115690966E+04  0.00000000000E+00 0. -1.
         22    1    3    3    0    0 -0.44195404456E+02 -0.62075472884E+02  0.26343474846E+01  0.76246559892E+02  0.00000000000E+00 0.  1.
         22    1    3    3    0    0 -0.14181489806E+03  0.43646595562E+02 -0.10672678811E+02  0.14876288747E+03  0.00000000000E+00 0.  1.
</event>
<event>
 7    1  0.5993218E-006  0.2847175E+02  0.7818608E-02  0.1656611E+00
          2   -1    0    0  502    0  0.00000000000E+00  0.00000000000E+00  0.68801167399E+03  0.68801167399E+03  0.00000000000E+00 0. -1.
          1   -1    0    0  501    0 -0.00000000000E+00 -0.00000000000E+00 -0.36247757155E+03  0.36247757155E+03  0.00000000000E+00 0. -1.
         25    2    1    2    0    0 -0.20527915004E+02  0.15105786424E+02  0.28217955433E+02  0.13065574459E+03  0.12500036203E+03 0.  0.
          2    1    1    2  501    0  0.24269896272E+01 -0.28464446009E+02 -0.31039461564E+03  0.31170648435E+03  0.00000000000E+00 0. -1.
          1    1    1    2  502    0  0.18100925376E+02  0.13358659585E+02  0.60771076265E+03  0.60812701660E+03  0.00000000000E+00 0. -1.
         22    1    3    3    0    0 -0.42896155524E+02  0.44648793989E+02  0.56671515545E+02  0.83936021097E+02  0.00000000000E+00 0. -1.
         22    1    3    3    0    0  0.22368240520E+02 -0.29543007565E+02 -0.28453560113E+02  0.46719723491E+02  0.00000000000E+00 0. -1.
</event>
<event>
 7    1  0.5993218E-006  0.2013876E+03  0.7818608E-02  0.1352742E+00
          2   -1    0    0  502    0  0.00000000000E+00  0.00000000000E+00  0.11576186925E+04  0.11576186925E+04  0.00000000000E+00 0. -1.
          1   -1    0    0  501    0 -0.00000000000E+00 -0.00000000000E+00 -0.39071567274E+03  0.39071567274E+03  0.00000000000E+00 0. -1.
         25    2    1    2    0    0 -0.14695521953E+03 -0.15893725683E+03  0.40588079543E+03  0.47668015389E+03  0.12501144293E+03 0.  0.
          2    1    1    2  501    0  0.12107898496E+03  0.15979116876E+03 -0.32677304236E+03  0.38337182921E+03  0.00000000000E+00 0. -1.
          1    1    1    2  502    0  0.25876234566E+02 -0.85391193286E+00  0.68779526668E+03  0.68828238213E+03  0.00000000000E+00 0. -1.
         22    1    3    3    0    0 -0.31248344233E+02 -0.25580509050E+01  0.59009658283E+01  0.31903354674E+02  0.00000000000E+00 0. -1.
         22    1    3    3    0    0 -0.11570687530E+03 -0.15637920593E+03  0.39997982960E+03  0.44477679922E+03  0.00000000000E+00 0. -1.
</event>
<event>
 7    1  0.5993218E-006  0.1287035E+03  0.7818608E-02  0.1328972E+00
          2   -1    0    0  502    0  0.00000000000E+00  0.00000000000E+00  0.81767835484E+03  0.81767835484E+03  0.00000000000E+00 0. -1.
          1   -1    0    0  501    0 -0.00000000000E+00 -0.00000000000E+00 -0.10212335728E+03  0.10212335728E+03  0.00000000000E+00 0. -1.
         25    2    1    2    0    0  0.59232543711E+02  0.12459483847E+03  0.48837377367E+03  0.52265398098E+03  0.12500349204E+03 0.  0.
          2    1    1    2  501    0  0.31875837080E+02 -0.38211913566E+02 -0.63404218193E+02  0.80599715959E+02  0.00000000000E+00 0. -1.
          1    1    1    2  502    0 -0.91108380791E+02 -0.86382924909E+02  0.29058544208E+03  0.31654801518E+03  0.00000000000E+00 0. -1.
         22    1    3    3    0    0  0.86827100552E+01  0.13278794852E+03  0.38379950043E+03  0.40621433414E+03  0.00000000000E+00 0.  1.
         22    1    3    3    0    0  0.50549833656E+02 -0.81931100457E+01  0.10457427324E+03  0.11643964685E+03  0.00000000000E+00 0.  1.
</event>
<event>
 7    1  0.5993218E-006  0.2588101E+03  0.7818608E-02  0.1193422E+00
          2   -1    0    0  502    0  0.00000000000E+00  0.00000000000E+00  0.20208496676E+04  0.20208496676E+04  0.00000000000E+00 0. -1.
          1   -1    0    0  501    0 -0.00000000000E+00 -0.00000000000E+00 -0.11315825339E+04  0.11315825339E+04  0.00000000000E+00 0. -1.
         25    2    1    2    0    0  0.14347202138E+03 -0.27733496570E+03  0.98138758081E+02  0.35036344519E+03  0.12499769503E+03 0.  0.
          2    1    1    2  501    0 -0.53655444362E+02  0.24997170062E+03 -0.98795992690E+03  0.10205045688E+04  0.00000000000E+00 0. -1.
          1    1    1    2  502    0 -0.89816577023E+02  0.27363265082E+02  0.17790883025E+04  0.17815641874E+04  0.00000000000E+00 0. -1.
         22    1    3    3    0    0  0.11406280450E+03 -0.88287068685E+02  0.54001574755E+02  0.15401655737E+03  0.00000000000E+00 0.  1.
         22    1    3    3    0    0  0.29409216887E+02 -0.18904789702E+03  0.44137183326E+02  0.19634688782E+03  0.00000000000E+00 0.  1.
</event>
<event>
 7    1  0.5993218E-006  0.6700072E+02  0.7818608E-02  0.1405350E+00
          2   -1    0    0  502    0  0.00000000000E+00  0.00000000000E+00  0.20419680527E+04  0.20419680527E+04  0.00000000000E+00 0. -1.
          1   -1    0    0  501    0 -0.00000000000E+00 -0.00000000000E+00 -0.64042574538E+02  0.64042574538E+02  0.00000000000E+00 0. -1.
         25    2    1    2    0    0  0.29716441531E+01  0.99256324843E+02  0.15538183324E+04  0.15619977801E+04  0.12500002499E+03 0.  0.
          2    1    1    2  501    0 -0.20114952646E+02 -0.46465740792E+02 -0.47336005974E+02  0.69313590650E+02  0.00000000000E+00 0. -1.
          1    1    1    2  502    0  0.17143308493E+02 -0.52790584052E+02  0.47144315174E+03  0.47469925649E+03  0.00000000000E+00 0. -1.
         22    1    3    3    0    0 -0.47270029296E+02  0.98474522669E+02  0.10309574123E+04  0.10367279649E+04  0.00000000000E+00 0. -1.
         22    1    3    3    0    0  0.50241673449E+02  0.78180217465E+00  0.52286092014E+03  0.52526981521E+03  0.00000000000E+00 0. -1.
</event>
<event>
 7    1  0.5993218E-006  0.1118518E+03  0.7818608E-02  0.1297019E+00
          2   -1    0    0  502    0  0.00000000000E+00  0.00000000000E+00  0.30230757058E+03  0.30230757058E+03  0.00000000000E+00 0. -1.
          1   -1    0    0  501    0 -0.00000000000E+00 -0.00000000000E+00 -0.45407731782E+03  0.45407731782E+03  0.00000000000E+00 0. -1.
         25    2    1    2    0    0 -0.14581252420E+02  0.73961801995E+02 -0.14757745214E+03  0.20757518972E+03  0.12500157572E+03 0.  0.
          2    1    1    2  501    0 -0.35982018606E+02 -0.13125908716E+03 -0.25367841824E+03  0.28788260369E+03  0.00000000000E+00 0. -1.
          1    1    1    2  502    0  0.50563271027E+02  0.57297285161E+02  0.24948612314E+03  0.26092709499E+03  0.00000000000E+00 0. -1.
         22    1    3    3    0    0 -0.38622478488E+02  0.86537732963E+02 -0.15293881356E+03  0.17991874767E+03  0.00000000000E+00 0.  1.
         22    1    3    3    0    0  0.24041226068E+02 -0.12575930968E+02  0.53613614216E+01  0.27656442050E+02  0.00000000000E+00 0.  1.
</event>
<event>
 7    1  0.5993218E-006  0.1718052E+03  0.7818608E-02  0.1236873E+00
          2   -1    0    0  502    0  0.00000000000E+00  0.00000000000E+00  0.83274172857E+03  0.83274172857E+03  0.00000000000E+00 0. -1.
          1   -1    0    0  501    0 -0.00000000000E+00 -0.00000000000E+00 -0.40849122612E+03  0.40849122612E+03  0.00000000000E+00 0. -1.
         25    2    1    2    0    0  0.24368090247E+03  0.54297706973E+02 -0.22196628504E+03  0.35668253192E+03  0.12499909468E+03 0.  0.
          2    1    1    2  501    0 -0.88314494976E+02  0.13125122150E+02 -0.91380658878E+02  0.12775814523E+03  0.00000000000E+00 0. -1.
          1    1    1    2  502    0 -0.15536640749E+03 -0.67422829123E+02  0.73759744637E+03  0.75679227755E+03  0.00000000000E+00 0. -1.
         22    1    3    3    0    0  0.12790911780E+03  0.30148916815E+01 -0.18470844086E+03  0.22469321332E+03  0.00000000000E+00 0.  1.
         22    1    3    3    0    0  0.11577178467E+03  0.51282815292E+02 -0.37257844175E+02  0.13198931859E+03  0.00000000000E+00 0.  1.
</event>
<event>
 7    1  0.5993218E-006  0.1354450E+03  0.7818608E-02  0.1359384E+00
          2   -1    0    0  502    0  0.00000000000E+00  0.00000000000E+00  0.24000154919E+03  0.24000154919E+03  0.00000000000E+00 0. -1.
          1   -1    0    0  501    0 -0.00000000000E+00 -0.00000000000E+00 -0.13174478820E+04  0.13174478820E+04  0.00000000000E+00 0. -1.
         25    2    1    2    0    0 -0.87669288823E+02 -0.12989717444E+03  0.44554604623E+02  0.20535366184E+03  0.12500333398E+03 0.  0.
          2    1    1    2  501    0  0.32825323810E+02  0.15715071594E+02 -0.12018222683E+04  0.12023731659E+04  0.00000000000E+00 0. -1.
          1    1    1    2  502    0  0.54843965014E+02  0.11418210284E+03  0.79821330938E+02  0.14972260344E+03  0.00000000000E+00 0. -1.
         22    1    3    3    0    0 -0.76728798704E+02 -0.11727036960E+03  0.83391198005E+02  0.16307587204E+03  0.00000000000E+00 0. -1.
         22    1    3    3    0    0 -0.10940490120E+02 -0.12626804835E+02 -0.38836593382E+02  0.42277789795E+02  0.00000000000E+00 0. -1.
</event>
<event>
 7    1  0.5993218E-006  0.2212007E+03  0.7818608E-02  0.1190642E+00
          2   -1    0    0  502    0  0.00000000000E+00  0.00000000000E+00  0.17673530156E+04  0.17673530156E+04  0.00000000000E+00 0. -1.
          1   -1    0    0  501    0 -0.00000000000E+00 -0.00000000000E+00 -0.16170717443E+03  0.16170717443E+03  0.00000000000E+00 0. -1.
         25    2    1    2    0    0 -0.29118763125E+03  0.64122090762E+02  0.42479387761E+03  0.53383205576E+03  0.12499978471E+03 0.  0.
          2    1    1    2  501    0  0.10692612257E+03  0.37374863219E+02 -0.65770799069E+02  0.13098043403E+03  0.00000000000E+00 0. -1.
          1    1    1    2  502    0  0.18426150868E+03 -0.10149695398E+03  0.12466227626E+04  0.12642477002E+04  0.00000000000E+00 0. -1.
         22    1    3    3    0    0 -0.20184542633E+03 -0.11620027991E+02  0.22720480240E+03  0.30413586341E+03  0.00000000000E+00 0.  1.
         22    1    3    3    0    0 -0.89342204921E+02  0.75742118754E+02  0.19758907521E+03  0.22969619234E+03  0.00000000000E+00 0.  1.
</event>
<event>
 7    1  0.5993218E-006  0.1429195E+03  0.7818608E-02  0.1229771E+00
          2   -1    0    0  502    0  0.00000000000E+00  0.00000000000E+00  0.13773561155E+04  0.13773561155E+04  0.00000000000E+00 0. -1.
          1   -1    0    0  501    0 -0.00000000000E+00 -0.00000000000E+00 -0.15016997340E+03  0.15016997340E+03  0.00000000000E+00 0. -1.
         25    2    1    2    0    0  0.82354055915E+02  0.62632067982E+02  0.49087096857E+03  0.51699612255E+03  0.12500286587E+03 0.  0.
          2    1    1    2  501    0 -0.58140420450E+01 -0.14906133626E+03 -0.91303193997E+02  0.17489813689E+03  0.00000000000E+00 0. -1.
          1    1    1    2  502    0 -0.76540013870E+02  0.86429268278E+02  0.82761836755E+03  0.83563182948E+03  0.00000000000E+00 0. -1.
         22    1    3    3    0    0  0.63247062518E+02 -0.17097382806E+02  0.11561742125E+03  0.13289055464E+03  0.00000000000E+00 0.  1.
         22    1    3    3    0    0  0.19106993396E+02  0.79729450788E+02  0.37525354732E+03  0.38410556790E+03  0.00000000000E+00 0.  1.
</event>
<event>
 7    1  0.5993218E-006  0.5973524E+02  0.7818608E-02  0.1526051E+00
          2   -1    0    0  502    0  0.00000000000E+00  0.00000000000E+00  0.90025042029E+03  0.90025042029E+03  0.00000000000E+00 0. -1.
          1   -1    0    0  501    0 -0.00000000000E+00 -0.00000000000E+00 -0.53355696752E+03  0.53355696752E+03  0.00000000000E+00 0. -1.
         25    2    1    2    0    0  0.41223086308E+02 -0.10955492620E+02 -0.19541935814E+03  0.23586616546E+03  0.12499902723E+03 0.  0.
          2    1    1    2  501    0 -0.54475879408E+02  0.30678377640E+02 -0.31467791228E+03  0.32082857224E+03  0.00000000000E+00 0. -1.
          1    1    1    2  502    0  0.13252793100E+02 -0.19722885020E+02  0.87679072319E+03  0.87711265012E+03  0.00000000000E+00 0. -1.
         22    1    3    3    0    0  0.56078356625E+02  0.14776711192E+02 -0.19773495480E+03  0.20606369313E+03  0.00000000000E+00 0.  1.
         22    1    3    3    0    0 -0.14855270317E+02 -0.25732203811E+02  0.23155966578E+01  0.29802472331E+02  0.00000000000E+00 0.  1.
</event>
<event>
 7    1  0.5993218E-006  0.1469515E+03  0.7818608E-02  0.1308215E+00
          2   -1    0    0  502    0  0.00000000000E+00  0.00000000000E+00  0.47503758856E+03  0.47503758856E+03  0.00000000000E+00 0. -1.
          1   -1    0    0  501    0 -0.00000000000E+00 -0.00000000000E+00 -0.11498482981E+04  0.11498482981E+04  0.00000000000E+00 0. -1.
         25    2    1    2    0    0  0.18756083720E+03  0.26486410495E+01 -0.80765146077E+02  0.23944088844E+03  0.12499138885E+03 0.  0.
          2    1    1    2  501    0 -0.14241110485E+03  0.24110704613E+02 -0.98270243114E+03  0.99326044773E+03  0.00000000000E+00 0. -1.
          1    1    1    2  502    0 -0.45149732343E+02 -0.26759345662E+02  0.38865686763E+03  0.39218455052E+03  0.00000000000E+00 0. -1.
         22    1    3    3    0    0  0.21157399697E+01  0.28475481742E+02 -0.37742346789E+02  0.47326674901E+02  0.00000000000E+00 0. -1.
         22    1    3    3    0    0  0.18544509723E+03 -0.25826840693E+02 -0.43022799288E+02  0.19211421354E+03  0.00000000000E+00 0. -1.
</event>
<event>
 7    1  0.5993218E-006  0.5155288E+02  0.7818608E-02  0.1504541E+00
          2   -1    0    0  502    0  0.00000000000E+00  0.00000000000E+00  0.63636555685E+03  0.63636555685E+03  0.00000000000E+00 0. -1.
          1   -1    0    0  501    0 -0.00000000000E+00 -0.00000000000E+00 -0.40699557893E+02  0.40699557893E+02  0.00000000000E+00 0. -1.
         25    2    1    2    0    0 -0.70892540055E+02  0.37584346810E+02  0.34867213552E+03  0.37899346753E+03  0.12500181991E+03 0.  0.
          2    1    1    2  501    0  0.46611420939E+02 -0.17015996438E+02  0.59233573079E+00  0.49623780170E+02  0.00000000000E+00 0. -1.
          1    1    1    2  502    0  0.24281119116E+02 -0.20568350373E+02  0.24640152771E+03  0.24844786705E+03  0.00000000000E+00 0. -1.
         22    1    3    3    0    0 -0.14091796424E+02  0.56058462770E+02  0.28841150350E+03  0.29414677514E+03  0.00000000000E+00 0. -1.
         22    1    3    3    0    0 -0.56800743631E+02 -0.18474115960E+02  0.60260632016E+02  0.84846692384E+02  0.00000000000E+00 0. -1.
</event>
<event>
 7    1  0.5993218E-006  0.6906653E+02  0.7818608E-02  0.1373581E+00
          2   -1    0    0  502    0  0.00000000000E+00  0.00000000000E+00  0.23477795330E+04  0.23477795330E+04  0.00000000000E+00 0. -1.
          1   -1    0    0  501    0 -0.00000000000E+00 -0.00000000000E+00 -0.21408113411E+02  0.21408113411E+02  0.00000000000E+00 0. -1.
         25    2    1    2    0    0 -0.45861854876E+02  0.11895523512E+03  0.89281944473E+03  0.91049707913E+03  0.12499885008E+03 0.  0.
          2    1    1    2  501    0  0.22103827856E+02 -0.59440653135E+02  0.73283783795E+02  0.96913793747E+02  0.00000000000E+00 0. -1.
          1    1    1    2  502    0  0.23758027020E+02 -0.59514581981E+02  0.13602681910E+04  0.13617767735E+04  0.00000000000E+00 0. -1.
         22    1    3    3    0    0  0.24419868794E+02 -0.13450734412E+02  0.17331541884E+03  0.17554340390E+03  0.00000000000E+00 0.  1.
         22    1    3    3    0    0 -0.70281723670E+02  0.13240596953E+03  0.71950402590E+03  0.73495367523E+03  0.00000000000E+00 0.  1.
</event>
<event>
 7    1  0.5993218E-006  0.6041855E+02  0.7818608E-02  0.1437847E+00
          2   -1    0    0  502    0  0.00000000000E+00  0.00000000000E+00  0.36700039121E+03  0.36700039121E+03  0.00000000000E+00 0. -1.
          1   -1    0    0  501    0 -0.00000000000E+00 -0.00000000000E+00 -0.14194019775E+04  0.14194019775E+04  0.00000000000E+00 0. -1.
         25    2    1    2    0    0  0.30860742700E+02 -0.37634540855E+02  0.26330992149E+02  0.13669722081E+03  0.12499625964E+03 0.  0.
          2    1    1    2  501    0  0.65809016442E+01  0.60277813149E+02 -0.13618636747E+04  0.13632128929E+04  0.00000000000E+00 0. -1.
          1    1    1    2  502    0 -0.37441644345E+02 -0.22643272294E+02  0.28313109623E+03  0.28649225498E+03  0.00000000000E+00 0. -1.
         22    1    3    3    0    0  0.17110556547E+02 -0.36228972251E+02  0.75581173678E+02  0.85544277367E+02  0.00000000000E+00 0.  1.
         22    1    3    3    0    0  0.13750186154E+02 -0.14055686038E+01 -0.49250181529E+02  0.51152943444E+02  0.00000000000E+00 0.  1.
</event>
<event>
 7    1  0.5993218E-006  0.8846712E+02  0.7818608E-02  0.1467993E+00
          2   -1    0    0  502    0  0.00000000000E+00  0.00000000000E+00  0.83604757690E+03  0.83604757690E+03  0.00000000000E+00 0. -1.
          1   -1    0    0  501    0 -0.00000000000E+00 -0.00000000000E+00 -0.23292791946E+03  0.23292791946E+03  0.00000000000E+00 0. -1.
         25    2    1    2    0    0  0.88469119349E+02  0.21822712364E+02  0.25850117989E+03  0.30124798171E+03  0.12499788249E+03 0.  0.
          2    1    1    2  501    0 -0.88456211204E+02  0.21302070323E+01 -0.20202897068E+03  0.22055553513E+03  0.00000000000E+00 0. -1.
          1    1    1    2  502    0 -0.12908145404E-01 -0.23952919396E+02  0.54664744823E+03  0.54717197952E+03  0.00000000000E+00 0. -1.
         22    1    3    3    0    0  0.11021233898E+03  0.22807339378E+02  0.25561050719E+03  0.27929136359E+03  0.00000000000E+00 0. -1.
         22    1    3    3    0    0 -0.21743219635E+02 -0.98462701333E+00  0.28906727038E+01  0.21956618117E+02  0.00000000000E+00 0. -1.
</event>
<event>
 7    1  0.5993218E-006  0.1549948E+03  0.7818608E-02  0.1313393E+00
          2   -1    0    0  502    0  0.00000000000E+00  0.00000000000E+00  0.14096642632E+04  0.14096642632E+04  0.00000000000E+00 0. -1.
          1   -1    0    0  501    0 -0.00000000000E+00 -0.00000000000E+00 -0.20731908145E+03  0.20731908145E+03  0.00000000000E+00 0. -1.
         25    2    1    2    0    0 -0.11063253935E+02  0.11407456315E+03  0.18219485058E+03  0.24891563272E+03  0.12501450751E+03 0.  0.
          2    1    1    2  501    0  0.15484515939E+02 -0.16134724613E+03 -0.13560809294E+03  0.21133447172E+03  0.00000000000E+00 0. -1.
          1    1    1    2  502    0 -0.44212620044E+01  0.47272682983E+02  0.11557584241E+04  0.11567332402E+04  0.00000000000E+00 0. -1.
         22    1    3    3    0    0  0.16062119909E+02 -0.23249595123E+02  0.19721064875E+02  0.34459480106E+02  0.00000000000E+00 0.  1.
         22    1    3    3    0    0 -0.27125373844E+02  0.13732415827E+03  0.16247378571E+03  0.21445615261E+03  0.00000000000E+00 0.  1.
</event>
<event>
 7    1  0.5993218E-006  0.2413370E+03  0.7818608E-02  0.1262350E+00
          2   -1    0    0  502    0  0.00000000000E+00  0.00000000000E+00  0.14954849580E+04  0.14954849580E+04  0.00000000000E+00 0. -1.
          1   -1    0    0  501    0 -0.00000000000E+00 -0.00000000000E+00 -0.14303733242E+03  0.14303733242E+03  0.00000000000E+00 0. -1.
         25    2    1    2    0    0  0.30055139970E+02  0.27915160495E+03  0.95016341642E+03  0.99863137442E+03  0.12500069629E+03 0.  0.
          2    1    1    2  501    0 -0.45184505459E+02 -0.23226216445E+03  0.20396923154E+01  0.23662525840E+03  0.00000000000E+00 0. -1.
          1    1    1    2  502    0  0.15129365489E+02 -0.46889440503E+02  0.40024451684E+03  0.40326565759E+03  0.00000000000E+00 0. -1.
         22    1    3    3    0    0  0.33378042470E+02  0.98311523947E+01  0.16270978458E+03  0.16638875946E+03  0.00000000000E+00 0.  1.
         22    1    3    3    0    0 -0.33229024994E+01  0.26932045256E+03  0.78745363185E+03  0.83224261496E+03  0.00000000000E+00 0.  1.
</event>
<event>
 7    1  0.5993218E-006  0.7534317E+02  0.7818608E-02  0.1460158E+00
          2   -1    0    0  502    0  0.00000000000E+00  0.00000000000E+00  0.14047514848E+04  0.14047514848E+04  0.00000000000E+00 0. -1.
          1   -1    0    0  501    0 -0.00000000000E+00 -0.00000000000E+00 -0.46906619864E+03  0.46906619864E+03  0.00000000000E+00 0. -1.
         25    2    1    2    0    0  0.43274343834E+02  0.18610531026E+02  0.11713208133E+03  0.17766443171E+03  0.12500282044E+03 0.  0.
          2    1    1    2  501    0 -0.72906555602E+02 -0.21395256519E+02 -0.43533295497E+03  0.44191391077E+03  0.00000000000E+00 0. -1.
          1    1    1    2  502    0  0.29632211768E+02  0.27847254929E+01  0.12538861598E+04  0.12542393409E+04  0.00000000000E+00 0. -1.
         22    1    3    3    0    0  0.30644851356E+01  0.67209407256E+02  0.40962796091E+02  0.78768306801E+02  0.00000000000E+00 0.  1.
         22    1    3    3    0    0  0.40209858698E+02 -0.48598876229E+02  0.76169285239E+02  0.98896124904E+02  0.00000000000E+00 0.  1.
</event>
<event>
 7    1  0.5993218E-006  0.7760603E+02  0.7818608E-02  0.1468700E+00
          2   -1    0    0  502    0  0.00000000000E+00  0.00000000000E+00  0.43544855994E+03  0.43544855994E+03  0.00000000000E+00 0. -1.
          1   -1    0    0  501    0 -0.00000000000E+00 -0.00000000000E+00 -0.61900395271E+03  0.61900395271E+03  0.00000000000E+00 0. -1.
         25    2    1    2    0    0  0.61693109397E+02 -0.22102488424E+02 -0.22488606667E+03  0.26550307537E+03  0.12499432110E+03 0.  0.
          2    1    1    2  501    0 -0.64094846548E+02  0.49163130828E+02 -0.36899098347E+03  0.37772941197E+03  0.00000000000E+00 0. -1.
          1    1    1    2  502    0  0.24017371513E+01 -0.27060642404E+02  0.41032165737E+03  0.41122002531E+03  0.00000000000E+00 0. -1.
         22    1    3    3    0    0  0.97847077715E+02 -0.27319197635E+02 -0.18738749034E+03  0.21315360826E+03  0.00000000000E+00 0. -1.
         22    1    3    3    0    0 -0.36153968318E+02  0.52167092109E+01 -0.37498576330E+02  0.52349467112E+02  0.00000000000E+00 0. -1.
</event>
<event>
 7    1  0.5993218E-006  0.1114497E+03  0.7818608E-02  0.1411095E+00
          2   -1    0    0  502    0  0.00000000000E+00  0.00000000000E+00  0.10829936581E+04  0.10829936581E+04  0.00000000000E+00 0. -1.
          1   -1    0    0  501    0 -0.00000000000E+00 -0.00000000000E+00 -0.36014256570E+03  0.36014256570E+03  0.00000000000E+00 0. -1.
         25    2    1    2    0    0 -0.82096817402E+02  0.92297753308E+02 -0.12475939510E+03  0.21552009660E+03  0.12500097071E+03 0.  0.
          2    1    1    2  501    0 -0.86007068650E+01 -0.27801331385E+02 -0.18588324118E+03  0.18814745690E+03  0.00000000000E+00 0. -1.
          1    1    1    2  502    0  0.90697524267E+02 -0.64496421924E+02  0.10334937287E+04  0.10394686703E+04  0.00000000000E+00 0. -1.
         22    1    3    3    0    0 -0.36074188630E+02  0.11260997982E+03 -0.57382130586E+02  0.13143463604E+03  0.00000000000E+00 0. -1.
         22    1    3    3    0    0 -0.46022628772E+02 -0.20312226507E+02 -0.67377264510E+02  0.84085460560E+02  0.00000000000E+00 0. -1.
</event>
<event>
 7    1  0.5993218E-006  0.9514437E+02  0.7818608E-02  0.1401420E+00
          2   -1    0    0  502    0  0.00000000000E+00  0.00000000000E+00  0.34104815660E+03  0.34104815660E+03  0.00000000000E+00 0. -1.
          1   -1    0    0  501    0 -0.00000000000E+00 -0.00000000000E+00 -0.49683758665E+03  0.49683758665E+03  0.00000000000E+00 0. -1.
         25    2    1    2    0    0 -0.92031637091E+02  0.79945890368E+02 -0.72978970979E+02  0.18923950575E+03  0.12499797085E+03 0.  0.
          2    1    1    2  501    0  0.36507120314E+02 -0.44455848822E+01 -0.35699636183E+03  0.35888568572E+03  0.00000000000E+00 0. -1.
          1    1    1    2  502    0  0.55524516777E+02 -0.75500305486E+02  0.27418590276E+03  0.28976055177E+03  0.00000000000E+00 0. -1.
         22    1    3    3    0    0 -0.41362057889E+02 -0.22353390674E+02 -0.57123193593E+02  0.73983465407E+02  0.00000000000E+00 0.  1.
         22    1    3    3    0    0 -0.50669579202E+02  0.10229928104E+03 -0.15855777386E+02  0.11525604034E+03  0.00000000000E+00 0.  1.
</event>
<event>
 7    1  0.5993218E-006  0.2899129E+03  0.7818608E-02  0.1239467E+00
          2   -1    0    0  502    0  0.00000000000E+00  0.00000000000E+00  0.24327660259E+04  0.24327660259E+04  0.00000000000E+00 0. -1.
          1   -1    0    0  501    0 -0.00000000000E+00 -0.00000000000E+00 -0.16402896494E+03  0.16402896494E+03  0.00000000000E+00 0. -1.
         25    2    1    2    0    0  0.10231574074E+03  0.27671635936E+03  0.13216843732E+04  0.13599686893E+04  0.12499919609E+03 0.  0.
          2    1    1    2  501    0 -0.51207345180E+02  0.57662891130E+01 -0.12065605648E+03  0.13119956652E+03  0.00000000000E+00 0. -1.
          1    1    1    2  502    0 -0.51108395564E+02 -0.28248264848E+03  0.10677087442E+04  0.11056267351E+04  0.00000000000E+00 0. -1.
         22    1    3    3    0    0  0.62777162519E+02  0.20704194441E+03  0.68733752596E+03  0.72058324534E+03  0.00000000000E+00 0. -1.
         22    1    3    3    0    0  0.39538578225E+02  0.69674414954E+02  0.63434684727E+03  0.63938544393E+03  0.00000000000E+00 0. -1.
</event>
<event>
 7    1  0.5993218E-006  0.8776544E+02  0.7818608E-02  0.1394831E+00
          2   -1    0    0  502    0  0.00000000000E+00  0.00000000000E+00  0.31443370485E+03  0.31443370485E+03  0.00000000000E+00 0. -1.
          1   -1    0    0  501    0 -0.00000000000E+00 -0.00000000000E+00 -0.23459287171E+04  0.23459287171E+04  0.00000000000E+00 0. -1.
         25    2    1    2    0    0  0.27363832318E+02 -0.89197013932E+02  0.14804858798E+03  0.21505185591E+03  0.12499611879E+03 0.  0.
          2    1    1    2  501    0 -0.60604617219E+02  0.63508439349E+02 -0.23082514641E+04  0.23099201421E+04  0.00000000000E+00 0. -1.
          1    1    1    2  502    0  0.33240784900E+02  0.25688574584E+02  0.12870786390E+03  0.13539042387E+03  0.00000000000E+00 0. -1.
         22    1    3    3    0    0 -0.34276788760E+02  0.14885194408E+01  0.77261113079E+02  0.84536344445E+02  0.00000000000E+00 0.  1.
         22    1    3    3    0    0  0.61640621078E+02 -0.90685533373E+02  0.70787474901E+02  0.13051551146E+03  0.00000000000E+00 0.  1.
</event>
<event>
 7    1  0.5993218E-006  0.1966726E+03  0.7818608E-02  0.1315601E+00
          2   -1    0    0  502    0  0.00000000000E+00  0.00000000000E+00  0.91034223368E+03  0.91034223368E+03  0.00000000000E+00 0. -1.
          1   -1    0    0  501    0 -0.00000000000E+00 -0.00000000000E+00 -0.12308345794E+03  0.12308345794E+03  0.00000000000E+00 0. -1.
         25    2    1    2    0    0 -0.73984395820E+02 -0.16054087870E+03  0.11405528257E+03  0.24470509589E+03  0.12499964764E+03 0.  0.
          2    1    1    2  501    0 -0.35755823737E+02 -0.81836883105E+01 -0.36068707853E+02  0.51443205301E+02  0.00000000000E+00 0. -1.
          1    1    1    2  502    0  0.10974021956E+03  0.16872456702E+03  0.70927220102E+03  0.73727739043E+03  0.00000000000E+00 0. -1.
         22    1    3    3    0    0  0.35496918306E+02 -0.41753257161E+02  0.32916258097E+02  0.63928442339E+02  0.00000000000E+00 0. -1.
         22    1    3    3    0    0 -0.10948131413E+03 -0.11878762154E+03  0.81139024474E+02  0.18077665355E+03  0.00000000000E+00 0. -1.
</event>
<event>
 7    1  0.5993218E-006  0.7287643E+02  0.7818608E-02  0.1427767E+00
          2   -1    0    0  502    0  0.00000000000E+00  0.00000000000E+00  0.40177688701E+03  0.40177688701E+03  0.00000000000E+00 0. -1.
          1   -1    0    0  501    0 -0.00000000000E+00 -0.00000000000E+00 -0.16486132095E+04  0.16486132095E+04  0.00000000000E+00 0. -1.
         25    2    1    2    0    0 -0.84574698470E+01  0.35185727909E+02  0.23980241555E+03  0.27283686627E+03  0.12500077138E+03 0.  0.
          2    1    1    2  501    0  0.34723592874E+02 -0.64209664646E+02 -0.16286299614E+04  0.16302650582E+04  0.00000000000E+00 0. -1.
          1    1    1    2  502    0 -0.26266123027E+02  0.29023936737E+02  0.14199122333E+03  0.14728817205E+03  0.00000000000E+00 0. -1.
         22    1    3    3    0    0 -0.25935361321E+01  0.54469204287E+02  0.24582526420E+03  0.25180087602E+03  0.00000000000E+00 0.  1.
         22    1    3    3    0    0 -0.58639337149E+01 -0.19283476378E+02 -0.60228486487E+01  0.21035990247E+02  0.00000000000E+00 0.  1.
</event>
<event>
 7    1  0.5993218E-006  0.1107277E+03  0.7818608E-02  0.1314552E+00
          2   -1    0    0  502    0  0.00000000000E+00  0.00000000000E+00  0.11294098838E+04  0.11294098838E+04  0.00000000000E+00 0. -1.
          1   -1    0    0  501    0 -0.00000000000E+00 -0.00000000000E+00 -0.98384841446E+02  0.98384841446E+02  0.00000000000E+00 0. -1.
         25    2    1    2    0    0 -0.15746727192E+03  0.79350167468E+01  0.57474512693E+03  0.60894647833E+03  0.12499978531E+03 0.  0.
          2    1    1    2  501    0  0.62696423202E+02  0.19868874657E+02 -0.62512528265E+02  0.90738249115E+02  0.00000000000E+00 0. -1.
          1    1    1    2  502    0  0.94770848721E+02 -0.27803891404E+02  0.51879244366E+03  0.52810999777E+03  0.00000000000E+00 0. -1.
         22    1    3    3    0    0 -0.30586636449E+02  0.56508597525E+02  0.21523397945E+03  0.22462063536E+03  0.00000000000E+00 0. -1.
         22    1    3    3    0    0 -0.12688063547E+03 -0.48573580778E+02  0.35951114748E+03  0.38432584297E+03  0.00000000000E+00 0. -1.
</event>
<event>
 7    1  0.5993218E-006  0.8159848E+02  0.7818608E-02  0.1364191E+00
          2   -1    0    0  502    0  0.00000000000E+00  0.00000000000E+00  0.12772365760E+04  0.12772365760E+04  0.00000000000E+00 0. -1.
          1   -1    0    0  501    0 -0.00000000000E+00 -0.00000000000E+00 -0.20506755941E+03  0.20506755941E+03  0.00000000000E+00 0. -1.
         25    2    1    2    0    0  0.23860056284E+02 -0.89196896592E+02  0.40438910815E+02  0.16057984330E+03  0.12500076768E+03 0.  0.
          2    1    1    2  501    0  0.32573851828E+02  0.75706988233E+02 -0.13250431393E+03  0.15604485605E+03  0.00000000000E+00 0. -1.
          1    1    1    2  502    0 -0.56433908112E+02  0.13489908359E+02  0.11642344197E+04  0.11656794361E+04  0.00000000000E+00 0. -1.
         22    1    3    3    0    0 -0.51411987073E+02 -0.33543527699E+02  0.21709789567E+02  0.65112791588E+02  0.00000000000E+00 0. -1.
         22    1    3    3    0    0  0.75272043357E+02 -0.55653368893E+02  0.18729121248E+02  0.95467051714E+02  0.00000000000E+00 0. -1.
</event>
<event>
 7    1  0.5993218E-006  0.1697863E+03  0.7818608E-02  0.1319097E+00
          2   -1    0    0  502    0  0.00000000000E+00  0.00000000000E+00  0.21684646325E+03  0.21684646325E+03  0.00000000000E+00 0. -1.
          1   -1    0    0  501    0 -0.00000000000E+00 -0.00000000000E+00 -0.11551760089E+04  0.11551760089E+04  0.00000000000E+00 0. -1.
         25    2    1    2    0    0  0.13066895764E+03 -0.68395268639E+02  0.36459132002E+01  0.19336380330E+03  0.12499591387E+03 0.  0.
          2    1    1    2  501    0 -0.13205574353E+03  0.10954919664E+03 -0.10495448192E+04  0.10634773497E+04  0.00000000000E+00 0. -1.
          1    1    1    2  502    0  0.13867858949E+01 -0.41153928000E+02  0.10756936040E+03  0.11518131907E+03  0.00000000000E+00 0. -1.
         22    1    3    3    0    0  0.25411191223E+02  0.35480132488E+02 -0.10252324787E+02  0.44829439036E+02  0.00000000000E+00 0.  1.
         22    1    3    3    0    0  0.10525776641E+03 -0.10387540113E+03  0.13898237987E+02  0.14853436427E+03  0.00000000000E+00 0.  1.
</event>
<event>
 7    1  0.5993218E-006  0.1354444E+03  0.7818608E-02  0.1365852E+00
          2   -1    0    0  502    0  0.00000000000E+00  0.00000000000E+00  0.17787626971E+04  0.17787626971E+04  0.00000000000E+00 0. -1.
          1   -1    0    0  501    0 -0.00000000000E+00 -0.00000000000E+00 -0.22003996711E+03  0.22003996711E+03  0.00000000000E+00 0. -1.
         25    2    1    2    0    0 -0.13233930780E+03  0.68349867770E+02  0.96781374775E+02  0.21720265579E+03  0.12499984946E+03 0.  0.
          2    1    1    2  501    0  0.16924895140E+01 -0.34434117774E+02 -0.15512514095E+03  0.15890998188E+03  0.00000000000E+00 0. -1.
          1    1    1    2  502    0  0.13064681829E+03 -0.33915749996E+02  0.16170664962E+04  0.16226900265E+04  0.00000000000E+00 0. -1.
         22    1    3    3    0    0 -0.40281531253E+02  0.62067463096E+02 -0.11562910333E+02  0.74891071768E+02  0.00000000000E+00 0. -1.
         22    1    3    3    0    0 -0.92057776550E+02  0.62824046738E+01  0.10834428511E+03  0.14231158402E+03  0.00000000000E+00 0. -1.
</event>
<event>
 7    1  0.5993218E-006  0.5561227E+02  0.7818608E-02  0.1494503E+00
          2   -1    0    0  502    0  0.00000000000E+00  0.00000000000E+00  0.97997172813E+03  0.97997172813E+03  0.00000000000E+00 0. -1.
          1   -1    0    0  501    0 -0.00000000000E+00 -0.00000000000E+00 -0.72634125835E+02  0.72634125835E+02  0.00000000000E+00 0. -1.
         25    2    1    2    0    0  0.79479885233E+02 -0.26887594379E+02  0.10486494919E+03  0.18348413222E+03  0.12501909582E+03 0.  0.
          2    1    1    2  501    0 -0.25014651047E+02  0.19319844616E+02 -0.24706199029E+02  0.40117146377E+02  0.00000000000E+00 0. -1.
          1    1    1    2  502    0 -0.54465234186E+02  0.75677497622E+01  0.82717885213E+03  0.82900457537E+03  0.00000000000E+00 0. -1.
         22    1    3    3    0    0 -0.13388440265E+02  0.34971629403E+02  0.15510314006E+02  0.40531901466E+02  0.00000000000E+00 0. -1.
         22    1    3    3    0    0  0.92868325498E+02 -0.61859223782E+02  0.89354635186E+02  0.14295223075E+03  0.00000000000E+00 0. -1.
</event>
<event>
 7    1  0.5993218E-006  0.8479397E+02  0.7818608E-02  0.1357198E+00
          2   -1    0    0  502    0  0.00000000000E+00  0.00000000000E+00  0.29787839360E+04  0.29787839360E+04  0.00000000000E+00 0. -1.
          1   -1    0    0  501    0 -0.00000000000E+00 -0.00000000000E+00 -0.11951409251E+03  0.11951409251E+03  0.00000000000E+00 0. -1.
         25    2    1    2    0    0  0.74578070346E+01 -0.40956875964E+02  0.19446237484E+04  0.19490818891E+04  0.12500241277E+03 0.  0.
          2    1    1    2  501    0  0.41319378681E+02  0.74527124333E+02 -0.10082940829E+03  0.13201572972E+03  0.00000000000E+00 0. -1.
          1    1    1    2  502    0 -0.48777185716E+02 -0.33570248369E+02  0.10154755034E+04  0.10172004097E+04  0.00000000000E+00 0. -1.
         22    1    3    3    0    0  0.54864478617E+02 -0.59416225297E+02  0.11847287991E+04  0.11874858847E+04  0.00000000000E+00 0. -1.
         22    1    3    3    0    0 -0.47406671583E+02  0.18459349333E+02  0.75989494926E+03  0.76159600445E+03  0.00000000000E+00 0. -1.
</event>
<event>
 7    1  0.5993218E-006  0.1029303E+03  0.7818608E-02  0.1309559E+00
          2   -1    0    0  502    0  0.00000000000E+00  0.00000000000E+00  0.14320317932E+04  0.14320317932E+04  0.00000000000E+00 0. -1.
          1   -1    0    0  501    0 -0.00000000000E+00 -0.00000000000E+00 -0.29137745835E+03  0.29137745835E+03  0.00000000000E+00 0. -1.
         25    2    1    2    0    0 -0.80477851102E+02 -0.14017133591E+03  0.58624053011E+02  0.21257655492E+03  0.12500929638E+03 0.  0.
          2    1    1    2  501    0  0.72696644820E+02  0.66560845499E+02 -0.20195044737E+03  0.22472011818E+03  0.00000000000E+00 0. -1.
          1    1    1    2  502    0  0.77812062825E+01  0.73610490408E+02  0.12839807292E+04  0.12861125784E+04  0.00000000000E+00 0. -1.
         22    1    3    3    0    0 -0.30580762499E+02  0.15527952448E+02 -0.92902728131E+01  0.35533217011E+02  0.00000000000E+00 0. -1.
         22    1    3    3    0    0 -0.49897088603E+02 -0.15569928836E+03  0.67914325824E+02  0.17704333791E+03  0.00000000000E+00 0. -1.
</event>
<event>
 7    1  0.7530349E-006  0.1214876E+03  0.7818608E-02  0.1286768E+00
          2   -1    0    0  502    0  0.00000000000E+00  0.00000000000E+00  0.90623753133E+03  0.90623753133E+03  0.00000000000E+00 0. -1.
          1   -1    0    0  501    0 -0.00000000000E+00 -0.00000000000E+00 -0.27969449145E+04  0.27969449145E+04  0.00000000000E+00 0. -1.
         25    2    1    2    0    0  0.58372423513E+02  0.59481182132E+02 -0.40183381714E+03  0.42900947602E+03  0.12503344778E+03 0.  0.
          2    1    1    2  501    0 -0.19823249491E+02 -0.12662593912E+03 -0.23781155283E+04  0.23815668279E+04  0.00000000000E+00 0. -1.
          1    1    1    2  502    0 -0.38549174021E+02  0.67144756984E+02  0.88924196226E+03  0.89260614195E+03  0.00000000000E+00 0. -1.
         22    1    3    3    0    0  0.96324360761E+02  0.26322461898E+02 -0.26482175234E+03  0.28302264042E+03  0.00000000000E+00 0. -1.
         22    1    3    3    0    0 -0.37951937248E+02  0.33158720235E+02 -0.13701206480E+03  0.14598683560E+03  0.00000000000E+00 0. -1.
</event>
<event>
 7    1  0.5993218E-006  0.7964385E+02  0.7818608E-02  0.1479246E+00
          2   -1    0    0  502    0  0.00000000000E+00  0.00000000000E+00  0.45706936212E+03  0.45706936212E+03  0.00000000000E+00 0. -1.
          1   -1    0    0  501    0 -0.00000000000E+00 -0.00000000000E+00 -0.47727206076E+03  0.47727206076E+03  0.00000000000E+00 0. -1.
         25    2    1    2    0    0 -0.85823924203E+00  0.63884304678E+02 -0.81345287830E+02  0.16224371990E+03  0.12499611128E+03 0.  0.
          2    1    1    2  501    0  0.20093756502E+02 -0.79148747106E+02 -0.35041708927E+03  0.35980608621E+03  0.00000000000E+00 0. -1.
          1    1    1    2  502    0 -0.19235517260E+02  0.15264442428E+02  0.41155967847E+03  0.41229161678E+03  0.00000000000E+00 0. -1.
         22    1    3    3    0    0  0.83372845785E+01  0.10105679294E+02  0.33023805583E+02  0.35527549920E+02  0.00000000000E+00 0. -1.
         22    1    3    3    0    0 -0.91955238205E+01  0.53778625384E+02 -0.11436909341E+03  0.12671616998E+03  0.00000000000E+00 0. -1.
</event>
<event>
 7    1  0.5993218E-006  0.7822754E+02  0.7818608E-02  0.1476311E+00
          2   -1    0    0  502    0  0.00000000000E+00  0.00000000000E+00  0.22474160807E+04  0.22474160807E+04  0.00000000000E+00 0. -1.
          1   -1    0    0  501    0 -0.00000000000E+00 -0.00000000000E+00 -0.10496748601E+04  0.10496748601E+04  0.00000000000E+00 0. -1.
         25    2    1    2    0    0 -0.33710065291E+02  0.90326268191E+02  0.15360914212E+02  0.15860443221E+03  0.12499681997E+03 0.  0.
          2    1    1    2  501    0  0.21871585018E+02 -0.13160994647E+02 -0.97718112139E+03  0.97751446128E+03  0.00000000000E+00 0. -1.
          1    1    1    2  502    0  0.11838480273E+02 -0.77165273544E+02  0.21595614277E+04  0.21609720473E+04  0.00000000000E+00 0. -1.
         22    1    3    3    0    0 -0.58498472470E+02  0.63714036104E+02 -0.37635636117E+02  0.94329161895E+02  0.00000000000E+00 0.  1.
         22    1    3    3    0    0  0.24788407178E+02  0.26612232087E+02  0.52996550329E+02  0.64275270314E+02  0.00000000000E+00 0.  1.
</event>
<event>
 7    1  0.5993218E-006  0.1320025E+03  0.7818608E-02  0.1344966E+00
          2   -1    0    0  502    0  0.00000000000E+00  0.00000000000E+00  0.12679788615E+04  0.12679788615E+04  0.00000000000E+00 0. -1.
          1   -1    0    0  501    0 -0.00000000000E+00 -0.00000000000E+00 -0.11057062269E+03  0.11057062269E+03  0.00000000000E+00 0. -1.
         25    2    1    2    0    0  0.84366376129E+02 -0.12248190480E+03  0.56614255956E+03  0.59854945213E+03  0.12499818589E+03 0.  0.
          2    1    1    2  501    0 -0.10093039429E+03  0.83654367309E+02 -0.47805469039E+02  0.13953623376E+03  0.00000000000E+00 0. -1.
          1    1    1    2  502    0  0.16564018166E+02  0.38827537493E+02  0.63907114828E+03  0.64046379830E+03  0.00000000000E+00 0. -1.
         22    1    3    3    0    0  0.68537597985E+02 -0.50912465106E+01  0.29075563164E+03  0.29876773664E+03  0.00000000000E+00 0. -1.
         22    1    3    3    0    0  0.15828778144E+02 -0.11739065829E+03  0.27538692792E+03  0.29978171549E+03  0.00000000000E+00 0. -1.
</event>
<event>
 7    1  0.5993218E-006  0.2495045E+03  0.7818608E-02  0.1283578E+00
          2   -1    0    0  502    0  0.00000000000E+00  0.00000000000E+00  0.47063243264E+03  0.47063243264E+03  0.00000000000E+00 0. -1.
          1   -1    0    0  501    0 -0.00000000000E+00 -0.00000000000E+00 -0.31753351384E+03  0.31753351384E+03  0.00000000000E+00 0. -1.
         25    2    1    2    0    0 -0.22397038525E+03  0.15072604646E+03  0.87661821936E+02  0.31014478900E+03  0.12499648222E+03 0.  0.
          2    1    1    2  501    0  0.18550662504E+03 -0.15619573706E+03 -0.13247481406E+03  0.27633203320E+03  0.00000000000E+00 0. -1.
          1    1    1    2  502    0  0.38463760217E+02  0.54696906070E+01  0.19791191093E+03  0.20168912428E+03  0.00000000000E+00 0. -1.
         22    1    3    3    0    0 -0.11592693413E+03  0.29238934149E+02 -0.10847562013E+02  0.12004848574E+03  0.00000000000E+00 0. -1.
         22    1    3    3    0    0 -0.10804345113E+03  0.12148711231E+03  0.98509383948E+02  0.19009630326E+03  0.00000000000E+00 0. -1.
</event>
<event>
 7    1  0.5993218E-006  0.4670783E+02  0.7818608E-02  0.1522553E+00
          2   -1    0    0  502    0  0.00000000000E+00  0.00000000000E+00  0.36392527546E+02  0.36392527546E+02  0.00000000000E+00 0. -1.
          1   -1    0    0  501    0 -0.00000000000E+00 -0.00000000000E+00 -0.11492141223E+04  0.11492141223E+04  0.00000000000E+00 0. -1.
         25    2    1    2    0    0 -0.69469024515E+01 -0.21180832857E+02 -0.20765099762E+03  0.24339350445E+03  0.12499829623E+03 0.  0.
          2    1    1    2  501    0  0.98910092920E+01 -0.29489794262E+02 -0.88812758375E+03  0.88867209085E+03  0.00000000000E+00 0. -1.
          1    1    1    2  502    0 -0.29441068405E+01  0.50670627119E+02 -0.17043013389E+02  0.53541054557E+02  0.00000000000E+00 0. -1.
         22    1    3    3    0    0 -0.43552283378E+02  0.30297978987E+02 -0.14510602361E+03  0.15450089645E+03  0.00000000000E+00 0.  1.
         22    1    3    3    0    0  0.36605380926E+02 -0.51478811844E+02 -0.62544974013E+02  0.88892607993E+02  0.00000000000E+00 0.  1.
</event>
<event>
 7    1  0.5993218E-006  0.8944269E+02  0.7818608E-02  0.1391662E+00
          2   -1    0    0  502    0  0.00000000000E+00  0.00000000000E+00  0.59173984697E+03  0.59173984697E+03  0.00000000000E+00 0. -1.
          1   -1    0    0  501    0 -0.00000000000E+00 -0.00000000000E+00 -0.83190011092E+03  0.83190011092E+03  0.00000000000E+00 0. -1.
         25    2    1    2    0    0  0.49541527282E+02  0.16975653406E+01 -0.86762845831E+02  0.16002780513E+03  0.12499544929E+03 0.  0.
          2    1    1    2  501    0  0.39596691022E+02  0.14823315929E+02 -0.70416512248E+03  0.70543330539E+03  0.00000000000E+00 0. -1.
          1    1    1    2  502    0 -0.89138218304E+02 -0.16520881269E+02  0.55076770436E+03  0.55817884737E+03  0.00000000000E+00 0. -1.
         22    1    3    3    0    0  0.76401531722E+02  0.40057057530E+02 -0.66873758367E+02  0.10915063658E+03  0.00000000000E+00 0. -1.
         22    1    3    3    0    0 -0.26860004440E+02 -0.38359492190E+02 -0.19889087464E+02  0.50877168551E+02  0.00000000000E+00 0. -1.
</event>
<event>
 7    1  0.5993218E-006  0.5553069E+02  0.7818608E-02  0.1470219E+00
          2   -1    0    0  502    0  0.00000000000E+00  0.00000000000E+00  0.26304246994E+03  0.26304246994E+03  0.00000000000E+00 0. -1.
          1   -1    0    0  501    0 -0.00000000000E+00 -0.00000000000E+00 -0.12466742650E+03  0.12466742650E+03  0.00000000000E+00 0. -1.
         25    2    1    2    0    0  0.43161335882E+02  0.53236311949E+02  0.19246402717E+03  0.23950809469E+03  0.12499887937E+03 0.  0.
          2    1    1    2  501    0 -0.56546258652E+01 -0.55152596365E+02 -0.83686333034E+02  0.10038518823E+03  0.00000000000E+00 0. -1.
          1    1    1    2  502    0 -0.37506710017E+02  0.19162844165E+01  0.29597349302E+02  0.47816613515E+02  0.00000000000E+00 0. -1.
         22    1    3    3    0    0  0.31639019008E+02  0.62937983471E+02  0.30361891184E+02  0.76707637973E+02  0.00000000000E+00 0. -1.
         22    1    3    3    0    0  0.11522316875E+02 -0.97016715223E+01  0.16210213599E+03  0.16280045672E+03  0.00000000000E+00 0. -1.
</event>
<event>
 7    1  0.5993218E-006  0.7432711E+02  0.7818608E-02  0.1433473E+00
          2   -1    0    0  502    0  0.00000000000E+00  0.00000000000E+00  0.11666088959E+02  0.11666088959E+02  0.00000000000E+00 0. -1.
          1   -1    0    0  501    0 -0.00000000000E+00 -0.00000000000E+00 -0.20286563283E+04  0.20286563283E+04  0.00000000000E+00 0. -1.
         25    2    1    2    0    0 -0.52559943939E+02  0.10449877578E+02 -0.15861032344E+04  0.15919226198E+04  0.12498963822E+03 0.  0.
          2    1    1    2  501    0 -0.22852740158E+02 -0.28789654304E+02 -0.23222322733E+03  0.23511426847E+03  0.00000000000E+00 0. -1.
          1    1    1    2  502    0  0.75412684097E+02  0.18339776726E+02 -0.19866377761E+03  0.21328552897E+03  0.00000000000E+00 0. -1.
         22    1    3    3    0    0 -0.80977533574E+02 -0.26408746090E+02 -0.82137662620E+03  0.82578105142E+03  0.00000000000E+00 0. -1.
         22    1    3    3    0    0  0.28417589635E+02  0.36858623668E+02 -0.76472660817E+03  0.76614156837E+03  0.00000000000E+00 0. -1.
</event>
<event>
 7    1  0.5993218E-006  0.1576169E+03  0.7818608E-02  0.1214333E+00
          2   -1    0    0  502    0  0.00000000000E+00  0.00000000000E+00  0.14413289395E+04  0.14413289395E+04  0.00000000000E+00 0. -1.
          1   -1    0    0  501    0 -0.00000000000E+00 -0.00000000000E+00 -0.10933887140E+03  0.10933887140E+03  0.00000000000E+00 0. -1.
         25    2    1    2    0    0  0.60616093640E+02 -0.14949796000E+03  0.37259374232E+03  0.42482102601E+03  0.12499142561E+03 0.  0.
          2    1    1    2  501    0  0.62371209165E+02  0.15291971474E+03  0.67498345666E+01  0.16528813374E+03  0.00000000000E+00 0. -1.
          1    1    1    2  502    0 -0.12298730281E+03 -0.34217547402E+01  0.95264649127E+03  0.96055865119E+03  0.00000000000E+00 0. -1.
         22    1    3    3    0    0  0.87137860301E+02 -0.56197934046E+02  0.15376360278E+03  0.18545743455E+03  0.00000000000E+00 0.  1.
         22    1    3    3    0    0 -0.26521766661E+02 -0.93300025952E+02  0.21883013954E+03  0.23936359147E+03  0.00000000000E+00 0.  1.
</event>
<event>
 7    1  0.5993218E-006  0.4669002E+02  0.7818608E-02  0.1502967E+00
          2   -1    0    0  502    0  0.00000000000E+00  0.00000000000E+00  0.13371082126E+04  0.13371082126E+04  0.00000000000E+00 0. -1.
          1   -1    0    0  501    0 -0.00000000000E+00 -0.00000000000E+00 -0.10807241493E+03  0.10807241493E+03  0.00000000000E+00 0. -1.
         25    2    1    2    0    0 -0.26843218740E+02  0.10129981796E+01  0.83827493314E+03  0.84796922061E+03  0.12500140403E+03 0.  0.
          2    1    1    2  501    0 -0.16349133251E+02  0.31529399553E+02 -0.98636141836E+02  0.10483551722E+03  0.00000000000E+00 0. -1.
          1    1    1    2  502    0  0.43192351992E+02 -0.32542397732E+02  0.48939700633E+03  0.49237588966E+03  0.00000000000E+00 0. -1.
         22    1    3    3    0    0 -0.47312786409E+02  0.18592817425E+02  0.79723298649E+03  0.79885206851E+03  0.00000000000E+00 0.  1.
         22    1    3    3    0    0  0.20469567669E+02 -0.17579819245E+02  0.41041946649E+02  0.49117152095E+02  0.00000000000E+00 0.  1.
</event>
<event>
 7    1  0.5993218E-006  0.2256511E+03  0.7818608E-02  0.1357066E+00
          2   -1    0    0  502    0  0.00000000000E+00  0.00000000000E+00  0.43211205983E+03  0.43211205983E+03  0.00000000000E+00 0. -1.
          1   -1    0    0  501    0 -0.00000000000E+00 -0.00000000000E+00 -0.18019167644E+04  0.18019167644E+04  0.00000000000E+00 0. -1.
         25    2    1    2    0    0  0.18212338443E+03  0.14366786725E+03 -0.14920891908E+03  0.30281931632E+03  0.12500741404E+03 0.  0.
          2    1    1    2  501    0  0.64553408380E+01 -0.21319828765E+02 -0.15402595881E+04  0.15404206585E+04  0.00000000000E+00 0. -1.
          1    1    1    2  502    0 -0.18857872527E+03 -0.12234803848E+03  0.31966380258E+03  0.39078884941E+03  0.00000000000E+00 0. -1.
         22    1    3    3    0    0  0.17776927341E+03  0.72613117092E+02 -0.10244638469E+03  0.21764613729E+03  0.00000000000E+00 0.  1.
         22    1    3    3    0    0  0.43541110208E+01  0.71054750154E+02 -0.46762534390E+02  0.85173179022E+02  0.00000000000E+00 0.  1.
</event>
<event>
 7    1  0.5993218E-006  0.5657204E+02  0.7818608E-02  0.1440189E+00
          2   -1    0    0  502    0  0.00000000000E+00  0.00000000000E+00  0.41758716207E+03  0.41758716207E+03  0.00000000000E+00 0. -1.
          1   -1    0    0  501    0 -0.00000000000E+00 -0.00000000000E+00 -0.94009299347E+03  0.94009299347E+03  0.00000000000E+00 0. -1.
         25    2    1    2    0    0 -0.75475885402E+00  0.39539863230E+02  0.18304764367E+03  0.22515752545E+03  0.12500200385E+03 0.  0.
          2    1    1    2  501    0  0.46192159923E+02 -0.32905002568E+02 -0.91568130478E+03  0.91743594150E+03  0.00000000000E+00 0. -1.
          1    1    1    2  502    0 -0.45437401069E+02 -0.66348606615E+01  0.21012782971E+03  0.21508668859E+03  0.00000000000E+00 0. -1.
         22    1    3    3    0    0 -0.47545582162E+02  0.59334648007E+02  0.13652295528E+03  0.15626803946E+03  0.00000000000E+00 0.  1.
         22    1    3    3    0    0  0.46790823308E+02 -0.19794784777E+02  0.46524688394E+02  0.68889485993E+02  0.00000000000E+00 0.  1.
</event>
<event>
 7    1  0.5993218E-006  0.5624370E+02  0.7818608E-02  0.1415297E+00
          2   -1    0    0  502    0  0.00000000000E+00  0.00000000000E+00  0.15760452215E+03  0.15760452215E+03  0.00000000000E+00 0. -1.
          1   -1    0    0  501    0 -0.00000000000E+00 -0.00000000000E+00 -0.59698784200E+03  0.59698784200E+03  0.00000000000E+00 0. -1.
         25    2    1    2    0    0 -0.54125295169E+01 -0.14434150550E+02  0.35478984968E+02  0.13085482910E+03  0.12500635082E+03 0.  0.
          2    1    1    2  501    0 -0.11947946974E+02 -0.54520315153E+02 -0.53051425988E+03  0.53344221631E+03  0.00000000000E+00 0. -1.
          1    1    1    2  502    0  0.17360476491E+02  0.68954465703E+02  0.55651955060E+02  0.90295318740E+02  0.00000000000E+00 0. -1.
         22    1    3    3    0    0  0.83758201051E+01 -0.54319229237E+02 -0.22293474148E+02  0.59310471394E+02  0.00000000000E+00 0.  1.
         22    1    3    3    0    0 -0.13788349622E+02  0.39885078688E+02  0.57772459116E+02  0.71544357706E+02  0.00000000000E+00 0.  1.
</event>
<event>
 7    1  0.5993218E-006  0.1734463E+03  0.7818608E-02  0.1304662E+00
          2   -1    0    0  502    0  0.00000000000E+00  0.00000000000E+00  0.11709372393E+04  0.11709372393E+04  0.00000000000E+00 0. -1.
          1   -1    0    0  501    0 -0.00000000000E+00 -0.00000000000E+00 -0.15384261297E+03  0.15384261297E+03  0.00000000000E+00 0. -1.
         25    2    1    2    0    0  0.16978792514E+03  0.42402317805E+02  0.38876036280E+03  0.44428060683E+03  0.12499896739E+03 0.  0.
          2    1    1    2  501    0  0.46810544543E+01 -0.45692881056E+02 -0.11138100843E+03  0.12048020870E+03  0.00000000000E+00 0. -1.
          1    1    1    2  502    0 -0.17446897959E+03  0.32905632519E+01  0.73971527196E+03  0.76001903675E+03  0.00000000000E+00 0. -1.
         22    1    3    3    0    0  0.80378077783E+01 -0.32936289533E+02  0.91487337708E+02  0.97567097338E+02  0.00000000000E+00 0.  1.
         22    1    3    3    0    0  0.16175011736E+03  0.75338607337E+02  0.29727302509E+03  0.34671350949E+03  0.00000000000E+00 0.  1.
</event>
<event>
 7    1  0.5993218E-006  0.5250179E+02  0.7818608E-02  0.1454166E+00
          2   -1    0    0  502    0  0.00000000000E+00  0.00000000000E+00  0.11285504855E+04  0.11285504855E+04  0.00000000000E+00 0. -1.
          1   -1    0    0  501    0 -0.00000000000E+00 -0.00000000000E+00 -0.20318328667E+04  0.20318328667E+04  0.00000000000E+00 0. -1.
         25    2    1    2    0    0  0.91953993984E+02 -0.17683868160E+02  0.12461135508E+03  0.19980278349E+03  0.12499962509E+03 0.  0.
          2    1    1    2  501    0 -0.52342533256E+02 -0.28542517375E+01 -0.19933773456E+04  0.19940664808E+04  0.00000000000E+00 0. -1.
          1    1    1    2  502    0 -0.39611460728E+02  0.20538119897E+02  0.96548360943E+03  0.96651408798E+03  0.00000000000E+00 0. -1.
         22    1    3    3    0    0  0.10369313401E+03  0.86225363165E+01  0.41815949187E+02  0.11213914472E+03  0.00000000000E+00 0.  1.
         22    1    3    3    0    0 -0.11739140021E+02 -0.26306404476E+02  0.82795405893E+02  0.87663638767E+02  0.00000000000E+00 0.  1.
</event>
<event>
 7    1  0.5993218E-006  0.1634709E+03  0.7818608E-02  0.1311510E+00
          2   -1    0    0  502    0  0.00000000000E+00  0.00000000000E+00  0.63424493670E+03  0.63424493670E+03  0.00000000000E+00 0. -1.
          1   -1    0    0  501    0 -0.00000000000E+00 -0.00000000000E+00 -0.12145772173E+04  0.12145772173E+04  0.00000000000E+00 0. -1.
         25    2    1    2    0    0  0.15996981464E+03 -0.34911500387E+02  0.33903483423E+03  0.39670915089E+03  0.12499750849E+03 0.  0.
          2    1    1    2  501    0 -0.14388482112E+03  0.77783545821E+02 -0.11780793764E+04  0.11893797286E+04  0.00000000000E+00 0. -1.
          1    1    1    2  502    0 -0.16084993518E+02 -0.42872045434E+02  0.25871226151E+03  0.26273327454E+03  0.00000000000E+00 0. -1.
         22    1    3    3    0    0  0.13530378776E+03  0.99362212850E+01  0.15642496195E+03  0.20706185597E+03  0.00000000000E+00 0.  1.
         22    1    3    3    0    0  0.24666026885E+02 -0.44847721672E+02  0.18260987227E+03  0.18964729493E+03  0.00000000000E+00 0.  1.
</event>
<event>
 7    1  0.5993218E-006  0.1002184E+03  0.7818608E-02  0.1319480E+00
          2   -1    0    0  502    0  0.00000000000E+00  0.00000000000E+00  0.36165222843E+03  0.36165222843E+03  0.00000000000E+00 0. -1.
          1   -1    0    0  501    0 -0.00000000000E+00 -0.00000000000E+00 -0.12721188378E+04  0.12721188378E+04  0.00000000000E+00 0. -1.
         25    2    1    2    0    0  0.19777071612E+02  0.40213009429E+02 -0.87516075020E+03  0.88517238819E+03  0.12496239210E+03 0.  0.
          2    1    1    2  501    0  0.69158680603E+02  0.71027334420E+01 -0.38163495604E+03  0.38791572744E+03  0.00000000000E+00 0. -1.
          1    1    1    2  502    0 -0.88935752215E+02 -0.47315742871E+02  0.34632909685E+03  0.36068295062E+03  0.00000000000E+00 0. -1.
         22    1    3    3    0    0 -0.34435526285E+02  0.30926572839E+02 -0.70114639485E+03  0.70267241684E+03  0.00000000000E+00 0. -1.
         22    1    3    3    0    0  0.54212597897E+02  0.92864365894E+01 -0.17401435535E+03  0.18249997135E+03  0.00000000000E+00 0. -1.
</event>
<event>
 7    1  0.5993218E-006  0.8862024E+02  0.7818608E-02  0.1402185E+00
          2   -1    0    0  502    0  0.00000000000E+00  0.00000000000E+00  0.11124992471E+04  0.11124992471E+04  0.00000000000E+00 0. -1.
          1   -1    0    0  501    0 -0.00000000000E+00 -0.00000000000E+00 -0.14059283173E+04  0.14059283173E+04  0.00000000000E+00 0. -1.
         25    2    1    2    0    0 -0.49893889094E+00  0.76226693238E+02  0.36692770223E+03  0.39505772600E+03  0.12499564195E+03 0.  0.
          2    1    1    2  501    0 -0.38510540653E+02  0.75637701542E+01 -0.13886654438E+04  0.13892199204E+04  0.00000000000E+00 0. -1.
          1    1    1    2  502    0  0.39009479544E+02 -0.83790463392E+02  0.72830867143E+03  0.73414991802E+03  0.00000000000E+00 0. -1.
         22    1    3    3    0    0  0.34819150983E+02  0.21889796130E+02  0.27444695853E+02  0.49444390786E+02  0.00000000000E+00 0. -1.
         22    1    3    3    0    0 -0.35318089873E+02  0.54336897108E+02  0.33948300638E+03  0.34561333522E+03  0.00000000000E+00 0. -1.
</event>
<event>
 7    1  0.5993218E-006  0.7173072E+02  0.7818608E-02  0.1517367E+00
          2   -1    0    0  502    0  0.00000000000E+00  0.00000000000E+00  0.65894661830E+03  0.65894661830E+03  0.00000000000E+00 0. -1.
          1   -1    0    0  501    0 -0.00000000000E+00 -0.00000000000E+00 -0.60432145115E+02  0.60432145115E+02  0.00000000000E+00 0. -1.
         25    2    1    2    0    0 -0.67597535563E+02  0.17664062551E+02  0.17517613647E+03  0.22625840075E+03  0.12499895681E+03 0.  0.
          2    1    1    2  501    0  0.60028371236E+01  0.20090792083E+02 -0.28589367507E+02  0.35454561265E+02  0.00000000000E+00 0. -1.
          1    1    1    2  502    0  0.61594698439E+02 -0.37754854634E+02  0.45192770422E+03  0.45766580140E+03  0.00000000000E+00 0. -1.
         22    1    3    3    0    0 -0.29658509688E+02  0.57859458817E+02  0.15383220696E+03  0.16700805989E+03  0.00000000000E+00 0.  1.
         22    1    3    3    0    0 -0.37939025875E+02 -0.40195396267E+02  0.21343929515E+02  0.59250340864E+02  0.00000000000E+00 0.  1.
</event>
<event>
 7    1  0.5993218E-006  0.6001014E+02  0.7818608E-02  0.1418405E+00
          2   -1    0    0  502    0  0.00000000000E+00  0.00000000000E+00  0.74167067384E+02  0.74167067384E+02  0.00000000000E+00 0. -1.
          1   -1    0    0  501    0 -0.00000000000E+00 -0.00000000000E+00 -0.50566384569E+03  0.50566384569E+03  0.00000000000E+00 0. -1.
         25    2    1    2    0    0 -0.97787047782E+02  0.21254369413E+02 -0.34913157119E+03  0.38409835257E+03  0.12499854206E+03 0.  0.
          2    1    1    2  501    0  0.40186295129E+02 -0.31515017458E+02 -0.11705743353E+03  0.12771287087E+03  0.00000000000E+00 0. -1.
          1    1    1    2  502    0  0.57600752653E+02  0.10260648045E+02  0.34692226408E+02  0.68019689632E+02  0.00000000000E+00 0. -1.
         22    1    3    3    0    0 -0.53795182490E+02 -0.50194374031E+02 -0.12883711054E+03  0.14836575716E+03  0.00000000000E+00 0. -1.
         22    1    3    3    0    0 -0.43991865292E+02  0.71448743444E+02 -0.22029446064E+03  0.23573259542E+03  0.00000000000E+00 0. -1.
</event>
<event>
 7    1  0.5993218E-006  0.6550197E+02  0.7818608E-02  0.1505256E+00
          2   -1    0    0  502    0  0.00000000000E+00  0.00000000000E+00  0.17900748297E+03  0.17900748297E+03  0.00000000000E+00 0. -1.
          1   -1    0    0  501    0 -0.00000000000E+00 -0.00000000000E+00 -0.12407902909E+04  0.12407902909E+04  0.00000000000E+00 0. -1.
         25    2    1    2    0    0 -0.63077535911E+02  0.21843574261E+02  0.97295642342E+02  0.17189342342E+03  0.12499995889E+03 0.  0.
          2    1    1    2  501    0  0.49605180696E+02 -0.42811628430E+02 -0.11990284661E+04  0.12008175432E+04  0.00000000000E+00 0. -1.
          1    1    1    2  502    0  0.13472355216E+02  0.20968054170E+02  0.39950015851E+02  0.47086807252E+02  0.00000000000E+00 0. -1.
         22    1    3    3    0    0 -0.53508495599E+02 -0.47555925246E+02  0.51752454536E+02  0.88334827094E+02  0.00000000000E+00 0. -1.
         22    1    3    3    0    0 -0.95690403129E+01  0.69399499506E+02  0.45543187806E+02  0.83558596325E+02  0.00000000000E+00 0. -1.
</event>
<event>
 7    1  0.5993218E-006  0.6112496E+02  0.7818608E-02  0.1533297E+00
          2   -1    0    0  502    0  0.00000000000E+00  0.00000000000E+00  0.27122882511E+03  0.27122882511E+03  0.00000000000E+00 0. -1.
          1   -1    0    0  501    0 -0.00000000000E+00 -0.00000000000E+00 -0.50293031123E+03  0.50293031123E+03  0.00000000000E+00 0. -1.
         25    2    1    2    0    0  0.70498430091E+01 -0.79918464621E+02  0.51983749743E+02  0.15736486610E+03  0.12499891829E+03 0.  0.
          2    1    1    2  501    0 -0.79091669587E+01  0.20676164824E+02 -0.44468656221E+03  0.44523723713E+03  0.00000000000E+00 0. -1.
          1    1    1    2  502    0  0.85932394956E+00  0.59242299798E+02  0.16100132635E+03  0.17155703311E+03  0.00000000000E+00 0. -1.
         22    1    3    3    0    0 -0.46409942463E+01 -0.75007250344E+02 -0.25110393056E+02  0.79234829912E+02  0.00000000000E+00 0.  1.
         22    1    3    3    0    0  0.11690837255E+02 -0.49112142773E+01  0.77094142799E+02  0.78130036192E+02  0.00000000000E+00 0.  1.
</event>
<event>
 7    1  0.5993218E-006  0.5382845E+02  0.7818608E-02  0.1492126E+00
          2   -1    0    0  502    0  0.00000000000E+00  0.00000000000E+00  0.17006215760E+04  0.17006215760E+04  0.00000000000E+00 0. -1.
          1   -1    0    0  501    0 -0.00000000000E+00 -0.00000000000E+00 -0.59945038256E+02  0.59945038256E+02  0.00000000000E+00 0. -1.
         25    2    1    2    0    0  0.69471508660E+02  0.18545018380E+02  0.42152638639E+03  0.44551024218E+03  0.12499869298E+03 0.  0.
          2    1    1    2  501    0 -0.17106324385E+02 -0.28450207584E+02 -0.41576490978E+02  0.53203808582E+02  0.00000000000E+00 0. -1.
          1    1    1    2  502    0 -0.52365184275E+02  0.99051892047E+01  0.12607266424E+04  0.12618525635E+04  0.00000000000E+00 0. -1.
         22    1    3    3    0    0 -0.12824841729E+02  0.18905782316E+02  0.28629923712E+03  0.28720925881E+03  0.00000000000E+00 0. -1.
         22    1    3    3    0    0  0.82296350390E+02 -0.36076393628E+00  0.13522714927E+03  0.15830098337E+03  0.00000000000E+00 0. -1.
</event>
<event>
 7    1  0.5993218E-006  0.4793398E+02  0.7818608E-02  0.1464711E+00
          2   -1    0    0  502    0  0.00000000000E+00  0.00000000000E+00  0.21629883683E+04  0.21629883683E+04  0.00000000000E+00 0. -1.
          1   -1    0    0  501    0 -0.00000000000E+00 -0.00000000000E+00 -0.91326130155E+02  0.91326130155E+02  0.00000000000E+00 0. -1.
         25    2    1    2    0    0  0.53178149715E+02  0.20460206339E+01  0.13411028547E+03  0.19092752569E+03  0.12504259110E+03 0.  0.
          2    1    1    2  501    0 -0.22637901336E+02 -0.39197340940E+02 -0.54448306584E+02  0.70806244100E+02  0.00000000000E+00 0. -1.
          1    1    1    2  502    0 -0.30540248379E+02  0.37151320306E+02  0.19920002592E+04  0.19925807286E+04  0.00000000000E+00 0. -1.
         22    1    3    3    0    0  0.76472241864E+02  0.42146905198E+02  0.10325333997E+03  0.13522432329E+03  0.00000000000E+00 0.  1.
         22    1    3    3    0    0 -0.23294092149E+02 -0.40100884564E+02  0.30856945497E+02  0.55703202396E+02  0.00000000000E+00 0.  1.
</event>
<event>
 7    1  0.5993218E-006  0.1384350E+03  0.7818608E-02  0.1338666E+00
          2   -1    0    0  502    0  0.00000000000E+00  0.00000000000E+00  0.15850613838E+04  0.15850613838E+04  0.00000000000E+00 0. -1.
          1   -1    0    0  501    0 -0.00000000000E+00 -0.00000000000E+00 -0.77702699103E+03  0.77702699103E+03  0.00000000000E+00 0. -1.
         25    2    1    2    0    0  0.41953703385E+02  0.87055806937E+02  0.45707994136E+03  0.48361766823E+03  0.12500059790E+03 0.  0.
          2    1    1    2  501    0 -0.56558342592E+02 -0.12697074442E+03 -0.75702316243E+03  0.76967816944E+03  0.00000000000E+00 0. -1.
          1    1    1    2  502    0  0.14604639207E+02  0.39914937481E+02  0.11079776138E+04  0.11087925372E+04  0.00000000000E+00 0. -1.
         22    1    3    3    0    0 -0.16476148529E+02  0.96445348244E+02  0.25807367030E+03  0.27599852893E+03  0.00000000000E+00 0. -1.
         22    1    3    3    0    0  0.58429851915E+02 -0.93895413066E+01  0.19900627106E+03  0.20761913930E+03  0.00000000000E+00 0. -1.
</event>
<event>
 7    1  0.5993218E-006  0.5988683E+02  0.7818608E-02  0.1519393E+00
          2   -1    0    0  502    0  0.00000000000E+00  0.00000000000E+00  0.10564098825E+04  0.10564098825E+04  0.00000000000E+00 0. -1.
          1   -1    0    0  501    0 -0.00000000000E+00 -0.00000000000E+00 -0.11780080720E+04  0.11780080720E+04  0.00000000000E+00 0. -1.
         25    2    1    2    0    0  0.26319817824E+02 -0.51375674505E+02  0.20589755794E+02  0.13921745452E+03  0.12500147542E+03 0.  0.
          2    1    1    2  501    0 -0.46818483679E+02  0.37458377370E+02 -0.11177334018E+04  0.11193404567E+04  0.00000000000E+00 0. -1.
          1    1    1    2  502    0  0.20498665855E+02  0.13917297135E+02  0.97554545645E+03  0.97586004327E+03  0.00000000000E+00 0. -1.
         22    1    3    3    0    0 -0.50334207834E+02 -0.27038072964E+02  0.11478008181E+02  0.58278079410E+02  0.00000000000E+00 0.  1.
         22    1    3    3    0    0  0.76654025659E+02 -0.24337601541E+02  0.91117476130E+01  0.80939375109E+02  0.00000000000E+00 0.  1.
</event>
<event>
 7    1  0.5993218E-006  0.1252173E+03  0.7818608E-02  0.1358114E+00
          2   -1    0    0  502    0  0.00000000000E+00  0.00000000000E+00  0.11587886304E+04  0.11587886304E+04  0.00000000000E+00 0. -1.
          1   -1    0    0  501    0 -0.00000000000E+00 -0.00000000000E+00 -0.80603054548E+03  0.80603054548E+03  0.00000000000E+00 0. -1.
         25    2    1    2    0    0  0.58687167248E+01 -0.16283839338E+03  0.83806136046E+01  0.20553711155E+03  0.12499794136E+03 0.  0.
          2    1    1    2  501    0 -0.12644384163E+01  0.12331662675E+03 -0.70169677653E+03  0.71245137057E+03  0.00000000000E+00 0. -1.
          1    1    1    2  502    0 -0.46042783085E+01  0.39521766630E+02  0.10460742479E+04  0.10468306938E+04  0.00000000000E+00 0. -1.
         22    1    3    3    0    0 -0.99336866114E+01 -0.12480811954E+03  0.60546659193E+02  0.13907423476E+03  0.00000000000E+00 0.  1.
         22    1    3    3    0    0  0.15802403336E+02 -0.38030273840E+02 -0.52166045588E+02  0.66462876795E+02  0.00000000000E+00 0.  1.
</event>
<event>
 7    1  0.5993218E-006  0.7759246E+02  0.7818608E-02  0.1406679E+00
          2   -1    0    0  502    0  0.00000000000E+00  0.00000000000E+00  0.43407056272E+03  0.43407056272E+03  0.00000000000E+00 0. -1.
          1   -1    0    0  501    0 -0.00000000000E+00 -0.00000000000E+00 -0.44025824284E+03  0.44025824284E+03  0.00000000000E+00 0. -1.
         25    2    1    2    0    0  0.84643226548E+02  0.22045072373E+02  0.26206123043E+03  0.30323580046E+03  0.12500160467E+03 0.  0.
          2    1    1    2  501    0 -0.74956042756E+02  0.20124054955E+02 -0.41288908988E+03  0.42011996676E+03  0.00000000000E+00 0. -1.
          1    1    1    2  502    0 -0.96871837919E+01 -0.42169127328E+02  0.14464017932E+03  0.15097303833E+03  0.00000000000E+00 0. -1.
         22    1    3    3    0    0  0.44319119237E+02  0.24993192842E+02  0.15224441375E+02  0.53109581372E+02  0.00000000000E+00 0. -1.
         22    1    3    3    0    0  0.40324107311E+02 -0.29481204692E+01  0.24683678906E+03  0.25012621909E+03  0.00000000000E+00 0. -1.
</event>
<event>
 7    1  0.5993218E-006  0.3953502E+02  0.7818608E-02  0.1591786E+00
          2   -1    0    0  502    0  0.00000000000E+00  0.00000000000E+00  0.50091139136E+03  0.50091139136E+03  0.00000000000E+00 0. -1.
          1   -1    0    0  501    0 -0.00000000000E+00 -0.00000000000E+00 -0.11784666916E+04  0.11784666916E+04  0.00000000000E+00 0. -1.
         25    2    1    2    0    0  0.20333417110E+02 -0.13189719689E+01 -0.17754034042E+02  0.12788971574E+03  0.12500154450E+03 0.  0.
          2    1    1    2  501    0 -0.36212291979E+02 -0.16208062838E+02 -0.11049749180E+04  0.11056869362E+04  0.00000000000E+00 0. -1.
          1    1    1    2  502    0  0.15878874869E+02  0.17527034807E+02  0.44517365184E+03  0.44580143103E+03  0.00000000000E+00 0. -1.
         22    1    3    3    0    0  0.57855157097E+02  0.37772628189E+02  0.46613551730E+01  0.69251129052E+02  0.00000000000E+00 0.  1.
         22    1    3    3    0    0 -0.37521739987E+02 -0.39091600158E+02 -0.22415389215E+02  0.58638586683E+02  0.00000000000E+00 0.  1.
</event>
<event>
 7    1  0.5993218E-006  0.1047143E+03  0.7818608E-02  0.1378839E+00
          2   -1    0    0  502    0  0.00000000000E+00  0.00000000000E+00  0.38632574031E+03  0.38632574031E+03  0.00000000000E+00 0. -1.
          1   -1    0    0  501    0 -0.00000000000E+00 -0.00000000000E+00 -0.10509688055E+04  0.10509688055E+04  0.00000000000E+00 0. -1.
         25    2    1    2    0    0  0.49774359703E+02 -0.88907318095E+02 -0.21567721818E+03  0.26930243681E+03  0.12500056774E+03 0.  0.
          2    1    1    2  501    0  0.32430352533E+02  0.23522071875E+02 -0.80029512764E+03  0.80129726503E+03  0.00000000000E+00 0. -1.
          1    1    1    2  502    0 -0.82204712236E+02  0.65385246220E+02  0.35132928064E+03  0.36669484394E+03  0.00000000000E+00 0. -1.
         22    1    3    3    0    0  0.85895953670E+02 -0.46448459246E+02 -0.17462025712E+03  0.20006950897E+03  0.00000000000E+00 0.  1.
         22    1    3    3    0    0 -0.36121593967E+02 -0.42458858849E+02 -0.41056961058E+02  0.69232927836E+02  0.00000000000E+00 0.  1.
</event>
<event>
 7    1  0.5993218E-006  0.1299258E+03  0.7818608E-02  0.1301595E+00
          2   -1    0    0  502    0  0.00000000000E+00  0.00000000000E+00  0.16755726196E+04  0.16755726196E+04  0.00000000000E+00 0. -1.
          1   -1    0    0  501    0 -0.00000000000E+00 -0.00000000000E+00 -0.16292321861E+03  0.16292321861E+03  0.00000000000E+00 0. -1.
         25    2    1    2    0    0  0.12413448752E+03 -0.43144638198E+02  0.27859439838E+03  0.33243203893E+03  0.12500156361E+03 0.  0.
          2    1    1    2  501    0 -0.34451572215E+02 -0.52825927251E+02 -0.12535325722E+03  0.14032436893E+03  0.00000000000E+00 0. -1.
          1    1    1    2  502    0 -0.89682915302E+02  0.95970565450E+02  0.13594082598E+04  0.13657394303E+04  0.00000000000E+00 0. -1.
         22    1    3    3    0    0  0.27385692000E+02 -0.74703675648E+02  0.11869760907E+03  0.14289764757E+03  0.00000000000E+00 0. -1.
         22    1    3    3    0    0  0.96748795517E+02  0.31559037450E+02  0.15989678931E+03  0.18953439136E+03  0.00000000000E+00 0. -1.
</event>
<event>
 7    1  0.5993218E-006  0.1071632E+03  0.7818608E-02  0.1301356E+00
          2   -1    0    0  502    0  0.00000000000E+00  0.00000000000E+00  0.43033056954E+03  0.43033056954E+03  0.00000000000E+00 0. -1.
          1   -1    0    0  501    0 -0.00000000000E+00 -0.00000000000E+00 -0.24921461406E+03  0.24921461406E+03  0.00000000000E+00 0. -1.
         25    2    1    2    0    0 -0.65046977609E+02  0.45216351079E+02  0.69553441563E+02  0.16351740885E+03  0.12499853624E+03 0.  0.
          2    1    1    2  501    0 -0.52280011313E+02 -0.56028832249E+02 -0.18320389177E+03  0.19858523507E+03  0.00000000000E+00 0. -1.
          1    1    1    2  502    0  0.11732698892E+03  0.10812481170E+02  0.29476640569E+03  0.31744253969E+03  0.00000000000E+00 0. -1.
         22    1    3    3    0    0 -0.89957232260E+02  0.67283895296E+02  0.65382244288E+02  0.12997793686E+03  0.00000000000E+00 0. -1.
         22    1    3    3    0    0  0.24910254651E+02 -0.22067544217E+02  0.41711972746E+01  0.33539471988E+02  0.00000000000E+00 0. -1.
</event>
<event>
 7    1  0.5993218E-006  0.7630274E+02  0.7818608E-02  0.1341396E+00
          2   -1    0    0  502    0  0.00000000000E+00  0.00000000000E+00  0.75400373456E+03  0.75400373456E+03  0.00000000000E+00 0. -1.
          1   -1    0    0  501    0 -0.00000000000E+00 -0.00000000000E+00 -0.34382089302E+03  0.34382089302E+03  0.00000000000E+00 0. -1.
         25    2    1    2    0    0  0.51115951212E+02 -0.31800979653E+02  0.13641276093E+03  0.19457148794E+03  0.12500191918E+03 0.  0.
          2    1    1    2  501    0  0.11120316679E+02  0.75945679437E+02 -0.30753138727E+03  0.31696523757E+03  0.00000000000E+00 0. -1.
          1    1    1    2  502    0 -0.62236267891E+02 -0.44144699784E+02  0.58130146789E+03  0.58628790208E+03  0.00000000000E+00 0. -1.
         22    1    3    3    0    0  0.77785627371E+02  0.10606185790E+02  0.45414310321E+02  0.90694843208E+02  0.00000000000E+00 0.  1.
         22    1    3    3    0    0 -0.26669676159E+02 -0.42407165443E+02  0.90998450606E+02  0.10387664473E+03  0.00000000000E+00 0.  1.
</event>
<event>
 7    1  0.5993218E-006  0.2585102E+03  0.7818608E-02  0.1312550E+00
          2   -1    0    0  502    0  0.00000000000E+00  0.00000000000E+00  0.91400227594E+03  0.91400227594E+03  0.00000000000E+00 0. -1.
          1   -1    0    0  501    0 -0.00000000000E+00 -0.00000000000E+00 -0.35193725611E+03  0.35193725611E+03  0.00000000000E+00 0. -1.
         25    2    1    2    0    0 -0.24394274652E+03  0.13430747051E+03  0.33273881426E+02  0.30704845600E+03  0.12500017173E+03 0.  0.
          2    1    1    2  501    0  0.21744276972E+03 -0.12332782340E+03 -0.14199256088E+03  0.28749434338E+03  0.00000000000E+00 0. -1.
          1    1    1    2  502    0  0.26499976797E+02 -0.10979647104E+02  0.67078369928E+03  0.67139673267E+03  0.00000000000E+00 0. -1.
         22    1    3    3    0    0 -0.25254708864E+03  0.12833378939E+03  0.49657117802E+02  0.28760289086E+03  0.00000000000E+00 0.  1.
         22    1    3    3    0    0  0.86043421238E+01  0.59736811167E+01 -0.16383236376E+02  0.19445565140E+02  0.00000000000E+00 0.  1.
</event>
<event>
 7    1  0.5993218E-006  0.5387740E+03  0.7818608E-02  0.1152138E+00
          2   -1    0    0  502    0  0.00000000000E+00  0.00000000000E+00  0.52960600887E+03  0.52960600887E+03  0.00000000000E+00 0. -1.
          1   -1    0    0  501    0 -0.00000000000E+00 -0.00000000000E+00 -0.14188866213E+04  0.14188866213E+04  0.00000000000E+00 0. -1.
         25    2    1    2    0    0  0.83665074192E+01  0.50174751001E+03 -0.93624850899E+02  0.52555648077E+03  0.12499375795E+03 0.  0.
          2    1    1    2  501    0  0.26067217148E+02  0.67293259558E+02 -0.84744020659E+03  0.85050736995E+03  0.00000000000E+00 0. -1.
          1    1    1    2  502    0 -0.34433724567E+02 -0.56904076956E+03  0.51784445046E+02  0.57242877947E+03  0.00000000000E+00 0. -1.
         22    1    3    3    0    0  0.39798044986E+02  0.83976142936E+02  0.11440646390E+02  0.93631006386E+02  0.00000000000E+00 0. -1.
         22    1    3    3    0    0 -0.31431537567E+02  0.41777136707E+03 -0.10506549729E+03  0.43192547438E+03  0.00000000000E+00 0. -1.
</event>
<event>
 7    1  0.5993218E-006  0.6620554E+02  0.7818608E-02  0.1377221E+00
          2   -1    0    0  502    0  0.00000000000E+00  0.00000000000E+00  0.19552789483E+04  0.19552789483E+04  0.00000000000E+00 0. -1.
          1   -1    0    0  501    0 -0.00000000000E+00 -0.00000000000E+00 -0.18725230457E+02  0.18725230457E+02  0.00000000000E+00 0. -1.
         25    2    1    2    0    0 -0.75620886219E+01  0.14090381268E+02  0.97417287397E+03  0.98228954494E+03  0.12499695078E+03 0.  0.
          2    1    1    2  501    0 -0.33406165721E+02 -0.63531748570E+02  0.81930010728E+02  0.10892557846E+03  0.00000000000E+00 0. -1.
          1    1    1    2  502    0  0.40968254343E+02  0.49441367302E+02  0.88045083319E+03  0.88278905540E+03  0.00000000000E+00 0. -1.
         22    1    3    3    0    0  0.12114057843E+01  0.42439083079E+02  0.91601324465E+03  0.91699662357E+03  0.00000000000E+00 0.  1.
         22    1    3    3    0    0 -0.87734944062E+01 -0.28348701811E+02  0.58159629318E+02  0.65292921369E+02  0.00000000000E+00 0.  1.
</event>
<event>
 7    1  0.5993218E-006  0.4004559E+02  0.7818608E-02  0.1511101E+00
          2   -1    0    0  502    0  0.00000000000E+00  0.00000000000E+00  0.89406253687E+02  0.89406253687E+02  0.00000000000E+00 0. -1.
          1   -1    0    0  501    0 -0.00000000000E+00 -0.00000000000E+00 -0.79850543882E+03  0.79850543882E+03  0.00000000000E+00 0. -1.
         25    2    1    2    0    0  0.28189969552E+02 -0.26401799779E+02 -0.58958268427E+02  0.14350270153E+03  0.12500087405E+03 0.  0.
          2    1    1    2  501    0  0.87843744465E+01  0.39359605200E+02 -0.68843993768E+03  0.68962010669E+03  0.00000000000E+00 0. -1.
          1    1    1    2  502    0 -0.36974343998E+02 -0.12957805422E+02  0.38299020970E+02  0.54788884299E+02  0.00000000000E+00 0. -1.
         22    1    3    3    0    0  0.24227086792E+02  0.24315079225E+02 -0.81067302280E+02  0.88034551803E+02  0.00000000000E+00 0. -1.
         22    1    3    3    0    0  0.39628827595E+01 -0.50716879004E+02  0.22109033853E+02  0.55468149722E+02  0.00000000000E+00 0. -1.
</event>
<event>
 7    1  0.5993218E-006  0.6297763E+02  0.7818608E-02  0.1454595E+00
          2   -1    0    0  502    0  0.00000000000E+00  0.00000000000E+00  0.51830564141E+03  0.51830564141E+03  0.00000000000E+00 0. -1.
          1   -1    0    0  501    0 -0.00000000000E+00 -0.00000000000E+00 -0.47314495470E+03  0.47314495470E+03  0.00000000000E+00 0. -1.
         25    2    1    2    0    0 -0.59819843525E+02  0.55676653338E+02 -0.37533997499E+03  0.40395830378E+03  0.12499564374E+03 0.  0.
          2    1    1    2  501    0  0.49481431623E+02 -0.20066559986E+02 -0.74193805793E+02  0.91410063578E+02  0.00000000000E+00 0. -1.
          1    1    1    2  502    0  0.10338411902E+02 -0.35610093352E+02  0.49469446750E+03  0.49608222875E+03  0.00000000000E+00 0. -1.
         22    1    3    3    0    0 -0.39490736063E+02 -0.33376700848E+02 -0.19587175387E+03  0.20258150547E+03  0.00000000000E+00 0.  1.
         22    1    3    3    0    0 -0.20329107462E+02  0.89053354185E+02 -0.17946822112E+03  0.20137679830E+03  0.00000000000E+00 0.  1.
</event>
<event>
 7    1  0.5993218E-006  0.1569824E+03  0.7818608E-02  0.1313114E+00
          2   -1    0    0  502    0  0.00000000000E+00  0.00000000000E+00  0.50541576377E+03  0.50541576377E+03  0.00000000000E+00 0. -1.
          1   -1    0    0  501    0 -0.00000000000E+00 -0.00000000000E+00 -0.15400681166E+03  0.15400681166E+03  0.00000000000E+00 0. -1.
         25    2    1    2    0    0  0.10232506450E+03  0.11935249118E+03  0.25511883479E+03  0.32469379911E+03  0.12500002935E+03 0.  0.
          2    1    1    2  501    0 -0.62925902393E+02 -0.14497170431E+03 -0.61881767843E+02  0.16972276640E+03  0.00000000000E+00 0. -1.
          1    1    1    2  502    0 -0.39399162104E+02  0.25619213127E+02  0.15817188516E+03  0.16500600993E+03  0.00000000000E+00 0. -1.
         22    1    3    3    0    0  0.94865230981E+02  0.39207280994E+02  0.74141286335E+02  0.12662366790E+03  0.00000000000E+00 0.  1.
         22    1    3    3    0    0  0.74598335167E+01  0.80145210190E+02  0.18097754846E+03  0.19807013121E+03  0.00000000000E+00 0.  1.
</event>
<event>
 7    1  0.5993218E-006  0.4824625E+02  0.7818608E-02  0.1499192E+00
          2   -1    0    0  502    0  0.00000000000E+00  0.00000000000E+00  0.71524963691E+02  0.71524963691E+02  0.00000000000E+00 0. -1.
          1   -1    0    0  501    0 -0.00000000000E+00 -0.00000000000E+00 -0.56136926616E+03  0.56136926616E+03  0.00000000000E+00 0. -1.
         25    2    1    2    0    0 -0.36474298376E+02  0.29082343054E+01 -0.32103545751E+03  0.34644962068E+03  0.12499896968E+03 0.  0.
          2    1    1    2  501    0  0.36968600330E+02 -0.38177294358E+02 -0.21885647973E+03  0.22521621153E+03  0.00000000000E+00 0. -1.
          1    1    1    2  502    0 -0.49430195437E+00  0.35269060053E+02  0.50047634774E+02  0.61228397643E+02  0.00000000000E+00 0. -1.
         22    1    3    3    0    0  0.15641679681E+02  0.36124924231E+02 -0.31572665399E+02  0.50462912067E+02  0.00000000000E+00 0. -1.
         22    1    3    3    0    0 -0.52115978056E+02 -0.33216689925E+02 -0.28946279211E+03  0.29598670861E+03  0.00000000000E+00 0. -1.
</event>
<event>
 7    1  0.5993218E-006  0.7240440E+02  0.7818608E-02  0.1515243E+00
          2   -1    0    0  502    0  0.00000000000E+00  0.00000000000E+00  0.22722625351E+04  0.22722625351E+04  0.00000000000E+00 0. -1.
          1   -1    0    0  501    0 -0.00000000000E+00 -0.00000000000E+00 -0.48210752559E+03  0.48210752559E+03  0.00000000000E+00 0. -1.
         25    2    1    2    0    0 -0.75118645423E+02  0.38693697539E+02  0.11011391335E+04  0.11114283572E+04  0.12500235471E+03 0.  0.
          2    1    1    2  501    0  0.55520439161E+02 -0.46435610802E+02 -0.47412102672E+03  0.47961394172E+03  0.00000000000E+00 0. -1.
          1    1    1    2  502    0  0.19598206262E+02  0.77419132634E+01  0.11631369027E+04  0.11633277618E+04  0.00000000000E+00 0. -1.
         22    1    3    3    0    0 -0.19039241805E+02  0.86995633267E+01  0.90488413742E+03  0.90512622174E+03  0.00000000000E+00 0.  1.
         22    1    3    3    0    0 -0.56079403618E+02  0.29994134212E+02  0.19625499611E+03  0.20630213546E+03  0.00000000000E+00 0.  1.
</event>
<event>
 7    1  0.5993218E-006  0.1070470E+03  0.7818608E-02  0.1399309E+00
          2   -1    0    0  502    0  0.00000000000E+00  0.00000000000E+00  0.94518611532E+03  0.94518611532E+03  0.00000000000E+00 0. -1.
          1   -1    0    0  501    0 -0.00000000000E+00 -0.00000000000E+00 -0.10642580614E+04  0.10642580614E+04  0.00000000000E+00 0. -1.
         25    2    1    2    0    0 -0.98477925515E+01 -0.10391321107E+03 -0.60200387961E+03  0.62364117952E+03  0.12499886108E+03 0.  0.
          2    1    1    2  501    0  0.33232960328E+02 -0.58815858308E+00 -0.44774927966E+03  0.44898128359E+03  0.00000000000E+00 0. -1.
          1    1    1    2  502    0 -0.23385167777E+02  0.10450136965E+03  0.93068121323E+03  0.93682171356E+03  0.00000000000E+00 0. -1.
         22    1    3    3    0    0  0.28174121104E+02  0.95805008557E+01 -0.45192663795E+02  0.54110479184E+02  0.00000000000E+00 0.  1.
         22    1    3    3    0    0 -0.38021913655E+02 -0.11349371192E+03 -0.55681121581E+03  0.56953070033E+03  0.00000000000E+00 0.  1.
</event>
<event>
 7    1  0.5993218E-006  0.8261477E+02  0.7818608E-02  0.1439994E+00
          2   -1    0    0  502    0  0.00000000000E+00  0.00000000000E+00  0.26695784918E+03  0.26695784918E+03  0.00000000000E+00 0. -1.
          1   -1    0    0  501    0 -0.00000000000E+00 -0.00000000000E+00 -0.11354331616E+04  0.11354331616E+04  0.00000000000E+00 0. -1.
         25    2    1    2    0    0 -0.10159636161E+03 -0.16214538933E+02  0.25778310253E+02  0.16393475646E+03  0.12500140451E+03 0.  0.
          2    1    1    2  501    0  0.21658816459E+02  0.22858331796E+02 -0.10567611913E+04  0.10572302602E+04  0.00000000000E+00 0. -1.
          1    1    1    2  502    0  0.79937545149E+02 -0.66437928628E+01  0.16250756859E+03  0.18122599416E+03  0.00000000000E+00 0. -1.
         22    1    3    3    0    0 -0.55542932904E+02 -0.47300586539E+02  0.63547255995E+02  0.96750279725E+02  0.00000000000E+00 0.  1.
         22    1    3    3    0    0 -0.46053428704E+02  0.31086047605E+02 -0.37768945742E+02  0.67184476731E+02  0.00000000000E+00 0.  1.
</event>
<event>
 7    1  0.5993218E-006  0.5299946E+02  0.7818608E-02  0.1478281E+00
          2   -1    0    0  502    0  0.00000000000E+00  0.00000000000E+00  0.14977639745E+04  0.14977639745E+04  0.00000000000E+00 0. -1.
          1   -1    0    0  501    0 -0.00000000000E+00 -0.00000000000E+00 -0.21514853977E+02  0.21514853977E+02  0.00000000000E+00 0. -1.
         25    2    1    2    0    0 -0.20340175553E+02 -0.34449684415E+01  0.25783174894E+03  0.28727586476E+03  0.12499848465E+03 0.  0.
          2    1    1    2  501    0 -0.23742278519E+02 -0.28578633048E+02  0.49884394335E+02  0.62200376641E+02  0.00000000000E+00 0. -1.
          1    1    1    2  502    0  0.44082454072E+02  0.32023601489E+02  0.11685329772E+04  0.11698025871E+04  0.00000000000E+00 0. -1.
         22    1    3    3    0    0 -0.45135022538E+02  0.36347828648E+02  0.57896071230E+02  0.81916359605E+02  0.00000000000E+00 0.  1.
         22    1    3    3    0    0  0.24794846985E+02 -0.39792797090E+02  0.19993567771E+03  0.20535950516E+03  0.00000000000E+00 0.  1.
</event>
<event>
 7    1  0.5993218E-006  0.1887524E+03  0.7818608E-02  0.1257208E+00
          2   -1    0    0  502    0  0.00000000000E+00  0.00000000000E+00  0.25422551621E+04  0.25422551621E+04  0.00000000000E+00 0. -1.
          1   -1    0    0  501    0 -0.00000000000E+00 -0.00000000000E+00 -0.62888643352E+03  0.62888643352E+03  0.00000000000E+00 0. -1.
         25    2    1    2    0    0 -0.23567506740E+03 -0.94318614514E+02  0.79313327258E+03  0.84209440771E+03  0.12499545987E+03 0.  0.
          2    1    1    2  501    0  0.17386051861E+03  0.70451455877E+02 -0.58919252125E+03  0.61833543863E+03  0.00000000000E+00 0. -1.
          1    1    1    2  502    0  0.61814548790E+02  0.23867158636E+02  0.17094279773E+04  0.17107117493E+04  0.00000000000E+00 0. -1.
         22    1    3    3    0    0 -0.16225317414E+03  0.10860238499E+01  0.47468532881E+03  0.50165070851E+03  0.00000000000E+00 0. -1.
         22    1    3    3    0    0 -0.73421893256E+02 -0.95404638364E+02  0.31844794378E+03  0.34044369920E+03  0.00000000000E+00 0. -1.
</event>
<event>
 7    1  0.5993218E-006  0.9857742E+02  0.7818608E-02  0.1322543E+00
          2   -1    0    0  502    0  0.00000000000E+00  0.00000000000E+00  0.34799923588E+04  0.34799923588E+04  0.00000000000E+00 0. -1.
          1   -1    0    0  501    0 -0.00000000000E+00 -0.00000000000E+00 -0.22200440162E+04  0.22200440162E+04  0.00000000000E+00 0. -1.
         25    2    1    2    0    0 -0.85894340971E+01  0.12170515982E+03 -0.40072884439E+03  0.43714325817E+03  0.12499878853E+03 0.  0.
          2    1    1    2  501    0  0.58254164586E+02 -0.36557205448E+02 -0.17997493228E+04  0.18010629089E+04  0.00000000000E+00 0. -1.
          1    1    1    2  502    0 -0.49664730489E+02 -0.85147954367E+02  0.34604265097E+04  0.34618302080E+04  0.00000000000E+00 0. -1.
         22    1    3    3    0    0 -0.28723983712E+02  0.10654196064E+03 -0.39652131528E+03  0.41158888479E+03  0.00000000000E+00 0.  1.
         22    1    3    3    0    0  0.20134549615E+02  0.15163199175E+02 -0.42075291144E+01  0.25554373376E+02  0.00000000000E+00 0.  1.
</event>
<event>
 7    1  0.5993218E-006  0.5418946E+02  0.7818608E-02  0.1503852E+00
          2   -1    0    0  502    0  0.00000000000E+00  0.00000000000E+00  0.16537360419E+02  0.16537360419E+02  0.00000000000E+00 0. -1.
          1   -1    0    0  501    0 -0.00000000000E+00 -0.00000000000E+00 -0.21036717024E+04  0.21036717024E+04  0.00000000000E+00 0. -1.
         25    2    1    2    0    0 -0.75230916431E+01  0.76863980339E+02 -0.10670847497E+04  0.10771535714E+04  0.12500114011E+03 0.  0.
          2    1    1    2  501    0  0.17874109788E+02 -0.48263013114E+02 -0.10095750207E+04  0.10108860097E+04  0.00000000000E+00 0. -1.
          1    1    1    2  502    0 -0.10351018145E+02 -0.28600967225E+02 -0.10474571634E+02  0.32169481714E+02  0.00000000000E+00 0. -1.
         22    1    3    3    0    0 -0.28558466994E+02  0.97792631556E+02 -0.55931880459E+03  0.56852133644E+03  0.00000000000E+00 0.  1.
         22    1    3    3    0    0  0.21035375351E+02 -0.20928651218E+02 -0.50776594507E+03  0.50863223496E+03  0.00000000000E+00 0.  1.
</event>
<event>
 7    1  0.5993218E-006  0.7689994E+02  0.7818608E-02  0.1469738E+00
          2   -1    0    0  502    0  0.00000000000E+00  0.00000000000E+00  0.29295561896E+03  0.29295561896E+03  0.00000000000E+00 0. -1.
          1   -1    0    0  501    0 -0.00000000000E+00 -0.00000000000E+00 -0.89196459649E+02  0.89196459649E+02  0.00000000000E+00 0. -1.
         25    2    1    2    0    0  0.25381631651E+02  0.92417739940E+02  0.12714502053E+03  0.20242564924E+03  0.12500008537E+03 0.  0.
          2    1    1    2  501    0  0.41657061515E+01 -0.26892367319E+02 -0.36608207036E+02  0.45614836952E+02  0.00000000000E+00 0. -1.
          1    1    1    2  502    0 -0.29547337802E+02 -0.65525372622E+02  0.11322234582E+03  0.13411159242E+03  0.00000000000E+00 0. -1.
         22    1    3    3    0    0  0.64265917218E+02  0.75784332244E+02  0.43040014938E+02  0.10828580708E+03  0.00000000000E+00 0.  1.
         22    1    3    3    0    0 -0.38884285567E+02  0.16633407697E+02  0.84105005591E+02  0.94139842156E+02  0.00000000000E+00 0.  1.
</event>
<event>
 7    1  0.5993218E-006  0.1109731E+03  0.7818608E-02  0.1408820E+00
          2   -1    0    0  502    0  0.00000000000E+00  0.00000000000E+00  0.25317251146E+04  0.25317251146E+04  0.00000000000E+00 0. -1.
          1   -1    0    0  501    0 -0.00000000000E+00 -0.00000000000E+00 -0.66663756683E+02  0.66663756683E+02  0.00000000000E+00 0. -1.
         25    2    1    2    0    0 -0.12008831093E+02  0.92955982891E+02  0.13729287027E+03  0.20799155410E+03  0.12500451021E+03 0.  0.
          2    1    1    2  501    0 -0.27407251569E+02  0.11571029876E+02 -0.22609374922E+02  0.37366161233E+02  0.00000000000E+00 0. -1.
          1    1    1    2  502    0  0.39416082662E+02 -0.10452701277E+03  0.23503778626E+04  0.23530311560E+04  0.00000000000E+00 0. -1.
         22    1    3    3    0    0  0.10680055233E+02  0.11984572499E+03  0.97416506247E+02  0.15481290989E+03  0.00000000000E+00 0.  1.
         22    1    3    3    0    0 -0.22688886326E+02 -0.26889742104E+02  0.39876364019E+02  0.53178644214E+02  0.00000000000E+00 0.  1.
</event>
<event>
 7    1  0.5993218E-006  0.1661039E+03  0.7818608E-02  0.1325449E+00
          2   -1    0    0  502    0  0.00000000000E+00  0.00000000000E+00  0.56107015263E+03  0.56107015263E+03  0.00000000000E+00 0. -1.
          1   -1    0    0  501    0 -0.00000000000E+00 -0.00000000000E+00 -0.17281494293E+04  0.17281494293E+04  0.00000000000E+00 0. -1.
         25    2    1    2    0    0  0.12294971685E+03  0.13400075987E+03 -0.29943043439E+03  0.37196392531E+03  0.12500296067E+03 0.  0.
          2    1    1    2  501    0 -0.13372453130E+03 -0.95712023030E+02 -0.13868335885E+04  0.13965494778E+04  0.00000000000E+00 0. -1.
          1    1    1    2  502    0  0.10774814459E+02 -0.38288736844E+02  0.51918474622E+03  0.52070617886E+03  0.00000000000E+00 0. -1.
         22    1    3    3    0    0  0.12557765291E+02  0.10596174237E+03 -0.13992376355E+03  0.17596661025E+03  0.00000000000E+00 0. -1.
         22    1    3    3    0    0  0.11039195155E+03  0.28039017501E+02 -0.15950667084E+03  0.19599731506E+03  0.00000000000E+00 0. -1.
</event>
<event>
 7    1  0.5993218E-006  0.2289410E+03  0.7818608E-02  0.1277990E+00
          2   -1    0    0  502    0  0.00000000000E+00  0.00000000000E+00  0.22556577575E+03  0.22556577575E+03  0.00000000000E+00 0. -1.
          1   -1    0    0  501    0 -0.00000000000E+00 -0.00000000000E+00 -0.62816948606E+03  0.62816948606E+03  0.00000000000E+00 0. -1.
         25    2    1    2    0    0  0.72489546865E+02  0.21430319323E+03 -0.28333052573E+03  0.38352418258E+03  0.12503606991E+03 0.  0.
          2    1    1    2  501    0 -0.11565096113E+03 -0.20287039753E+03 -0.24399657885E+03  0.33773639646E+03  0.00000000000E+00 0. -1.
          1    1    1    2  502    0  0.43161414265E+02 -0.11432795705E+02  0.12472339427E+03  0.13247468278E+03  0.00000000000E+00 0. -1.
         22    1    3    3    0    0  0.94549538573E+02  0.19682134199E+03 -0.20199590661E+03  0.29745689132E+03  0.00000000000E+00 0.  1.
         22    1    3    3    0    0 -0.22059991708E+02  0.17481851245E+02 -0.81334619128E+02  0.86067291266E+02  0.00000000000E+00 0.  1.
</event>
<event>
 7    1  0.5993218E-006  0.2041607E+03  0.7818608E-02  0.1262626E+00
          2   -1    0    0  502    0  0.00000000000E+00  0.00000000000E+00  0.42150319082E+04  0.42150319082E+04  0.00000000000E+00 0. -1.
          1   -1    0    0  501    0 -0.00000000000E+00 -0.00000000000E+00 -0.32420331735E+02  0.32420331735E+02  0.00000000000E+00 0. -1.
         25    2    1    2    0    0  0.18741666746E+03  0.11174130013E+03  0.98491222479E+03  0.10165079471E+04  0.12500076254E+03 0.  0.
          2    1    1    2  501    0 -0.13812149317E+03 -0.14246219789E+03  0.58760500351E+03  0.62020372851E+03  0.00000000000E+00 0. -1.
          1    1    1    2  502    0 -0.49295174285E+02  0.30720897757E+02  0.26100943482E+04  0.26107405643E+04  0.00000000000E+00 0. -1.
         22    1    3    3    0    0  0.17839656688E+03  0.12330193919E+03  0.97495798905E+03  0.99878515392E+03  0.00000000000E+00 0.  1.
         22    1    3    3    0    0  0.90201005753E+01 -0.11560639062E+02  0.99542357477E+01  0.17722793212E+02  0.00000000000E+00 0.  1.
</event>
<event>
 7    1  0.5993218E-006  0.8237554E+02  0.7818608E-02  0.1416671E+00
          2   -1    0    0  502    0  0.00000000000E+00  0.00000000000E+00  0.24802725712E+04  0.24802725712E+04  0.00000000000E+00 0. -1.
          1   -1    0    0  501    0 -0.00000000000E+00 -0.00000000000E+00 -0.61756637365E+02  0.61756637365E+02  0.00000000000E+00 0. -1.
         25    2    1    2    0    0 -0.56646608993E+02 -0.19779340856E+02  0.48445074651E+02  0.14687606317E+03  0.12500236814E+03 0.  0.
          2    1    1    2  501    0 -0.25777451632E+02  0.27517524138E+02  0.18275071958E+02  0.41900708853E+02  0.00000000000E+00 0. -1.
          1    1    1    2  502    0  0.82424060625E+02 -0.77381832819E+01  0.23517957872E+04  0.23532524365E+04  0.00000000000E+00 0. -1.
         22    1    3    3    0    0 -0.53159531152E+02 -0.71394217812E+01 -0.33927522302E+02  0.63466399498E+02  0.00000000000E+00 0.  1.
         22    1    3    3    0    0 -0.34870778412E+01 -0.12639919075E+02  0.82372596952E+02  0.83409663677E+02  0.00000000000E+00 0.  1.
</event>
<event>
 7    1  0.5993218E-006  0.3886948E+02  0.7818608E-02  0.1518614E+00
          2   -1    0    0  502    0  0.00000000000E+00  0.00000000000E+00  0.10117958874E+03  0.10117958874E+03  0.00000000000E+00 0. -1.
          1   -1    0    0  501    0 -0.00000000000E+00 -0.00000000000E+00 -0.15744792428E+04  0.15744792428E+04  0.00000000000E+00 0. -1.
         25    2    1    2    0    0  0.22653027247E+01  0.65314116040E+02 -0.21031552436E+03  0.25323633141E+03  0.12499981762E+03 0.  0.
          2    1    1    2  501    0  0.19122440357E+02 -0.33269397084E+02 -0.13377572914E+04  0.13383075473E+04  0.00000000000E+00 0. -1.
          1    1    1    2  502    0 -0.21387743082E+02 -0.32044718956E+02  0.74773161734E+02  0.84114952789E+02  0.00000000000E+00 0. -1.
         22    1    3    3    0    0 -0.19050288457E+02  0.61790464382E+02 -0.29391661233E+02  0.71027070395E+02  0.00000000000E+00 0.  1.
         22    1    3    3    0    0  0.21315591182E+02  0.35236516579E+01 -0.18092386313E+03  0.18220926101E+03  0.00000000000E+00 0.  1.
</event>
<event>
 7    1  0.5993218E-006  0.1061780E+03  0.7818608E-02  0.1282775E+00
          2   -1    0    0  502    0  0.00000000000E+00  0.00000000000E+00  0.61760339204E+03  0.61760339204E+03  0.00000000000E+00 0. -1.
          1   -1    0    0  501    0 -0.00000000000E+00 -0.00000000000E+00 -0.87094096769E+02  0.87094096769E+02  0.00000000000E+00 0. -1.
         25    2    1    2    0    0 -0.93455663054E+01  0.67164790456E+01  0.17039080970E+03  0.21163619950E+03  0.12499760881E+03 0.  0.
          2    1    1    2  501    0  0.11401478491E+03 -0.24552649527E+02 -0.10248256262E+01  0.11663298867E+03  0.00000000000E+00 0. -1.
          1    1    1    2  502    0 -0.10466921861E+03  0.17836170481E+02  0.36114331120E+03  0.37642830065E+03  0.00000000000E+00 0. -1.
         22    1    3    3    0    0 -0.15083725706E+02 -0.58221442168E+02  0.75933307552E+02  0.96866517978E+02  0.00000000000E+00 0. -1.
         22    1    3    3    0    0  0.57381594007E+01  0.64937921213E+02  0.94457502146E+02  0.11476968152E+03  0.00000000000E+00 0. -1.
</event>
<event>
 7    1  0.5993218E-006  0.3613966E+02  0.7818608E-02  0.1562873E+00
          2   -1    0    0  502    0  0.00000000000E+00  0.00000000000E+00  0.69208049908E+02  0.69208049908E+02  0.00000000000E+00 0. -1.
          1   -1    0    0  501    0 -0.00000000000E+00 -0.00000000000E+00 -0.19251949984E+03  0.19251949984E+03  0.00000000000E+00 0. -1.
         25    2    1    2    0    0 -0.27589144449E+02 -0.27629333314E+02 -0.34780626075E+02  0.13549614697E+03  0.12499989177E+03 0.  0.
          2    1    1    2  501    0 -0.10447198354E+02  0.29131896921E+02 -0.81952053603E+02  0.87601087102E+02  0.00000000000E+00 0. -1.
          1    1    1    2  502    0  0.38036342803E+02 -0.15025636070E+01 -0.65787702503E+01  0.38630315676E+02  0.00000000000E+00 0. -1.
         22    1    3    3    0    0 -0.76763942624E+02 -0.25971498388E+02 -0.14737012094E+02  0.82367476235E+02  0.00000000000E+00 0. -1.
         22    1    3    3    0    0  0.49174798176E+02 -0.16578349258E+01 -0.20043613981E+02  0.53128670731E+02  0.00000000000E+00 0. -1.
</event>
<event>
 7    1  0.5993218E-006  0.4331337E+02  0.7818608E-02  0.1512408E+00
          2   -1    0    0  502    0  0.00000000000E+00  0.00000000000E+00  0.54990023600E+03  0.54990023600E+03  0.00000000000E+00 0. -1.
          1   -1    0    0  501    0 -0.00000000000E+00 -0.00000000000E+00 -0.10745486970E+04  0.10745486970E+04  0.00000000000E+00 0. -1.
         25    2    1    2    0    0  0.46305299170E+01  0.42340568604E+02  0.12258841549E+03  0.18018130301E+03  0.12499286694E+03 0.  0.
          2    1    1    2  501    0 -0.35782311849E+02 -0.24488308423E+02 -0.10444928298E+04  0.10453924251E+04  0.00000000000E+00 0. -1.
          1    1    1    2  502    0  0.31151781932E+02 -0.17852260181E+02  0.39725595322E+03  0.39887520490E+03  0.00000000000E+00 0. -1.
         22    1    3    3    0    0  0.50764985822E+02  0.32513397168E+02  0.14142425674E+02  0.61921022156E+02  0.00000000000E+00 0.  1.
         22    1    3    3    0    0 -0.46134455905E+02  0.98271714359E+01  0.10844598982E+03  0.11826028086E+03  0.00000000000E+00 0.  1.
</event>
<event>
 7    1  0.5993218E-006  0.1717045E+03  0.7818608E-02  0.1194617E+00
          2   -1    0    0  502    0  0.00000000000E+00  0.00000000000E+00  0.89869234092E+03  0.89869234092E+03  0.00000000000E+00 0. -1.
          1   -1    0    0  501    0 -0.00000000000E+00 -0.00000000000E+00 -0.18902016026E+04  0.18902016026E+04  0.00000000000E+00 0. -1.
         25    2    1    2    0    0  0.42516102267E+02 -0.10639734145E+03  0.30245173674E+03  0.34674262477E+03  0.12500152620E+03 0.  0.
          2    1    1    2  501    0 -0.16736082701E+03  0.43753242273E+02 -0.18554768847E+04  0.18635231317E+04  0.00000000000E+00 0. -1.
          1    1    1    2  502    0  0.12484472474E+03  0.62644099179E+02  0.56151588623E+03  0.57862818713E+03  0.00000000000E+00 0. -1.
         22    1    3    3    0    0 -0.16906557641E+02  0.21226175768E+02  0.68784287141E+02  0.73943629789E+02  0.00000000000E+00 0. -1.
         22    1    3    3    0    0  0.59422659908E+02 -0.12762351722E+03  0.23366744960E+03  0.27279899498E+03  0.00000000000E+00 0. -1.
</event>
<event>
 7    1  0.5993218E-006  0.1671521E+03  0.7818608E-02  0.1251173E+00
          2   -1    0    0  502    0  0.00000000000E+00  0.00000000000E+00  0.11475821696E+04  0.11475821696E+04  0.00000000000E+00 0. -1.
          1   -1    0    0  501    0 -0.00000000000E+00 -0.00000000000E+00 -0.85385794534E+03  0.85385794534E+03  0.00000000000E+00 0. -1.
         25    2    1    2    0    0  0.32267541715E+01 -0.17536492373E+03  0.59999005533E+02  0.22357839398E+03  0.12499659664E+03 0.  0.
          2    1    1    2  501    0  0.74824769589E+02  0.26689435617E+02 -0.76298302472E+03  0.76710766398E+03  0.00000000000E+00 0. -1.
          1    1    1    2  502    0 -0.78051523760E+02  0.14867548812E+03  0.99670824342E+03  0.10107540569E+04  0.00000000000E+00 0. -1.
         22    1    3    3    0    0  0.16060468609E+02  0.12402462629E+02  0.24911610984E+02  0.32130174183E+02  0.00000000000E+00 0. -1.
         22    1    3    3    0    0 -0.12833714438E+02 -0.18776738636E+03  0.35087394549E+02  0.19144821980E+03  0.00000000000E+00 0. -1.
</event>
<event>
 7    1  0.5993218E-006  0.1345403E+03  0.7818608E-02  0.1371899E+00
          2   -1    0    0  502    0  0.00000000000E+00  0.00000000000E+00  0.24117116541E+04  0.24117116541E+04  0.00000000000E+00 0. -1.
          1   -1    0    0  501    0 -0.00000000000E+00 -0.00000000000E+00 -0.26006653405E+04  0.26006653405E+04  0.00000000000E+00 0. -1.
         25    2    1    2    0    0  0.15416511999E+03  0.57323842015E+02 -0.33308098442E+03  0.39194326209E+03  0.12499468561E+03 0.  0.
          2    1    1    2  501    0 -0.12668058657E+03 -0.39041337702E+02 -0.22360758722E+04  0.22400016748E+04  0.00000000000E+00 0. -1.
          1    1    1    2  502    0 -0.27484533416E+02 -0.18282504313E+02  0.23802031702E+04  0.23804320576E+04  0.00000000000E+00 0. -1.
         22    1    3    3    0    0  0.14946183776E+03  0.39637239733E+01 -0.27439829758E+03  0.31248836422E+03  0.00000000000E+00 0.  1.
         22    1    3    3    0    0  0.47032822261E+01  0.53360118042E+02 -0.58682686833E+02  0.79454897867E+02  0.00000000000E+00 0.  1.
</event>
<event>
 7    1  0.5993218E-006  0.9534693E+02  0.7818608E-02  0.1310338E+00
          2   -1    0    0  502    0  0.00000000000E+00  0.00000000000E+00  0.10760650408E+03  0.10760650408E+03  0.00000000000E+00 0. -1.
          1   -1    0    0  501    0 -0.00000000000E+00 -0.00000000000E+00 -0.11669784569E+04  0.11669784569E+04  0.00000000000E+00 0. -1.
         25    2    1    2    0    0  0.12496575842E+03  0.66828332999E+02 -0.21124593356E+03  0.28343056748E+03  0.12500230106E+03 0.  0.
          2    1    1    2  501    0 -0.33279963366E+02 -0.72027984409E+02 -0.88764131000E+03  0.89118049895E+03  0.00000000000E+00 0. -1.
          1    1    1    2  502    0 -0.91685795056E+02  0.51996514097E+01  0.39515290727E+02  0.99973894548E+02  0.00000000000E+00 0. -1.
         22    1    3    3    0    0  0.15010471116E+03  0.65248312013E+02 -0.18619131338E+03  0.24790314986E+03  0.00000000000E+00 0. -1.
         22    1    3    3    0    0 -0.25138952733E+02  0.15800209865E+01 -0.25054620181E+02  0.35527417627E+02  0.00000000000E+00 0. -1.
</event>
<event>
 7    1  0.5993218E-006  0.4214023E+02  0.7818608E-02  0.1582959E+00
          2   -1    0    0  502    0  0.00000000000E+00  0.00000000000E+00  0.22445705930E+04  0.22445705930E+04  0.00000000000E+00 0. -1.
          1   -1    0    0  501    0 -0.00000000000E+00 -0.00000000000E+00 -0.63365685020E+01  0.63365685020E+01  0.00000000000E+00 0. -1.
         25    2    1    2    0    0 -0.38764430205E+00 -0.32113330250E+02  0.86652013222E+03  0.87607831803E+03  0.12499865415E+03 0.  0.
          2    1    1    2  501    0  0.21111779960E+02  0.43019785066E+02  0.40408097286E+03  0.40691257266E+03  0.00000000000E+00 0. -1.
          1    1    1    2  502    0 -0.20724135658E+02 -0.10906454816E+02  0.96763291938E+03  0.96791627077E+03  0.00000000000E+00 0. -1.
         22    1    3    3    0    0  0.44882356582E+02  0.10746503924E+02  0.15220517909E+03  0.15904819968E+03  0.00000000000E+00 0.  1.
         22    1    3    3    0    0 -0.45270000884E+02 -0.42859834174E+02  0.71431495313E+03  0.71703011835E+03  0.00000000000E+00 0.  1.
</event>
<event>
 7    1  0.5993218E-006  0.1184116E+03  0.7818608E-02  0.1403398E+00
          2   -1    0    0  502    0  0.00000000000E+00  0.00000000000E+00  0.28129156502E+03  0.28129156502E+03  0.00000000000E+00 0. -1.
          1   -1    0    0  501    0 -0.00000000000E+00 -0.00000000000E+00 -0.84452777157E+03  0.84452777157E+03  0.00000000000E+00 0. -1.
         25    2    1    2    0    0  0.63838082697E+02  0.92071581689E+02 -0.28342695737E+03  0.32940833137E+03  0.12500612648E+03 0.  0.
          2    1    1    2  501    0 -0.21918511287E+02  0.19130429445E+02 -0.52401597993E+03  0.52482296224E+03  0.00000000000E+00 0. -1.
          1    1    1    2  502    0 -0.41919571410E+02 -0.11120201113E+03  0.24420673074E+03  0.27158804298E+03  0.00000000000E+00 0. -1.
         22    1    3    3    0    0  0.86471033022E+02  0.20834556654E+02 -0.18977430387E+03  0.20958436180E+03  0.00000000000E+00 0. -1.
         22    1    3    3    0    0 -0.22632950325E+02  0.71237025035E+02 -0.93652653495E+02  0.11982396957E+03  0.00000000000E+00 0. -1.
</event>
<event>
 7    1  0.5993218E-006  0.6439593E+02  0.7818608E-02  0.1445478E+00
          2   -1    0    0  502    0  0.00000000000E+00  0.00000000000E+00  0.67973183372E+03  0.67973183372E+03  0.00000000000E+00 0. -1.
          1   -1    0    0  501    0 -0.00000000000E+00 -0.00000000000E+00 -0.90187462037E+03  0.90187462037E+03  0.00000000000E+00 0. -1.
         25    2    1    2    0    0  0.74643152488E+01  0.49783903041E+02  0.54064450492E+02  0.14519568160E+03  0.12499867257E+03 0.  0.
          2    1    1    2  501    0 -0.37944418518E+02  0.80211099758E+01 -0.85402714209E+03  0.85490729118E+03  0.00000000000E+00 0. -1.
          1    1    1    2  502    0  0.30480103269E+02 -0.57805013016E+02  0.57781990494E+03  0.58150348131E+03  0.00000000000E+00 0. -1.
         22    1    3    3    0    0  0.54413075460E+02  0.71034166372E+01 -0.91481066175E+01  0.55632087536E+02  0.00000000000E+00 0.  1.
         22    1    3    3    0    0 -0.46948760211E+02  0.42680486404E+02  0.63212557110E+02  0.89563594062E+02  0.00000000000E+00 0.  1.
</event>
<event>
 7    1  0.5993218E-006  0.3179404E+03  0.7818608E-02  0.1260282E+00
          2   -1    0    0  502    0  0.00000000000E+00  0.00000000000E+00  0.23214921052E+04  0.23214921052E+04  0.00000000000E+00 0. -1.
          1   -1    0    0  501    0 -0.00000000000E+00 -0.00000000000E+00 -0.49896382944E+03  0.49896382944E+03  0.00000000000E+00 0. -1.
         25    2    1    2    0    0 -0.30121559555E+03  0.17535398014E+03  0.23830736983E+03  0.44033556630E+03  0.12500062033E+03 0.  0.
          2    1    1    2  501    0  0.37976978701E+02 -0.37840478344E+01 -0.38454681502E+03  0.38643605276E+03  0.00000000000E+00 0. -1.
          1    1    1    2  502    0  0.26323861685E+03 -0.17156993230E+03  0.19687677209E+04  0.19936843155E+04  0.00000000000E+00 0. -1.
         22    1    3    3    0    0 -0.21132680558E+03  0.76282843857E+02  0.93949651694E+02  0.24352541567E+03  0.00000000000E+00 0.  1.
         22    1    3    3    0    0 -0.89888789963E+02  0.99071136279E+02  0.14435771813E+03  0.19681015063E+03  0.00000000000E+00 0.  1.
</event>
<event>
 7    1  0.5993218E-006  0.9475371E+02  0.7818608E-02  0.1365664E+00
          2   -1    0    0  502    0  0.00000000000E+00  0.00000000000E+00  0.28513694645E+04  0.28513694645E+04  0.00000000000E+00 0. -1.
          1   -1    0    0  501    0 -0.00000000000E+00 -0.00000000000E+00 -0.12919081736E+02  0.12919081736E+02  0.00000000000E+00 0. -1.
         25    2    1    2    0    0 -0.69151793950E+02  0.36080356274E+02  0.10039335827E+04  0.10146877641E+04  0.12499943049E+03 0.  0.
          2    1    1    2  501    0  0.59760008137E+02 -0.84536631750E+02  0.36885073452E+03  0.38310385672E+03  0.00000000000E+00 0. -1.
          1    1    1    2  502    0  0.93917858129E+01  0.48456275477E+02  0.14656660656E+04  0.14664969254E+04  0.00000000000E+00 0. -1.
         22    1    3    3    0    0 -0.96482277936E+02  0.44103938501E+02  0.56780896403E+03  0.57763397319E+03  0.00000000000E+00 0. -1.
         22    1    3    3    0    0  0.27330483986E+02 -0.80235822272E+01  0.43612461862E+03  0.43705379096E+03  0.00000000000E+00 0. -1.
</event>
<event>
 7    1  0.5993218E-006  0.8426089E+02  0.7818608E-02  0.1459319E+00
          2   -1    0    0  502    0  0.00000000000E+00  0.00000000000E+00  0.15162287832E+03  0.15162287832E+03  0.00000000000E+00 0. -1.
          1   -1    0    0  501    0 -0.00000000000E+00 -0.00000000000E+00 -0.23248213789E+03  0.23248213789E+03  0.00000000000E+00 0. -1.
         25    2    1    2    0    0  0.14070181010E+02 -0.63848244733E+02 -0.12673306971E+03  0.18963642182E+03  0.12500453261E+03 0.  0.
          2    1    1    2  501    0  0.22666522573E+02 -0.14253375650E+02 -0.55324221561E+02  0.61462992559E+02  0.00000000000E+00 0. -1.
          1    1    1    2  502    0 -0.36736703582E+02  0.78101620383E+02  0.10119803171E+03  0.13300560183E+03  0.00000000000E+00 0. -1.
         22    1    3    3    0    0 -0.27614970335E+02  0.17283022783E+02 -0.81609793638E+02  0.87871769532E+02  0.00000000000E+00 0. -1.
         22    1    3    3    0    0  0.41685151344E+02 -0.81131267517E+02 -0.45123276076E+02  0.10176465229E+03  0.00000000000E+00 0. -1.
</event>
<event>
 7    1  0.5993218E-006  0.9981450E+02  0.7818608E-02  0.1424818E+00
          2   -1    0    0  502    0  0.00000000000E+00  0.00000000000E+00  0.10846400749E+03  0.10846400749E+03  0.00000000000E+00 0. -1.
          1   -1    0    0  501    0 -0.00000000000E+00 -0.00000000000E+00 -0.11693209572E+04  0.11693209572E+04  0.00000000000E+00 0. -1.
         25    2    1    2    0    0  0.27287111523E+02  0.75689565846E+02 -0.96159252656E+02  0.17704322023E+03  0.12499681246E+03 0.  0.
          2    1    1    2  501    0 -0.72574551946E+01  0.28314556763E+02 -0.99114379674E+03  0.99157471256E+03  0.00000000000E+00 0. -1.
          1    1    1    2  502    0 -0.20029656328E+02 -0.10400412261E+03  0.26446099724E+02  0.10916703185E+03  0.00000000000E+00 0. -1.
         22    1    3    3    0    0  0.21651300209E+02  0.90098478296E+02 -0.11815126765E+03  0.15015404303E+03  0.00000000000E+00 0. -1.
         22    1    3    3    0    0  0.56358113136E+01 -0.14408912450E+02  0.21992014991E+02  0.26889177200E+02  0.00000000000E+00 0. -1.
</event>
<event>
 7    1  0.5993218E-006  0.5378520E+02  0.7818608E-02  0.1464023E+00
          2   -1    0    0  502    0  0.00000000000E+00  0.00000000000E+00  0.10449748995E+04  0.10449748995E+04  0.00000000000E+00 0. -1.
          1   -1    0    0  501    0 -0.00000000000E+00 -0.00000000000E+00 -0.22003172153E+03  0.22003172153E+03  0.00000000000E+00 0. -1.
         25    2    1    2    0    0 -0.45350830809E+02  0.46350488833E+02  0.65300756514E+03  0.66802059018E+03  0.12501025199E+03 0.  0.
          2    1    1    2  501    0  0.53392556210E+02 -0.66148135377E+01 -0.20802456534E+03  0.21486912435E+03  0.00000000000E+00 0. -1.
          1    1    1    2  502    0 -0.80417254015E+01 -0.39735675295E+02  0.37996017821E+03  0.38211690654E+03  0.00000000000E+00 0. -1.
         22    1    3    3    0    0  0.63807865319E+01 -0.31128694192E+02  0.33895778721E+03  0.34044396242E+03  0.00000000000E+00 0.  1.
         22    1    3    3    0    0 -0.51731617340E+02  0.77479183025E+02  0.31404977793E+03  0.32757662776E+03  0.00000000000E+00 0.  1.
</event>
<event>
 7    1  0.5993218E-006  0.3510255E+02  0.7818608E-02  0.1554620E+00
          2   -1    0    0  502    0  0.00000000000E+00  0.00000000000E+00  0.39057725782E+02  0.39057725782E+02  0.00000000000E+00 0. -1.
          1   -1    0    0  501    0 -0.00000000000E+00 -0.00000000000E+00 -0.47617154958E+03  0.47617154958E+03  0.00000000000E+00 0. -1.
         25    2    1    2    0    0 -0.60739586966E+02 -0.14139958507E+02 -0.22116785312E+03  0.26159109936E+03  0.12500179263E+03 0.  0.
          2    1    1    2  501    0  0.27554796576E+02  0.19257275231E+02 -0.21744444938E+03  0.22002772105E+03  0.00000000000E+00 0. -1.
          1    1    1    2  502    0  0.33184790390E+02 -0.51173167239E+01  0.14984787018E+01  0.33610454953E+02  0.00000000000E+00 0. -1.
         22    1    3    3    0    0 -0.17916760020E+01  0.42962705385E+02 -0.13882964358E+03  0.14533641696E+03  0.00000000000E+00 0.  1.
         22    1    3    3    0    0 -0.58947910964E+02 -0.57102663892E+02 -0.82338209534E+02  0.11625468240E+03  0.00000000000E+00 0.  1.
</event>
<event>
 7    1  0.5993218E-006  0.1002634E+03  0.7818608E-02  0.1320263E+00
          2   -1    0    0  502    0  0.00000000000E+00  0.00000000000E+00  0.87518504040E+03  0.87518504040E+03  0.00000000000E+00 0. -1.
          1   -1    0    0  501    0 -0.00000000000E+00 -0.00000000000E+00 -0.34412535068E+03  0.34412535068E+03  0.00000000000E+00 0. -1.
         25    2    1    2    0    0  0.89117225260E+02  0.30675785213E+02 -0.36874226676E+02  0.16083330587E+03  0.12499904019E+03 0.  0.
          2    1    1    2  501    0  0.45867808387E+01 -0.68854192440E+02 -0.23718778220E+03  0.24702223058E+03  0.00000000000E+00 0. -1.
          1    1    1    2  502    0 -0.93704006099E+02  0.38178407227E+02  0.80512169860E+03  0.81145485463E+03  0.00000000000E+00 0. -1.
         22    1    3    3    0    0  0.68453876812E+02  0.64659615026E+02  0.15121492896E+02  0.95370113837E+02  0.00000000000E+00 0.  1.
         22    1    3    3    0    0  0.20663348448E+02 -0.33983829813E+02 -0.51995719573E+02  0.65463192038E+02  0.00000000000E+00 0.  1.
</event>
<event>
 7    1  0.5993218E-006  0.1933909E+03  0.7818608E-02  0.1240708E+00
          2   -1    0    0  502    0  0.00000000000E+00  0.00000000000E+00  0.92455535000E+03  0.92455535000E+03  0.00000000000E+00 0. -1.
          1   -1    0    0  501    0 -0.00000000000E+00 -0.00000000000E+00 -0.53996646074E+03  0.53996646074E+03  0.00000000000E+00 0. -1.
         25    2    1    2    0    0  0.92625424448E+02 -0.14742912603E+03  0.48729776790E+03  0.53235265125E+03  0.12500165690E+03 0.  0.
          2    1    1    2  501    0  0.76282179841E+02 -0.35489025361E+00 -0.48386751197E+03  0.48984371594E+03  0.00000000000E+00 0. -1.
          1    1    1    2  502    0 -0.16890760429E+03  0.14778401629E+03  0.38115863333E+03  0.44232544355E+03  0.00000000000E+00 0. -1.
         22    1    3    3    0    0  0.64693166542E+02 -0.14837703776E+03  0.47499209593E+03  0.50181514757E+03  0.00000000000E+00 0. -1.
         22    1    3    3    0    0  0.27932257905E+02  0.94791173156E+00  0.12305671978E+02  0.30537503683E+02  0.00000000000E+00 0. -1.
</event>
<event>
 7    1  0.5993218E-006  0.8667713E+02  0.7818608E-02  0.1464825E+00
          2   -1    0    0  502    0  0.00000000000E+00  0.00000000000E+00  0.12664191188E+04  0.12664191188E+04  0.00000000000E+00 0. -1.
          1   -1    0    0  501    0 -0.00000000000E+00 -0.00000000000E+00 -0.19624280612E+03  0.19624280612E+03  0.00000000000E+00 0. -1.
         25    2    1    2    0    0  0.52863608991E+02  0.63460561713E+02  0.16844226503E+03  0.22543134420E+03  0.12499876101E+03 0.  0.
          2    1    1    2  501    0 -0.34196542883E+02 -0.80107614751E+02 -0.15628392161E+03  0.17891701328E+03  0.00000000000E+00 0. -1.
          1    1    1    2  502    0 -0.18667066108E+02  0.16647053038E+02  0.10580179693E+04  0.10583135675E+04  0.00000000000E+00 0. -1.
         22    1    3    3    0    0  0.52994130032E+02  0.50386039861E+02  0.19180202778E+02  0.75597691826E+02  0.00000000000E+00 0. -1.
         22    1    3    3    0    0 -0.13052104135E+00  0.13074521852E+02  0.14926206225E+03  0.14983365238E+03  0.00000000000E+00 0. -1.
</event>
<event>
 7    1  0.5993218E-006  0.9713159E+02  0.7818608E-02  0.1426114E+00
          2   -1    0    0  502    0  0.00000000000E+00  0.00000000000E+00  0.33276410227E+03  0.33276410227E+03  0.00000000000E+00 0. -1.
          1   -1    0    0  501    0 -0.00000000000E+00 -0.00000000000E+00 -0.69881058893E+03  0.69881058893E+03  0.00000000000E+00 0. -1.
         25    2    1    2    0    0  0.79506667207E+02 -0.12574280853E+02 -0.32969011446E+02  0.15228794941E+03  0.12500096460E+03 0.  0.
          2    1    1    2  501    0  0.10941307882E+02 -0.27655970910E+02 -0.59682934390E+03  0.59756993791E+03  0.00000000000E+00 0. -1.
          1    1    1    2  502    0 -0.90447975089E+02  0.40230251763E+02  0.26375186869E+03  0.28171680389E+03  0.00000000000E+00 0. -1.
         22    1    3    3    0    0  0.99294882125E+02 -0.81214270120E+01 -0.61650698478E+02  0.11715903642E+03  0.00000000000E+00 0. -1.
         22    1    3    3    0    0 -0.19788214917E+02 -0.44528538414E+01  0.28681687032E+02  0.35128912991E+02  0.00000000000E+00 0. -1.
</event>
<event>
 7    1  0.5993218E-006  0.5117226E+02  0.7818608E-02  0.1461651E+00
          2   -1    0    0  502    0  0.00000000000E+00  0.00000000000E+00  0.15555549857E+04  0.15555549857E+04  0.00000000000E+00 0. -1.
          1   -1    0    0  501    0 -0.00000000000E+00 -0.00000000000E+00 -0.24679031525E+04  0.24679031525E+04  0.00000000000E+00 0. -1.
         25    2    1    2    0    0  0.51944917241E+02 -0.38870085882E+02  0.21584605499E+03  0.25772726860E+03  0.12499867008E+03 0.  0.
          2    1    1    2  501    0 -0.10094624074E+02  0.50169935105E+02 -0.24463386366E+04  0.24468738523E+04  0.00000000000E+00 0. -1.
          1    1    1    2  502    0 -0.41850293167E+02 -0.11299849223E+02  0.13181444149E+04  0.13188570173E+04  0.00000000000E+00 0. -1.
         22    1    3    3    0    0  0.34989854445E+02 -0.12047255167E+02 -0.24974648395E+01  0.37089939361E+02  0.00000000000E+00 0. -1.
         22    1    3    3    0    0  0.16955062796E+02 -0.26822830715E+02  0.21834351983E+03  0.22063732924E+03  0.00000000000E+00 0. -1.
</event>
<event>
 7    1  0.5993218E-006  0.9033464E+02  0.7818608E-02  0.1477364E+00
          2   -1    0    0  502    0  0.00000000000E+00  0.00000000000E+00  0.18851393501E+03  0.18851393501E+03  0.00000000000E+00 0. -1.
          1   -1    0    0  501    0 -0.00000000000E+00 -0.00000000000E+00 -0.14494247772E+04  0.14494247772E+04  0.00000000000E+00 0. -1.
         25    2    1    2    0    0 -0.74106290607E+02 -0.15449511600E+02 -0.10020387923E+02  0.14647896269E+03  0.12500099448E+03 0.  0.
          2    1    1    2  501    0 -0.19645011766E+02  0.97701757388E+01 -0.13527378113E+04  0.13529157287E+04  0.00000000000E+00 0. -1.
          1    1    1    2  502    0  0.93751302373E+02  0.56793358615E+01  0.10184735708E+03  0.13854402079E+03  0.00000000000E+00 0. -1.
         22    1    3    3    0    0 -0.34120602055E+01  0.23076869270E+02 -0.51041953036E+02  0.56120094617E+02  0.00000000000E+00 0. -1.
         22    1    3    3    0    0 -0.70694230401E+02 -0.38526380870E+02  0.41021565112E+02  0.90358868072E+02  0.00000000000E+00 0. -1.
</event>
<event>
 7    1  0.5993218E-006  0.2375327E+03  0.7818608E-02  0.1260659E+00
          2   -1    0    0  502    0  0.00000000000E+00  0.00000000000E+00  0.53562603656E+03  0.53562603656E+03  0.00000000000E+00 0. -1.
          1   -1    0    0  501    0 -0.00000000000E+00 -0.00000000000E+00 -0.80750596959E+03  0.80750596959E+03  0.00000000000E+00 0. -1.
         25    2    1    2    0    0 -0.22749835820E+03  0.28247172337E+02  0.19716894795E+03  0.32719114942E+03  0.12500019396E+03 0.  0.
          2    1    1    2  501    0  0.23751504118E+03  0.21653145449E+02 -0.72072923037E+03  0.75916590874E+03  0.00000000000E+00 0. -1.
          1    1    1    2  502    0 -0.10016682973E+02 -0.49900317786E+02  0.25168034938E+03  0.25677494800E+03  0.00000000000E+00 0. -1.
         22    1    3    3    0    0 -0.69881392156E+02  0.66394872470E+02  0.96060997425E+02  0.13608601429E+03  0.00000000000E+00 0. -1.
         22    1    3    3    0    0 -0.15761696605E+03 -0.38147700133E+02  0.10110795053E+03  0.19110513513E+03  0.00000000000E+00 0. -1.
</event>
<event>
 7    1  0.5993218E-006  0.7040327E+02  0.7818608E-02  0.1395258E+00
          2   -1    0    0  502    0  0.00000000000E+00  0.00000000000E+00  0.11441147342E+04  0.11441147342E+04  0.00000000000E+00 0. -1.
          1   -1    0    0  501    0 -0.00000000000E+00 -0.00000000000E+00 -0.18656769400E+04  0.18656769400E+04  0.00000000000E+00 0. -1.
         25    2    1    2    0    0 -0.10325192275E+03 -0.50813176257E+02 -0.73049588962E+02  0.18494298742E+03  0.12499891085E+03 0.  0.
          2    1    1    2  501    0  0.68953653891E+02  0.11473067593E+02 -0.17353507797E+04  0.17367580621E+04  0.00000000000E+00 0. -1.
          1    1    1    2  502    0  0.34298268854E+02  0.39340108664E+02  0.10868381629E+04  0.10880906247E+04  0.00000000000E+00 0. -1.
         22    1    3    3    0    0 -0.39223361110E+02 -0.41506876595E+01 -0.94889179128E+02  0.10276018967E+03  0.00000000000E+00 0.  1.
         22    1    3    3    0    0 -0.64028561635E+02 -0.46662488597E+02  0.21839590166E+02  0.82182797749E+02  0.00000000000E+00 0.  1.
</event>
<event>
 7    1  0.5993218E-006  0.6609389E+02  0.7818608E-02  0.1380341E+00
          2   -1    0    0  502    0  0.00000000000E+00  0.00000000000E+00  0.12947572835E+04  0.12947572835E+04  0.00000000000E+00 0. -1.
          1   -1    0    0  501    0 -0.00000000000E+00 -0.00000000000E+00 -0.16299581058E+02  0.16299581058E+02  0.00000000000E+00 0. -1.
         25    2    1    2    0    0 -0.19531125344E+02  0.67665033182E+02  0.81820762963E+03  0.83069165764E+03  0.12499953322E+03 0.  0.
          2    1    1    2  501    0 -0.42160827126E+02 -0.56471143831E+02  0.18269033982E+03  0.19581186301E+03  0.00000000000E+00 0. -1.
          1    1    1    2  502    0  0.61691952470E+02 -0.11193889351E+02  0.27755973303E+03  0.28455334396E+03  0.00000000000E+00 0. -1.
         22    1    3    3    0    0 -0.63609667489E+02  0.20416679032E+01  0.32242298972E+03  0.32864409702E+03  0.00000000000E+00 0.  1.
         22    1    3    3    0    0  0.44078542144E+02  0.65623365279E+02  0.49578463991E+03  0.50204756062E+03  0.00000000000E+00 0.  1.
</event>
<event>
 7    1  0.5993218E-006  0.5494011E+02  0.7818608E-02  0.1442118E+00
          2   -1    0    0  502    0  0.00000000000E+00  0.00000000000E+00  0.43060918439E+03  0.43060918439E+03  0.00000000000E+00 0. -1.
          1   -1    0    0  501    0 -0.00000000000E+00 -0.00000000000E+00 -0.99458724919E+03  0.99458724919E+03  0.00000000000E+00 0. -1.
         25    2    1    2    0    0 -0.31559434499E+02 -0.92669166829E+02 -0.77541393959E+02  0.17669492823E+03  0.12499943000E+03 0.  0.
          2    1    1    2  501    0  0.28487075021E+02  0.46162872812E+02 -0.86519122921E+03  0.86689006649E+03  0.00000000000E+00 0. -1.
          1    1    1    2  502    0  0.30723594783E+01  0.46506294017E+02  0.37875455837E+03  0.38161143885E+03  0.00000000000E+00 0. -1.
         22    1    3    3    0    0  0.86615401511E+01 -0.59650548578E+02  0.22167823651E+02  0.64223224996E+02  0.00000000000E+00 0. -1.
         22    1    3    3    0    0 -0.40220974650E+02 -0.33018618251E+02 -0.99709217610E+02  0.11247170324E+03  0.00000000000E+00 0. -1.
</event>
<event>
 7    1  0.5993218E-006  0.6459260E+02  0.7818608E-02  0.1494034E+00
          2   -1    0    0  502    0  0.00000000000E+00  0.00000000000E+00  0.76196353131E+03  0.76196353131E+03  0.00000000000E+00 0. -1.
          1   -1    0    0  501    0 -0.00000000000E+00 -0.00000000000E+00 -0.55225666916E+03  0.55225666916E+03  0.00000000000E+00 0. -1.
         25    2    1    2    0    0 -0.31953758321E+02  0.78209374654E+02 -0.18077859121E+03  0.23546316616E+03  0.12499701847E+03 0.  0.
          2    1    1    2  501    0  0.23240797423E+02 -0.14325487821E+02 -0.34217634049E+03  0.34326375028E+03  0.00000000000E+00 0. -1.
          1    1    1    2  502    0  0.87129608980E+01 -0.63883886833E+02  0.73266179385E+03  0.73549328403E+03  0.00000000000E+00 0. -1.
         22    1    3    3    0    0 -0.67384277532E+02  0.15148610865E+02 -0.47505934058E+02  0.83826815759E+02  0.00000000000E+00 0.  1.
         22    1    3    3    0    0  0.35430519210E+02  0.63060763788E+02 -0.13327265715E+03  0.15163635041E+03  0.00000000000E+00 0.  1.
</event>
<event>
 7    1  0.5993218E-006  0.7855628E+02  0.7818608E-02  0.1489418E+00
          2   -1    0    0  502    0  0.00000000000E+00  0.00000000000E+00  0.14057734120E+04  0.14057734120E+04  0.00000000000E+00 0. -1.
          1   -1    0    0  501    0 -0.00000000000E+00 -0.00000000000E+00 -0.43834002397E+03  0.43834002397E+03  0.00000000000E+00 0. -1.
         25    2    1    2    0    0  0.85208410876E+02 -0.91804825974E+01  0.10289344557E+04  0.10400366426E+04  0.12500139641E+03 0.  0.
          2    1    1    2  501    0 -0.77511263128E+02 -0.12684363355E+02 -0.42885716693E+03  0.43599009004E+03  0.00000000000E+00 0. -1.
          1    1    1    2  502    0 -0.76971477477E+01  0.21864845952E+02  0.36735609924E+03  0.36808670340E+03  0.00000000000E+00 0. -1.
         22    1    3    3    0    0  0.10541860435E+03 -0.27841019023E+02  0.95404260186E+03  0.96025282642E+03  0.00000000000E+00 0. -1.
         22    1    3    3    0    0 -0.20210193469E+02  0.18660536426E+02  0.74891853886E+02  0.79783816142E+02  0.00000000000E+00 0. -1.
</event>
<event>
 7    1  0.5993218E-006  0.1532398E+03  0.7818608E-02  0.1270622E+00
          2   -1    0    0  502    0  0.00000000000E+00  0.00000000000E+00  0.21555197634E+04  0.21555197634E+04  0.00000000000E+00 0. -1.
          1   -1    0    0  501    0 -0.00000000000E+00 -0.00000000000E+00 -0.37368406614E+03  0.37368406614E+03  0.00000000000E+00 0. -1.
         25    2    1    2    0    0  0.75294203443E+02  0.12741690402E+03  0.21510197112E+03  0.28947692428E+03  0.12499498873E+03 0.  0.
          2    1    1    2  501    0 -0.13094641809E+03 -0.82371377253E+02 -0.31800059789E+03  0.35363312693E+03  0.00000000000E+00 0. -1.
          1    1    1    2  502    0  0.55652214644E+02 -0.45045526764E+02  0.18847343240E+04  0.18860937783E+04  0.00000000000E+00 0. -1.
         22    1    3    3    0    0 -0.12220849067E+02  0.82528091167E+02  0.14964851261E+03  0.17133275317E+03  0.00000000000E+00 0. -1.
         22    1    3    3    0    0  0.87515052510E+02  0.44888812851E+02  0.65453458517E+02  0.11814417111E+03  0.00000000000E+00 0. -1.
</event>
<event>
 7    1  0.5993218E-006  0.4959507E+02  0.7818608E-02  0.1461649E+00
          2   -1    0    0  502    0  0.00000000000E+00  0.00000000000E+00  0.16599019638E+04  0.16599019638E+04  0.00000000000E+00 0. -1.
          1   -1    0    0  501    0 -0.00000000000E+00 -0.00000000000E+00 -0.51659362502E+03  0.51659362502E+03  0.00000000000E+00 0. -1.
         25    2    1    2    0    0 -0.91197765324E+02  0.18937408677E+02  0.48986031986E+03  0.51406579334E+03  0.12499939626E+03 0.  0.
          2    1    1    2  501    0  0.49400181704E+02 -0.30131303158E+01 -0.50284363155E+03  0.50527336630E+03  0.00000000000E+00 0. -1.
          1    1    1    2  502    0  0.41797583620E+02 -0.15924278361E+02  0.11562916504E+04  0.11571564292E+04  0.00000000000E+00 0. -1.
         22    1    3    3    0    0 -0.10557922466E+03  0.44001334522E+02  0.28370012241E+03  0.30589025741E+03  0.00000000000E+00 0.  1.
         22    1    3    3    0    0  0.14381459334E+02 -0.25063925845E+02  0.20616019745E+03  0.20817553594E+03  0.00000000000E+00 0.  1.
</event>
<event>
 7    1  0.5993218E-006  0.7968693E+02  0.7818608E-02  0.1386415E+00
          2   -1    0    0  502    0  0.00000000000E+00  0.00000000000E+00  0.43730955422E+03  0.43730955422E+03  0.00000000000E+00 0. -1.
          1   -1    0    0  501    0 -0.00000000000E+00 -0.00000000000E+00 -0.35262859574E+03  0.35262859574E+03  0.00000000000E+00 0. -1.
         25    2    1    2    0    0 -0.42661196556E+02 -0.74625309890E+02  0.23142335064E+02  0.15346844605E+03  0.12501232616E+03 0.  0.
          2    1    1    2  501    0  0.72198403702E+02  0.34899884907E+02 -0.28005394719E+03  0.29130881346E+03  0.00000000000E+00 0. -1.
          1    1    1    2  502    0 -0.29537207147E+02  0.39725424984E+02  0.34159257061E+03  0.34516089044E+03  0.00000000000E+00 0. -1.
         22    1    3    3    0    0 -0.58962911243E+02 -0.84002186218E+02  0.55026465396E+02  0.11645129491E+03  0.00000000000E+00 0.  1.
         22    1    3    3    0    0  0.16301714688E+02  0.93768763277E+01 -0.31884130333E+02  0.37017151140E+02  0.00000000000E+00 0.  1.
</event>
<event>
 7    1  0.5993218E-006  0.8972528E+02  0.7818608E-02  0.1324974E+00
          2   -1    0    0  502    0  0.00000000000E+00  0.00000000000E+00  0.41410200838E+03  0.41410200838E+03  0.00000000000E+00 0. -1.
          1   -1    0    0  501    0 -0.00000000000E+00 -0.00000000000E+00 -0.70368272358E+03  0.70368272358E+03  0.00000000000E+00 0. -1.
         25    2    1    2    0    0 -0.37551426092E+02 -0.16361895452E+02 -0.78827018337E+02  0.15335104893E+03  0.12500009666E+03 0.  0.
          2    1    1    2  501    0  0.33448447023E+02  0.90193739154E+02 -0.57996579031E+03  0.58788946846E+03  0.00000000000E+00 0. -1.
          1    1    1    2  502    0  0.41029790690E+01 -0.73831843702E+02  0.36921209345E+03  0.37654421458E+03  0.00000000000E+00 0. -1.
         22    1    3    3    0    0 -0.67422112377E+00 -0.66349686269E+02 -0.24195954245E+02  0.70627046122E+02  0.00000000000E+00 0. -1.
         22    1    3    3    0    0 -0.36877204968E+02  0.49987790817E+02 -0.54631064093E+02  0.82724002810E+02  0.00000000000E+00 0. -1.
</event>
<event>
 7    1  0.5993218E-006  0.1008783E+03  0.7818608E-02  0.1284748E+00
          2   -1    0    0  502    0  0.00000000000E+00  0.00000000000E+00  0.60941581147E+02  0.60941581147E+02  0.00000000000E+00 0. -1.
          1   -1    0    0  501    0 -0.00000000000E+00 -0.00000000000E+00 -0.78809304524E+03  0.78809304524E+03  0.00000000000E+00 0. -1.
         25    2    1    2    0    0  0.36337473785E+02  0.45741843426E+02 -0.28553304187E+03  0.31712346193E+03  0.12500177546E+03 0.  0.
          2    1    1    2  501    0 -0.13108018073E+03 -0.38313070512E+02 -0.40938136375E+03  0.43155880960E+03  0.00000000000E+00 0. -1.
          1    1    1    2  502    0  0.94742706948E+02 -0.74287729145E+01 -0.32237058475E+02  0.10035235486E+03  0.00000000000E+00 0. -1.
         22    1    3    3    0    0  0.10973413590E+02  0.21404854652E+02 -0.28059821002E+03  0.28162730527E+03  0.00000000000E+00 0. -1.
         22    1    3    3    0    0  0.25364060194E+02  0.24336988774E+02 -0.49348318449E+01  0.35496156658E+02  0.00000000000E+00 0. -1.
</event>
<event>
 7    1  0.5993218E-006  0.5111620E+02  0.7818608E-02  0.1503732E+00
          2   -1    0    0  502    0  0.00000000000E+00  0.00000000000E+00  0.20768995881E+04  0.20768995881E+04  0.00000000000E+00 0. -1.
          1   -1    0    0  501    0 -0.00000000000E+00 -0.00000000000E+00 -0.27639760473E+02  0.27639760473E+02  0.00000000000E+00 0. -1.
         25    2    1    2    0    0 -0.54122267495E+02 -0.60989262083E+02  0.69456640571E+03  0.71041982477E+03  0.12499970222E+03 0.  0.
          2    1    1    2  501    0  0.19679772917E+02  0.25576467543E+02 -0.57497932890E+01  0.32779708311E+02  0.00000000000E+00 0. -1.
          1    1    1    2  502    0  0.34442494578E+02  0.35412794540E+02  0.13604432152E+04  0.13613398155E+04  0.00000000000E+00 0. -1.
         22    1    3    3    0    0 -0.32090642111E+02  0.30265542110E+02  0.36780224715E+03  0.37043799125E+03  0.00000000000E+00 0. -1.
         22    1    3    3    0    0 -0.22031625384E+02 -0.91254804193E+02  0.32676415856E+03  0.33998183352E+03  0.00000000000E+00 0. -1.
</event>
<event>
 7    1  0.5993218E-006  0.2660316E+03  0.7818608E-02  0.1261829E+00
          2   -1    0    0  502    0  0.00000000000E+00  0.00000000000E+00  0.40704145572E+04  0.40704145572E+04  0.00000000000E+00 0. -1.
          1   -1    0    0  501    0 -0.00000000000E+00 -0.00000000000E+00 -0.29714148341E+03  0.29714148341E+03  0.00000000000E+00 0. -1.
         25    2    1    2    0    0  0.67773636269E+02 -0.21851893385E+03  0.44655954403E+03  0.51709194804E+03  0.12499946453E+03 0.  0.
          2    1    1    2  501    0 -0.19413174787E+01 -0.44883128812E+02 -0.25477182224E+03  0.25870242630E+03  0.00000000000E+00 0. -1.
          1    1    1    2  502    0 -0.65832318790E+02  0.26340206266E+03  0.35814853520E+04  0.35917616663E+04  0.00000000000E+00 0. -1.
         22    1    3    3    0    0  0.27497435264E+02 -0.21366302423E+03  0.33401886603E+03  0.39746270232E+03  0.00000000000E+00 0. -1.
         22    1    3    3    0    0  0.40276201005E+02 -0.48559096153E+01  0.11254067801E+03  0.11962924572E+03  0.00000000000E+00 0. -1.
</event>
<event>
 7    1  0.5993218E-006  0.3442358E+03  0.7818608E-02  0.1181648E+00
          2   -1    0    0  502    0  0.00000000000E+00  0.00000000000E+00  0.22095549773E+04  0.22095549773E+04  0.00000000000E+00 0. -1.
          1   -1    0    0  501    0 -0.00000000000E+00 -0.00000000000E+00 -0.19550356259E+03  0.19550356259E+03  0.00000000000E+00 0. -1.
         25    2    1    2    0    0 -0.38281390728E+03  0.13657994343E+00  0.13893808587E+04  0.14465637760E+04  0.12498432357E+03 0.  0.
          2    1    1    2  501    0  0.78834781115E+02 -0.15999512302E+02 -0.12541669402E+03  0.14899749745E+03  0.00000000000E+00 0. -1.
          1    1    1    2  502    0  0.30397912617E+03  0.15862932358E+02  0.75008725004E+03  0.80949726648E+03  0.00000000000E+00 0. -1.
         22    1    3    3    0    0 -0.23694122203E+03 -0.48659270592E+02  0.71298547407E+03  0.75289916559E+03  0.00000000000E+00 0.  1.
         22    1    3    3    0    0 -0.14587268526E+03  0.48795850535E+02  0.67639538465E+03  0.69366461039E+03  0.00000000000E+00 0.  1.
</event>
<event>
 7    1  0.5993218E-006  0.9222085E+02  0.7818608E-02  0.1345921E+00
          2   -1    0    0  502    0  0.00000000000E+00  0.00000000000E+00  0.26631985111E+04  0.26631985111E+04  0.00000000000E+00 0. -1.
          1   -1    0    0  501    0 -0.00000000000E+00 -0.00000000000E+00 -0.18611572574E+02  0.18611572574E+02  0.00000000000E+00 0. -1.
         25    2    1    2    0    0 -0.51813133934E+02  0.36329856662E+02  0.14382410859E+04  0.14450507481E+04  0.12501913565E+03 0.  0.
          2    1    1    2  501    0 -0.59322714565E+02  0.85042863900E+01  0.62268123784E+02  0.86422373203E+02  0.00000000000E+00 0. -1.
          1    1    1    2  502    0  0.11113584850E+03 -0.44834143052E+02  0.11440777288E+04  0.11503369623E+04  0.00000000000E+00 0. -1.
         22    1    3    3    0    0 -0.48324449725E+01 -0.40349203825E+02  0.23790402857E+03  0.24134982408E+03  0.00000000000E+00 0.  1.
         22    1    3    3    0    0 -0.46980688962E+02  0.76679060486E+02  0.12003370573E+04  0.12037009241E+04  0.00000000000E+00 0.  1.
</event>
<event>
 7    1  0.5993218E-006  0.6515820E+02  0.7818608E-02  0.1496740E+00
          2   -1    0    0  502    0  0.00000000000E+00  0.00000000000E+00  0.86369846288E+03  0.86369846288E+03  0.00000000000E+00 0. -1.
          1   -1    0    0  501    0 -0.00000000000E+00 -0.00000000000E+00 -0.20469558303E+03  0.20469558303E+03  0.00000000000E+00 0. -1.
         25    2    1    2    0    0 -0.62553215229E+02  0.66258132387E+02  0.41710570624E+02  0.16021212856E+03  0.12500043837E+03 0.  0.
          2    1    1    2  501    0  0.18202874783E+02 -0.19344744141E+02 -0.14285224829E+03  0.14530082111E+03  0.00000000000E+00 0. -1.
          1    1    1    2  502    0  0.44350340446E+02 -0.46913388247E+02  0.76014455750E+03  0.76288109624E+03  0.00000000000E+00 0. -1.
         22    1    3    3    0    0 -0.70365043152E+02  0.89922743840E+02  0.60296447882E+02  0.12912397448E+03  0.00000000000E+00 0.  1.
         22    1    3    3    0    0  0.78118279231E+01 -0.23664611453E+02 -0.18585877257E+02  0.31088154081E+02  0.00000000000E+00 0.  1.
</event>
<event>
 7    1  0.5993218E-006  0.9473675E+02  0.7818608E-02  0.1370023E+00
          2   -1    0    0  502    0  0.00000000000E+00  0.00000000000E+00  0.55245926144E+03  0.55245926144E+03  0.00000000000E+00 0. -1.
          1   -1    0    0  501    0 -0.00000000000E+00 -0.00000000000E+00 -0.40667884323E+03  0.40667884323E+03  0.00000000000E+00 0. -1.
         25    2    1    2    0    0  0.81361104511E+02  0.79659367887E+02 -0.27073214139E+02  0.17123822090E+03  0.12499730059E+03 0.  0.
          2    1    1    2  501    0 -0.34349916870E+02 -0.87197292902E+02 -0.29915725758E+03  0.31349377895E+03  0.00000000000E+00 0. -1.
          1    1    1    2  502    0 -0.47011187642E+02  0.75379250152E+01  0.47201088993E+03  0.47440610482E+03  0.00000000000E+00 0. -1.
         22    1    3    3    0    0  0.67038563749E+02  0.11193256658E+03 -0.34927457211E+02  0.13506663451E+03  0.00000000000E+00 0.  1.
         22    1    3    3    0    0  0.14322540763E+02 -0.32273198695E+02  0.78542430721E+01  0.36171586392E+02  0.00000000000E+00 0.  1.
</event>
<event>
 7    1  0.5993218E-006  0.9227379E+02  0.7818608E-02  0.1434310E+00
          2   -1    0    0  502    0  0.00000000000E+00  0.00000000000E+00  0.26692564339E+04  0.26692564339E+04  0.00000000000E+00 0. -1.
          1   -1    0    0  501    0 -0.00000000000E+00 -0.00000000000E+00 -0.23713966023E+02  0.23713966023E+02  0.00000000000E+00 0. -1.
         25    2    1    2    0    0  0.77434463258E+02  0.28407721223E+02  0.81672734877E+03  0.83034507772E+03  0.12500516450E+03 0.  0.
          2    1    1    2  501    0 -0.94297685791E+02 -0.42979265546E+01  0.11598617678E+03  0.14954370239E+03  0.00000000000E+00 0. -1.
          1    1    1    2  502    0  0.16863222534E+02 -0.24109794668E+02  0.17128289424E+04  0.17130816199E+04  0.00000000000E+00 0. -1.
         22    1    3    3    0    0  0.64500671833E+02  0.56742327577E+02  0.28401671755E+03  0.29672466067E+03  0.00000000000E+00 0.  1.
         22    1    3    3    0    0  0.12933791424E+02 -0.28334606354E+02  0.53271063122E+03  0.53362041705E+03  0.00000000000E+00 0.  1.
</event>
<event>
 7    1  0.5993218E-006  0.4734518E+02  0.7818608E-02  0.1541743E+00
          2   -1    0    0  502    0  0.00000000000E+00  0.00000000000E+00  0.33762488667E+03  0.33762488667E+03  0.00000000000E+00 0. -1.
          1   -1    0    0  501    0 -0.00000000000E+00 -0.00000000000E+00 -0.14387047302E+04  0.14387047302E+04  0.00000000000E+00 0. -1.
         25    2    1    2    0    0  0.84459168084E+01  0.55061502308E+02 -0.10736668402E+03  0.17394505728E+03  0.12500470218E+03 0.  0.
          2    1    1    2  501    0 -0.24852770255E+02 -0.10670559317E+02 -0.12960670573E+04  0.12963492346E+04  0.00000000000E+00 0. -1.
          1    1    1    2  502    0  0.16406853447E+02 -0.44390942990E+02  0.30235389776E+03  0.30603532501E+03  0.00000000000E+00 0. -1.
         22    1    3    3    0    0  0.54446167629E+02 -0.10164460343E+02 -0.57477241633E+02  0.79820640998E+02  0.00000000000E+00 0. -1.
         22    1    3    3    0    0 -0.46000250820E+02  0.65225962650E+02 -0.49889442382E+02  0.94124416282E+02  0.00000000000E+00 0. -1.
</event>
<event>
 7    1  0.5993218E-006  0.4786271E+02  0.7818608E-02  0.1484622E+00
          2   -1    0    0  502    0  0.00000000000E+00  0.00000000000E+00  0.45330869844E+03  0.45330869844E+03  0.00000000000E+00 0. -1.
          1   -1    0    0  501    0 -0.00000000000E+00 -0.00000000000E+00 -0.16758007860E+03  0.16758007860E+03  0.00000000000E+00 0. -1.
         25    2    1    2    0    0 -0.24041860541E+02 -0.73217401448E+01  0.28024483956E+03  0.30788781213E+03  0.12500446322E+03 0.  0.
          2    1    1    2  501    0 -0.31813088804E+02  0.23147534940E+02 -0.14577147858E+03  0.15098743312E+03  0.00000000000E+00 0. -1.
          1    1    1    2  502    0  0.55854949345E+02 -0.15825794795E+02  0.15125525886E+03  0.16201353178E+03  0.00000000000E+00 0. -1.
         22    1    3    3    0    0 -0.20499439675E+02  0.51899488901E+02  0.70484827494E+02  0.89899359743E+02  0.00000000000E+00 0. -1.
         22    1    3    3    0    0 -0.35424208655E+01 -0.59221229046E+02  0.20976001206E+03  0.21798845239E+03  0.00000000000E+00 0. -1.
</event>
<event>
 7    1  0.5993218E-006  0.3985279E+02  0.7818608E-02  0.1557667E+00
          2   -1    0    0  502    0  0.00000000000E+00  0.00000000000E+00  0.16765475655E+03  0.16765475655E+03  0.00000000000E+00 0. -1.
          1   -1    0    0  501    0 -0.00000000000E+00 -0.00000000000E+00 -0.35841065415E+03  0.35841065415E+03  0.00000000000E+00 0. -1.
         25    2    1    2    0    0  0.44728430414E+02  0.48053106962E+02  0.62555635047E+02  0.15442691964E+03  0.12499892983E+03 0.  0.
          2    1    1    2  501    0 -0.33291767407E+02 -0.21396719710E+02 -0.30757415700E+03  0.31010969583E+03  0.00000000000E+00 0. -1.
          1    1    1    2  502    0 -0.11436663006E+02 -0.26656387252E+02  0.54262624347E+02  0.61528795235E+02  0.00000000000E+00 0. -1.
         22    1    3    3    0    0  0.13290490985E+01 -0.40984490648E+02  0.27416942467E+02  0.49327310685E+02  0.00000000000E+00 0. -1.
         22    1    3    3    0    0  0.43399381315E+02  0.89037597610E+02  0.35138692579E+02  0.10509960896E+03  0.00000000000E+00 0. -1.
</event>
<event>
 7    1  0.5993218E-006  0.7041784E+02  0.7818608E-02  0.1489522E+00
          2   -1    0    0  502    0  0.00000000000E+00  0.00000000000E+00  0.22987633079E+03  0.22987633079E+03  0.00000000000E+00 0. -1.
          1   -1    0    0  501    0 -0.00000000000E+00 -0.00000000000E+00 -0.87069021993E+03  0.87069021993E+03  0.00000000000E+00 0. -1.
         25    2    1    2    0    0  0.55628406728E+02  0.65994066361E+02  0.19083963116E+02  0.15310047471E+03  0.12500328507E+03 0.  0.
          2    1    1    2  501    0  0.16962386650E+00 -0.25839720033E+02 -0.79524328042E+03  0.79566299082E+03  0.00000000000E+00 0. -1.
          1    1    1    2  502    0 -0.55798030594E+02 -0.40154346329E+02  0.13534542817E+03  0.15180308519E+03  0.00000000000E+00 0. -1.
         22    1    3    3    0    0 -0.19722995146E+02  0.56704079433E+02  0.42606205957E+02  0.73618190333E+02  0.00000000000E+00 0.  1.
         22    1    3    3    0    0  0.75351401873E+02  0.92899869283E+01 -0.23522242842E+02  0.79482284377E+02  0.00000000000E+00 0.  1.
</event>
<event>
 7    1  0.5993218E-006  0.6618746E+02  0.7818608E-02  0.1459481E+00
          2   -1    0    0  502    0  0.00000000000E+00  0.00000000000E+00  0.41629048018E+03  0.41629048018E+03  0.00000000000E+00 0. -1.
          1   -1    0    0  501    0 -0.00000000000E+00 -0.00000000000E+00 -0.20684359361E+04  0.20684359361E+04  0.00000000000E+00 0. -1.
         25    2    1    2    0    0  0.65181156695E+02  0.60484793502E+01 -0.69805912331E+02  0.15742737928E+03  0.12500138823E+03 0.  0.
          2    1    1    2  501    0 -0.54155513467E+02 -0.38260728393E+02 -0.19534775744E+04  0.19546026032E+04  0.00000000000E+00 0. -1.
          1    1    1    2  502    0 -0.11025643229E+02  0.32212249043E+02  0.37113803083E+03  0.37269643374E+03  0.00000000000E+00 0. -1.
         22    1    3    3    0    0  0.61144376569E+02  0.16204864981E+02 -0.10389100660E+03  0.12163294655E+03  0.00000000000E+00 0.  1.
         22    1    3    3    0    0  0.40367801265E+01 -0.10156385631E+02  0.34085094267E+02  0.35794432724E+02  0.00000000000E+00 0.  1.
</event>
<event>
 7    1  0.5993218E-006  0.6422685E+02  0.7818608E-02  0.1467268E+00
          2   -1    0    0  502    0  0.00000000000E+00  0.00000000000E+00  0.32389662784E+04  0.32389662784E+04  0.00000000000E+00 0. -1.
          1   -1    0    0  501    0 -0.00000000000E+00 -0.00000000000E+00 -0.42049224106E+03  0.42049224106E+03  0.00000000000E+00 0. -1.
         25    2    1    2    0    0  0.29099997697E+02 -0.48851819238E+02  0.33399734980E+03  0.36112899181E+03  0.12500643561E+03 0.  0.
          2    1    1    2  501    0  0.27767614513E+02  0.18136252954E+02 -0.40588877032E+03  0.40724152288E+03  0.00000000000E+00 0. -1.
          1    1    1    2  502    0 -0.56867612210E+02  0.30715566284E+02  0.28903654578E+04  0.28910880048E+04  0.00000000000E+00 0. -1.
         22    1    3    3    0    0  0.35195579663E+02  0.23911811731E+02  0.40707697812E+02  0.58886502946E+02  0.00000000000E+00 0. -1.
         22    1    3    3    0    0 -0.60955819657E+01 -0.72763630969E+02  0.29328965199E+03  0.30224248886E+03  0.00000000000E+00 0. -1.
</event>
<event>
 7    1  0.5993218E-006  0.8191627E+02  0.7818608E-02  0.1374442E+00
          2   -1    0    0  502    0  0.00000000000E+00  0.00000000000E+00  0.59548151161E+03  0.59548151161E+03  0.00000000000E+00 0. -1.
          1   -1    0    0  501    0 -0.00000000000E+00 -0.00000000000E+00 -0.36787136357E+04  0.36787136357E+04  0.00000000000E+00 0. -1.
         25    2    1    2    0    0 -0.64192584408E+02 -0.51144653843E+02  0.23232101725E+03  0.27628520119E+03  0.12499597526E+03 0.  0.
          2    1    1    2  501    0  0.42877335290E+02 -0.31309314677E+02 -0.36512208804E+04  0.36516068595E+04  0.00000000000E+00 0. -1.
          1    1    1    2  502    0  0.21315249118E+02  0.82453968520E+02  0.33566773904E+03  0.34630308662E+03  0.00000000000E+00 0. -1.
         22    1    3    3    0    0 -0.61231440858E+02  0.13389865250E+02  0.42387343912E+02  0.75665479347E+02  0.00000000000E+00 0. -1.
         22    1    3    3    0    0 -0.29611435496E+01 -0.64534519093E+02  0.18993367334E+03  0.20061972184E+03  0.00000000000E+00 0. -1.
</event>
<event>
 7    1  0.5993218E-006  0.5864128E+02  0.7818608E-02  0.1519415E+00
          2   -1    0    0  502    0  0.00000000000E+00  0.00000000000E+00  0.14010345751E+04  0.14010345751E+04  0.00000000000E+00 0. -1.
          1   -1    0    0  501    0 -0.00000000000E+00 -0.00000000000E+00 -0.17484835181E+03  0.17484835181E+03  0.00000000000E+00 0. -1.
         25    2    1    2    0    0  0.98678963342E+01  0.62685017544E+02  0.58121878547E+03  0.59788530842E+03  0.12499911456E+03 0.  0.
          2    1    1    2  501    0 -0.31456330773E+02 -0.49494509435E+02 -0.16114697277E+03  0.17148630861E+03  0.00000000000E+00 0. -1.
          1    1    1    2  502    0  0.21588434439E+02 -0.13190508109E+02  0.80611441063E+03  0.80651130992E+03  0.00000000000E+00 0. -1.
         22    1    3    3    0    0 -0.36768481267E+02  0.43179906635E+01  0.40222892361E+03  0.40392904482E+03  0.00000000000E+00 0.  1.
         22    1    3    3    0    0  0.46636377601E+02  0.58367026881E+02  0.17898986186E+03  0.19395626360E+03  0.00000000000E+00 0.  1.
</event>
<event>
 7    1  0.5993218E-006  0.6500128E+02  0.7818608E-02  0.1473983E+00
          2   -1    0    0  502    0  0.00000000000E+00  0.00000000000E+00  0.97836727349E+03  0.97836727349E+03  0.00000000000E+00 0. -1.
          1   -1    0    0  501    0 -0.00000000000E+00 -0.00000000000E+00 -0.24767273313E+03  0.24767273313E+03  0.00000000000E+00 0. -1.
         25    2    1    2    0    0 -0.61384654016E+02 -0.32797843804E+01 -0.49275858853E+02  0.14775532268E+03  0.12499876952E+03 0.  0.
          2    1    1    2  501    0  0.58164621822E+01 -0.30686574556E+02 -0.14636620103E+03  0.14966149102E+03  0.00000000000E+00 0. -1.
          1    1    1    2  502    0  0.55568191834E+02  0.33966358936E+02  0.92633660025E+03  0.92862319293E+03  0.00000000000E+00 0. -1.
         22    1    3    3    0    0 -0.51070551353E+02 -0.91010731768E+01  0.35047191642E+02  0.62604603589E+02  0.00000000000E+00 0. -1.
         22    1    3    3    0    0 -0.10314102663E+02  0.58212887964E+01 -0.84323050496E+02  0.85150719092E+02  0.00000000000E+00 0. -1.
</event>
<event>
 7    1  0.5993218E-006  0.2263111E+03  0.7818608E-02  0.1212814E+00
          2   -1    0    0  502    0  0.00000000000E+00  0.00000000000E+00  0.12036566398E+04  0.12036566398E+04  0.00000000000E+00 0. -1.
          1   -1    0    0  501    0 -0.00000000000E+00 -0.00000000000E+00 -0.77687345672E+03  0.77687345672E+03  0.00000000000E+00 0. -1.
         25    2    1    2    0    0  0.13138548511E+03 -0.13795401315E+03  0.56291338561E+02  0.23471166300E+03  0.12500957767E+03 0.  0.
          2    1    1    2  501    0 -0.40936945560E+02 -0.76858791169E+02 -0.67198476049E+03  0.67760359033E+03  0.00000000000E+00 0. -1.
          1    1    1    2  502    0 -0.90448539551E+02  0.21481280432E+03  0.10424766050E+04  0.10682148432E+04  0.00000000000E+00 0. -1.
         22    1    3    3    0    0  0.12921981162E+03 -0.14469891376E+03  0.16950287034E+02  0.19473789459E+03  0.00000000000E+00 0.  1.
         22    1    3    3    0    0  0.21656734956E+01  0.67449006133E+01  0.39341051527E+02  0.39973768414E+02  0.00000000000E+00 0.  1.
</event>
<event>
 7    1  0.5993218E-006  0.6858542E+02  0.7818608E-02  0.1436737E+00
          2   -1    0    0  502    0  0.00000000000E+00  0.00000000000E+00  0.66772493421E+03  0.66772493421E+03  0.00000000000E+00 0. -1.
          1   -1    0    0  501    0 -0.00000000000E+00 -0.00000000000E+00 -0.43670608044E+03  0.43670608044E+03  0.00000000000E+00 0. -1.
         25    2    1    2    0    0  0.19479012160E+02 -0.82752875359E+02 -0.50877447603E+02  0.15950910971E+03  0.12500868414E+03 0.  0.
          2    1    1    2  501    0 -0.43595080361E+02  0.52271115444E+02 -0.32739334113E+03  0.33439378038E+03  0.00000000000E+00 0. -1.
          1    1    1    2  502    0  0.24116068201E+02  0.30481759914E+02  0.60928964250E+03  0.61052812457E+03  0.00000000000E+00 0. -1.
         22    1    3    3    0    0 -0.11631563279E+02 -0.18789913566E+02  0.39039997820E+02  0.44860623557E+02  0.00000000000E+00 0. -1.
         22    1    3    3    0    0  0.31110575439E+02 -0.63962961793E+02 -0.89917445423E+02  0.11464848615E+03  0.00000000000E+00 0. -1.
</event>
<event>
 7    1  0.5993218E-006  0.1670447E+03  0.7818608E-02  0.1250256E+00
          2   -1    0    0  502    0  0.00000000000E+00  0.00000000000E+00  0.57769685558E+03  0.57769685558E+03  0.00000000000E+00 0. -1.
          1   -1    0    0  501    0 -0.00000000000E+00 -0.00000000000E+00 -0.11329689649E+04  0.11329689649E+04  0.00000000000E+00 0. -1.
         25    2    1    2    0    0 -0.65118380255E+02  0.20141948944E+03  0.36275730205E+03  0.43821037341E+03  0.12500102798E+03 0.  0.
          2    1    1    2  501    0  0.10312454249E+03 -0.13076957939E+03 -0.10794379480E+04  0.10922095210E+04  0.00000000000E+00 0. -1.
          1    1    1    2  502    0 -0.38006162238E+02 -0.70649910052E+02  0.16140853665E+03  0.18024592606E+03  0.00000000000E+00 0. -1.
         22    1    3    3    0    0  0.20426559212E+00  0.70912412216E+02  0.23083084690E+03  0.24147772529E+03  0.00000000000E+00 0. -1.
         22    1    3    3    0    0 -0.65322645848E+02  0.13050707722E+03  0.13192645515E+03  0.19673264812E+03  0.00000000000E+00 0. -1.
</event>
<event>
 7    1  0.5993218E-006  0.9176984E+02  0.7818608E-02  0.1326940E+00
          2   -1    0    0  502    0  0.00000000000E+00  0.00000000000E+00  0.50911540828E+03  0.50911540828E+03  0.00000000000E+00 0. -1.
          1   -1    0    0  501    0 -0.00000000000E+00 -0.00000000000E+00 -0.77824618332E+03  0.77824618332E+03  0.00000000000E+00 0. -1.
         25    2    1    2    0    0 -0.35664876174E+01  0.25442302123E+02 -0.60548675622E+02  0.14124853867E+03  0.12499990795E+03 0.  0.
          2    1    1    2  501    0 -0.38400551864E+02  0.59780305232E+02 -0.67063888038E+03  0.67439216718E+03  0.00000000000E+00 0. -1.
          1    1    1    2  502    0  0.41967039482E+02 -0.85222607355E+02  0.46205678097E+03  0.47172088574E+03  0.00000000000E+00 0. -1.
         22    1    3    3    0    0 -0.59657842287E+02  0.24611778116E+02 -0.91799059943E+01  0.65184878940E+02  0.00000000000E+00 0.  1.
         22    1    3    3    0    0  0.56091354670E+02  0.83052400674E+00 -0.51368769628E+02  0.76063659732E+02  0.00000000000E+00 0.  1.
</event>
<event>
 7    1  0.5993218E-006  0.6985188E+02  0.7818608E-02  0.1414456E+00
          2   -1    0    0  502    0  0.00000000000E+00  0.00000000000E+00  0.34069348489E+03  0.34069348489E+03  0.00000000000E+00 0. -1.
          1   -1    0    0  501    0 -0.00000000000E+00 -0.00000000000E+00 -0.43360716920E+03  0.43360716920E+03  0.00000000000E+00 0. -1.
         25    2    1    2    0    0  0.64012562022E+02 -0.42592269668E+01 -0.16957689457E+03  0.22022016345E+03  0.12499939243E+03 0.  0.
          2    1    1    2  501    0 -0.55336192779E+02  0.48653803712E+02 -0.23133089931E+03  0.24278235484E+03  0.00000000000E+00 0. -1.
          1    1    1    2  502    0 -0.86763692432E+01 -0.44394576745E+02  0.30799410956E+03  0.31129813580E+03  0.00000000000E+00 0. -1.
         22    1    3    3    0    0  0.26194098824E+02 -0.58992105984E+02 -0.12332325912E+03  0.13919348268E+03  0.00000000000E+00 0.  1.
         22    1    3    3    0    0  0.37818463198E+02  0.54732879017E+02 -0.46253635446E+02  0.81026680767E+02  0.00000000000E+00 0.  1.
</event>
<event>
 7    1  0.5993218E-006  0.1096468E+03  0.7818608E-02  0.1424081E+00
          2   -1    0    0  502    0  0.00000000000E+00  0.00000000000E+00  0.16199977445E+04  0.16199977445E+04  0.00000000000E+00 0. -1.
          1   -1    0    0  501    0 -0.00000000000E+00 -0.00000000000E+00 -0.14522684467E+04  0.14522684467E+04  0.00000000000E+00 0. -1.
         25    2    1    2    0    0  0.82271466619E+02  0.26685606931E+02  0.50603308183E+03  0.52837071667E+03  0.12500167396E+03 0.  0.
          2    1    1    2  501    0 -0.10801691362E+03 -0.19390589568E+02 -0.14388474445E+04  0.14430265477E+04  0.00000000000E+00 0. -1.
          1    1    1    2  502    0  0.25745447005E+02 -0.72950173624E+01  0.11005436606E+04  0.11008689269E+04  0.00000000000E+00 0. -1.
         22    1    3    3    0    0  0.10380960655E+03  0.17815479194E+02  0.48708839949E+03  0.49834619957E+03  0.00000000000E+00 0.  1.
         22    1    3    3    0    0 -0.21538139935E+02  0.88701277372E+01  0.18944682339E+02  0.30024517096E+02  0.00000000000E+00 0.  1.
</event>
<event>
 7    1  0.5993218E-006  0.9864782E+02  0.7818608E-02  0.1326552E+00
          2   -1    0    0  502    0  0.00000000000E+00  0.00000000000E+00  0.23669902125E+04  0.23669902125E+04  0.00000000000E+00 0. -1.
          1   -1    0    0  501    0 -0.00000000000E+00 -0.00000000000E+00 -0.32466247839E+03  0.32466247839E+03  0.00000000000E+00 0. -1.
         25    2    1    2    0    0 -0.27952964461E+02  0.23413403171E+02 -0.81226963013E+02  0.15346733397E+03  0.12499938962E+03 0.  0.
          2    1    1    2  501    0 -0.65627174838E+02  0.95905715662E+01 -0.20092498081E+03  0.21158864113E+03  0.00000000000E+00 0. -1.
          1    1    1    2  502    0  0.93580139299E+02 -0.33003974737E+02  0.23244796779E+04  0.23265967158E+04  0.00000000000E+00 0. -1.
         22    1    3    3    0    0  0.38911420038E+02  0.29681495804E+02 -0.69948853380E+02  0.85369384979E+02  0.00000000000E+00 0.  1.
         22    1    3    3    0    0 -0.66864384498E+02 -0.62680926330E+01 -0.11278109633E+02  0.68097948989E+02  0.00000000000E+00 0.  1.
</event>
<event>
 7    1  0.5993218E-006  0.9624721E+02  0.7818608E-02  0.1365754E+00
          2   -1    0    0  502    0  0.00000000000E+00  0.00000000000E+00  0.25249607556E+03  0.25249607556E+03  0.00000000000E+00 0. -1.
          1   -1    0    0  501    0 -0.00000000000E+00 -0.00000000000E+00 -0.97291479612E+02  0.97291479612E+02  0.00000000000E+00 0. -1.
         25    2    1    2    0    0 -0.69371956607E+02  0.26900883232E+02  0.47869438656E+02  0.15314736185E+03  0.12500602146E+03 0.  0.
          2    1    1    2  501    0 -0.38536564839E+02 -0.29539263226E+02  0.66107790542E+01  0.49003441729E+02  0.00000000000E+00 0. -1.
          1    1    1    2  502    0  0.10790852145E+03  0.26383799941E+01  0.10072437824E+03  0.14763675160E+03  0.00000000000E+00 0. -1.
         22    1    3    3    0    0 -0.19560411500E+02  0.39292269734E+01 -0.42774320003E+02  0.47198421313E+02  0.00000000000E+00 0. -1.
         22    1    3    3    0    0 -0.49811545107E+02  0.22971656258E+02  0.90643758659E+02  0.10594894054E+03  0.00000000000E+00 0. -1.
</event>
<event>
 7    1  0.5993218E-006  0.6101143E+02  0.7818608E-02  0.1447931E+00
          2   -1    0    0  502    0  0.00000000000E+00  0.00000000000E+00  0.15849708331E+04  0.15849708331E+04  0.00000000000E+00 0. -1.
          1   -1    0    0  501    0 -0.00000000000E+00 -0.00000000000E+00 -0.20958846301E+03  0.20958846301E+03  0.00000000000E+00 0. -1.
         25    2    1    2    0    0  0.64186342159E+02 -0.76602585724E+02  0.84464955224E+02  0.18096193287E+03  0.12500019932E+03 0.  0.
          2    1    1    2  501    0 -0.30176517608E+02  0.26556503141E+02 -0.15819494320E+03  0.16322227216E+03  0.00000000000E+00 0. -1.
          1    1    1    2  502    0 -0.34009824551E+02  0.50046082583E+02  0.14491123580E+04  0.14503750910E+04  0.00000000000E+00 0. -1.
         22    1    3    3    0    0 -0.32444168193E+02 -0.40059910349E+02  0.50624351354E+02  0.72251265850E+02  0.00000000000E+00 0. -1.
         22    1    3    3    0    0  0.96630510352E+02 -0.36542675375E+02  0.33840603870E+02  0.10871066702E+03  0.00000000000E+00 0. -1.
</event>
<event>
 7    1  0.5993218E-006  0.1238647E+03  0.7818608E-02  0.1346267E+00
          2   -1    0    0  502    0  0.00000000000E+00  0.00000000000E+00  0.15105085799E+04  0.15105085799E+04  0.00000000000E+00 0. -1.
          1   -1    0    0  501    0 -0.00000000000E+00 -0.00000000000E+00 -0.88117709533E+03  0.88117709533E+03  0.00000000000E+00 0. -1.
         25    2    1    2    0    0  0.83578483851E+02 -0.12281863735E+03 -0.44678430090E+03  0.48714624673E+03  0.12500189412E+03 0.  0.
          2    1    1    2  501    0 -0.84271875286E+02  0.78337105404E+02 -0.40588145251E+03  0.42187463131E+03  0.00000000000E+00 0. -1.
          1    1    1    2  502    0  0.69339143539E+00  0.44481531944E+02  0.14819972380E+04  0.14826647972E+04  0.00000000000E+00 0. -1.
         22    1    3    3    0    0 -0.27155838385E+02 -0.35623912378E+02 -0.55933335366E+02  0.71659198270E+02  0.00000000000E+00 0. -1.
         22    1    3    3    0    0  0.11073432224E+03 -0.87194724970E+02 -0.39085096553E+03  0.41548704846E+03  0.00000000000E+00 0. -1.
</event>
<event>
 7    1  0.5993218E-006  0.8343220E+02  0.7818608E-02  0.1325668E+00
          2   -1    0    0  502    0  0.00000000000E+00  0.00000000000E+00  0.58132590101E+03  0.58132590101E+03  0.00000000000E+00 0. -1.
          1   -1    0    0  501    0 -0.00000000000E+00 -0.00000000000E+00 -0.32622092126E+03  0.32622092126E+03  0.00000000000E+00 0. -1.
         25    2    1    2    0    0 -0.14161717628E+02 -0.16714179931E+02  0.43244967960E+02  0.13407101137E+03  0.12499996312E+03 0.  0.
          2    1    1    2  501    0 -0.75436340122E+02  0.23580521426E+02 -0.27101817084E+03  0.28230751199E+03  0.00000000000E+00 0. -1.
          1    1    1    2  502    0  0.89598057751E+02 -0.68663414952E+01  0.48287818263E+03  0.49116829891E+03  0.00000000000E+00 0. -1.
         22    1    3    3    0    0 -0.35818289173E+02  0.47227243583E+02  0.17286395961E+02  0.61742868908E+02  0.00000000000E+00 0. -1.
         22    1    3    3    0    0  0.21656571544E+02 -0.63941423514E+02  0.25958571999E+02  0.72328142464E+02  0.00000000000E+00 0. -1.
</event>
<event>
 7    1  0.5993218E-006  0.5997437E+02  0.7818608E-02  0.1440915E+00
          2   -1    0    0  502    0  0.00000000000E+00  0.00000000000E+00  0.33164560637E+02  0.33164560637E+02  0.00000000000E+00 0. -1.
          1   -1    0    0  501    0 -0.00000000000E+00 -0.00000000000E+00 -0.28217068530E+04  0.28217068530E+04  0.00000000000E+00 0. -1.
         25    2    1    2    0    0 -0.76665987117E+02  0.57548169203E+02 -0.41610656115E+03  0.44492652087E+03  0.12500189353E+03 0.  0.
          2    1    1    2  501    0  0.24569440864E+02 -0.35386805018E+02 -0.23478125113E+04  0.23482077147E+04  0.00000000000E+00 0. -1.
          1    1    1    2  502    0  0.52096546253E+02 -0.22161364185E+02 -0.24623219965E+02  0.61737178065E+02  0.00000000000E+00 0. -1.
         22    1    3    3    0    0 -0.93677244327E+02  0.38649258277E+01 -0.18946937016E+03  0.21139774357E+03  0.00000000000E+00 0. -1.
         22    1    3    3    0    0  0.17011257210E+02  0.53683243375E+02 -0.22663719099E+03  0.23352877730E+03  0.00000000000E+00 0. -1.
</event>
<event>
 7    1  0.5993218E-006  0.2667499E+03  0.7818608E-02  0.1246851E+00
          2   -1    0    0  502    0  0.00000000000E+00  0.00000000000E+00  0.14394756071E+04  0.14394756071E+04  0.00000000000E+00 0. -1.
          1   -1    0    0  501    0 -0.00000000000E+00 -0.00000000000E+00 -0.14471194533E+04  0.14471194533E+04  0.00000000000E+00 0. -1.
         25    2    1    2    0    0  0.71491498968E+02  0.29587643408E+03 -0.85909052864E+03  0.91995400865E+03  0.12499977183E+03 0.  0.
          2    1    1    2  501    0 -0.41482324297E+02 -0.31323152406E+02 -0.54376921837E+03  0.54624800773E+03  0.00000000000E+00 0. -1.
          1    1    1    2  502    0 -0.30009174671E+02 -0.26455328167E+03  0.13952159008E+04  0.14203930440E+04  0.00000000000E+00 0. -1.
         22    1    3    3    0    0  0.10766941362E+03  0.22726049365E+03 -0.65995974227E+03  0.70624846621E+03  0.00000000000E+00 0. -1.
         22    1    3    3    0    0 -0.36177914648E+02  0.68615940427E+02 -0.19913078637E+03  0.21370554244E+03  0.00000000000E+00 0. -1.
</event>
<event>
 7    1  0.5993218E-006  0.1258727E+03  0.7818608E-02  0.1266467E+00
          2   -1    0    0  502    0  0.00000000000E+00  0.00000000000E+00  0.12697635826E+04  0.12697635826E+04  0.00000000000E+00 0. -1.
          1   -1    0    0  501    0 -0.00000000000E+00 -0.00000000000E+00 -0.45844839114E+03  0.45844839114E+03  0.00000000000E+00 0. -1.
         25    2    1    2    0    0 -0.41122493632E+02 -0.49145304984E+02  0.19536673636E+02  0.14182041155E+03  0.12500010813E+03 0.  0.
          2    1    1    2  501    0  0.13817761570E+02  0.13568653137E+03 -0.38380120925E+03  0.40731453884E+03  0.00000000000E+00 0. -1.
          1    1    1    2  502    0  0.27304732062E+02 -0.86541226385E+02  0.11755797271E+04  0.11790770234E+04  0.00000000000E+00 0. -1.
         22    1    3    3    0    0  0.31635344263E+00  0.20523605492E+02  0.50915823406E+02  0.54897536693E+02  0.00000000000E+00 0. -1.
         22    1    3    3    0    0 -0.41438847075E+02 -0.69668910476E+02 -0.31379149770E+02  0.86922874861E+02  0.00000000000E+00 0. -1.
</event>
<event>
 7    1  0.5993218E-006  0.1145220E+03  0.7818608E-02  0.1268525E+00
          2   -1    0    0  502    0  0.00000000000E+00  0.00000000000E+00  0.23666135829E+03  0.23666135829E+03  0.00000000000E+00 0. -1.
          1   -1    0    0  501    0 -0.00000000000E+00 -0.00000000000E+00 -0.23378500900E+04  0.23378500900E+04  0.00000000000E+00 0. -1.
         25    2    1    2    0    0 -0.84193172207E+02  0.45658205803E+02 -0.18669827110E+03  0.24424353450E+03  0.12500199083E+03 0.  0.
          2    1    1    2  501    0  0.66294596274E+02  0.71856784344E+02 -0.21041584396E+04  0.21064285200E+04  0.00000000000E+00 0. -1.
          1    1    1    2  502    0  0.17898575934E+02 -0.11751499015E+03  0.18966797902E+03  0.22383939376E+03  0.00000000000E+00 0. -1.
         22    1    3    3    0    0 -0.21380159047E+02  0.82100258741E+02 -0.98720988705E+02  0.13016680567E+03  0.00000000000E+00 0.  1.
         22    1    3    3    0    0 -0.62813013161E+02 -0.36442052938E+02 -0.87977282396E+02  0.11407672884E+03  0.00000000000E+00 0.  1.
</event>
<event>
 7    1  0.5993218E-006  0.7267953E+02  0.7818608E-02  0.1481132E+00
          2   -1    0    0  502    0  0.00000000000E+00  0.00000000000E+00  0.15303769784E+04  0.15303769784E+04  0.00000000000E+00 0. -1.
          1   -1    0    0  501    0 -0.00000000000E+00 -0.00000000000E+00 -0.23253402911E+03  0.23253402911E+03  0.00000000000E+00 0. -1.
         25    2    1    2    0    0  0.76283968837E+02  0.16516365384E+02 -0.13042396965E+02  0.14794308212E+03  0.12500006880E+03 0.  0.
          2    1    1    2  501    0 -0.61433940174E+02 -0.38528858956E+02 -0.14326651619E+03  0.16057364864E+03  0.00000000000E+00 0. -1.
          1    1    1    2  502    0 -0.14850028663E+02  0.22012493572E+02  0.14541518624E+04  0.14543942767E+04  0.00000000000E+00 0. -1.
         22    1    3    3    0    0 -0.32038366761E+02 -0.95651457202E+01  0.84133408937E+01  0.34478011288E+02  0.00000000000E+00 0.  1.
         22    1    3    3    0    0  0.10832233560E+03  0.26081511104E+02 -0.21455737859E+02  0.11346507083E+03  0.00000000000E+00 0.  1.
</event>
<event>
 7    1  0.5993218E-006  0.7577878E+02  0.7818608E-02  0.1441211E+00
          2   -1    0    0  502    0  0.00000000000E+00  0.00000000000E+00  0.69699308803E+03  0.69699308803E+03  0.00000000000E+00 0. -1.
          1   -1    0    0  501    0 -0.00000000000E+00 -0.00000000000E+00 -0.21464720985E+03  0.21464720985E+03  0.00000000000E+00 0. -1.
         25    2    1    2    0    0 -0.39789893224E+02  0.27359949948E+02  0.27521495146E+03  0.30610540480E+03  0.12500178751E+03 0.  0.
          2    1    1    2  501    0  0.46638568824E+02 -0.60683574742E+02 -0.19109847187E+03  0.20585499337E+03  0.00000000000E+00 0. -1.
          1    1    1    2  502    0 -0.68486756000E+01  0.33323624794E+02  0.39822939859E+03  0.39967989970E+03  0.00000000000E+00 0. -1.
         22    1    3    3    0    0  0.30924496197E+02 -0.24984445699E+02  0.47239046881E+02  0.61741999823E+02  0.00000000000E+00 0. -1.
         22    1    3    3    0    0 -0.70714389421E+02  0.52344395647E+02  0.22797590457E+03  0.24436340498E+03  0.00000000000E+00 0. -1.
</event>
<event>
 7    1  0.5993218E-006  0.3778251E+03  0.7818608E-02  0.1190258E+00
          2   -1    0    0  502    0  0.00000000000E+00  0.00000000000E+00  0.11780172651E+04  0.11780172651E+04  0.00000000000E+00 0. -1.
          1   -1    0    0  501    0 -0.00000000000E+00 -0.00000000000E+00 -0.13722770889E+04  0.13722770889E+04  0.00000000000E+00 0. -1.
         25    2    1    2    0    0  0.18578510315E+02  0.32252217706E+03 -0.82985639214E+03  0.89925043992E+03  0.12499602542E+03 0.  0.
          2    1    1    2  501    0 -0.34385113038E+02  0.57033326072E+02 -0.47377488104E+03  0.47843262241E+03  0.00000000000E+00 0. -1.
          1    1    1    2  502    0  0.15806602723E+02 -0.37955550314E+03  0.11093714494E+04  0.11726112917E+04  0.00000000000E+00 0. -1.
         22    1    3    3    0    0  0.58683277996E+02  0.20886238218E+03 -0.62481361702E+03  0.66140704398E+03  0.00000000000E+00 0.  1.
         22    1    3    3    0    0 -0.40104767681E+02  0.11365979488E+03 -0.20504277512E+03  0.23784339594E+03  0.00000000000E+00 0.  1.
</event>
<event>
 7    1  0.5993218E-006  0.4220587E+03  0.7818608E-02  0.1212061E+00
          2   -1    0    0  502    0  0.00000000000E+00  0.00000000000E+00  0.78235435274E+03  0.78235435274E+03  0.00000000000E+00 0. -1.
          1   -1    0    0  501    0 -0.00000000000E+00 -0.00000000000E+00 -0.11524941795E+04  0.11524941795E+04  0.00000000000E+00 0. -1.
         25    2    1    2    0    0 -0.16516032887E+03 -0.37598474188E+03 -0.48630364085E+03  0.64866054068E+03  0.12500722211E+03 0.  0.
          2    1    1    2  501    0  0.37824106129E+02 -0.28014550651E+02 -0.51987707026E+03  0.52200349255E+03  0.00000000000E+00 0. -1.
          1    1    1    2  502    0  0.12733622275E+03  0.40399929253E+03  0.63604088433E+03  0.76418449901E+03  0.00000000000E+00 0. -1.
         22    1    3    3    0    0 -0.15685862400E+03 -0.36114550530E+03 -0.49251616628E+03  0.63055759290E+03  0.00000000000E+00 0.  1.
         22    1    3    3    0    0 -0.83017048768E+01 -0.14839236582E+02  0.62125254323E+01  0.18102947784E+02  0.00000000000E+00 0.  1.
</event>
<event>
 7    1  0.5993218E-006  0.2193662E+02  0.7818608E-02  0.1712609E+00
          2   -1    0    0  502    0  0.00000000000E+00  0.00000000000E+00  0.18346805124E+02  0.18346805124E+02  0.00000000000E+00 0. -1.
          1   -1    0    0  501    0 -0.00000000000E+00 -0.00000000000E+00 -0.12964502236E+04  0.12964502236E+04  0.00000000000E+00 0. -1.
         25    2    1    2    0    0 -0.29808684712E+02  0.22472080833E+02 -0.42346599193E+03  0.44310471303E+03  0.12499915313E+03 0.  0.
          2    1    1    2  501    0  0.83689494054E+01 -0.19875146810E+02 -0.84913118663E+03  0.84940498755E+03  0.00000000000E+00 0. -1.
          1    1    1    2  502    0  0.21439735307E+02 -0.25969340227E+01 -0.55062398743E+01  0.22287328102E+02  0.00000000000E+00 0. -1.
         22    1    3    3    0    0 -0.61292706699E+02  0.55099965467E+01 -0.98274874761E+02  0.11595303776E+03  0.00000000000E+00 0.  1.
         22    1    3    3    0    0  0.31484021987E+02  0.16962084286E+02 -0.32519111717E+03  0.32715167527E+03  0.00000000000E+00 0.  1.
</event>
<event>
 7    1  0.5993218E-006  0.3196347E+02  0.7818608E-02  0.1589449E+00
          2   -1    0    0  502    0  0.00000000000E+00  0.00000000000E+00  0.88122734605E+03  0.88122734605E+03  0.00000000000E+00 0. -1.
          1   -1    0    0  501    0 -0.00000000000E+00 -0.00000000000E+00 -0.12539264246E+04  0.12539264246E+04  0.00000000000E+00 0. -1.
         25    2    1    2    0    0 -0.23410522168E+02  0.25176229304E+02 -0.87883415238E+03  0.88834500204E+03  0.12500192074E+03 0.  0.
          2    1    1    2  501    0  0.33301041163E+02  0.27986965315E+01 -0.36933109037E+03  0.37083992013E+03  0.00000000000E+00 0. -1.
          1    1    1    2  502    0 -0.98905189949E+01 -0.27974925836E+02  0.87546616420E+03  0.87596884848E+03  0.00000000000E+00 0. -1.
         22    1    3    3    0    0 -0.58047419930E+02  0.43444155266E+02 -0.75484417802E+03  0.75831829114E+03  0.00000000000E+00 0. -1.
         22    1    3    3    0    0  0.34636897762E+02 -0.18267925962E+02 -0.12398997436E+03  0.13002671090E+03  0.00000000000E+00 0. -1.
</event>
<event>
 7    1  0.5993218E-006  0.1201915E+03  0.7818608E-02  0.1329463E+00
          2   -1    0    0  502    0  0.00000000000E+00  0.00000000000E+00  0.10434003071E+04  0.10434003071E+04  0.00000000000E+00 0. -1.
          1   -1    0    0  501    0 -0.00000000000E+00 -0.00000000000E+00 -0.74331934342E+03  0.74331934342E+03  0.00000000000E+00 0. -1.
         25    2    1    2    0    0  0.11954603493E+03 -0.10359291147E+03  0.52924841693E+03  0.56634946254E+03  0.12500032450E+03 0.  0.
          2    1    1    2  501    0 -0.10814096825E+03  0.51777432675E+02 -0.71836605152E+03  0.72830292841E+03  0.00000000000E+00 0. -1.
          1    1    1    2  502    0 -0.11405066675E+02  0.51815478795E+02  0.48919859830E+03  0.49206725960E+03  0.00000000000E+00 0. -1.
         22    1    3    3    0    0  0.76335150013E+02 -0.50450675155E+02  0.11740682198E+03  0.14885122639E+03  0.00000000000E+00 0. -1.
         22    1    3    3    0    0  0.43210884912E+02 -0.53142236315E+02  0.41184159495E+03  0.41749823615E+03  0.00000000000E+00 0. -1.
</event>
<event>
 7    1  0.5993218E-006  0.1693052E+03  0.7818608E-02  0.1376366E+00
          2   -1    0    0  502    0  0.00000000000E+00  0.00000000000E+00  0.16250210333E+04  0.16250210333E+04  0.00000000000E+00 0. -1.
          1   -1    0    0  501    0 -0.00000000000E+00 -0.00000000000E+00 -0.14534133795E+03  0.14534133795E+03  0.00000000000E+00 0. -1.
         25    2    1    2    0    0  0.15760914860E+03  0.99259397290E+02  0.76998390707E+01  0.22445401270E+03  0.12500897816E+03 0.  0.
          2    1    1    2  501    0 -0.65171420005E+01 -0.24430845893E+02 -0.27280949056E+02  0.37196633614E+02  0.00000000000E+00 0. -1.
          1    1    1    2  502    0 -0.15109200660E+03 -0.74828551398E+02  0.14992608054E+04  0.15087117250E+04  0.00000000000E+00 0. -1.
         22    1    3    3    0    0  0.11372013644E+03  0.13820857906E+00  0.19609542085E+02  0.11539853844E+03  0.00000000000E+00 0.  1.
         22    1    3    3    0    0  0.43889012168E+02  0.99121188711E+02 -0.11909703014E+02  0.10905547426E+03  0.00000000000E+00 0.  1.
</event>
<event>
 7    1  0.5993218E-006  0.6286584E+02  0.7818608E-02  0.1386985E+00
          2   -1    0    0  502    0  0.00000000000E+00  0.00000000000E+00  0.37755493131E+03  0.37755493131E+03  0.00000000000E+00 0. -1.
          1   -1    0    0  501    0 -0.00000000000E+00 -0.00000000000E+00 -0.20435655600E+03  0.20435655600E+03  0.00000000000E+00 0. -1.
         25    2    1    2    0    0 -0.41377787066E+02 -0.57435352602E+02  0.66446812216E+02  0.15827673538E+03  0.12500162046E+03 0.  0.
          2    1    1    2  501    0  0.64082998424E+02 -0.75197232171E+00 -0.14803071004E+03  0.16130805083E+03  0.00000000000E+00 0. -1.
          1    1    1    2  502    0 -0.22705211357E+02  0.58187324923E+02  0.25478227314E+03  0.26232670110E+03  0.00000000000E+00 0. -1.
         22    1    3    3    0    0 -0.11198280003E+02 -0.34321534774E+02 -0.34790767952E+02  0.50137478586E+02  0.00000000000E+00 0.  1.
         22    1    3    3    0    0 -0.30179507063E+02 -0.23113817828E+02  0.10123758017E+03  0.10813925679E+03  0.00000000000E+00 0.  1.
</event>
<event>
 7    1  0.5993218E-006  0.5629900E+02  0.7818608E-02  0.1419396E+00
          2   -1    0    0  502    0  0.00000000000E+00  0.00000000000E+00  0.56140733190E+02  0.56140733190E+02  0.00000000000E+00 0. -1.
          1   -1    0    0  501    0 -0.00000000000E+00 -0.00000000000E+00 -0.18196810441E+04  0.18196810441E+04  0.00000000000E+00 0. -1.
         25    2    1    2    0    0 -0.50716500851E+02 -0.45669950259E+02 -0.80616172065E+03  0.81864504657E+03  0.12500033846E+03 0.  0.
          2    1    1    2  501    0  0.52925553222E+02 -0.10829336700E+02 -0.99028401125E+03  0.99175642758E+03  0.00000000000E+00 0. -1.
          1    1    1    2  502    0 -0.22090523709E+01  0.56499286959E+02  0.32905420953E+02  0.65420303174E+02  0.00000000000E+00 0. -1.
         22    1    3    3    0    0 -0.14833737239E+02  0.27063232489E+02 -0.54588567371E+02  0.62708611855E+02  0.00000000000E+00 0. -1.
         22    1    3    3    0    0 -0.35882763612E+02 -0.72733182748E+02 -0.75157315328E+03  0.75593643471E+03  0.00000000000E+00 0. -1.
</event>
<event>
 7    1  0.6060153E-006  0.7199111E+02  0.7818608E-02  0.1427574E+00
          2   -1    0    0  502    0  0.00000000000E+00  0.00000000000E+00  0.66426112200E+03  0.66426112200E+03  0.00000000000E+00 0. -1.
          1   -1    0    0  501    0 -0.00000000000E+00 -0.00000000000E+00 -0.15607318102E+04  0.15607318102E+04  0.00000000000E+00 0. -1.
         25    2    1    2    0    0  0.89153026252E+02 -0.51855127972E+02 -0.85836173767E+03  0.87352708636E+03  0.12500992567E+03 0.  0.
          2    1    1    2  501    0 -0.39682457614E+02 -0.36117648793E+00 -0.69224770580E+03  0.69338424706E+03  0.00000000000E+00 0. -1.
          1    1    1    2  502    0 -0.49470568638E+02  0.52216304460E+02  0.65413875523E+03  0.65808159882E+03  0.00000000000E+00 0. -1.
         22    1    3    3    0    0  0.10158483868E+03  0.15236191370E+01 -0.65831108523E+03  0.66610456071E+03  0.00000000000E+00 0.  1.
         22    1    3    3    0    0 -0.12431812425E+02 -0.53378747109E+02 -0.20005065245E+03  0.20742252565E+03  0.00000000000E+00 0.  1.
</event>
<event>
 7    1  0.5993218E-006  0.6154710E+02  0.7818608E-02  0.1467416E+00
          2   -1    0    0  502    0  0.00000000000E+00  0.00000000000E+00  0.11306340431E+03  0.11306340431E+03  0.00000000000E+00 0. -1.
          1   -1    0    0  501    0 -0.00000000000E+00 -0.00000000000E+00 -0.22467933835E+04  0.22467933835E+04  0.00000000000E+00 0. -1.
         25    2    1    2    0    0 -0.50337747081E+02 -0.68082339044E+02 -0.62197088037E+02  0.16328362820E+03  0.12499588716E+03 0.  0.
          2    1    1    2  501    0  0.16113496298E+01  0.34535282016E+02 -0.21198862938E+04  0.21201681964E+04  0.00000000000E+00 0. -1.
          1    1    1    2  502    0  0.48726397451E+02  0.33547057028E+02  0.48353402724E+02  0.76404963181E+02  0.00000000000E+00 0. -1.
         22    1    3    3    0    0  0.40215320294E+02 -0.14245947595E+02 -0.38006473148E+01  0.42832977123E+02  0.00000000000E+00 0.  1.
         22    1    3    3    0    0 -0.90553067375E+02 -0.53836391448E+02 -0.58396440722E+02  0.12045065107E+03  0.00000000000E+00 0.  1.
</event>
<event>
 7    1  0.5993218E-006  0.5470732E+02  0.7818608E-02  0.1477096E+00
          2   -1    0    0  502    0  0.00000000000E+00  0.00000000000E+00  0.16408371417E+03  0.16408371417E+03  0.00000000000E+00 0. -1.
          1   -1    0    0  501    0 -0.00000000000E+00 -0.00000000000E+00 -0.44786027485E+03  0.44786027485E+03  0.00000000000E+00 0. -1.
         25    2    1    2    0    0  0.12310478413E+02  0.88375087689E+02 -0.88807647295E+02  0.17740462472E+03  0.12499559453E+03 0.  0.
          2    1    1    2  501    0 -0.62541040519E+01 -0.52586138432E+02 -0.30970431160E+03  0.31419926225E+03  0.00000000000E+00 0. -1.
          1    1    1    2  502    0 -0.60563743608E+01 -0.35788949257E+02  0.11473539822E+03  0.12034010206E+03  0.00000000000E+00 0. -1.
         22    1    3    3    0    0 -0.45981723215E+02 -0.19711512699E+01 -0.24950456050E+02  0.52351977654E+02  0.00000000000E+00 0. -1.
         22    1    3    3    0    0  0.58292201628E+02  0.90346238959E+02 -0.63857191245E+02  0.12505264707E+03  0.00000000000E+00 0. -1.
</event>
<event>
 7    1  0.5993218E-006  0.5735672E+02  0.7818608E-02  0.1469645E+00
          2   -1    0    0  502    0  0.00000000000E+00  0.00000000000E+00  0.20449070601E+04  0.20449070601E+04  0.00000000000E+00 0. -1.
          1   -1    0    0  501    0 -0.00000000000E+00 -0.00000000000E+00 -0.10214835849E+04  0.10214835849E+04  0.00000000000E+00 0. -1.
         25    2    1    2    0    0 -0.17686324994E+02  0.22519376234E+02  0.88143438232E+02  0.15560936869E+03  0.12500032610E+03 0.  0.
          2    1    1    2  501    0  0.10863630191E+02  0.34856258174E+02 -0.98697900115E+03  0.98765405173E+03  0.00000000000E+00 0. -1.
          1    1    1    2  502    0  0.68226948024E+01 -0.57375634408E+02  0.19222590381E+04  0.19231272246E+04  0.00000000000E+00 0. -1.
         22    1    3    3    0    0  0.30236504363E+02  0.49706550136E+02  0.85490181589E+01  0.58805382696E+02  0.00000000000E+00 0. -1.
         22    1    3    3    0    0 -0.47922829357E+02 -0.27187173902E+02  0.79594420073E+02  0.96803985998E+02  0.00000000000E+00 0. -1.
</event>
<event>
 7    1  0.5993218E-006  0.7579920E+02  0.7818608E-02  0.1446100E+00
          2   -1    0    0  502    0  0.00000000000E+00  0.00000000000E+00  0.71189775906E+03  0.71189775906E+03  0.00000000000E+00 0. -1.
          1   -1    0    0  501    0 -0.00000000000E+00 -0.00000000000E+00 -0.40506347348E+03  0.40506347348E+03  0.00000000000E+00 0. -1.
         25    2    1    2    0    0 -0.63460424840E+02 -0.23316428267E+02 -0.68491460172E+02  0.15775529535E+03  0.12499908698E+03 0.  0.
          2    1    1    2  501    0  0.77133765976E+02 -0.64943629389E+01 -0.28639580256E+03  0.29667212597E+03  0.00000000000E+00 0. -1.
          1    1    1    2  502    0 -0.13673341135E+02  0.29810791206E+02  0.66172154830E+03  0.66253381123E+03  0.00000000000E+00 0. -1.
         22    1    3    3    0    0  0.32306928962E+02 -0.24967532890E+02 -0.14757704566E+01  0.40856985401E+02  0.00000000000E+00 0. -1.
         22    1    3    3    0    0 -0.95767353803E+02  0.16511046226E+01 -0.67015689715E+02  0.11689830995E+03  0.00000000000E+00 0. -1.
</event>
<event>
 7    1  0.5993218E-006  0.9648398E+02  0.7818608E-02  0.1429289E+00
          2   -1    0    0  502    0  0.00000000000E+00  0.00000000000E+00  0.24089370849E+04  0.24089370849E+04  0.00000000000E+00 0. -1.
          1   -1    0    0  501    0 -0.00000000000E+00 -0.00000000000E+00 -0.22051692567E+03  0.22051692567E+03  0.00000000000E+00 0. -1.
         25    2    1    2    0    0  0.56747577996E+02 -0.96858471967E+02  0.24515191754E+03  0.29719804901E+03  0.12500146583E+03 0.  0.
          2    1    1    2  501    0 -0.27969833605E+02  0.91754459027E+02 -0.18256019830E+03  0.20622661891E+03  0.00000000000E+00 0. -1.
          1    1    1    2  502    0 -0.28777744392E+02  0.51040129402E+01  0.21258284400E+04  0.21260293426E+04  0.00000000000E+00 0. -1.
         22    1    3    3    0    0  0.51181543602E+02 -0.10912735289E+03  0.25395291662E+03  0.28110569794E+03  0.00000000000E+00 0.  1.
         22    1    3    3    0    0  0.55660343942E+01  0.12268880927E+02 -0.88009990804E+01  0.16092351068E+02  0.00000000000E+00 0.  1.
</event>
<event>
 7    1  0.5993218E-006  0.4184783E+02  0.7818608E-02  0.1497204E+00
          2   -1    0    0  502    0  0.00000000000E+00  0.00000000000E+00  0.20449508042E+04  0.20449508042E+04  0.00000000000E+00 0. -1.
          1   -1    0    0  501    0 -0.00000000000E+00 -0.00000000000E+00 -0.30798625718E+03  0.30798625718E+03  0.00000000000E+00 0. -1.
         25    2    1    2    0    0 -0.96948086877E+01 -0.37441091390E+02  0.11638644045E+03  0.17511993677E+03  0.12500145637E+03 0.  0.
          2    1    1    2  501    0 -0.31049665150E+02  0.27120406335E+02 -0.27686048052E+03  0.27991306475E+03  0.00000000000E+00 0. -1.
          1    1    1    2  502    0  0.40744473838E+02  0.10320685055E+02  0.18974385871E+04  0.18979040598E+04  0.00000000000E+00 0. -1.
         22    1    3    3    0    0 -0.14014369045E+02 -0.16968084292E+02  0.14106145521E+03  0.14276782750E+03  0.00000000000E+00 0.  1.
         22    1    3    3    0    0  0.43195603577E+01 -0.20473007098E+02 -0.24675014752E+02  0.32352109272E+02  0.00000000000E+00 0.  1.
</event>
<event>
 7    1  0.5993218E-006  0.8731701E+02  0.7818608E-02  0.1330985E+00
          2   -1    0    0  502    0  0.00000000000E+00  0.00000000000E+00  0.25281470560E+03  0.25281470560E+03  0.00000000000E+00 0. -1.
          1   -1    0    0  501    0 -0.00000000000E+00 -0.00000000000E+00 -0.32251485355E+03  0.32251485355E+03  0.00000000000E+00 0. -1.
         25    2    1    2    0    0  0.12219772616E+03 -0.79333530675E+02  0.57345785268E+02  0.20034904826E+03  0.12500043472E+03 0.  0.
          2    1    1    2  501    0 -0.49648333437E+02  0.52227720273E+02 -0.23291492317E+03  0.24380741008E+03  0.00000000000E+00 0. -1.
          1    1    1    2  502    0 -0.72549392725E+02  0.27105810402E+02  0.10586898995E+03  0.13117310081E+03  0.00000000000E+00 0. -1.
         22    1    3    3    0    0  0.66086295852E+02  0.25576261349E+02  0.71573570552E+01  0.71223390849E+02  0.00000000000E+00 0.  1.
         22    1    3    3    0    0  0.56111430310E+02 -0.10490979202E+03  0.50188428212E+02  0.12912565741E+03  0.00000000000E+00 0.  1.
</event>
<event>
 7    1  0.5993218E-006  0.3733035E+02  0.7818608E-02  0.1557876E+00
          2   -1    0    0  502    0  0.00000000000E+00  0.00000000000E+00  0.38600557460E+03  0.38600557460E+03  0.00000000000E+00 0. -1.
          1   -1    0    0  501    0 -0.00000000000E+00 -0.00000000000E+00 -0.10963300074E+03  0.10963300074E+03  0.00000000000E+00 0. -1.
         25    2    1    2    0    0  0.24182374395E+02 -0.10172372314E+02 -0.34032261604E+02  0.13218180175E+03  0.12500227795E+03 0.  0.
          2    1    1    2  501    0 -0.40928704728E+02 -0.15826220445E+02 -0.70972094675E+01  0.44452204743E+02  0.00000000000E+00 0. -1.
          1    1    1    2  502    0  0.16746330333E+02  0.25998592759E+02  0.31750204494E+03  0.31900456885E+03  0.00000000000E+00 0. -1.
         22    1    3    3    0    0  0.35563019766E+02 -0.95451038836E+01  0.41680648306E+02  0.55615769582E+02  0.00000000000E+00 0.  1.
         22    1    3    3    0    0 -0.11380645371E+02 -0.62726843043E+00 -0.75712909909E+02  0.76566032166E+02  0.00000000000E+00 0.  1.
</event>
<event>
 7    1  0.5993218E-006  0.8249974E+02  0.7818608E-02  0.1428559E+00
          2   -1    0    0  502    0  0.00000000000E+00  0.00000000000E+00  0.26215537149E+04  0.26215537149E+04  0.00000000000E+00 0. -1.
          1   -1    0    0  501    0 -0.00000000000E+00 -0.00000000000E+00 -0.80422786627E+02  0.80422786627E+02  0.00000000000E+00 0. -1.
         25    2    1    2    0    0  0.92405033432E+02 -0.41354132416E+02  0.10361711404E+04  0.10485821139E+04  0.12499985137E+03 0.  0.
          2    1    1    2  501    0 -0.81736142636E+02  0.86809816549E+01 -0.51211174164E+02  0.96843899213E+02  0.00000000000E+00 0. -1.
          1    1    1    2  502    0 -0.10668890797E+02  0.32673150761E+02  0.15561709621E+04  0.15565504885E+04  0.00000000000E+00 0. -1.
         22    1    3    3    0    0 -0.18050954045E+02 -0.20419891671E+02  0.50047191932E+03  0.50121347842E+03  0.00000000000E+00 0. -1.
         22    1    3    3    0    0  0.11045598748E+03 -0.20934240745E+02  0.53569922108E+03  0.54736863544E+03  0.00000000000E+00 0. -1.
</event>
<event>
 7    1  0.5993218E-006  0.1935732E+03  0.7818608E-02  0.1245889E+00
          2   -1    0    0  502    0  0.00000000000E+00  0.00000000000E+00  0.39028616825E+03  0.39028616825E+03  0.00000000000E+00 0. -1.
          1   -1    0    0  501    0 -0.00000000000E+00 -0.00000000000E+00 -0.10286914478E+04  0.10286914478E+04  0.00000000000E+00 0. -1.
         25    2    1    2    0    0  0.87335313461E+02 -0.21216677992E+03 -0.28813085531E+03  0.38895610222E+03  0.12500104078E+03 0.  0.
          2    1    1    2  501    0 -0.11602925641E+03  0.14577586117E+03 -0.67350355745E+03  0.69879927872E+03  0.00000000000E+00 0. -1.
          1    1    1    2  502    0  0.28693942951E+02  0.66390918750E+02  0.32322913322E+03  0.33122223509E+03  0.00000000000E+00 0. -1.
         22    1    3    3    0    0  0.62976256328E+02 -0.22032864073E+03 -0.28040518866E+03  0.36212951911E+03  0.00000000000E+00 0.  1.
         22    1    3    3    0    0  0.24359057133E+02  0.81618608027E+01 -0.77256666455E+01  0.26826583109E+02  0.00000000000E+00 0.  1.
</event>
<event>
 7    1  0.5993218E-006  0.4818321E+02  0.7818608E-02  0.1505775E+00
          2   -1    0    0  502    0  0.00000000000E+00  0.00000000000E+00  0.56514513766E+03  0.56514513766E+03  0.00000000000E+00 0. -1.
          1   -1    0    0  501    0 -0.00000000000E+00 -0.00000000000E+00 -0.10421255271E+04  0.10421255271E+04  0.00000000000E+00 0. -1.
         25    2    1    2    0    0  0.64797284700E+02  0.50065947727E+02  0.30631779514E+03  0.34082039486E+03  0.12499065049E+03 0.  0.
          2    1    1    2  501    0 -0.38015954401E+02 -0.29508226178E+02 -0.10231262644E+04  0.10242574389E+04  0.00000000000E+00 0. -1.
          1    1    1    2  502    0 -0.26781330299E+02 -0.20557721550E+02  0.23982807978E+03  0.24219283106E+03  0.00000000000E+00 0. -1.
         22    1    3    3    0    0  0.82049288151E+02 -0.62445916728E+01  0.23094761731E+03  0.24516908972E+03  0.00000000000E+00 0. -1.
         22    1    3    3    0    0 -0.17252003451E+02  0.56310539400E+02  0.75370177822E+02  0.95651305143E+02  0.00000000000E+00 0. -1.
</event>
<event>
 7    1  0.5993218E-006  0.4958723E+02  0.7818608E-02  0.1452208E+00
          2   -1    0    0  502    0  0.00000000000E+00  0.00000000000E+00  0.12362820208E+04  0.12362820208E+04  0.00000000000E+00 0. -1.
          1   -1    0    0  501    0 -0.00000000000E+00 -0.00000000000E+00 -0.23297422599E+04  0.23297422599E+04  0.00000000000E+00 0. -1.
         25    2    1    2    0    0  0.88222979251E+02  0.11895315914E+02  0.12523921637E+02  0.15396355322E+03  0.12499253778E+03 0.  0.
          2    1    1    2  501    0 -0.45960618557E+02  0.13580057698E+02 -0.22582401128E+04  0.22587485924E+04  0.00000000000E+00 0. -1.
          1    1    1    2  502    0 -0.42262360694E+02 -0.25475373612E+02  0.11522559521E+04  0.11533121350E+04  0.00000000000E+00 0. -1.
         22    1    3    3    0    0 -0.12144506260E+02  0.23301034059E+02 -0.33818792645E+02  0.42826836873E+02  0.00000000000E+00 0. -1.
         22    1    3    3    0    0  0.10036748551E+03 -0.11405718146E+02  0.46342714282E+02  0.11113671635E+03  0.00000000000E+00 0. -1.
</event>
<event>
 7    1  0.5993218E-006  0.1667287E+03  0.7818608E-02  0.1295240E+00
          2   -1    0    0  502    0  0.00000000000E+00  0.00000000000E+00  0.85817457331E+03  0.85817457331E+03  0.00000000000E+00 0. -1.
          1   -1    0    0  501    0 -0.00000000000E+00 -0.00000000000E+00 -0.17826572921E+03  0.17826572921E+03  0.00000000000E+00 0. -1.
         25    2    1    2    0    0  0.11205633708E+03 -0.11601227718E+03  0.24161881959E+01  0.20407242477E+03  0.12499698176E+03 0.  0.
          2    1    1    2  501    0  0.36320308152E+02  0.37378663586E+02 -0.57983834770E+02  0.77964442988E+02  0.00000000000E+00 0. -1.
          1    1    1    2  502    0 -0.14837664523E+03  0.78633613593E+02  0.73547649068E+03  0.75440343476E+03  0.00000000000E+00 0. -1.
         22    1    3    3    0    0  0.55268964482E+01  0.31501114065E+00  0.41255575428E+02  0.41625332674E+02  0.00000000000E+00 0. -1.
         22    1    3    3    0    0  0.10652944063E+03 -0.11632728832E+03 -0.38839387232E+02  0.16244709209E+03  0.00000000000E+00 0. -1.
</event>
<event>
 7    1  0.5993218E-006  0.1659848E+03  0.7818608E-02  0.1355803E+00
          2   -1    0    0  502    0  0.00000000000E+00  0.00000000000E+00  0.11631990976E+04  0.11631990976E+04  0.00000000000E+00 0. -1.
          1   -1    0    0  501    0 -0.00000000000E+00 -0.00000000000E+00 -0.76167407562E+03  0.76167407562E+03  0.00000000000E+00 0. -1.
         25    2    1    2    0    0  0.12279531263E+03  0.78931585638E+02  0.13713550649E+03  0.23609674474E+03  0.12500656671E+03 0.  0.
          2    1    1    2  501    0  0.29940643074E+02 -0.63557440217E+01 -0.70453839119E+03  0.70520293692E+03  0.00000000000E+00 0. -1.
          1    1    1    2  502    0 -0.15273595570E+03 -0.72575841616E+02  0.96892790672E+03  0.98357349160E+03  0.00000000000E+00 0. -1.
         22    1    3    3    0    0  0.10446143821E+03  0.23160062499E+02  0.25544625758E+02  0.11000503840E+03  0.00000000000E+00 0.  1.
         22    1    3    3    0    0  0.18333874413E+02  0.55771523139E+02  0.11159088073E+03  0.12609170633E+03  0.00000000000E+00 0.  1.
</event>
<event>
 7    1  0.5993218E-006  0.5053091E+02  0.7818608E-02  0.1491508E+00
          2   -1    0    0  502    0  0.00000000000E+00  0.00000000000E+00  0.26076209942E+04  0.26076209942E+04  0.00000000000E+00 0. -1.
          1   -1    0    0  501    0 -0.00000000000E+00 -0.00000000000E+00 -0.40815594922E+02  0.40815594922E+02  0.00000000000E+00 0. -1.
         25    2    1    2    0    0  0.80479757909E+01  0.61740297745E+02  0.11961072782E+04  0.12042314868E+04  0.12499687360E+03 0.  0.
          2    1    1    2  501    0 -0.31161055614E+02 -0.17039398929E+02 -0.27614089576E+02  0.44987669932E+02  0.00000000000E+00 0. -1.
          1    1    1    2  502    0  0.23113079823E+02 -0.44700898816E+02  0.13983122106E+04  0.13992174324E+04  0.00000000000E+00 0. -1.
         22    1    3    3    0    0  0.18908735357E+02  0.88779645751E+02  0.54778361213E+03  0.55525332191E+03  0.00000000000E+00 0. -1.
         22    1    3    3    0    0 -0.10860759566E+02 -0.27039348006E+02  0.64832366610E+03  0.64897816486E+03  0.00000000000E+00 0. -1.
</event>
<event>
 7    1  0.5993218E-006  0.6147840E+02  0.7818608E-02  0.1471348E+00
          2   -1    0    0  502    0  0.00000000000E+00  0.00000000000E+00  0.20033120102E+03  0.20033120102E+03  0.00000000000E+00 0. -1.
          1   -1    0    0  501    0 -0.00000000000E+00 -0.00000000000E+00 -0.11389474241E+04  0.11389474241E+04  0.00000000000E+00 0. -1.
         25    2    1    2    0    0  0.54435746143E+02 -0.73486393694E+02 -0.48323505215E+03  0.50744892670E+03  0.12499918825E+03 0.  0.
          2    1    1    2  501    0 -0.90858622538E+01  0.32399552891E+02 -0.63817666508E+03  0.63906317354E+03  0.00000000000E+00 0. -1.
          1    1    1    2  502    0 -0.45349883890E+02  0.41086840803E+02  0.18279549412E+03  0.19276652491E+03  0.00000000000E+00 0. -1.
         22    1    3    3    0    0 -0.11900096994E+02 -0.83981314377E+02 -0.31720422428E+03  0.32834888971E+03  0.00000000000E+00 0.  1.
         22    1    3    3    0    0  0.66335843138E+02  0.10494920683E+02 -0.16603082786E+03  0.17910003698E+03  0.00000000000E+00 0.  1.
</event>
<event>
 7    1  0.5993218E-006  0.9878556E+02  0.7818608E-02  0.1371426E+00
          2   -1    0    0  502    0  0.00000000000E+00  0.00000000000E+00  0.30501386193E+04  0.30501386193E+04  0.00000000000E+00 0. -1.
          1   -1    0    0  501    0 -0.00000000000E+00 -0.00000000000E+00 -0.66448766482E+02  0.66448766482E+02  0.00000000000E+00 0. -1.
         25    2    1    2    0    0  0.29332835814E+02 -0.10253850907E+03  0.92844438496E+02  0.18873275268E+03  0.12500160430E+03 0.  0.
          2    1    1    2  501    0  0.35458817936E+02  0.27923184243E+02  0.11184527649E+02  0.46498662845E+02  0.00000000000E+00 0. -1.
          1    1    1    2  502    0 -0.64791653750E+02  0.74615324825E+02  0.28796608866E+04  0.28813559702E+04  0.00000000000E+00 0. -1.
         22    1    3    3    0    0  0.32529950498E+02 -0.12740522297E+03  0.53244669711E+02  0.14186360835E+03  0.00000000000E+00 0.  1.
         22    1    3    3    0    0 -0.31971146839E+01  0.24866713907E+02  0.39599768785E+02  0.46869144335E+02  0.00000000000E+00 0.  1.
</event>
<event>
 7    1  0.5993218E-006  0.2189292E+03  0.7818608E-02  0.1316871E+00
          2   -1    0    0  502    0  0.00000000000E+00  0.00000000000E+00  0.75443690505E+03  0.75443690505E+03  0.00000000000E+00 0. -1.
          1   -1    0    0  501    0 -0.00000000000E+00 -0.00000000000E+00 -0.49485890203E+03  0.49485890203E+03  0.00000000000E+00 0. -1.
         25    2    1    2    0    0  0.32603366323E+01  0.24867772800E+03  0.28504173052E+03  0.39840021407E+03  0.12499080062E+03 0.  0.
          2    1    1    2  501    0 -0.80237623743E+01 -0.21645010415E+03 -0.41068304678E+03  0.46430118809E+03  0.00000000000E+00 0. -1.
          1    1    1    2  502    0  0.47634257420E+01 -0.32227623855E+02  0.38521931928E+03  0.38659440491E+03  0.00000000000E+00 0. -1.
         22    1    3    3    0    0  0.19299421610E+02  0.91645300877E+02  0.19585934352E+03  0.21709954235E+03  0.00000000000E+00 0.  1.
         22    1    3    3    0    0 -0.16039084978E+02  0.15703242712E+03  0.89182387000E+02  0.18130067172E+03  0.00000000000E+00 0.  1.
</event>
<event>
 7    1  0.5993218E-006  0.4012573E+02  0.7818608E-02  0.1537121E+00
          2   -1    0    0  502    0  0.00000000000E+00  0.00000000000E+00  0.10230528375E+04  0.10230528375E+04  0.00000000000E+00 0. -1.
          1   -1    0    0  501    0 -0.00000000000E+00 -0.00000000000E+00 -0.33303264640E+02  0.33303264640E+02  0.00000000000E+00 0. -1.
         25    2    1    2    0    0 -0.32556322666E+02  0.28146398239E+01  0.71385424250E+03  0.72544950278E+03  0.12498505996E+03 0.  0.
          2    1    1    2  501    0  0.48150978067E+01  0.32533744678E+02 -0.15294273075E+02  0.36270435600E+02  0.00000000000E+00 0. -1.
          1    1    1    2  502    0  0.27741224859E+02 -0.35348384502E+02  0.29118960346E+03  0.29463616378E+03  0.00000000000E+00 0. -1.
         22    1    3    3    0    0 -0.46414269042E+02 -0.61527669992E+01  0.90655065781E+02  0.10203176890E+03  0.00000000000E+00 0. -1.
         22    1    3    3    0    0  0.13857946376E+02  0.89674068231E+01  0.62319917672E+03  0.62341773389E+03  0.00000000000E+00 0. -1.
</event>
<event>
 7    1  0.5993218E-006  0.9009404E+02  0.7818608E-02  0.1456140E+00
          2   -1    0    0  502    0  0.00000000000E+00  0.00000000000E+00  0.28109715749E+03  0.28109715749E+03  0.00000000000E+00 0. -1.
          1   -1    0    0  501    0 -0.00000000000E+00 -0.00000000000E+00 -0.16257669734E+03  0.16257669734E+03  0.00000000000E+00 0. -1.
         25    2    1    2    0    0 -0.67073503036E+01 -0.15922901036E+02  0.20235805025E+03  0.23847948156E+03  0.12500062120E+03 0.  0.
          2    1    1    2  501    0  0.74361020021E+02 -0.50866236637E+02 -0.25414377071E+02  0.93609966832E+02  0.00000000000E+00 0. -1.
          1    1    1    2  502    0 -0.67653669718E+02  0.66789137673E+02 -0.58423213035E+02  0.11158440643E+03  0.00000000000E+00 0. -1.
         22    1    3    3    0    0  0.20424284372E+01 -0.69935694810E+02  0.95023141169E+02  0.11800241642E+03  0.00000000000E+00 0. -1.
         22    1    3    3    0    0 -0.87497787407E+01  0.54012793774E+02  0.10733490908E+03  0.12047706515E+03  0.00000000000E+00 0. -1.
</event>
<event>
 7    1  0.5993218E-006  0.6503191E+02  0.7818608E-02  0.1408839E+00
          2   -1    0    0  502    0  0.00000000000E+00  0.00000000000E+00  0.22790942131E+04  0.22790942131E+04  0.00000000000E+00 0. -1.
          1   -1    0    0  501    0 -0.00000000000E+00 -0.00000000000E+00 -0.98026499067E+01  0.98026499067E+01  0.00000000000E+00 0. -1.
         25    2    1    2    0    0  0.55417898489E+02  0.27780453257E+02  0.11388914214E+04  0.11474060905E+04  0.12499667906E+03 0.  0.
          2    1    1    2  501    0  0.11337388215E+02 -0.49476110637E+02  0.14563163336E+03  0.15422384553E+03  0.00000000000E+00 0. -1.
          1    1    1    2  502    0 -0.66755286704E+02  0.21695657381E+02  0.98476850844E+03  0.98726692696E+03  0.00000000000E+00 0. -1.
         22    1    3    3    0    0 -0.93162627183E+01  0.32786614501E+02  0.87432768917E+03  0.87499180733E+03  0.00000000000E+00 0.  1.
         22    1    3    3    0    0  0.64734161208E+02 -0.50061612440E+01  0.26456373225E+03  0.27241428322E+03  0.00000000000E+00 0.  1.
</event>
<event>
 7    1  0.5993218E-006  0.1378720E+03  0.7818608E-02  0.1317711E+00
          2   -1    0    0  502    0  0.00000000000E+00  0.00000000000E+00  0.75386357449E+03  0.75386357449E+03  0.00000000000E+00 0. -1.
          1   -1    0    0  501    0 -0.00000000000E+00 -0.00000000000E+00 -0.13775258676E+03  0.13775258676E+03  0.00000000000E+00 0. -1.
         25    2    1    2    0    0  0.13260197949E+03  0.10398405900E+03  0.43590868460E+02  0.21429255248E+03  0.12500065897E+03 0.  0.
          2    1    1    2  501    0 -0.10508782434E+03 -0.60636954094E+02  0.20651924829E+02  0.12307230812E+03  0.00000000000E+00 0. -1.
          1    1    1    2  502    0 -0.27514155146E+02 -0.43347104906E+02  0.55186819444E+03  0.55425130065E+03  0.00000000000E+00 0. -1.
         22    1    3    3    0    0 -0.18788544866E+02 -0.72831002706E+01  0.12885728901E+02  0.23918506999E+02  0.00000000000E+00 0. -1.
         22    1    3    3    0    0  0.15139052436E+03  0.11126715927E+03  0.30705139559E+02  0.19037404548E+03  0.00000000000E+00 0. -1.
</event>
<event>
 7    1  0.5993218E-006  0.5027458E+02  0.7818608E-02  0.1527403E+00
          2   -1    0    0  502    0  0.00000000000E+00  0.00000000000E+00  0.17038590104E+04  0.17038590104E+04  0.00000000000E+00 0. -1.
          1   -1    0    0  501    0 -0.00000000000E+00 -0.00000000000E+00 -0.55438079561E+03  0.55438079561E+03  0.00000000000E+00 0. -1.
         25    2    1    2    0    0 -0.29956381675E+02 -0.40882504256E+01  0.62944384091E+02  0.14318359113E+03  0.12500178673E+03 0.  0.
          2    1    1    2  501    0  0.47295322723E+02 -0.17873863909E+02 -0.51289580640E+03  0.51538183009E+03  0.00000000000E+00 0. -1.
          1    1    1    2  502    0 -0.17338941047E+02  0.21962114335E+02  0.15994296371E+04  0.15996743848E+04  0.00000000000E+00 0. -1.
         22    1    3    3    0    0 -0.21857586265E+02  0.28802508963E+02 -0.28260838931E+02  0.45891323984E+02  0.00000000000E+00 0.  1.
         22    1    3    3    0    0 -0.80987954100E+01 -0.32890759389E+02  0.91205223022E+02  0.97292267148E+02  0.00000000000E+00 0.  1.
</event>
<event>
 7    1  0.5993218E-006  0.6216619E+02  0.7818608E-02  0.1436638E+00
          2   -1    0    0  502    0  0.00000000000E+00  0.00000000000E+00  0.14641207734E+04  0.14641207734E+04  0.00000000000E+00 0. -1.
          1   -1    0    0  501    0 -0.00000000000E+00 -0.00000000000E+00 -0.25983300127E+02  0.25983300127E+02  0.00000000000E+00 0. -1.
         25    2    1    2    0    0 -0.23633634665E+02  0.10274651688E+02  0.61938414258E+03  0.63239669852E+03  0.12499900426E+03 0.  0.
          2    1    1    2  501    0  0.45848761156E+02 -0.46990350489E+02  0.38162794311E+02  0.75938138035E+02  0.00000000000E+00 0. -1.
          1    1    1    2  502    0 -0.22215126491E+02  0.36715698801E+02  0.78059053635E+03  0.78176923693E+03  0.00000000000E+00 0. -1.
         22    1    3    3    0    0 -0.31812337389E+01 -0.24778230056E+02  0.55949407403E+03  0.56005151531E+03  0.00000000000E+00 0.  1.
         22    1    3    3    0    0 -0.20452400926E+02  0.35052881744E+02  0.59890068551E+02  0.72345183207E+02  0.00000000000E+00 0.  1.
</event>
<event>
 7    1  0.5993218E-006  0.9701386E+02  0.7818608E-02  0.1314451E+00
          2   -1    0    0  502    0  0.00000000000E+00  0.00000000000E+00  0.51515206789E+03  0.51515206789E+03  0.00000000000E+00 0. -1.
          1   -1    0    0  501    0 -0.00000000000E+00 -0.00000000000E+00 -0.19613507828E+04  0.19613507828E+04  0.00000000000E+00 0. -1.
         25    2    1    2    0    0 -0.10421622252E+02 -0.42337935160E+02  0.41257064282E+01  0.13245068330E+03  0.12500020435E+03 0.  0.
          2    1    1    2  501    0  0.56320568537E+02 -0.49732173844E+02 -0.18905111015E+04  0.18920035730E+04  0.00000000000E+00 0. -1.
          1    1    1    2  502    0 -0.45898946285E+02  0.92070109004E+02  0.44018668016E+03  0.45204859433E+03  0.00000000000E+00 0. -1.
         22    1    3    3    0    0 -0.52689393971E+02 -0.36933320062E+01  0.38766382162E+02  0.65518282367E+02  0.00000000000E+00 0.  1.
         22    1    3    3    0    0  0.42267771719E+02 -0.38644603154E+02 -0.34640675734E+02  0.66932400931E+02  0.00000000000E+00 0.  1.
</event>
<event>
 7    1  0.5993218E-006  0.7097316E+02  0.7818608E-02  0.1477773E+00
          2   -1    0    0  502    0  0.00000000000E+00  0.00000000000E+00  0.44877511877E+03  0.44877511877E+03  0.00000000000E+00 0. -1.
          1   -1    0    0  501    0 -0.00000000000E+00 -0.00000000000E+00 -0.28925160461E+03  0.28925160461E+03  0.00000000000E+00 0. -1.
         25    2    1    2    0    0  0.53293088289E+02  0.46604932694E+02 -0.88712625010E+02  0.16884140409E+03  0.12500126754E+03 0.  0.
          2    1    1    2  501    0  0.14123025815E+02 -0.23997483187E+02 -0.15614087863E+03  0.15860426550E+03  0.00000000000E+00 0. -1.
          1    1    1    2  502    0 -0.67416114104E+02 -0.22607449507E+02  0.40437701780E+03  0.41058105380E+03  0.00000000000E+00 0. -1.
         22    1    3    3    0    0  0.58122606686E+02  0.43449379732E+02  0.70460817737E+01  0.72909075399E+02  0.00000000000E+00 0. -1.
         22    1    3    3    0    0 -0.48295183971E+01  0.31555529612E+01 -0.95758706784E+02  0.95932328687E+02  0.00000000000E+00 0. -1.
</event>
<event>
 7    1  0.5993218E-006  0.5462633E+02  0.7818608E-02  0.1455112E+00
          2   -1    0    0  502    0  0.00000000000E+00  0.00000000000E+00  0.15275065516E+03  0.15275065516E+03  0.00000000000E+00 0. -1.
          1   -1    0    0  501    0 -0.00000000000E+00 -0.00000000000E+00 -0.49932870257E+03  0.49932870257E+03  0.00000000000E+00 0. -1.
         25    2    1    2    0    0  0.18445187532E+02  0.22919900849E+01 -0.15261370850E+03  0.19814511532E+03  0.12500025816E+03 0.  0.
          2    1    1    2  501    0 -0.56901913668E+02  0.16005584500E+02 -0.31765982554E+03  0.32311262940E+03  0.00000000000E+00 0. -1.
          1    1    1    2  502    0  0.38456726136E+02 -0.18297574585E+02  0.12369548663E+03  0.13082161302E+03  0.00000000000E+00 0. -1.
         22    1    3    3    0    0 -0.49489125396E+02 -0.22091342824E+02 -0.65835652853E+02  0.85273290935E+02  0.00000000000E+00 0. -1.
         22    1    3    3    0    0  0.67934312929E+02  0.24383332909E+02 -0.86778055649E+02  0.11287182438E+03  0.00000000000E+00 0. -1.
</event>
<event>
 7    1  0.5993218E-006  0.1068319E+03  0.7818608E-02  0.1377465E+00
          2   -1    0    0  502    0  0.00000000000E+00  0.00000000000E+00  0.25383290653E+04  0.25383290653E+04  0.00000000000E+00 0. -1.
          1   -1    0    0  501    0 -0.00000000000E+00 -0.00000000000E+00 -0.90089471715E+02  0.90089471715E+02  0.00000000000E+00 0. -1.
         25    2    1    2    0    0 -0.42489897069E+02 -0.65856756813E+02  0.11000102018E+03  0.18403266897E+03  0.12500118013E+03 0.  0.
          2    1    1    2  501    0 -0.39482164649E+02 -0.42699818636E+01 -0.44249597807E+02  0.59456715152E+02  0.00000000000E+00 0. -1.
          1    1    1    2  502    0  0.81972061719E+02  0.70126738677E+02  0.23824881712E+04  0.23849291529E+04  0.00000000000E+00 0. -1.
         22    1    3    3    0    0 -0.37653736593E+02 -0.81884620071E+02  0.12985194213E+03  0.15806461261E+03  0.00000000000E+00 0.  1.
         22    1    3    3    0    0 -0.48361604767E+01  0.16027863258E+02 -0.19850921950E+02  0.25968056358E+02  0.00000000000E+00 0.  1.
</event>
<event>
 7    1  0.5993218E-006  0.6244099E+02  0.7818608E-02  0.1420162E+00
          2   -1    0    0  502    0  0.00000000000E+00  0.00000000000E+00  0.13113414038E+04  0.13113414038E+04  0.00000000000E+00 0. -1.
          1   -1    0    0  501    0 -0.00000000000E+00 -0.00000000000E+00 -0.95499970425E+03  0.95499970425E+03  0.00000000000E+00 0. -1.
         25    2    1    2    0    0  0.87675706507E+02  0.48013008550E+02  0.14560627608E+03  0.21637646478E+03  0.12500123349E+03 0.  0.
          2    1    1    2  501    0 -0.39254345020E+02 -0.48332723917E+02 -0.91804098325E+03  0.92015009794E+03  0.00000000000E+00 0. -1.
          1    1    1    2  502    0 -0.48421361488E+02  0.31971536652E+00  0.11287764067E+04  0.11298145453E+04  0.00000000000E+00 0. -1.
         22    1    3    3    0    0 -0.16985522666E+02  0.33613161633E+02  0.88730909407E+02  0.96392566619E+02  0.00000000000E+00 0. -1.
         22    1    3    3    0    0  0.10466122917E+03  0.14399846917E+02  0.56875366677E+02  0.11998389816E+03  0.00000000000E+00 0. -1.
</event>
<event>
 7    1  0.5993218E-006  0.5791453E+02  0.7818608E-02  0.1465253E+00
          2   -1    0    0  502    0  0.00000000000E+00  0.00000000000E+00  0.19963474389E+03  0.19963474389E+03  0.00000000000E+00 0. -1.
          1   -1    0    0  501    0 -0.00000000000E+00 -0.00000000000E+00 -0.25765668156E+04  0.25765668156E+04  0.00000000000E+00 0. -1.
         25    2    1    2    0    0 -0.84281250937E+02  0.37016620447E+02 -0.13595908085E+03  0.20635467517E+03  0.12499528331E+03 0.  0.
          2    1    1    2  501    0  0.28917837191E+02 -0.23588076622E+02 -0.24003263828E+04  0.24006164589E+04  0.00000000000E+00 0. -1.
          1    1    1    2  502    0  0.55363413747E+02 -0.13428543825E+02  0.15935339194E+03  0.16923042544E+03  0.00000000000E+00 0. -1.
         22    1    3    3    0    0 -0.82032659324E+02 -0.10666426967E+02 -0.13533457367E+03  0.15861455384E+03  0.00000000000E+00 0.  1.
         22    1    3    3    0    0 -0.22485916137E+01  0.47683047414E+02 -0.62450718177E+00  0.47740121326E+02  0.00000000000E+00 0.  1.
</event>
<event>
 7    1  0.5993218E-006  0.1318773E+03  0.7818608E-02  0.1233955E+00
          2   -1    0    0  502    0  0.00000000000E+00  0.00000000000E+00  0.29337474874E+04  0.29337474874E+04  0.00000000000E+00 0. -1.
          1   -1    0    0  501    0 -0.00000000000E+00 -0.00000000000E+00 -0.36172749720E+03  0.36172749720E+03  0.00000000000E+00 0. -1.
         25    2    1    2    0    0 -0.16457342298E+03  0.92019950537E+02  0.13383595526E+04  0.13573442383E+04  0.12500002505E+03 0.  0.
          2    1    1    2  501    0  0.41272169970E+02 -0.11251119276E+03 -0.33949045565E+03  0.36002212430E+03  0.00000000000E+00 0. -1.
          1    1    1    2  502    0  0.12330125301E+03  0.20491242220E+02  0.15731508932E+04  0.15781086220E+04  0.00000000000E+00 0. -1.
         22    1    3    3    0    0 -0.74518584426E+02  0.11443937808E+02  0.88336323776E+03  0.88657464038E+03  0.00000000000E+00 0.  1.
         22    1    3    3    0    0 -0.90054838557E+02  0.80576012729E+02  0.45499631485E+03  0.47076959790E+03  0.00000000000E+00 0.  1.
</event>
<event>
 7    1  0.5993218E-006  0.1824203E+03  0.7818608E-02  0.1278316E+00
          2   -1    0    0  502    0  0.00000000000E+00  0.00000000000E+00  0.18867719096E+04  0.18867719096E+04  0.00000000000E+00 0. -1.
          1   -1    0    0  501    0 -0.00000000000E+00 -0.00000000000E+00 -0.80484500983E+03  0.80484500983E+03  0.00000000000E+00 0. -1.
         25    2    1    2    0    0  0.20107396951E+03  0.71530475297E+02 -0.45032560938E+03  0.51377875219E+03  0.12501240592E+03 0.  0.
          2    1    1    2  501    0 -0.15922169743E+03 -0.34530460019E+02 -0.30178243018E+03  0.34295267423E+03  0.00000000000E+00 0. -1.
          1    1    1    2  502    0 -0.41852272080E+02 -0.37000015278E+02  0.18340349393E+04  0.18348854930E+04  0.00000000000E+00 0. -1.
         22    1    3    3    0    0  0.10191660653E+03  0.95076980096E+02 -0.31422040058E+03  0.34374567193E+03  0.00000000000E+00 0. -1.
         22    1    3    3    0    0  0.99157362983E+02 -0.23546504799E+02 -0.13610520879E+03  0.17003308026E+03  0.00000000000E+00 0. -1.
</event>
<event>
 7    1  0.5993218E-006  0.8719884E+02  0.7818608E-02  0.1406120E+00
          2   -1    0    0  502    0  0.00000000000E+00  0.00000000000E+00  0.26790449002E+03  0.26790449002E+03  0.00000000000E+00 0. -1.
          1   -1    0    0  501    0 -0.00000000000E+00 -0.00000000000E+00 -0.46294529192E+03  0.46294529192E+03  0.00000000000E+00 0. -1.
         25    2    1    2    0    0 -0.84277014520E+02  0.60190853623E+02  0.20396586635E+03  0.26067355177E+03  0.12499228745E+03 0.  0.
          2    1    1    2  501    0  0.21922731823E+02 -0.31855287053E+02 -0.39981515075E+03  0.40168086867E+03  0.00000000000E+00 0. -1.
          1    1    1    2  502    0  0.62354282697E+02 -0.28335566570E+02  0.80848250768E+00  0.68495361504E+02  0.00000000000E+00 0. -1.
         22    1    3    3    0    0 -0.30819155460E+02 -0.32654879683E+02  0.10752839377E+03  0.11652689380E+03  0.00000000000E+00 0.  1.
         22    1    3    3    0    0 -0.53457859060E+02  0.92845733306E+02  0.96437472578E+02  0.14414665798E+03  0.00000000000E+00 0.  1.
</event>
<event>
 7    1  0.5993218E-006  0.1298180E+03  0.7818608E-02  0.1307347E+00
          2   -1    0    0  502    0  0.00000000000E+00  0.00000000000E+00  0.48502392665E+03  0.48502392665E+03  0.00000000000E+00 0. -1.
          1   -1    0    0  501    0 -0.00000000000E+00 -0.00000000000E+00 -0.21141320498E+03  0.21141320498E+03  0.00000000000E+00 0. -1.
         25    2    1    2    0    0  0.85848349805E+02 -0.13372387956E+02  0.21085580923E+03  0.26006418753E+03  0.12499779769E+03 0.  0.
          2    1    1    2  501    0 -0.11911013466E+03  0.63167231687E+02 -0.15796259369E+03  0.20767644148E+03  0.00000000000E+00 0. -1.
          1    1    1    2  502    0  0.33261784854E+02 -0.49794843732E+02  0.22071750614E+03  0.22869650262E+03  0.00000000000E+00 0. -1.
         22    1    3    3    0    0  0.80963310238E+02 -0.59364524564E+02  0.17415807362E+03  0.20102298124E+03  0.00000000000E+00 0. -1.
         22    1    3    3    0    0  0.48850395671E+01  0.45992136609E+02  0.36697735611E+02  0.59041206291E+02  0.00000000000E+00 0. -1.
</event>
<event>
 7    1  0.5993218E-006  0.1145304E+03  0.7818608E-02  0.1300009E+00
          2   -1    0    0  502    0  0.00000000000E+00  0.00000000000E+00  0.62549997518E+03  0.62549997518E+03  0.00000000000E+00 0. -1.
          1   -1    0    0  501    0 -0.00000000000E+00 -0.00000000000E+00 -0.12634695288E+03  0.12634695288E+03  0.00000000000E+00 0. -1.
         25    2    1    2    0    0  0.50059995323E+02 -0.15394031539E+03  0.18459536141E+03  0.27550628607E+03  0.12499856948E+03 0.  0.
          2    1    1    2  501    0 -0.68524793042E+02  0.83730673034E+02 -0.39299945247E+02  0.11511280800E+03  0.00000000000E+00 0. -1.
          1    1    1    2  502    0  0.18464797720E+02  0.70209642353E+02  0.35385760614E+03  0.36122783400E+03  0.00000000000E+00 0. -1.
         22    1    3    3    0    0  0.76914577977E+02 -0.15889035020E+03  0.15171024199E+03  0.23276166612E+03  0.00000000000E+00 0.  1.
         22    1    3    3    0    0 -0.26854582654E+02  0.49500348171E+01  0.32885119427E+02  0.42744619941E+02  0.00000000000E+00 0.  1.
</event>
<event>
 7    1  0.5993218E-006  0.7307792E+02  0.7818608E-02  0.1383437E+00
          2   -1    0    0  502    0  0.00000000000E+00  0.00000000000E+00  0.72160415287E+03  0.72160415287E+03  0.00000000000E+00 0. -1.
          1   -1    0    0  501    0 -0.00000000000E+00 -0.00000000000E+00 -0.37489303819E+03  0.37489303819E+03  0.00000000000E+00 0. -1.
         25    2    1    2    0    0 -0.33350506601E+01  0.18344359691E+02  0.22477538397E+03  0.25787042096E+03  0.12500217066E+03 0.  0.
          2    1    1    2  501    0  0.13038076572E+02 -0.72783594465E+02 -0.35290953851E+03  0.36057257998E+03  0.00000000000E+00 0. -1.
          1    1    1    2  502    0 -0.97030259120E+01  0.54439234773E+02  0.47484526921E+03  0.47805419012E+03  0.00000000000E+00 0. -1.
         22    1    3    3    0    0  0.55865918752E+02  0.10828668725E+02  0.15989222911E+03  0.16971678135E+03  0.00000000000E+00 0.  1.
         22    1    3    3    0    0 -0.59200969412E+02  0.75156909663E+01  0.64883154864E+02  0.88153639602E+02  0.00000000000E+00 0.  1.
</event>
<event>
 7    1  0.5993218E-006  0.1080071E+03  0.7818608E-02  0.1341997E+00
          2   -1    0    0  502    0  0.00000000000E+00  0.00000000000E+00  0.19315048061E+02  0.19315048061E+02  0.00000000000E+00 0. -1.
          1   -1    0    0  501    0 -0.00000000000E+00 -0.00000000000E+00 -0.16225477949E+04  0.16225477949E+04  0.00000000000E+00 0. -1.
         25    2    1    2    0    0  0.94266045136E+02  0.73674558372E+02 -0.84051400941E+03  0.85813896341E+03  0.12499861077E+03 0.  0.
          2    1    1    2  501    0 -0.46155524495E+02 -0.95737471805E+02 -0.65651172095E+03  0.66505912196E+03  0.00000000000E+00 0. -1.
          1    1    1    2  502    0 -0.48110520641E+02  0.22062913433E+02 -0.10620701647E+03  0.11866475758E+03  0.00000000000E+00 0. -1.
         22    1    3    3    0    0 -0.42461893444E+01 -0.95101749680E+01 -0.37372487842E+03  0.37386997512E+03  0.00000000000E+00 0. -1.
         22    1    3    3    0    0  0.98512234480E+02  0.83184733340E+02 -0.46678913099E+03  0.48426898829E+03  0.00000000000E+00 0. -1.
</event>
<event>
 7    1  0.5993218E-006  0.1252170E+03  0.7818608E-02  0.1311801E+00
          2   -1    0    0  502    0  0.00000000000E+00  0.00000000000E+00  0.51024629654E+03  0.51024629654E+03  0.00000000000E+00 0. -1.
          1   -1    0    0  501    0 -0.00000000000E+00 -0.00000000000E+00 -0.38861271215E+03  0.38861271215E+03  0.00000000000E+00 0. -1.
         25    2    1    2    0    0  0.91869971221E+02 -0.39241452103E+02 -0.14833318147E+03  0.21819278470E+03  0.12500150158E+03 0.  0.
          2    1    1    2  501    0 -0.14603139007E+03  0.14315633501E+02 -0.17690311163E+03  0.22983649656E+03  0.00000000000E+00 0. -1.
          1    1    1    2  502    0  0.54161418851E+02  0.24925818602E+02  0.44686987749E+03  0.45082972743E+03  0.00000000000E+00 0. -1.
         22    1    3    3    0    0  0.74959678859E+02  0.26340451093E+02 -0.36467014284E+02  0.87422056423E+02  0.00000000000E+00 0.  1.
         22    1    3    3    0    0  0.16910292362E+02 -0.65581903195E+02 -0.11186616718E+03  0.13077072828E+03  0.00000000000E+00 0.  1.
</event>
<event>
 7    1  0.5993218E-006  0.5371012E+02  0.7818608E-02  0.1426704E+00
          2   -1    0    0  502    0  0.00000000000E+00  0.00000000000E+00  0.77096111704E+01  0.77096111704E+01  0.00000000000E+00 0. -1.
          1   -1    0    0  501    0 -0.00000000000E+00 -0.00000000000E+00 -0.42675853887E+04  0.42675853887E+04  0.00000000000E+00 0. -1.
         25    2    1    2    0    0 -0.48437306420E+01  0.15637543023E+02 -0.98116242286E+03  0.98922801144E+03  0.12499745638E+03 0.  0.
          2    1    1    2  501    0  0.21662462023E+02  0.48966895576E+02 -0.29577486732E+04  0.29582332959E+04  0.00000000000E+00 0. -1.
          1    1    1    2  502    0 -0.16818731381E+02 -0.64604438599E+02 -0.32096468143E+03  0.32783369250E+03  0.00000000000E+00 0. -1.
         22    1    3    3    0    0 -0.96025298435E+01  0.68496623550E+02 -0.43137377814E+03  0.43688366013E+03  0.00000000000E+00 0.  1.
         22    1    3    3    0    0  0.47587992015E+01 -0.52859080528E+02 -0.54978864471E+03  0.55234435131E+03  0.00000000000E+00 0.  1.
</event>
<event>
 7    1  0.5993218E-006  0.7670845E+02  0.7818608E-02  0.1397749E+00
          2   -1    0    0  502    0  0.00000000000E+00  0.00000000000E+00  0.47110079114E+03  0.47110079114E+03  0.00000000000E+00 0. -1.
          1   -1    0    0  501    0 -0.00000000000E+00 -0.00000000000E+00 -0.23447245927E+04  0.23447245927E+04  0.00000000000E+00 0. -1.
         25    2    1    2    0    0  0.43053765340E+02 -0.38145461401E+02 -0.14339352158E+04  0.14405218629E+04  0.12499732592E+03 0.  0.
          2    1    1    2  501    0 -0.88903355000E+02  0.27985035324E+02 -0.90391514891E+03  0.90870763459E+03  0.00000000000E+00 0. -1.
          1    1    1    2  502    0  0.45849589660E+02  0.10160426077E+02  0.46422656319E+03  0.46659588629E+03  0.00000000000E+00 0. -1.
         22    1    3    3    0    0  0.17262643994E+02  0.43360141897E+02 -0.33034307707E+03  0.33362351439E+03  0.00000000000E+00 0.  1.
         22    1    3    3    0    0  0.25791121345E+02 -0.81505603298E+02 -0.11035921388E+04  0.11068983485E+04  0.00000000000E+00 0.  1.
</event>
<event>
 7    1  0.5993218E-006  0.7244483E+02  0.7818608E-02  0.1424589E+00
          2   -1    0    0  502    0  0.00000000000E+00  0.00000000000E+00  0.54755977829E+03  0.54755977829E+03  0.00000000000E+00 0. -1.
          1   -1    0    0  501    0 -0.00000000000E+00 -0.00000000000E+00 -0.14951731416E+03  0.14951731416E+03  0.00000000000E+00 0. -1.
         25    2    1    2    0    0  0.85124882722E+02 -0.62354797876E+02 -0.15908498254E+01  0.16359246789E+03  0.12500239306E+03 0.  0.
          2    1    1    2  501    0 -0.56210134590E+02  0.34220783975E+02 -0.49623226580E+02  0.82420300307E+02  0.00000000000E+00 0. -1.
          1    1    1    2  502    0 -0.28914748132E+02  0.28134013900E+02  0.44925654054E+03  0.45106432425E+03  0.00000000000E+00 0. -1.
         22    1    3    3    0    0  0.10622928181E+02 -0.83942881620E+02  0.98607860075E+01  0.85185028488E+02  0.00000000000E+00 0. -1.
         22    1    3    3    0    0  0.74501954540E+02  0.21588083744E+02 -0.11451635833E+02  0.78407439401E+02  0.00000000000E+00 0. -1.
</event>
<event>
 7    1  0.5993218E-006  0.2082728E+03  0.7818608E-02  0.1261255E+00
          2   -1    0    0  502    0  0.00000000000E+00  0.00000000000E+00  0.27200850198E+04  0.27200850198E+04  0.00000000000E+00 0. -1.
          1   -1    0    0  501    0 -0.00000000000E+00 -0.00000000000E+00 -0.14703025240E+03  0.14703025240E+03  0.00000000000E+00 0. -1.
         25    2    1    2    0    0  0.73245213143E+02 -0.15178213384E+03  0.54032793559E+03  0.57963933130E+03  0.12499919602E+03 0.  0.
          2    1    1    2  501    0 -0.53072195391E+01 -0.57462804837E+02 -0.11491751820E+03  0.12859306555E+03  0.00000000000E+00 0. -1.
          1    1    1    2  502    0 -0.67937993604E+02  0.20924493867E+03  0.21476443500E+04  0.21588828753E+04  0.00000000000E+00 0. -1.
         22    1    3    3    0    0  0.44371591588E+02 -0.67878209356E+02  0.92104655356E+02  0.12271738664E+03  0.00000000000E+00 0. -1.
         22    1    3    3    0    0  0.28873621555E+02 -0.83903924480E+02  0.44822328024E+03  0.45692194466E+03  0.00000000000E+00 0. -1.
</event>
<event>
 7    1  0.5993218E-006  0.8966382E+02  0.7818608E-02  0.1349474E+00
          2   -1    0    0  502    0  0.00000000000E+00  0.00000000000E+00  0.18441585370E+04  0.18441585370E+04  0.00000000000E+00 0. -1.
          1   -1    0    0  501    0 -0.00000000000E+00 -0.00000000000E+00 -0.12867585517E+03  0.12867585517E+03  0.00000000000E+00 0. -1.
         25    2    1    2    0    0  0.50705555103E+02 -0.52957606686E+02  0.23809365233E+03  0.27872806057E+03  0.12500073217E+03 0.  0.
          2    1    1    2  501    0 -0.45541661680E+02 -0.38742813004E+02 -0.98670472249E+02  0.11537291971E+03  0.00000000000E+00 0. -1.
          1    1    1    2  502    0 -0.51638934234E+01  0.91700419689E+02  0.15760595018E+04  0.15787334119E+04  0.00000000000E+00 0. -1.
         22    1    3    3    0    0  0.79960460659E+02 -0.19123155743E+02  0.21095680186E+03  0.22641144540E+03  0.00000000000E+00 0.  1.
         22    1    3    3    0    0 -0.29254905556E+02 -0.33834450942E+02  0.27136850471E+02  0.52316615173E+02  0.00000000000E+00 0.  1.
</event>
<event>
 7    1  0.5993218E-006  0.4719941E+02  0.7818608E-02  0.1487069E+00
          2   -1    0    0  502    0  0.00000000000E+00  0.00000000000E+00  0.37131344985E+02  0.37131344985E+02  0.00000000000E+00 0. -1.
          1   -1    0    0  501    0 -0.00000000000E+00 -0.00000000000E+00 -0.78110318929E+03  0.78110318929E+03  0.00000000000E+00 0. -1.
         25    2    1    2    0    0  0.28565195930E+02 -0.50929492719E+02 -0.27311830407E+03  0.30598638977E+03  0.12499711620E+03 0.  0.
          2    1    1    2  501    0  0.10371591082E+02  0.46243656252E+02 -0.47064979069E+03  0.47302988397E+03  0.00000000000E+00 0. -1.
          1    1    1    2  502    0 -0.38936787012E+02  0.46858364676E+01 -0.20374954299E+00  0.39218260544E+02  0.00000000000E+00 0. -1.
         22    1    3    3    0    0  0.48510566022E+02 -0.67126363445E+02 -0.95034515809E+02  0.12605864857E+03  0.00000000000E+00 0.  1.
         22    1    3    3    0    0 -0.19945370092E+02  0.16196870725E+02 -0.17808378826E+03  0.17992774120E+03  0.00000000000E+00 0.  1.
</event>
<event>
 7    1  0.5993218E-006  0.5261641E+02  0.7818608E-02  0.1463038E+00
          2   -1    0    0  502    0  0.00000000000E+00  0.00000000000E+00  0.13070622327E+04  0.13070622327E+04  0.00000000000E+00 0. -1.
          1   -1    0    0  501    0 -0.00000000000E+00 -0.00000000000E+00 -0.42850539002E+03  0.42850539002E+03  0.00000000000E+00 0. -1.
         25    2    1    2    0    0 -0.27309448139E+02  0.43722869082E+02 -0.25614087764E+03  0.28963984386E+03  0.12500237883E+03 0.  0.
          2    1    1    2  501    0 -0.12812276205E+02 -0.55224847451E+02 -0.15010159344E+03  0.16045069819E+03  0.00000000000E+00 0. -1.
          1    1    1    2  502    0  0.40121724344E+02  0.11501978368E+02  0.12847993137E+04  0.12854770806E+04  0.00000000000E+00 0. -1.
         22    1    3    3    0    0  0.15797228237E+02  0.27608777375E+02 -0.25541324079E+01  0.31911135994E+02  0.00000000000E+00 0. -1.
         22    1    3    3    0    0 -0.43106676376E+02  0.16114091707E+02 -0.25358674523E+03  0.25772870787E+03  0.00000000000E+00 0. -1.
</event>
<event>
 7    1  0.5993218E-006  0.5227164E+02  0.7818608E-02  0.1489803E+00
          2   -1    0    0  502    0  0.00000000000E+00  0.00000000000E+00  0.12138023677E+03  0.12138023677E+03  0.00000000000E+00 0. -1.
          1   -1    0    0  501    0 -0.00000000000E+00 -0.00000000000E+00 -0.22259539856E+03  0.22259539856E+03  0.00000000000E+00 0. -1.
         25    2    1    2    0    0  0.24173190826E+02  0.69189785259E+02 -0.51549204143E+01  0.14499490254E+03  0.12500151607E+03 0.  0.
          2    1    1    2  501    0 -0.36019328756E+02 -0.36528992406E+02 -0.13640817056E+03  0.14573588551E+03  0.00000000000E+00 0. -1.
          1    1    1    2  502    0  0.11846137930E+02 -0.32660792853E+02  0.40347929174E+02  0.53244847284E+02  0.00000000000E+00 0. -1.
         22    1    3    3    0    0 -0.50168075237E+02  0.43025546053E+02 -0.20791459375E+01  0.66123794764E+02  0.00000000000E+00 0. -1.
         22    1    3    3    0    0  0.74341266064E+02  0.26164239206E+02 -0.30757744769E+01  0.78871107776E+02  0.00000000000E+00 0. -1.
</event>
<event>
 7    1  0.5993218E-006  0.2445741E+03  0.7818608E-02  0.1294713E+00
          2   -1    0    0  502    0  0.00000000000E+00  0.00000000000E+00  0.16562542281E+04  0.16562542281E+04  0.00000000000E+00 0. -1.
          1   -1    0    0  501    0 -0.00000000000E+00 -0.00000000000E+00 -0.79189414514E+03  0.79189414514E+03  0.00000000000E+00 0. -1.
         25    2    1    2    0    0 -0.18657858172E+03  0.15237270890E+03  0.48164187775E+03  0.55283973025E+03  0.12499543736E+03 0.  0.
          2    1    1    2  501    0 -0.24956146373E+02 -0.25533996200E+02 -0.74250865304E+03  0.74336659465E+03  0.00000000000E+00 0. -1.
          1    1    1    2  502    0  0.21153472810E+03 -0.12683871270E+03  0.11252268582E+04  0.11519420483E+04  0.00000000000E+00 0. -1.
         22    1    3    3    0    0 -0.11904588532E+03  0.17209886498E+02  0.21610061966E+03  0.24732080548E+03  0.00000000000E+00 0.  1.
         22    1    3    3    0    0 -0.67532696404E+02  0.13516282240E+03  0.26554125809E+03  0.30551892477E+03  0.00000000000E+00 0.  1.
</event>
<event>
 7    1  0.5993218E-006  0.1668633E+03  0.7818608E-02  0.1330714E+00
          2   -1    0    0  502    0  0.00000000000E+00  0.00000000000E+00  0.24741633939E+03  0.24741633939E+03  0.00000000000E+00 0. -1.
          1   -1    0    0  501    0 -0.00000000000E+00 -0.00000000000E+00 -0.11735508134E+04  0.11735508134E+04  0.00000000000E+00 0. -1.
         25    2    1    2    0    0 -0.14369981597E+03  0.12899369108E+03 -0.60024716199E+02  0.23773539656E+03  0.12500457101E+03 0.  0.
          2    1    1    2  501    0  0.13716469035E+03 -0.91765095895E+02 -0.10156593310E+04  0.10289795245E+04  0.00000000000E+00 0. -1.
          1    1    1    2  502    0  0.65351256211E+01 -0.37228595187E+02  0.14954957319E+03  0.15425223177E+03  0.00000000000E+00 0. -1.
         22    1    3    3    0    0 -0.11623055075E+03  0.29074274330E+02 -0.60251776048E+02  0.13410865324E+03  0.00000000000E+00 0.  1.
         22    1    3    3    0    0 -0.27469265215E+02  0.99919416752E+02  0.22705984927E+00  0.10362674332E+03  0.00000000000E+00 0.  1.
</event>
<event>
 7    1  0.5993218E-006  0.6501212E+02  0.7818608E-02  0.1400273E+00
          2   -1    0    0  502    0  0.00000000000E+00  0.00000000000E+00  0.18730737906E+02  0.18730737906E+02  0.00000000000E+00 0. -1.
          1   -1    0    0  501    0 -0.00000000000E+00 -0.00000000000E+00 -0.25213082042E+04  0.25213082042E+04  0.00000000000E+00 0. -1.
         25    2    1    2    0    0 -0.18816329321E+02 -0.79948076311E+02 -0.14292856387E+04  0.14370904120E+04  0.12500266406E+03 0.  0.
          2    1    1    2  501    0 -0.34231460775E+02  0.42167254813E+02 -0.10121904942E+04  0.10136466183E+04  0.00000000000E+00 0. -1.
          1    1    1    2  502    0  0.53047790097E+02  0.37780821498E+02 -0.61101333320E+02  0.89301911741E+02  0.00000000000E+00 0. -1.
         22    1    3    3    0    0  0.12249216467E+02  0.11977207949E+02 -0.81569043298E+03  0.81587032013E+03  0.00000000000E+00 0.  1.
         22    1    3    3    0    0 -0.31065545788E+02 -0.91925284260E+02 -0.61359520575E+03  0.62122009187E+03  0.00000000000E+00 0.  1.
</event>
<event>
 7    1  0.5993218E-006  0.6424579E+02  0.7818608E-02  0.1518391E+00
          2   -1    0    0  502    0  0.00000000000E+00  0.00000000000E+00  0.13552288137E+04  0.13552288137E+04  0.00000000000E+00 0. -1.
          1   -1    0    0  501    0 -0.00000000000E+00 -0.00000000000E+00 -0.84978574868E+02  0.84978574868E+02  0.00000000000E+00 0. -1.
         25    2    1    2    0    0  0.54316666894E+02  0.58236606231E+02  0.21855236273E+03  0.26406854783E+03  0.12500104035E+03 0.  0.
          2    1    1    2  501    0 -0.10832385719E+01 -0.23225880385E+02 -0.59103059907E+02  0.63512098185E+02  0.00000000000E+00 0. -1.
          1    1    1    2  502    0 -0.53233428322E+02 -0.35010725846E+02  0.11108009360E+04  0.11126267425E+04  0.00000000000E+00 0. -1.
         22    1    3    3    0    0 -0.14433153938E+02  0.75057106955E+02  0.12874116168E+03  0.14972031241E+03  0.00000000000E+00 0.  1.
         22    1    3    3    0    0  0.68749820832E+02 -0.16820500725E+02  0.89811201050E+02  0.11434823542E+03  0.00000000000E+00 0.  1.
</event>
<event>
 7    1  0.5993218E-006  0.5224118E+02  0.7818608E-02  0.1435784E+00
          2   -1    0    0  502    0  0.00000000000E+00  0.00000000000E+00  0.30220605431E+04  0.30220605431E+04  0.00000000000E+00 0. -1.
          1   -1    0    0  501    0 -0.00000000000E+00 -0.00000000000E+00 -0.21971389393E+02  0.21971389393E+02  0.00000000000E+00 0. -1.
         25    2    1    2    0    0 -0.43664404908E+02 -0.60791784720E+01  0.72413787195E+03  0.73616857923E+03  0.12499993118E+03 0.  0.
          2    1    1    2  501    0  0.27484768432E+02 -0.44426667512E+02  0.27971935640E+02  0.59258505427E+02  0.00000000000E+00 0. -1.
          1    1    1    2  502    0  0.16179636476E+02  0.50505845984E+02  0.22479793461E+04  0.22486048478E+04  0.00000000000E+00 0. -1.
         22    1    3    3    0    0 -0.75231527731E+02  0.80712429891E+01  0.26115063103E+03  0.27189074978E+03  0.00000000000E+00 0. -1.
         22    1    3    3    0    0  0.31567122822E+02 -0.14150421461E+02  0.46298724092E+03  0.46427782946E+03  0.00000000000E+00 0. -1.
</event>
<event>
 7    1  0.5993218E-006  0.9954762E+02  0.7818608E-02  0.1371833E+00
          2   -1    0    0  502    0  0.00000000000E+00  0.00000000000E+00  0.30751864919E+03  0.30751864919E+03  0.00000000000E+00 0. -1.
          1   -1    0    0  501    0 -0.00000000000E+00 -0.00000000000E+00 -0.21734881215E+03  0.21734881215E+03  0.00000000000E+00 0. -1.
         25    2    1    2    0    0 -0.83897494346E+02 -0.90369113590E+02  0.11451074822E+03  0.20964571558E+03  0.12503298906E+03 0.  0.
          2    1    1    2  501    0  0.86611534761E+02  0.45813866724E+02 -0.15151776173E+03  0.18043863349E+03  0.00000000000E+00 0. -1.
          1    1    1    2  502    0 -0.27140404146E+01  0.44555246866E+02  0.12717685055E+03  0.13478311227E+03  0.00000000000E+00 0. -1.
         22    1    3    3    0    0 -0.82012780677E+02 -0.30269893663E+02  0.85816844333E+01  0.87840810359E+02  0.00000000000E+00 0. -1.
         22    1    3    3    0    0 -0.18847136687E+01 -0.60099219927E+02  0.10592906378E+03  0.12180490522E+03  0.00000000000E+00 0. -1.
</event>
<event>
 7    1  0.5993218E-006  0.1822878E+03  0.7818608E-02  0.1178775E+00
          2   -1    0    0  502    0  0.00000000000E+00  0.00000000000E+00  0.45942155820E+03  0.45942155820E+03  0.00000000000E+00 0. -1.
          1   -1    0    0  501    0 -0.00000000000E+00 -0.00000000000E+00 -0.58269477249E+03  0.58269477249E+03  0.00000000000E+00 0. -1.
         25    2    1    2    0    0 -0.30432575792E+03  0.61379060328E+02 -0.11348021061E+03  0.35339082687E+03  0.12500304931E+03 0.  0.
          2    1    1    2  501    0  0.15527246372E+03  0.22481806354E+02 -0.30760157686E+03  0.34530233085E+03  0.00000000000E+00 0. -1.
          1    1    1    2  502    0  0.14905329420E+03 -0.83860866682E+02  0.29780857318E+03  0.34342317297E+03  0.00000000000E+00 0. -1.
         22    1    3    3    0    0  0.10548921207E+02  0.11679353085E+02 -0.77370823342E+01  0.17537088418E+02  0.00000000000E+00 0.  1.
         22    1    3    3    0    0 -0.31487467912E+03  0.49699707243E+02 -0.10574312827E+03  0.33585373845E+03  0.00000000000E+00 0.  1.
</event>
<event>
 7    1  0.5993218E-006  0.1765598E+03  0.7818608E-02  0.1311506E+00
          2   -1    0    0  502    0  0.00000000000E+00  0.00000000000E+00  0.26285410908E+04  0.26285410908E+04  0.00000000000E+00 0. -1.
          1   -1    0    0  501    0 -0.00000000000E+00 -0.00000000000E+00 -0.83186002843E+02  0.83186002843E+02  0.00000000000E+00 0. -1.
         25    2    1    2    0    0  0.10164640433E+03  0.13398438304E+03  0.50464912777E+03  0.54642577954E+03  0.12500633575E+03 0.  0.
          2    1    1    2  501    0 -0.13891822071E+03 -0.11377747865E+03  0.67798055806E+02  0.19193791461E+03  0.00000000000E+00 0. -1.
          1    1    1    2  502    0  0.37271816382E+02 -0.20206904389E+02  0.19729079044E+04  0.19733633995E+04  0.00000000000E+00 0. -1.
         22    1    3    3    0    0  0.50360248629E+02  0.56894494496E+02  0.74453938765E+02  0.10637916687E+03  0.00000000000E+00 0.  1.
         22    1    3    3    0    0  0.51286155703E+02  0.77089888543E+02  0.43019518900E+03  0.44004661267E+03  0.00000000000E+00 0.  1.
</event>
<event>
 7    1  0.5993218E-006  0.4288542E+02  0.7818608E-02  0.1528055E+00
          2   -1    0    0  502    0  0.00000000000E+00  0.00000000000E+00  0.47834918762E+03  0.47834918762E+03  0.00000000000E+00 0. -1.
          1   -1    0    0  501    0 -0.00000000000E+00 -0.00000000000E+00 -0.92539898556E+03  0.92539898556E+03  0.00000000000E+00 0. -1.
         25    2    1    2    0    0  0.61450708668E+02  0.42455103707E+02 -0.57635030897E+01  0.14572460071E+03  0.12499526334E+03 0.  0.
          2    1    1    2  501    0 -0.32156477911E+02 -0.28010811991E+02 -0.84846547124E+03  0.84953652102E+03  0.00000000000E+00 0. -1.
          1    1    1    2  502    0 -0.29294230758E+02 -0.14444291716E+02  0.40717917639E+03  0.40848705145E+03  0.00000000000E+00 0. -1.
         22    1    3    3    0    0  0.28502926380E+02 -0.43461471494E+02  0.83190548532E+01  0.52635757715E+02  0.00000000000E+00 0.  1.
         22    1    3    3    0    0  0.32947782288E+02  0.85916575201E+02 -0.14082557943E+02  0.93088842995E+02  0.00000000000E+00 0.  1.
</event>
<event>
 7    1  0.5993218E-006  0.8938546E+02  0.7818608E-02  0.1472779E+00
          2   -1    0    0  502    0  0.00000000000E+00  0.00000000000E+00  0.14918584539E+03  0.14918584539E+03  0.00000000000E+00 0. -1.
          1   -1    0    0  501    0 -0.00000000000E+00 -0.00000000000E+00 -0.15448320503E+03  0.15448320503E+03  0.00000000000E+00 0. -1.
         25    2    1    2    0    0  0.65077966068E+02 -0.39286080261E+02  0.12221362270E+02  0.14680785188E+03  0.12499858363E+03 0.  0.
          2    1    1    2  501    0  0.22906746503E+02 -0.27182221154E+00 -0.50059617635E+02  0.55052322752E+02  0.00000000000E+00 0. -1.
          1    1    1    2  502    0 -0.87984712571E+02  0.39557902473E+02  0.32540895732E+02  0.10180887579E+03  0.00000000000E+00 0. -1.
         22    1    3    3    0    0  0.31057109639E+02 -0.79623536328E+02  0.30826283999E+02  0.90855442223E+02  0.00000000000E+00 0.  1.
         22    1    3    3    0    0  0.34020856429E+02  0.40337456067E+02 -0.18604921728E+02  0.55952409659E+02  0.00000000000E+00 0.  1.
</event>
<event>
 7    1  0.5993218E-006  0.1048744E+03  0.7818608E-02  0.1422459E+00
          2   -1    0    0  502    0  0.00000000000E+00  0.00000000000E+00  0.99768833422E+03  0.99768833422E+03  0.00000000000E+00 0. -1.
          1   -1    0    0  501    0 -0.00000000000E+00 -0.00000000000E+00 -0.74410571687E+02  0.74410571687E+02  0.00000000000E+00 0. -1.
         25    2    1    2    0    0  0.94980631441E+02  0.22910872703E+01  0.71702221231E+03  0.73401173339E+03  0.12500320943E+03 0.  0.
          2    1    1    2  501    0  0.25745355529E+02 -0.11813284701E+02 -0.48413359619E+02  0.56091268629E+02  0.00000000000E+00 0. -1.
          1    1    1    2  502    0 -0.12072598697E+03  0.95221974311E+01  0.25466890984E+03  0.28199590389E+03  0.00000000000E+00 0. -1.
         22    1    3    3    0    0  0.68863388216E+01 -0.50195393490E+02  0.31867075339E+03  0.32267328407E+03  0.00000000000E+00 0.  1.
         22    1    3    3    0    0  0.88094292619E+02  0.52486480760E+02  0.39835145893E+03  0.41133844932E+03  0.00000000000E+00 0.  1.
</event>
<event>
 7    1  0.5993218E-006  0.1035357E+03  0.7818608E-02  0.1397189E+00
          2   -1    0    0  502    0  0.00000000000E+00  0.00000000000E+00  0.17465367793E+04  0.17465367793E+04  0.00000000000E+00 0. -1.
          1   -1    0    0  501    0 -0.00000000000E+00 -0.00000000000E+00 -0.19401943724E+03  0.19401943724E+03  0.00000000000E+00 0. -1.
         25    2    1    2    0    0 -0.98697646413E+02  0.93566601027E+02  0.41996861941E+03  0.45879770634E+03  0.12500303925E+03 0.  0.
          2    1    1    2  501    0  0.68270749170E+02 -0.76373454142E+02 -0.15932314596E+03  0.18941400299E+03  0.00000000000E+00 0. -1.
          1    1    1    2  502    0  0.30426897243E+02 -0.17193146885E+02  0.12918718686E+04  0.12923445072E+04  0.00000000000E+00 0. -1.
         22    1    3    3    0    0 -0.11500637672E+03  0.93567447119E+02  0.41653111293E+03  0.44213063894E+03  0.00000000000E+00 0. -1.
         22    1    3    3    0    0  0.16308730308E+02 -0.84609167925E-03  0.34375064716E+01  0.16667067400E+02  0.00000000000E+00 0. -1.
</event>
<event>
 7    1  0.5993218E-006  0.3178522E+02  0.7818608E-02  0.1607206E+00
          2   -1    0    0  502    0  0.00000000000E+00  0.00000000000E+00  0.23653145503E+03  0.23653145503E+03  0.00000000000E+00 0. -1.
          1   -1    0    0  501    0 -0.00000000000E+00 -0.00000000000E+00 -0.99071949416E+03  0.99071949416E+03  0.00000000000E+00 0. -1.
         25    2    1    2    0    0  0.44609210699E+02 -0.23208104957E+02  0.32495251965E+01  0.13477640457E+03  0.12500208798E+03 0.  0.
          2    1    1    2  501    0 -0.31733858984E+02 -0.30639005378E+00 -0.92360920214E+03  0.92415425658E+03  0.00000000000E+00 0. -1.
          1    1    1    2  502    0 -0.12875351715E+02  0.23514495011E+02  0.16617163781E+03  0.16832028805E+03  0.00000000000E+00 0. -1.
         22    1    3    3    0    0  0.87250276719E+02 -0.14847976757E+02  0.14990687358E+02  0.89765215472E+02  0.00000000000E+00 0. -1.
         22    1    3    3    0    0 -0.42641066020E+02 -0.83601281998E+01 -0.11741162162E+02  0.45011189095E+02  0.00000000000E+00 0. -1.
</event>
<event>
 7    1  0.5993218E-006  0.6532029E+02  0.7818608E-02  0.1500371E+00
          2   -1    0    0  502    0  0.00000000000E+00  0.00000000000E+00  0.27271297206E+04  0.27271297206E+04  0.00000000000E+00 0. -1.
          1   -1    0    0  501    0 -0.00000000000E+00 -0.00000000000E+00 -0.15840095475E+02  0.15840095475E+02  0.00000000000E+00 0. -1.
         25    2    1    2    0    0  0.49488588853E+02 -0.19846477563E+02  0.12393531795E+04  0.12467815864E+04  0.12500007017E+03 0.  0.
          2    1    1    2  501    0 -0.48302615875E+02  0.45661664840E+02  0.79992757924E+02  0.10400467132E+03  0.00000000000E+00 0. -1.
          1    1    1    2  502    0 -0.11859729779E+01 -0.25815187278E+02  0.13919436878E+04  0.13921835584E+04  0.00000000000E+00 0. -1.
         22    1    3    3    0    0 -0.16236325616E+02  0.31726859110E+02  0.14781438162E+03  0.15205033138E+03  0.00000000000E+00 0.  1.
         22    1    3    3    0    0  0.65724914470E+02 -0.51573336673E+02  0.10915387978E+04  0.10947312550E+04  0.00000000000E+00 0.  1.
</event>
<event>
 7    1  0.5993218E-006  0.5337364E+02  0.7818608E-02  0.1437866E+00
          2   -1    0    0  502    0  0.00000000000E+00  0.00000000000E+00  0.72633163655E+02  0.72633163655E+02  0.00000000000E+00 0. -1.
          1   -1    0    0  501    0 -0.00000000000E+00 -0.00000000000E+00 -0.72572333624E+03  0.72572333624E+03  0.00000000000E+00 0. -1.
         25    2    1    2    0    0 -0.58913190957E+02  0.68882294340E+02 -0.34680551406E+03  0.37962454174E+03  0.12500077428E+03 0.  0.
          2    1    1    2  501    0  0.46105616103E+02 -0.18080841532E+02 -0.34815841705E+03  0.35166308881E+03  0.00000000000E+00 0. -1.
          1    1    1    2  502    0  0.12807574853E+02 -0.50801452808E+02  0.41873758529E+02  0.67068869339E+02  0.00000000000E+00 0. -1.
         22    1    3    3    0    0 -0.42579979107E+02  0.28211148401E+02 -0.32796455610E+03  0.33191817301E+03  0.00000000000E+00 0. -1.
         22    1    3    3    0    0 -0.16333211850E+02  0.40671145939E+02 -0.18840957960E+02  0.47706368739E+02  0.00000000000E+00 0. -1.
</event>
<event>
 7    1  0.5993218E-006  0.4070139E+02  0.7818608E-02  0.1609601E+00
          2   -1    0    0  502    0  0.00000000000E+00  0.00000000000E+00  0.10570675783E+04  0.10570675783E+04  0.00000000000E+00 0. -1.
          1   -1    0    0  501    0 -0.00000000000E+00 -0.00000000000E+00 -0.72860718080E+03  0.72860718080E+03  0.00000000000E+00 0. -1.
         25    2    1    2    0    0  0.47885993912E+01  0.34641142378E+02  0.39562694271E+03  0.41637521566E+03  0.12499881193E+03 0.  0.
          2    1    1    2  501    0  0.15638779602E+02 -0.37593254187E+02 -0.71749214309E+03  0.71864650530E+03  0.00000000000E+00 0. -1.
          1    1    1    2  502    0 -0.20427378994E+02  0.29521118087E+01  0.65032559791E+03  0.65065303816E+03  0.00000000000E+00 0. -1.
         22    1    3    3    0    0 -0.16633151506E+02  0.63324326806E+02  0.10632362854E+03  0.12486531176E+03  0.00000000000E+00 0.  1.
         22    1    3    3    0    0  0.21421750897E+02 -0.28683184427E+02  0.28930331417E+03  0.29150990390E+03  0.00000000000E+00 0.  1.
</event>
<event>
 7    1  0.5993218E-006  0.1152176E+03  0.7818608E-02  0.1402794E+00
          2   -1    0    0  502    0  0.00000000000E+00  0.00000000000E+00  0.12766847070E+04  0.12766847070E+04  0.00000000000E+00 0. -1.
          1   -1    0    0  501    0 -0.00000000000E+00 -0.00000000000E+00 -0.29027531118E+03  0.29027531118E+03  0.00000000000E+00 0. -1.
         25    2    1    2    0    0  0.69047676448E+02 -0.73456578808E+02 -0.19960033941E+02  0.16182045907E+03  0.12499602964E+03 0.  0.
          2    1    1    2  501    0 -0.12285144343E+02 -0.27415077860E+02 -0.19545705941E+03  0.19775230299E+03  0.00000000000E+00 0. -1.
          1    1    1    2  502    0 -0.56762532105E+02  0.10087165667E+03  0.12018264891E+04  0.12073872561E+04  0.00000000000E+00 0. -1.
         22    1    3    3    0    0  0.71964222159E+02  0.13676829131E+02 -0.56297202864E+01  0.73468351530E+02  0.00000000000E+00 0. -1.
         22    1    3    3    0    0 -0.29165457109E+01 -0.87133407939E+02 -0.14330313655E+02  0.88352107543E+02  0.00000000000E+00 0. -1.
</event>
<event>
 7    1  0.5993218E-006  0.9116841E+02  0.7818608E-02  0.1357943E+00
          2   -1    0    0  502    0  0.00000000000E+00  0.00000000000E+00  0.18544693396E+04  0.18544693396E+04  0.00000000000E+00 0. -1.
          1   -1    0    0  501    0 -0.00000000000E+00 -0.00000000000E+00 -0.58962162841E+03  0.58962162841E+03  0.00000000000E+00 0. -1.
         25    2    1    2    0    0 -0.10475938784E+03 -0.81086889036E+02  0.13189021231E+04  0.13314192960E+04  0.12499967426E+03 0.  0.
          2    1    1    2  501    0  0.86121450636E+02  0.29630499294E+02 -0.57837534631E+03  0.58550227323E+03  0.00000000000E+00 0. -1.
          1    1    1    2  502    0  0.18637937201E+02  0.51456389743E+02  0.52432093447E+03  0.52716939884E+03  0.00000000000E+00 0. -1.
         22    1    3    3    0    0 -0.27304805049E+02  0.23847442323E+02  0.57719739762E+03  0.57833475488E+03  0.00000000000E+00 0. -1.
         22    1    3    3    0    0 -0.77454582788E+02 -0.10493433136E+03  0.74170472544E+03  0.75308454110E+03  0.00000000000E+00 0. -1.
</event>
<event>
 7    1  0.5993218E-006  0.1686816E+03  0.7818608E-02  0.1292097E+00
          2   -1    0    0  502    0  0.00000000000E+00  0.00000000000E+00  0.12477808540E+04  0.12477808540E+04  0.00000000000E+00 0. -1.
          1   -1    0    0  501    0 -0.00000000000E+00 -0.00000000000E+00 -0.30384961250E+03  0.30384961250E+03  0.00000000000E+00 0. -1.
         25    2    1    2    0    0 -0.68597934286E+02 -0.16629843796E+03  0.50450494633E+03  0.55001013640E+03  0.12500024889E+03 0.  0.
          2    1    1    2  501    0  0.15573846759E+02  0.16778605067E+03 -0.25474042312E+03  0.30542983920E+03  0.00000000000E+00 0. -1.
          1    1    1    2  502    0  0.53024087527E+02 -0.14876127107E+01  0.69416671833E+03  0.69619049095E+03  0.00000000000E+00 0. -1.
         22    1    3    3    0    0 -0.94330705037E+02 -0.16842964692E+03  0.43725882908E+03  0.47797710351E+03  0.00000000000E+00 0. -1.
         22    1    3    3    0    0  0.25732770751E+02  0.21312089677E+01  0.67246117249E+02  0.72033032890E+02  0.00000000000E+00 0. -1.
</event>
<event>
 7    1  0.5993218E-006  0.4091810E+02  0.7818608E-02  0.1602325E+00
          2   -1    0    0  502    0  0.00000000000E+00  0.00000000000E+00  0.11784602702E+04  0.11784602702E+04  0.00000000000E+00 0. -1.
          1   -1    0    0  501    0 -0.00000000000E+00 -0.00000000000E+00 -0.33092057431E+02  0.33092057431E+02  0.00000000000E+00 0. -1.
         25    2    1    2    0    0 -0.28848376457E+02 -0.15960425061E+02  0.11050711103E+04  0.11126071344E+04  0.12500205106E+03 0.  0.
          2    1    1    2  501    0  0.20407268500E+02  0.35670768246E+02 -0.11676503511E+02  0.42722371764E+02  0.00000000000E+00 0. -1.
          1    1    1    2  502    0  0.84411079568E+01 -0.19710343185E+02  0.51973605987E+02  0.56222821445E+02  0.00000000000E+00 0. -1.
         22    1    3    3    0    0 -0.39566023339E+02  0.47375150606E+02  0.41689812725E+03  0.42144266942E+03  0.00000000000E+00 0.  1.
         22    1    3    3    0    0  0.10717646882E+02 -0.63335575667E+02  0.68817298305E+03  0.69116446501E+03  0.00000000000E+00 0.  1.
</event>
<event>
 7    1  0.5993218E-006  0.6565341E+02  0.7818608E-02  0.1456342E+00
          2   -1    0    0  502    0  0.00000000000E+00  0.00000000000E+00  0.11856993371E+03  0.11856993371E+03  0.00000000000E+00 0. -1.
          1   -1    0    0  501    0 -0.00000000000E+00 -0.00000000000E+00 -0.12815967674E+04  0.12815967674E+04  0.00000000000E+00 0. -1.
         25    2    1    2    0    0 -0.50459855546E+02  0.50020305518E+02 -0.40074464958E+02  0.14922598920E+03  0.12495681305E+03 0.  0.
          2    1    1    2  501    0 -0.13254919299E+02 -0.32520377004E+02 -0.11695569099E+04  0.11700840283E+04  0.00000000000E+00 0. -1.
          1    1    1    2  502    0  0.63714774844E+02 -0.17499928514E+02  0.46604541145E+02  0.80856683625E+02  0.00000000000E+00 0. -1.
         22    1    3    3    0    0 -0.45046609672E+02 -0.11216053168E+02 -0.67490619823E+02  0.81914471589E+02  0.00000000000E+00 0.  1.
         22    1    3    3    0    0 -0.54132458734E+01  0.61236358687E+02  0.27416154865E+02  0.67311517615E+02  0.00000000000E+00 0.  1.
</event>
<event>
 7    1  0.5993218E-006  0.1436405E+03  0.7818608E-02  0.1280508E+00
          2   -1    0    0  502    0  0.00000000000E+00  0.00000000000E+00  0.10893047386E+04  0.10893047386E+04  0.00000000000E+00 0. -1.
          1   -1    0    0  501    0 -0.00000000000E+00 -0.00000000000E+00 -0.53924712072E+03  0.53924712072E+03  0.00000000000E+00 0. -1.
         25    2    1    2    0    0  0.71029376862E+02 -0.72586624562E+02  0.12473172455E+03  0.20370798156E+03  0.12499979280E+03 0.  0.
          2    1    1    2  501    0 -0.14701540355E+02 -0.67904428379E+02 -0.49110599883E+03  0.49599621850E+03  0.00000000000E+00 0. -1.
          1    1    1    2  502    0 -0.56327836507E+02  0.14049105294E+03  0.91643189215E+03  0.92884765924E+03  0.00000000000E+00 0. -1.
         22    1    3    3    0    0 -0.31210321132E+02 -0.14623726295E+02  0.60870462453E+02  0.69951059429E+02  0.00000000000E+00 0.  1.
         22    1    3    3    0    0  0.10223969799E+03 -0.57962898268E+02  0.63861262096E+02  0.13375692213E+03  0.00000000000E+00 0.  1.
</event>
<event>
 7    1  0.5993218E-006  0.6110901E+02  0.7818608E-02  0.1421998E+00
          2   -1    0    0  502    0  0.00000000000E+00  0.00000000000E+00  0.54894402984E+02  0.54894402984E+02  0.00000000000E+00 0. -1.
          1   -1    0    0  501    0 -0.00000000000E+00 -0.00000000000E+00 -0.15371301743E+04  0.15371301743E+04  0.00000000000E+00 0. -1.
         25    2    1    2    0    0  0.12457556629E+02 -0.36248416335E+02 -0.69663625372E+03  0.70879930796E+03  0.12500100227E+03 0.  0.
          2    1    1    2  501    0  0.46204462327E+02  0.15656323888E+02 -0.81358454910E+03  0.81504588298E+03  0.00000000000E+00 0. -1.
          1    1    1    2  502    0 -0.58662018956E+02  0.20592092447E+02  0.27985031478E+02  0.68179386373E+02  0.00000000000E+00 0. -1.
         22    1    3    3    0    0 -0.35849198736E+02 -0.62857014035E+02 -0.31538379417E+03  0.32357859461E+03  0.00000000000E+00 0.  1.
         22    1    3    3    0    0  0.48306755365E+02  0.26608597700E+02 -0.38125245955E+03  0.38522071335E+03  0.00000000000E+00 0.  1.
</event>
<event>
 7    1  0.5993218E-006  0.7777752E+02  0.7818608E-02  0.1494450E+00
          2   -1    0    0  502    0  0.00000000000E+00  0.00000000000E+00  0.13324421458E+04  0.13324421458E+04  0.00000000000E+00 0. -1.
          1   -1    0    0  501    0 -0.00000000000E+00 -0.00000000000E+00 -0.39856468862E+03  0.39856468862E+03  0.00000000000E+00 0. -1.
         25    2    1    2    0    0 -0.54264453292E+02 -0.28522874088E+02  0.63922109476E+03  0.65420867792E+03  0.12500880386E+03 0.  0.
          2    1    1    2  501    0 -0.16767278770E+02 -0.15164731609E+02 -0.38820550351E+03  0.38886324547E+03  0.00000000000E+00 0. -1.
          1    1    1    2  502    0  0.71031732061E+02  0.43687605697E+02  0.68286186594E+03  0.68793491102E+03  0.00000000000E+00 0. -1.
         22    1    3    3    0    0 -0.15496448072E+02  0.33851232626E+02  0.61886284819E+02  0.72221590275E+02  0.00000000000E+00 0. -1.
         22    1    3    3    0    0 -0.38768005219E+02 -0.62374106714E+02  0.57733480994E+03  0.58198708765E+03  0.00000000000E+00 0. -1.
</event>
<event>
 7    1  0.5993218E-006  0.8273891E+02  0.7818608E-02  0.1386626E+00
          2   -1    0    0  502    0  0.00000000000E+00  0.00000000000E+00  0.39499262977E+03  0.39499262977E+03  0.00000000000E+00 0. -1.
          1   -1    0    0  501    0 -0.00000000000E+00 -0.00000000000E+00 -0.35515842135E+03  0.35515842135E+03  0.00000000000E+00 0. -1.
         25    2    1    2    0    0  0.54736533745E+02  0.84890841455E+02  0.28021599450E+03  0.32303008253E+03  0.12499955023E+03 0.  0.
          2    1    1    2  501    0 -0.71994457631E+02 -0.40533865383E+02 -0.32211344489E+03  0.33254062542E+03  0.00000000000E+00 0. -1.
          1    1    1    2  502    0  0.17257923886E+02 -0.44356976072E+02  0.81731658809E+02  0.94580343174E+02  0.00000000000E+00 0. -1.
         22    1    3    3    0    0  0.48963009275E+02  0.62265343947E+02  0.28778213233E+03  0.29848434636E+03  0.00000000000E+00 0. -1.
         22    1    3    3    0    0  0.57735244702E+01  0.22625497508E+02 -0.75661378342E+01  0.24545736168E+02  0.00000000000E+00 0. -1.
</event>
<event>
 7    1  0.5993218E-006  0.5403250E+02  0.7818608E-02  0.1491052E+00
          2   -1    0    0  502    0  0.00000000000E+00  0.00000000000E+00  0.16074705410E+04  0.16074705410E+04  0.00000000000E+00 0. -1.
          1   -1    0    0  501    0 -0.00000000000E+00 -0.00000000000E+00 -0.97220188825E+03  0.97220188825E+03  0.00000000000E+00 0. -1.
         25    2    1    2    0    0 -0.86771135706E+02  0.59748542982E+01  0.42360793829E+02  0.15806707200E+03  0.12500333404E+03 0.  0.
          2    1    1    2  501    0  0.33318669376E+02 -0.23288194822E+00 -0.91356557688E+03  0.91417298758E+03  0.00000000000E+00 0. -1.
          1    1    1    2  502    0  0.53452466330E+02 -0.57419723499E+01  0.15064734358E+04  0.15074323696E+04  0.00000000000E+00 0. -1.
         22    1    3    3    0    0 -0.40497688542E+02 -0.52652464095E+02  0.49783494294E+02  0.83010487631E+02  0.00000000000E+00 0.  1.
         22    1    3    3    0    0 -0.46273447164E+02  0.58627318394E+02 -0.74227004655E+01  0.75056584366E+02  0.00000000000E+00 0.  1.
</event>
<event>
 7    1  0.5993218E-006  0.1004537E+03  0.7818608E-02  0.1368872E+00
          2   -1    0    0  502    0  0.00000000000E+00  0.00000000000E+00  0.22282157303E+03  0.22282157303E+03  0.00000000000E+00 0. -1.
          1   -1    0    0  501    0 -0.00000000000E+00 -0.00000000000E+00 -0.39279062676E+03  0.39279062676E+03  0.00000000000E+00 0. -1.
         25    2    1    2    0    0  0.40537149535E+02  0.94146438566E+02 -0.15533439006E+01  0.16165956219E+03  0.12499835512E+03 0.  0.
          2    1    1    2  501    0  0.36249605436E+02 -0.27221006941E+02 -0.29103550869E+03  0.29454487677E+03  0.00000000000E+00 0. -1.
          1    1    1    2  502    0 -0.76786754971E+02 -0.66925431626E+02  0.12261979886E+03  0.15940776082E+03  0.00000000000E+00 0. -1.
         22    1    3    3    0    0 -0.17488870486E+02 -0.10590527223E+02 -0.32127211218E+02  0.38081196914E+02  0.00000000000E+00 0. -1.
         22    1    3    3    0    0  0.58026020021E+02  0.10473696579E+03  0.30573867318E+02  0.12357836528E+03  0.00000000000E+00 0. -1.
</event>
<event>
 7    1  0.5993218E-006  0.8866933E+02  0.7818608E-02  0.1491378E+00
          2   -1    0    0  502    0  0.00000000000E+00  0.00000000000E+00  0.59022129480E+03  0.59022129480E+03  0.00000000000E+00 0. -1.
          1   -1    0    0  501    0 -0.00000000000E+00 -0.00000000000E+00 -0.39777015532E+03  0.39777015532E+03  0.00000000000E+00 0. -1.
         25    2    1    2    0    0  0.65248809093E+02  0.26760842529E+02  0.93750919268E+02  0.17142394115E+03  0.12499353165E+03 0.  0.
          2    1    1    2  501    0  0.18500381547E+02  0.82534711679E+01 -0.35413995092E+03  0.35471888693E+03  0.00000000000E+00 0. -1.
          1    1    1    2  502    0 -0.83749190640E+02 -0.35014313697E+02  0.45284017113E+03  0.46184862204E+03  0.00000000000E+00 0. -1.
         22    1    3    3    0    0  0.10020895227E+03  0.24412763003E+01  0.57923980922E+02  0.11577124648E+03  0.00000000000E+00 0.  1.
         22    1    3    3    0    0 -0.34960143181E+02  0.24319566228E+02  0.35826938346E+02  0.55652694670E+02  0.00000000000E+00 0.  1.
</event>
<event>
 7    1  0.5993218E-006  0.8664023E+02  0.7818608E-02  0.1328700E+00
          2   -1    0    0  502    0  0.00000000000E+00  0.00000000000E+00  0.32421173601E+04  0.32421173601E+04  0.00000000000E+00 0. -1.
          1   -1    0    0  501    0 -0.00000000000E+00 -0.00000000000E+00 -0.26225272026E+02  0.26225272026E+02  0.00000000000E+00 0. -1.
         25    2    1    2    0    0 -0.57395521663E+02 -0.49898622630E+02  0.11641792479E+04  0.11733369786E+04  0.12498890252E+03 0.  0.
          2    1    1    2  501    0  0.88080606247E+02 -0.17547118510E+02  0.75292085638E+02  0.11719638529E+03  0.00000000000E+00 0. -1.
          1    1    1    2  502    0 -0.30685084584E+02  0.67445741140E+02  0.19764207545E+04  0.19778092682E+04  0.00000000000E+00 0. -1.
         22    1    3    3    0    0 -0.63439941120E+02 -0.56480128208E+02  0.11606109580E+04  0.11637149251E+04  0.00000000000E+00 0. -1.
         22    1    3    3    0    0  0.60444194564E+01  0.65815055781E+01  0.35682899220E+01  0.96220535858E+01  0.00000000000E+00 0. -1.
</event>
<event>
 7    1  0.5993218E-006  0.7209039E+02  0.7818608E-02  0.1514543E+00
          2   -1    0    0  502    0  0.00000000000E+00  0.00000000000E+00  0.11605907759E+04  0.11605907759E+04  0.00000000000E+00 0. -1.
          1   -1    0    0  501    0 -0.00000000000E+00 -0.00000000000E+00 -0.15365400273E+04  0.15365400273E+04  0.00000000000E+00 0. -1.
         25    2    1    2    0    0 -0.51852516874E+02  0.12978893665E+02  0.78781491012E+02  0.15714966635E+03  0.12502943302E+03 0.  0.
          2    1    1    2  501    0 -0.20491236138E+02 -0.56794718618E+01 -0.14960126033E+04  0.14961637131E+04  0.00000000000E+00 0. -1.
          1    1    1    2  502    0  0.72343753012E+02 -0.72994218031E+01  0.10412818609E+04  0.10438174237E+04  0.00000000000E+00 0. -1.
         22    1    3    3    0    0  0.48119453160E+01  0.54688982043E+02  0.48900466035E+01  0.55117620871E+02  0.00000000000E+00 0. -1.
         22    1    3    3    0    0 -0.56664462190E+02 -0.41710088378E+02  0.73891444408E+02  0.10203204548E+03  0.00000000000E+00 0. -1.
</event>
<event>
 7    1  0.5993218E-006  0.9516692E+02  0.7818608E-02  0.1407910E+00
          2   -1    0    0  502    0  0.00000000000E+00  0.00000000000E+00  0.17711205832E+04  0.17711205832E+04  0.00000000000E+00 0. -1.
          1   -1    0    0  501    0 -0.00000000000E+00 -0.00000000000E+00 -0.31082319318E+02  0.31082319318E+02  0.00000000000E+00 0. -1.
         25    2    1    2    0    0  0.12253862501E+02  0.85807825045E+02  0.59854918650E+03  0.61757544723E+03  0.12500065753E+03 0.  0.
          2    1    1    2  501    0 -0.47190686798E+02 -0.85462696573E+02  0.90696608279E+02  0.13325429892E+03  0.00000000000E+00 0. -1.
          1    1    1    2  502    0  0.34936824298E+02 -0.34512847132E+00  0.10507924691E+04  0.10513731564E+04  0.00000000000E+00 0. -1.
         22    1    3    3    0    0  0.63537381188E+02  0.68194128704E+02  0.44709602022E+03  0.45670810076E+03  0.00000000000E+00 0. -1.
         22    1    3    3    0    0 -0.51283518687E+02  0.17613696341E+02  0.15145316627E+03  0.16086734647E+03  0.00000000000E+00 0. -1.
</event>
<event>
 7    1  0.5993218E-006  0.9627259E+02  0.7818608E-02  0.1313466E+00
          2   -1    0    0  502    0  0.00000000000E+00  0.00000000000E+00  0.17897359964E+04  0.17897359964E+04  0.00000000000E+00 0. -1.
          1   -1    0    0  501    0 -0.00000000000E+00 -0.00000000000E+00 -0.31872999032E+02  0.31872999032E+02  0.00000000000E+00 0. -1.
         25    2    1    2    0    0 -0.26978044832E+02 -0.19429861743E+02  0.74317590771E+03  0.75435784096E+03  0.12505993758E+03 0.  0.
          2    1    1    2  501    0  0.56875796544E+02  0.89724998821E+02  0.89480258856E+02  0.13889617839E+03  0.00000000000E+00 0. -1.
          1    1    1    2  502    0 -0.29897751713E+02 -0.70295137077E+02  0.92520683080E+03  0.92835497608E+03  0.00000000000E+00 0. -1.
         22    1    3    3    0    0  0.11658593904E+02 -0.10934820586E+02  0.67749557414E+03  0.67768410494E+03  0.00000000000E+00 0. -1.
         22    1    3    3    0    0 -0.38636638736E+02 -0.84950411575E+01  0.65680333566E+02  0.76673736015E+02  0.00000000000E+00 0. -1.
</event>
<event>
 7    1  0.5993218E-006  0.1139681E+03  0.7818608E-02  0.1454006E+00
          2   -1    0    0  502    0  0.00000000000E+00  0.00000000000E+00  0.18464614030E+04  0.18464614030E+04  0.00000000000E+00 0. -1.
          1   -1    0    0  501    0 -0.00000000000E+00 -0.00000000000E+00 -0.91628785654E+03  0.91628785654E+03  0.00000000000E+00 0. -1.
         25    2    1    2    0    0  0.12731666089E+03 -0.22625253547E+02  0.74315920424E+03  0.76461244688E+03  0.12500062736E+03 0.  0.
          2    1    1    2  501    0 -0.17993877832E+02  0.99855838401E+01 -0.90267240741E+03  0.90290695347E+03  0.00000000000E+00 0. -1.
          1    1    1    2  502    0 -0.10932278306E+03  0.12639669707E+02  0.10896867496E+04  0.10952298592E+04  0.00000000000E+00 0. -1.
         22    1    3    3    0    0  0.82491953131E+02 -0.74457851746E+02  0.44200066112E+03  0.45575594176E+03  0.00000000000E+00 0.  1.
         22    1    3    3    0    0  0.44824707763E+02  0.51832598199E+02  0.30115854311E+03  0.30885650512E+03  0.00000000000E+00 0.  1.
</event>
<event>
 7    1  0.5993218E-006  0.1285488E+03  0.7818608E-02  0.1318210E+00
          2   -1    0    0  502    0  0.00000000000E+00  0.00000000000E+00  0.29225736935E+03  0.29225736935E+03  0.00000000000E+00 0. -1.
          1   -1    0    0  501    0 -0.00000000000E+00 -0.00000000000E+00 -0.64105963702E+03  0.64105963702E+03  0.00000000000E+00 0. -1.
         25    2    1    2    0    0  0.79287358082E+02  0.24762375097E+02  0.15876864781E+02  0.15091508894E+03  0.12499451533E+03 0.  0.
          2    1    1    2  501    0 -0.13245818514E+03 -0.11417554412E+02 -0.56204958000E+03  0.57755974733E+03  0.00000000000E+00 0. -1.
          1    1    1    2  502    0  0.53170827063E+02 -0.13344820685E+02  0.19737044754E+03  0.20484217010E+03  0.00000000000E+00 0. -1.
         22    1    3    3    0    0  0.72082091548E+02 -0.27150658070E+02  0.46734636365E+02  0.90095018685E+02  0.00000000000E+00 0.  1.
         22    1    3    3    0    0  0.72052665337E+01  0.51913033167E+02 -0.30857771584E+02  0.60820070253E+02  0.00000000000E+00 0.  1.
</event>
<event>
 7    1  0.5993218E-006  0.3940520E+02  0.7818608E-02  0.1615952E+00
          2   -1    0    0  502    0  0.00000000000E+00  0.00000000000E+00  0.12210900900E+03  0.12210900900E+03  0.00000000000E+00 0. -1.
          1   -1    0    0  501    0 -0.00000000000E+00 -0.00000000000E+00 -0.11263141499E+04  0.11263141499E+04  0.00000000000E+00 0. -1.
         25    2    1    2    0    0 -0.33467719161E+02 -0.24127146589E+02 -0.68417721431E+03  0.69672376259E+03  0.12499333321E+03 0.  0.
          2    1    1    2  501    0 -0.57073579947E+01  0.19722809105E+02 -0.43225884372E+03  0.43274619710E+03  0.00000000000E+00 0. -1.
          1    1    1    2  502    0  0.39175077156E+02  0.44043374833E+01  0.11223091710E+03  0.11895319925E+03  0.00000000000E+00 0. -1.
         22    1    3    3    0    0 -0.71824799809E+02  0.84618693782E+01 -0.27069984207E+03  0.28019423548E+03  0.00000000000E+00 0.  1.
         22    1    3    3    0    0  0.38357080648E+02 -0.32589015967E+02 -0.41347737224E+03  0.41652952711E+03  0.00000000000E+00 0.  1.
</event>
<event>
 7    1  0.5993218E-006  0.1053293E+03  0.7818608E-02  0.1387996E+00
          2   -1    0    0  502    0  0.00000000000E+00  0.00000000000E+00  0.40150048385E+03  0.40150048385E+03  0.00000000000E+00 0. -1.
          1   -1    0    0  501    0 -0.00000000000E+00 -0.00000000000E+00 -0.22529902752E+04  0.22529902752E+04  0.00000000000E+00 0. -1.
         25    2    1    2    0    0  0.73481852029E+02  0.73044901780E+02 -0.66522148190E+03  0.68474848541E+03  0.12500291214E+03 0.  0.
          2    1    1    2  501    0 -0.45037432963E+02 -0.96671296292E+02 -0.15753257604E+04  0.15789315885E+04  0.00000000000E+00 0. -1.
          1    1    1    2  502    0 -0.28444419065E+02  0.23626394513E+02  0.38905745092E+03  0.39081068513E+03  0.00000000000E+00 0. -1.
         22    1    3    3    0    0 -0.14363319042E+02 -0.26094328872E+02 -0.11243657643E+03  0.11631510070E+03  0.00000000000E+00 0.  1.
         22    1    3    3    0    0  0.87845171071E+02  0.99139230652E+02 -0.55278490547E+03  0.56843338471E+03  0.00000000000E+00 0.  1.
</event>
<event>
 7    1  0.5993218E-006  0.9314774E+02  0.7818608E-02  0.1462032E+00
          2   -1    0    0  502    0  0.00000000000E+00  0.00000000000E+00  0.16004779480E+03  0.16004779480E+03  0.00000000000E+00 0. -1.
          1   -1    0    0  501    0 -0.00000000000E+00 -0.00000000000E+00 -0.57782844102E+03  0.57782844102E+03  0.00000000000E+00 0. -1.
         25    2    1    2    0    0  0.44433953261E+02  0.10513426656E+03 -0.32776643876E+03  0.36889779805E+03  0.12500862698E+03 0.  0.
          2    1    1    2  501    0 -0.10584123402E+01 -0.23725269731E+02 -0.21351482910E+03  0.21483154076E+03  0.00000000000E+00 0. -1.
          1    1    1    2  502    0 -0.43375540921E+02 -0.81408996832E+02  0.12350062163E+03  0.15414689702E+03  0.00000000000E+00 0. -1.
         22    1    3    3    0    0  0.20672973111E+02 -0.15733974226E+02 -0.15235951431E+03  0.15455856936E+03  0.00000000000E+00 0. -1.
         22    1    3    3    0    0  0.23760980150E+02  0.12086824079E+03 -0.17540692445E+03  0.21433922869E+03  0.00000000000E+00 0. -1.
</event>
<event>
 7    1  0.5993218E-006  0.1494215E+03  0.7818608E-02  0.1276290E+00
          2   -1    0    0  502    0  0.00000000000E+00  0.00000000000E+00  0.10258379539E+04  0.10258379539E+04  0.00000000000E+00 0. -1.
          1   -1    0    0  501    0 -0.00000000000E+00 -0.00000000000E+00 -0.29924392293E+03  0.29924392293E+03  0.00000000000E+00 0. -1.
         25    2    1    2    0    0  0.79180587949E+02  0.82435356154E+02  0.33191632621E+03  0.37263766900E+03  0.12500092521E+03 0.  0.
          2    1    1    2  501    0 -0.27552777644E+01  0.69477420100E+02 -0.26356886903E+03  0.27258622889E+03  0.00000000000E+00 0. -1.
          1    1    1    2  502    0 -0.76425310184E+02 -0.15191277625E+03  0.65824657375E+03  0.67985797890E+03  0.00000000000E+00 0. -1.
         22    1    3    3    0    0  0.11083238235E+03  0.62384405652E+02  0.28849356466E+03  0.31528426522E+03  0.00000000000E+00 0.  1.
         22    1    3    3    0    0 -0.31651794399E+02  0.20050950503E+02  0.43422761549E+02  0.57353403781E+02  0.00000000000E+00 0.  1.
</event>
<event>
 7    1  0.5993218E-006  0.9316576E+02  0.7818608E-02  0.1299983E+00
          2   -1    0    0  502    0  0.00000000000E+00  0.00000000000E+00  0.17593188532E+03  0.17593188532E+03  0.00000000000E+00 0. -1.
          1   -1    0    0  501    0 -0.00000000000E+00 -0.00000000000E+00 -0.96110845473E+03  0.96110845473E+03  0.00000000000E+00 0. -1.
         25    2    1    2    0    0  0.52599575464E+02  0.66846756788E+02  0.11076027396E+03  0.18741858670E+03  0.12499073614E+03 0.  0.
          2    1    1    2  501    0  0.83250655870E+02 -0.41823284633E+02 -0.71967562206E+03  0.72568096284E+03  0.00000000000E+00 0. -1.
          1    1    1    2  502    0 -0.13585023133E+03 -0.25023472155E+02 -0.17626122131E+03  0.22394079050E+03  0.00000000000E+00 0. -1.
         22    1    3    3    0    0 -0.27316716557E+02 -0.14175456022E+02  0.49198388231E+02  0.58031267102E+02  0.00000000000E+00 0. -1.
         22    1    3    3    0    0  0.79916292021E+02  0.81022212810E+02  0.61561885730E+02  0.12938731960E+03  0.00000000000E+00 0. -1.
</event>
<event>
 7    1  0.5993218E-006  0.5533373E+02  0.7818608E-02  0.1467869E+00
          2   -1    0    0  502    0  0.00000000000E+00  0.00000000000E+00  0.64613794296E+02  0.64613794296E+02  0.00000000000E+00 0. -1.
          1   -1    0    0  501    0 -0.00000000000E+00 -0.00000000000E+00 -0.42713763336E+04  0.42713763336E+04  0.00000000000E+00 0. -1.
         25    2    1    2    0    0  0.20298577646E+02  0.96517131065E+00 -0.81271668065E+03  0.82252284776E+03  0.12498987267E+03 0.  0.
          2    1    1    2  501    0 -0.54942322662E+02  0.15436037457E+02 -0.34473446895E+04  0.34478170396E+04  0.00000000000E+00 0. -1.
          1    1    1    2  502    0  0.34643745016E+02 -0.16401208768E+02  0.53298830846E+02  0.65650240573E+02  0.00000000000E+00 0. -1.
         22    1    3    3    0    0  0.51541942026E+02 -0.44167658013E+02 -0.54701648495E+03  0.55121174571E+03  0.00000000000E+00 0.  1.
         22    1    3    3    0    0 -0.31243364380E+02  0.45132829324E+02 -0.26570019570E+03  0.27131110205E+03  0.00000000000E+00 0.  1.
</event>
<event>
 7    1  0.5993218E-006  0.1526660E+03  0.7818608E-02  0.1267452E+00
          2   -1    0    0  502    0  0.00000000000E+00  0.00000000000E+00  0.13816842008E+04  0.13816842008E+04  0.00000000000E+00 0. -1.
          1   -1    0    0  501    0 -0.00000000000E+00 -0.00000000000E+00 -0.53093847578E+02  0.53093847578E+02  0.00000000000E+00 0. -1.
         25    2    1    2    0    0 -0.18791425523E+02  0.13290900392E+03  0.33226537750E+03  0.37953021708E+03  0.12499993438E+03 0.  0.
          2    1    1    2  501    0 -0.74101043508E+02 -0.97753803101E+00  0.37713756356E+02  0.83151955167E+02  0.00000000000E+00 0. -1.
          1    1    1    2  502    0  0.92892469031E+02 -0.13193146589E+03  0.95861121936E+03  0.97209587613E+03  0.00000000000E+00 0. -1.
         22    1    3    3    0    0  0.40297061897E+02  0.92726461781E+02  0.12791708045E+03  0.16304854916E+03  0.00000000000E+00 0.  1.
         22    1    3    3    0    0 -0.59088487420E+02  0.40182542142E+02  0.20434829705E+03  0.21648166792E+03  0.00000000000E+00 0.  1.
</event>
<event>
 7    1  0.5993218E-006  0.1086103E+03  0.7818608E-02  0.1272260E+00
          2   -1    0    0  502    0  0.00000000000E+00  0.00000000000E+00  0.24721338607E+04  0.24721338607E+04  0.00000000000E+00 0. -1.
          1   -1    0    0  501    0 -0.00000000000E+00 -0.00000000000E+00 -0.18404844044E+03  0.18404844044E+03  0.00000000000E+00 0. -1.
         25    2    1    2    0    0  0.18828219440E+03 -0.60753289972E+02  0.45688673438E+03  0.51333395528E+03  0.12500045849E+03 0.  0.
          2    1    1    2  501    0 -0.10535823065E+03  0.58820095629E+01 -0.13655984792E+03  0.17257910322E+03  0.00000000000E+00 0. -1.
          1    1    1    2  502    0 -0.82923963744E+02  0.54871280409E+02  0.19677585338E+04  0.19702692426E+04  0.00000000000E+00 0. -1.
         22    1    3    3    0    0  0.37256384594E+02  0.33632749062E+02  0.59352443866E+02  0.77729740739E+02  0.00000000000E+00 0.  1.
         22    1    3    3    0    0  0.15102580980E+03 -0.94386039035E+02  0.39753429052E+03  0.43560421454E+03  0.00000000000E+00 0.  1.
</event>
<event>
 7    1  0.5993218E-006  0.2657994E+03  0.7818608E-02  0.1228461E+00
          2   -1    0    0  502    0  0.00000000000E+00  0.00000000000E+00  0.16912252816E+04  0.16912252816E+04  0.00000000000E+00 0. -1.
          1   -1    0    0  501    0 -0.00000000000E+00 -0.00000000000E+00 -0.10776969723E+04  0.10776969723E+04  0.00000000000E+00 0. -1.
         25    2    1    2    0    0 -0.17960074035E+02 -0.24909587707E+03  0.45614396119E+03  0.53484851342E+03  0.12499719491E+03 0.  0.
          2    1    1    2  501    0  0.59016938532E+02 -0.21825277371E+02 -0.10216656909E+04  0.10236015464E+04  0.00000000000E+00 0. -1.
          1    1    1    2  502    0 -0.41056864497E+02  0.27092115444E+03  0.11790500391E+04  0.12104721941E+04  0.00000000000E+00 0. -1.
         22    1    3    3    0    0 -0.35254963513E+02 -0.22864091300E+03  0.31297485416E+03  0.38919511673E+03  0.00000000000E+00 0.  1.
         22    1    3    3    0    0  0.17294889478E+02 -0.20454964068E+02  0.14316910703E+03  0.14565339668E+03  0.00000000000E+00 0.  1.
</event>
<event>
 7    1  0.5993218E-006  0.4286249E+02  0.7818608E-02  0.1518423E+00
          2   -1    0    0  502    0  0.00000000000E+00  0.00000000000E+00  0.11853626264E+04  0.11853626264E+04  0.00000000000E+00 0. -1.
          1   -1    0    0  501    0 -0.00000000000E+00 -0.00000000000E+00 -0.29110420112E+03  0.29110420112E+03  0.00000000000E+00 0. -1.
         25    2    1    2    0    0  0.92882254112E+01  0.73903727808E+01 -0.78472547120E+02  0.14806769398E+03  0.12500085042E+03 0.  0.
          2    1    1    2  501    0 -0.22226281422E+02 -0.39742385848E+02 -0.17465038808E+03  0.18048884418E+03  0.00000000000E+00 0. -1.
          1    1    1    2  502    0  0.12938056011E+02  0.32352013067E+02  0.11473813605E+04  0.11479102894E+04  0.00000000000E+00 0. -1.
         22    1    3    3    0    0  0.12917726470E+02  0.54472879682E+02 -0.83551200538E+02  0.10057318425E+03  0.00000000000E+00 0.  1.
         22    1    3    3    0    0 -0.36295010587E+01 -0.47082506901E+02  0.50786534180E+01  0.47494509730E+02  0.00000000000E+00 0.  1.
</event>
<event>
 7    1  0.5993218E-006  0.8342172E+02  0.7818608E-02  0.1335721E+00
          2   -1    0    0  502    0  0.00000000000E+00  0.00000000000E+00  0.54196926782E+03  0.54196926782E+03  0.00000000000E+00 0. -1.
          1   -1    0    0  501    0 -0.00000000000E+00 -0.00000000000E+00 -0.39550842898E+03  0.39550842898E+03  0.00000000000E+00 0. -1.
         25    2    1    2    0    0 -0.60236851391E+02  0.67618288122E+02  0.90314345827E+02  0.17884953757E+03  0.12501905804E+03 0.  0.
          2    1    1    2  501    0 -0.25310939293E+02 -0.67791714757E+02 -0.34293195377E+03  0.35048350197E+03  0.00000000000E+00 0. -1.
          1    1    1    2  502    0  0.85547790684E+02  0.17342663434E+00  0.39907844678E+03  0.40814465727E+03  0.00000000000E+00 0. -1.
         22    1    3    3    0    0 -0.59927054178E+02  0.10146946128E+03  0.83206269599E+02  0.14425874911E+03  0.00000000000E+00 0. -1.
         22    1    3    3    0    0 -0.30979721320E+00 -0.33851173159E+02  0.71080762280E+01  0.34590788459E+02  0.00000000000E+00 0. -1.
</event>
<event>
 7    1  0.5993218E-006  0.1746009E+03  0.7818608E-02  0.1276897E+00
          2   -1    0    0  502    0  0.00000000000E+00  0.00000000000E+00  0.23027837470E+04  0.23027837470E+04  0.00000000000E+00 0. -1.
          1   -1    0    0  501    0 -0.00000000000E+00 -0.00000000000E+00 -0.34079406902E+04  0.34079406902E+04  0.00000000000E+00 0. -1.
         25    2    1    2    0    0  0.27091237479E+02 -0.11876982876E+03  0.13281631376E+02  0.17504614421E+03  0.12499817398E+03 0.  0.
          2    1    1    2  501    0 -0.13250121428E+02 -0.57657710317E+02 -0.33232497346E+04  0.33237762825E+04  0.00000000000E+00 0. -1.
          1    1    1    2  502    0 -0.13841116050E+02  0.17642753908E+03  0.22048111600E+04  0.22119020105E+04  0.00000000000E+00 0. -1.
         22    1    3    3    0    0 -0.28815213667E+02 -0.11367586301E+03  0.18274702359E+02  0.11868649087E+03  0.00000000000E+00 0. -1.
         22    1    3    3    0    0  0.55906451146E+02 -0.50939657538E+01 -0.49930709822E+01  0.56359653340E+02  0.00000000000E+00 0. -1.
</event>
<event>
 7    1  0.5993218E-006  0.1501347E+03  0.7818608E-02  0.1203725E+00
          2   -1    0    0  502    0  0.00000000000E+00  0.00000000000E+00  0.17270982857E+04  0.17270982857E+04  0.00000000000E+00 0. -1.
          1   -1    0    0  501    0 -0.00000000000E+00 -0.00000000000E+00 -0.66040677381E+03  0.66040677381E+03  0.00000000000E+00 0. -1.
         25    2    1    2    0    0 -0.22549344819E+02 -0.50437222696E+02  0.30419250530E+03  0.33348264638E+03  0.12500083508E+03 0.  0.
          2    1    1    2  501    0  0.73526006671E+02 -0.13089825477E+03 -0.63061048391E+03  0.64823607519E+03  0.00000000000E+00 0. -1.
          1    1    1    2  502    0 -0.50976661851E+02  0.18133547747E+03  0.13931094905E+04  0.14057863379E+04  0.00000000000E+00 0. -1.
         22    1    3    3    0    0  0.31280539350E+02 -0.10766074957E+02  0.23478417151E+03  0.23710332706E+03  0.00000000000E+00 0. -1.
         22    1    3    3    0    0 -0.53829884170E+02 -0.39671147739E+02  0.69408333796E+02  0.96379319322E+02  0.00000000000E+00 0. -1.
</event>
<event>
 7    1  0.5993218E-006  0.6218251E+02  0.7818608E-02  0.1532456E+00
          2   -1    0    0  502    0  0.00000000000E+00  0.00000000000E+00  0.24527359745E+03  0.24527359745E+03  0.00000000000E+00 0. -1.
          1   -1    0    0  501    0 -0.00000000000E+00 -0.00000000000E+00 -0.23150950273E+03  0.23150950273E+03  0.00000000000E+00 0. -1.
         25    2    1    2    0    0 -0.23493378277E+02  0.79090850828E+02  0.25280684303E+01  0.14979343181E+03  0.12499751828E+03 0.  0.
          2    1    1    2  501    0  0.50105999639E+01 -0.21299946222E+02 -0.15162382679E+03  0.15319457782E+03  0.00000000000E+00 0. -1.
          1    1    1    2  502    0  0.18482778313E+02 -0.57790904606E+02  0.16285985309E+03  0.17379509054E+03  0.00000000000E+00 0. -1.
         22    1    3    3    0    0 -0.49258677215E+02  0.68183611368E+02  0.47669782318E+02  0.96684178056E+02  0.00000000000E+00 0.  1.
         22    1    3    3    0    0  0.25765298938E+02  0.10907239460E+02 -0.45141713888E+02  0.53109253758E+02  0.00000000000E+00 0.  1.
</event>
<event>
 7    1  0.5993218E-006  0.6132592E+02  0.7818608E-02  0.1437350E+00
          2   -1    0    0  502    0  0.00000000000E+00  0.00000000000E+00  0.44571880144E+02  0.44571880144E+02  0.00000000000E+00 0. -1.
          1   -1    0    0  501    0 -0.00000000000E+00 -0.00000000000E+00 -0.24072382601E+04  0.24072382601E+04  0.00000000000E+00 0. -1.
         25    2    1    2    0    0  0.75476101676E+02  0.65800339243E+02 -0.28901373738E+03  0.33042403870E+03  0.12499911355E+03 0.  0.
          2    1    1    2  501    0 -0.34423368391E+02 -0.26216173236E+02 -0.20628989663E+04  0.20633527089E+04  0.00000000000E+00 0. -1.
          1    1    1    2  502    0 -0.41052733285E+02 -0.39584166007E+02 -0.10753676241E+02  0.58033392640E+02  0.00000000000E+00 0. -1.
         22    1    3    3    0    0  0.33658594634E+02  0.31696387269E+02 -0.26888525970E+03  0.27283116545E+03  0.00000000000E+00 0.  1.
         22    1    3    3    0    0  0.41817507042E+02  0.34103951974E+02 -0.20128477682E+02  0.57592873251E+02  0.00000000000E+00 0.  1.
</event>
<event>
 7    1  0.5993218E-006  0.9086075E+02  0.7818608E-02  0.1390357E+00
          2   -1    0    0  502    0  0.00000000000E+00  0.00000000000E+00  0.94011115184E+03  0.94011115184E+03  0.00000000000E+00 0. -1.
          1   -1    0    0  501    0 -0.00000000000E+00 -0.00000000000E+00 -0.17129007173E+03  0.17129007173E+03  0.00000000000E+00 0. -1.
         25    2    1    2    0    0 -0.64801518692E+02 -0.75822231815E+02  0.58925992284E+03  0.61057412265E+03  0.12500101970E+03 0.  0.
          2    1    1    2  501    0  0.24404600147E+02  0.87526752445E+02 -0.14632257220E+03  0.17224056443E+03  0.00000000000E+00 0. -1.
          1    1    1    2  502    0  0.40396918545E+02 -0.11704520630E+02  0.32588372946E+03  0.32858653649E+03  0.00000000000E+00 0. -1.
         22    1    3    3    0    0 -0.97038810020E+02 -0.33350791134E+02  0.44762153696E+03  0.45923180015E+03  0.00000000000E+00 0.  1.
         22    1    3    3    0    0  0.32237291328E+02 -0.42471440681E+02  0.14163838588E+03  0.15134232250E+03  0.00000000000E+00 0.  1.
</event>
<event>
 7    1  0.5993218E-006  0.7308919E+02  0.7818608E-02  0.1400346E+00
          2   -1    0    0  502    0  0.00000000000E+00  0.00000000000E+00  0.95719340621E+03  0.95719340621E+03  0.00000000000E+00 0. -1.
          1   -1    0    0  501    0 -0.00000000000E+00 -0.00000000000E+00 -0.14302775364E+03  0.14302775364E+03  0.00000000000E+00 0. -1.
         25    2    1    2    0    0  0.44571647066E+02  0.76678921275E+02  0.26391273525E+03  0.30519054560E+03  0.12500019442E+03 0.  0.
          2    1    1    2  501    0  0.20393134060E+02 -0.43764582809E+02 -0.11556287457E+03  0.12524374876E+03  0.00000000000E+00 0. -1.
          1    1    1    2  502    0 -0.64964781126E+02 -0.32914338466E+02  0.66581579189E+03  0.66978686550E+03  0.00000000000E+00 0. -1.
         22    1    3    3    0    0  0.62957170650E+02  0.44883163836E+02  0.59654389386E+02  0.97656284515E+02  0.00000000000E+00 0. -1.
         22    1    3    3    0    0 -0.18385523584E+02  0.31795757439E+02  0.20425834586E+03  0.20753426108E+03  0.00000000000E+00 0. -1.
</event>
<event>
 7    1  0.5993218E-006  0.4699450E+02  0.7818608E-02  0.1535716E+00
          2   -1    0    0  502    0  0.00000000000E+00  0.00000000000E+00  0.21777403364E+03  0.21777403364E+03  0.00000000000E+00 0. -1.
          1   -1    0    0  501    0 -0.00000000000E+00 -0.00000000000E+00 -0.43677351539E+03  0.43677351539E+03  0.00000000000E+00 0. -1.
         25    2    1    2    0    0  0.20748957354E+02  0.48605853695E+02 -0.15535886411E+02  0.13660027755E+03  0.12500089526E+03 0.  0.
          2    1    1    2  501    0  0.18014676040E+02 -0.21878135962E+02 -0.35660578888E+03  0.35773016374E+03  0.00000000000E+00 0. -1.
          1    1    1    2  502    0 -0.38763633394E+02 -0.26727717732E+02  0.15314219354E+03  0.16021710774E+03  0.00000000000E+00 0. -1.
         22    1    3    3    0    0 -0.14277858019E+01 -0.36278280450E+02  0.20569237502E+02  0.41728236677E+02  0.00000000000E+00 0. -1.
         22    1    3    3    0    0  0.22176743156E+02  0.84884134145E+02 -0.36105123914E+02  0.94872040873E+02  0.00000000000E+00 0. -1.
</event>
<event>
 7    1  0.5993218E-006  0.5899504E+02  0.7818608E-02  0.1534299E+00
          2   -1    0    0  502    0  0.00000000000E+00  0.00000000000E+00  0.24835728789E+02  0.24835728789E+02  0.00000000000E+00 0. -1.
          1   -1    0    0  501    0 -0.00000000000E+00 -0.00000000000E+00 -0.14582714619E+04  0.14582714619E+04  0.00000000000E+00 0. -1.
         25    2    1    2    0    0 -0.54951935900E+02 -0.28921408007E+02 -0.38039290309E+03  0.40519059367E+03  0.12499797346E+03 0.  0.
          2    1    1    2  501    0  0.38551025519E+02  0.44739651120E+02 -0.10534723493E+04  0.10551264420E+04  0.00000000000E+00 0. -1.
          1    1    1    2  502    0  0.16400910381E+02 -0.15818243112E+02  0.42951930259E+00  0.22790154965E+02  0.00000000000E+00 0. -1.
         22    1    3    3    0    0 -0.27301311749E+02 -0.54252187934E+02 -0.35439281634E+03  0.35955935504E+03  0.00000000000E+00 0.  1.
         22    1    3    3    0    0 -0.27650624151E+02  0.25330779927E+02 -0.26000086750E+02  0.45631238627E+02  0.00000000000E+00 0.  1.
</event>
<event>
 7    1  0.5993218E-006  0.6271096E+02  0.7818608E-02  0.1400504E+00
          2   -1    0    0  502    0  0.00000000000E+00  0.00000000000E+00  0.15633622257E+04  0.15633622257E+04  0.00000000000E+00 0. -1.
          1   -1    0    0  501    0 -0.00000000000E+00 -0.00000000000E+00 -0.70395488519E+02  0.70395488519E+02  0.00000000000E+00 0. -1.
         25    2    1    2    0    0 -0.69642163717E+01 -0.11706810718E+03  0.15915779499E+03  0.23390063333E+03  0.12499944215E+03 0.  0.
          2    1    1    2  501    0 -0.26749222303E+01  0.56139398495E+02 -0.78782458991E+01  0.56752568495E+02  0.00000000000E+00 0. -1.
          1    1    1    2  502    0  0.96391386019E+01  0.60928708682E+02  0.13416871881E+04  0.13431045124E+04  0.00000000000E+00 0. -1.
         22    1    3    3    0    0 -0.71433557936E+01 -0.14209888883E+03  0.11418799284E+03  0.18243360285E+03  0.00000000000E+00 0.  1.
         22    1    3    3    0    0  0.17913942190E+00  0.25030781652E+02  0.44969802154E+02  0.51467030484E+02  0.00000000000E+00 0.  1.
</event>
<event>
 7    1  0.5993218E-006  0.3441558E+02  0.7818608E-02  0.1610664E+00
          2   -1    0    0  502    0  0.00000000000E+00  0.00000000000E+00  0.58753243680E+03  0.58753243680E+03  0.00000000000E+00 0. -1.
          1   -1    0    0  501    0 -0.00000000000E+00 -0.00000000000E+00 -0.86956754906E+03  0.86956754906E+03  0.00000000000E+00 0. -1.
         25    2    1    2    0    0 -0.22615294897E+02  0.44386232992E+02 -0.53511652303E+03  0.55177544589E+03  0.12499944090E+03 0.  0.
          2    1    1    2  501    0 -0.49165274882E+01 -0.23752201636E+02 -0.32515849980E+03  0.32606194092E+03  0.00000000000E+00 0. -1.
          1    1    1    2  502    0  0.27531822385E+02 -0.20634031356E+02  0.57823991056E+03  0.57926259905E+03  0.00000000000E+00 0. -1.
         22    1    3    3    0    0 -0.57800026482E+01  0.68838308735E+00  0.61610815258E+01  0.84759204489E+01  0.00000000000E+00 0. -1.
         22    1    3    3    0    0 -0.16835292248E+02  0.43697849905E+02 -0.54127760455E+03  0.54329952544E+03  0.00000000000E+00 0. -1.
</event>
<event>
 7    1  0.5993218E-006  0.6004916E+02  0.7818608E-02  0.1521256E+00
          2   -1    0    0  502    0  0.00000000000E+00  0.00000000000E+00  0.22937499184E+03  0.22937499184E+03  0.00000000000E+00 0. -1.
          1   -1    0    0  501    0 -0.00000000000E+00 -0.00000000000E+00 -0.15365237712E+03  0.15365237712E+03  0.00000000000E+00 0. -1.
         25    2    1    2    0    0 -0.22058972818E+01 -0.62939099163E+02  0.99679316652E+02  0.17183539030E+03  0.12500095602E+03 0.  0.
          2    1    1    2  501    0 -0.22997140273E+02  0.81662228104E+01 -0.10633896215E+03  0.10910330209E+03  0.00000000000E+00 0. -1.
          1    1    1    2  502    0  0.25203037555E+02  0.54772876353E+02  0.82382260209E+02  0.10208867657E+03  0.00000000000E+00 0. -1.
         22    1    3    3    0    0  0.43123542216E+02 -0.43762726806E+02  0.10569039535E+03  0.12225087247E+03  0.00000000000E+00 0. -1.
         22    1    3    3    0    0 -0.45329439498E+02 -0.19176372357E+02 -0.60110786937E+01  0.49584517836E+02  0.00000000000E+00 0. -1.
</event>
<event>
 7    1  0.5993218E-006  0.1997183E+03  0.7818608E-02  0.1286489E+00
          2   -1    0    0  502    0  0.00000000000E+00  0.00000000000E+00  0.35246373263E+02  0.35246373263E+02  0.00000000000E+00 0. -1.
          1   -1    0    0  501    0 -0.00000000000E+00 -0.00000000000E+00 -0.22039632202E+04  0.22039632202E+04  0.00000000000E+00 0. -1.
         25    2    1    2    0    0 -0.23361501710E+03  0.17611849046E+02 -0.83170501052E+03  0.87306585270E+03  0.12499842073E+03 0.  0.
          2    1    1    2  501    0  0.18814855661E+03 -0.48618481237E+01 -0.12716861973E+04  0.12855385258E+04  0.00000000000E+00 0. -1.
          1    1    1    2  502    0  0.45466460492E+02 -0.12750000922E+02 -0.65325639125E+02  0.80605214969E+02  0.00000000000E+00 0. -1.
         22    1    3    3    0    0 -0.13539080962E+03  0.43231270792E+02 -0.64577875665E+03  0.66123355681E+03  0.00000000000E+00 0.  1.
         22    1    3    3    0    0 -0.98224207482E+02 -0.25619421746E+02 -0.18592625387E+03  0.21183229590E+03  0.00000000000E+00 0.  1.
</event>
<event>
 7    1  0.5993218E-006  0.1423579E+03  0.7818608E-02  0.1355129E+00
          2   -1    0    0  502    0  0.00000000000E+00  0.00000000000E+00  0.77891806352E+03  0.77891806352E+03  0.00000000000E+00 0. -1.
          1   -1    0    0  501    0 -0.00000000000E+00 -0.00000000000E+00 -0.28078965221E+03  0.28078965221E+03  0.00000000000E+00 0. -1.
         25    2    1    2    0    0 -0.16634976285E+03 -0.46013622493E+02  0.30681726711E+03  0.37356613704E+03  0.12500130516E+03 0.  0.
          2    1    1    2  501    0  0.13871653770E+03  0.23108572669E+02 -0.22660078343E+03  0.26669120535E+03  0.00000000000E+00 0. -1.
          1    1    1    2  502    0  0.27633225151E+02  0.22905049824E+02  0.41791192763E+03  0.41945037334E+03  0.00000000000E+00 0. -1.
         22    1    3    3    0    0  0.12411185621E+02 -0.30291504930E+02  0.60831088434E+02  0.69079911114E+02  0.00000000000E+00 0.  1.
         22    1    3    3    0    0 -0.17876094847E+03 -0.15722117562E+02  0.24598617867E+03  0.30448622592E+03  0.00000000000E+00 0.  1.
</event>
<event>
 7    1  0.5993218E-006  0.2721907E+03  0.7818608E-02  0.1280263E+00
          2   -1    0    0  502    0  0.00000000000E+00  0.00000000000E+00  0.93181733245E+03  0.93181733245E+03  0.00000000000E+00 0. -1.
          1   -1    0    0  501    0 -0.00000000000E+00 -0.00000000000E+00 -0.26154234658E+03  0.26154234658E+03  0.00000000000E+00 0. -1.
         25    2    1    2    0    0 -0.25462312472E+03 -0.53127751427E+01  0.24100366328E+00  0.28370378186E+03  0.12500646599E+03 0.  0.
          2    1    1    2  501    0 -0.18269285405E+02 -0.31887856844E+02 -0.92165590166E+02  0.99222468292E+02  0.00000000000E+00 0. -1.
          1    1    1    2  502    0  0.27289241012E+03  0.37200631986E+02  0.76219957237E+03  0.81043342888E+03  0.00000000000E+00 0. -1.
         22    1    3    3    0    0 -0.10464706750E+03 -0.57882474921E+02 -0.26650701702E+02  0.12252203696E+03  0.00000000000E+00 0.  1.
         22    1    3    3    0    0 -0.14997605722E+03  0.52569699778E+02  0.26891705365E+02  0.16118174490E+03  0.00000000000E+00 0.  1.
</event>
<event>
 7    1  0.5993218E-006  0.9494041E+02  0.7818608E-02  0.1362616E+00
          2   -1    0    0  502    0  0.00000000000E+00  0.00000000000E+00  0.44522445343E+03  0.44522445343E+03  0.00000000000E+00 0. -1.
          1   -1    0    0  501    0 -0.00000000000E+00 -0.00000000000E+00 -0.64300286593E+02  0.64300286593E+02  0.00000000000E+00 0. -1.
         25    2    1    2    0    0 -0.76624077597E+02  0.18419635511E+00  0.26641856135E+03  0.30409696569E+03  0.12499932606E+03 0.  0.
          2    1    1    2  501    0  0.88235835812E+02 -0.49362767033E+02  0.27442503751E+02  0.10476324023E+03  0.00000000000E+00 0. -1.
          1    1    1    2  502    0 -0.11611758215E+02  0.49178570678E+02  0.87063101731E+02  0.10066453410E+03  0.00000000000E+00 0. -1.
         22    1    3    3    0    0 -0.63336899452E+01  0.56217214848E+02  0.10969602688E+03  0.12342491315E+03  0.00000000000E+00 0. -1.
         22    1    3    3    0    0 -0.70290387652E+02 -0.56033018493E+02  0.15672253448E+03  0.18067205254E+03  0.00000000000E+00 0. -1.
</event>
<event>
 7    1  0.5993218E-006  0.9228621E+02  0.7818608E-02  0.1321171E+00
          2   -1    0    0  502    0  0.00000000000E+00  0.00000000000E+00  0.14294070417E+04  0.14294070417E+04  0.00000000000E+00 0. -1.
          1   -1    0    0  501    0 -0.00000000000E+00 -0.00000000000E+00 -0.19848914440E+03  0.19848914440E+03  0.00000000000E+00 0. -1.
         25    2    1    2    0    0  0.10216403013E+03  0.12522970852E+03  0.13292901993E+03  0.24375735116E+03  0.12501021142E+03 0.  0.
          2    1    1    2  501    0 -0.53044682465E+02 -0.69393448038E+02 -0.12851222062E+03  0.15538526255E+03  0.00000000000E+00 0. -1.
          1    1    1    2  502    0 -0.49119347663E+02 -0.55836260478E+02  0.12265010980E+04  0.12287535724E+04  0.00000000000E+00 0. -1.
         22    1    3    3    0    0  0.11521778493E+03  0.11561795131E+03  0.14894523564E+03  0.22096907442E+03  0.00000000000E+00 0.  1.
         22    1    3    3    0    0 -0.13053754801E+02  0.96117572083E+01 -0.16016215716E+02  0.22788276743E+02  0.00000000000E+00 0.  1.
</event>
<event>
 7    1  0.5993218E-006  0.7023592E+02  0.7818608E-02  0.1461409E+00
          2   -1    0    0  502    0  0.00000000000E+00  0.00000000000E+00  0.18759494603E+03  0.18759494603E+03  0.00000000000E+00 0. -1.
          1   -1    0    0  501    0 -0.00000000000E+00 -0.00000000000E+00 -0.25422453465E+03  0.25422453465E+03  0.00000000000E+00 0. -1.
         25    2    1    2    0    0  0.89578640058E+02  0.16198337821E+02 -0.92993729177E+02  0.18044135425E+03  0.12499811900E+03 0.  0.
          2    1    1    2  501    0 -0.20831731791E+02 -0.23812548720E+02 -0.10676443837E+03  0.11135368798E+03  0.00000000000E+00 0. -1.
          1    1    1    2  502    0 -0.68746908267E+02  0.76142108994E+01  0.13312857893E+03  0.15002443845E+03  0.00000000000E+00 0. -1.
         22    1    3    3    0    0 -0.79923608849E+01 -0.37825606843E+01 -0.79436372774E+02  0.79926984913E+02  0.00000000000E+00 0. -1.
         22    1    3    3    0    0  0.97571000943E+02  0.19980898505E+02 -0.13557356403E+02  0.10051436933E+03  0.00000000000E+00 0. -1.
</event>
<event>
 7    1  0.5993218E-006  0.2272521E+03  0.7818608E-02  0.1283849E+00
          2   -1    0    0  502    0  0.00000000000E+00  0.00000000000E+00  0.96756268578E+03  0.96756268578E+03  0.00000000000E+00 0. -1.
          1   -1    0    0  501    0 -0.00000000000E+00 -0.00000000000E+00 -0.37546386730E+03  0.37546386730E+03  0.00000000000E+00 0. -1.
         25    2    1    2    0    0 -0.23774037703E+03  0.25441126797E+02  0.20444061720E+03  0.33850938012E+03  0.12499958666E+03 0.  0.
          2    1    1    2  501    0  0.21706586708E+03 -0.62626121361E+02 -0.26627467885E+03  0.34920169863E+03  0.00000000000E+00 0. -1.
          1    1    1    2  502    0  0.20674509947E+02  0.37184994564E+02  0.65393288013E+03  0.65531547433E+03  0.00000000000E+00 0. -1.
         22    1    3    3    0    0 -0.24602309025E+03  0.21295792246E+02  0.21283781851E+03  0.32600737521E+03  0.00000000000E+00 0.  1.
         22    1    3    3    0    0  0.82827132185E+01  0.41453345508E+01 -0.83972013138E+01  0.12502004907E+02  0.00000000000E+00 0.  1.
</event>
<event>
 7    1  0.5993218E-006  0.8244264E+02  0.7818608E-02  0.1351117E+00
          2   -1    0    0  502    0  0.00000000000E+00  0.00000000000E+00  0.34864109324E+04  0.34864109324E+04  0.00000000000E+00 0. -1.
          1   -1    0    0  501    0 -0.00000000000E+00 -0.00000000000E+00 -0.65644722699E+02  0.65644722699E+02  0.00000000000E+00 0. -1.
         25    2    1    2    0    0  0.58225171381E+02 -0.85702180713E+02  0.67274385341E+02  0.17574337236E+03  0.12499942257E+03 0.  0.
          2    1    1    2  501    0 -0.64030864509E+02  0.34563689778E+01  0.83500588751E+02  0.10528174779E+03  0.00000000000E+00 0. -1.
          1    1    1    2  502    0  0.58056931285E+01  0.82245811735E+02  0.32699912356E+04  0.32710305349E+04  0.00000000000E+00 0. -1.
         22    1    3    3    0    0 -0.39358690166E+02 -0.18795105913E+02  0.23829759086E+02  0.49701306985E+02  0.00000000000E+00 0.  1.
         22    1    3    3    0    0  0.97583861547E+02 -0.66907074799E+02  0.43444626255E+02  0.12604206537E+03  0.00000000000E+00 0.  1.
</event>
<event>
 7    1  0.5993218E-006  0.7566461E+02  0.7818608E-02  0.1396662E+00
          2   -1    0    0  502    0  0.00000000000E+00  0.00000000000E+00  0.20884603172E+04  0.20884603172E+04  0.00000000000E+00 0. -1.
          1   -1    0    0  501    0 -0.00000000000E+00 -0.00000000000E+00 -0.72622220971E+03  0.72622220971E+03  0.00000000000E+00 0. -1.
         25    2    1    2    0    0 -0.48301789890E+02 -0.23001196528E+02 -0.22723468480E+01  0.13599562288E+03  0.12501011133E+03 0.  0.
          2    1    1    2  501    0 -0.25648351914E+02  0.40600017368E+02 -0.65549495138E+03  0.65725172548E+03  0.00000000000E+00 0. -1.
          1    1    1    2  502    0  0.73950141804E+02 -0.17598820839E+02  0.20200054057E+04  0.20214351786E+04  0.00000000000E+00 0. -1.
         22    1    3    3    0    0 -0.19626380031E+02 -0.56807542830E+01  0.61038727988E+02  0.64367632214E+02  0.00000000000E+00 0. -1.
         22    1    3    3    0    0 -0.28675409859E+02 -0.17320442245E+02 -0.63311074836E+02  0.71627990668E+02  0.00000000000E+00 0. -1.
</event>
<event>
 7    1  0.5993218E-006  0.2942037E+02  0.7818608E-02  0.1617675E+00
          2   -1    0    0  502    0  0.00000000000E+00  0.00000000000E+00  0.53938549278E+03  0.53938549278E+03  0.00000000000E+00 0. -1.
          1   -1    0    0  501    0 -0.00000000000E+00 -0.00000000000E+00 -0.11751009647E+04  0.11751009647E+04  0.00000000000E+00 0. -1.
         25    2    1    2    0    0  0.43256375845E+02  0.35577926834E+02 -0.76722463498E+02  0.15699777924E+03  0.12500025340E+03 0.  0.
          2    1    1    2  501    0 -0.18337177731E+02 -0.20120207097E+02 -0.10576349471E+04  0.10579852344E+04  0.00000000000E+00 0. -1.
          1    1    1    2  502    0 -0.24919198114E+02 -0.15457719737E+02  0.49864193862E+03  0.49950344392E+03  0.00000000000E+00 0. -1.
         22    1    3    3    0    0  0.50124075463E+02  0.78538793537E+02 -0.47422131049E+02  0.10454483987E+03  0.00000000000E+00 0.  1.
         22    1    3    3    0    0 -0.68676996180E+01 -0.42960866703E+02 -0.29300332449E+02  0.52452939360E+02  0.00000000000E+00 0.  1.
</event>
<event>
 7    1  0.5993218E-006  0.8526412E+02  0.7818608E-02  0.1322599E+00
          2   -1    0    0  502    0  0.00000000000E+00  0.00000000000E+00  0.13519607293E+03  0.13519607293E+03  0.00000000000E+00 0. -1.
          1   -1    0    0  501    0 -0.00000000000E+00 -0.00000000000E+00 -0.96818976763E+03  0.96818976763E+03  0.00000000000E+00 0. -1.
         25    2    1    2    0    0 -0.73061733367E+02 -0.44921155542E+02 -0.65354764973E+02  0.16508048072E+03  0.12499757082E+03 0.  0.
          2    1    1    2  501    0 -0.12090331724E+02  0.78548638848E+02 -0.82594762795E+03  0.82976234483E+03  0.00000000000E+00 0. -1.
          1    1    1    2  502    0  0.85152065091E+02 -0.33627483306E+02  0.58308698218E+02  0.10854301502E+03  0.00000000000E+00 0. -1.
         22    1    3    3    0    0 -0.17088362171E+02  0.40336598249E+02  0.25901747883E+00  0.43807766092E+02  0.00000000000E+00 0.  1.
         22    1    3    3    0    0 -0.55973371196E+02 -0.85257753791E+02 -0.65613782452E+02  0.12127271462E+03  0.00000000000E+00 0.  1.
</event>
<event>
 7    1  0.5993218E-006  0.4590455E+02  0.7818608E-02  0.1567973E+00
          2   -1    0    0  502    0  0.00000000000E+00  0.00000000000E+00  0.84516670258E+03  0.84516670258E+03  0.00000000000E+00 0. -1.
          1   -1    0    0  501    0 -0.00000000000E+00 -0.00000000000E+00 -0.16189755220E+03  0.16189755220E+03  0.00000000000E+00 0. -1.
         25    2    1    2    0    0  0.19536665819E+02  0.27249858525E+02  0.51594569384E+01  0.12952359742E+03  0.12500202475E+03 0.  0.
          2    1    1    2  501    0 -0.63461247643E+01 -0.46814149303E+02 -0.93929590315E+02  0.10514088554E+03  0.00000000000E+00 0. -1.
          1    1    1    2  502    0 -0.13190541054E+02  0.19564290778E+02  0.77203928376E+03  0.77239977182E+03  0.00000000000E+00 0. -1.
         22    1    3    3    0    0  0.72342742467E+02  0.12273963827E+02  0.11491459450E+02  0.74270964825E+02  0.00000000000E+00 0. -1.
         22    1    3    3    0    0 -0.52806076649E+02  0.14975894697E+02 -0.63320025114E+01  0.55252632596E+02  0.00000000000E+00 0. -1.
</event>
<event>
 7    1  0.5993218E-006  0.6982914E+02  0.7818608E-02  0.1382263E+00
          2   -1    0    0  502    0  0.00000000000E+00  0.00000000000E+00  0.33269523046E+03  0.33269523046E+03  0.00000000000E+00 0. -1.
          1   -1    0    0  501    0 -0.00000000000E+00 -0.00000000000E+00 -0.12917031878E+03  0.12917031878E+03  0.00000000000E+00 0. -1.
         25    2    1    2    0    0 -0.10006722834E+03 -0.14363382733E+02  0.57427312135E+02  0.17071385090E+03  0.12500226302E+03 0.  0.
          2    1    1    2  501    0  0.50219910516E+02  0.44836675091E+02 -0.51714199233E+02  0.84892433395E+02  0.00000000000E+00 0. -1.
          1    1    1    2  502    0  0.49847317822E+02 -0.30473292357E+02  0.19781179877E+03  0.20625926494E+03  0.00000000000E+00 0. -1.
         22    1    3    3    0    0 -0.44198048741E+02 -0.67216360179E+02  0.11845687942E+02  0.81313141073E+02  0.00000000000E+00 0. -1.
         22    1    3    3    0    0 -0.55869179597E+02  0.52852977446E+02  0.45581624193E+02  0.89400709828E+02  0.00000000000E+00 0. -1.
</event>
<event>
 7    1  0.5993218E-006  0.1465081E+03  0.7818608E-02  0.1392557E+00
          2   -1    0    0  502    0  0.00000000000E+00  0.00000000000E+00  0.68938924915E+03  0.68938924915E+03  0.00000000000E+00 0. -1.
          1   -1    0    0  501    0 -0.00000000000E+00 -0.00000000000E+00 -0.38962137460E+03  0.38962137460E+03  0.00000000000E+00 0. -1.
         25    2    1    2    0    0  0.13581165770E+03  0.59606843049E+02  0.61298254682E+03  0.64293884671E+03  0.12499990319E+03 0.  0.
          2    1    1    2  501    0 -0.19818227167E+02  0.16248341601E+02 -0.29520102759E+03  0.29631135217E+03  0.00000000000E+00 0. -1.
          1    1    1    2  502    0 -0.11599343053E+03 -0.75855184650E+02 -0.18013644682E+02  0.13976042487E+03  0.00000000000E+00 0. -1.
         22    1    3    3    0    0  0.84156621319E+02 -0.20655138967E+02  0.40403696324E+03  0.41322492585E+03  0.00000000000E+00 0.  1.
         22    1    3    3    0    0  0.51655036378E+02  0.80261982016E+02  0.20894558358E+03  0.22971392086E+03  0.00000000000E+00 0.  1.
</event>
<event>
 7    1  0.5993218E-006  0.1092581E+03  0.7818608E-02  0.1289155E+00
          2   -1    0    0  502    0  0.00000000000E+00  0.00000000000E+00  0.13193879547E+04  0.13193879547E+04  0.00000000000E+00 0. -1.
          1   -1    0    0  501    0 -0.00000000000E+00 -0.00000000000E+00 -0.27591037522E+03  0.27591037522E+03  0.00000000000E+00 0. -1.
         25    2    1    2    0    0  0.13789923944E+02  0.14875342631E+03  0.27425424528E+03  0.33638916968E+03  0.12499815432E+03 0.  0.
          2    1    1    2  501    0  0.51502821299E+02 -0.95619803517E+02 -0.23094300352E+03  0.25520650129E+03  0.00000000000E+00 0. -1.
          1    1    1    2  502    0 -0.65292745243E+02 -0.53133622792E+02  0.10001663377E+04  0.10037026589E+04  0.00000000000E+00 0. -1.
         22    1    3    3    0    0  0.51433578389E+01  0.51339123145E+02  0.73313155666E+01  0.52114373095E+02  0.00000000000E+00 0. -1.
         22    1    3    3    0    0  0.86465661049E+01  0.97414303164E+02  0.26692292972E+03  0.28427479659E+03  0.00000000000E+00 0. -1.
</event>
<event>
 7    1  0.5993218E-006  0.1653897E+03  0.7818608E-02  0.1218360E+00
          2   -1    0    0  502    0  0.00000000000E+00  0.00000000000E+00  0.20111366352E+03  0.20111366352E+03  0.00000000000E+00 0. -1.
          1   -1    0    0  501    0 -0.00000000000E+00 -0.00000000000E+00 -0.14079409562E+04  0.14079409562E+04  0.00000000000E+00 0. -1.
         25    2    1    2    0    0  0.47171015266E+02  0.74306284385E+02 -0.43947944015E+03  0.46531185410E+03  0.12500565857E+03 0.  0.
          2    1    1    2  501    0 -0.52599748875E+02  0.99298876782E+02 -0.91127042896E+03  0.91817253019E+03  0.00000000000E+00 0. -1.
          1    1    1    2  502    0  0.54287336092E+01 -0.17360516117E+03  0.14392257639E+03  0.22557023546E+03  0.00000000000E+00 0. -1.
         22    1    3    3    0    0 -0.41647330413E+02  0.27158477120E+02 -0.10758049090E+03  0.11851432417E+03  0.00000000000E+00 0. -1.
         22    1    3    3    0    0  0.88818345679E+02  0.47147807266E+02 -0.33189894925E+03  0.34679752994E+03  0.00000000000E+00 0. -1.
</event>
<event>
 7    1  0.5993218E-006  0.1062225E+03  0.7818608E-02  0.1272590E+00
          2   -1    0    0  502    0  0.00000000000E+00  0.00000000000E+00  0.23369853596E+04  0.23369853596E+04  0.00000000000E+00 0. -1.
          1   -1    0    0  501    0 -0.00000000000E+00 -0.00000000000E+00 -0.60115679190E+03  0.60115679190E+03  0.00000000000E+00 0. -1.
         25    2    1    2    0    0  0.67773896997E+02  0.37172010332E+02  0.26091593357E+03  0.29945431528E+03  0.12498281115E+03 0.  0.
          2    1    1    2  501    0 -0.87679665593E+02  0.62201137378E+02 -0.57566024072E+03  0.58561200295E+03  0.00000000000E+00 0. -1.
          1    1    1    2  502    0  0.19905768596E+02 -0.99373147710E+02  0.20505728749E+04  0.20530758333E+04  0.00000000000E+00 0. -1.
         22    1    3    3    0    0  0.77555985702E+02  0.45583936898E+02  0.87287630145E+02  0.12534734380E+03  0.00000000000E+00 0.  1.
         22    1    3    3    0    0 -0.97820887045E+01 -0.84119265660E+01  0.17362830342E+03  0.17410697148E+03  0.00000000000E+00 0.  1.
</event>
<event>
 7    1  0.5993218E-006  0.5888352E+02  0.7818608E-02  0.1426307E+00
          2   -1    0    0  502    0  0.00000000000E+00  0.00000000000E+00  0.32647613367E+03  0.32647613367E+03  0.00000000000E+00 0. -1.
          1   -1    0    0  501    0 -0.00000000000E+00 -0.00000000000E+00 -0.11882452111E+03  0.11882452111E+03  0.00000000000E+00 0. -1.
         25    2    1    2    0    0  0.95148330289E+01  0.30650165500E+02  0.16861436522E+02  0.13014795135E+03  0.12499686599E+03 0.  0.
          2    1    1    2  501    0 -0.58335090351E+02 -0.34706443048E+02 -0.40290960854E+02  0.78935932767E+02  0.00000000000E+00 0. -1.
          1    1    1    2  502    0  0.48820257322E+02  0.40562775479E+01  0.23108113690E+03  0.23621677066E+03  0.00000000000E+00 0. -1.
         22    1    3    3    0    0 -0.27588339066E+02  0.65998460622E+02 -0.10100276906E+02  0.72242154249E+02  0.00000000000E+00 0. -1.
         22    1    3    3    0    0  0.37103172094E+02 -0.35348295122E+02  0.26961713428E+02  0.57905797106E+02  0.00000000000E+00 0. -1.
</event>
<event>
 7    1  0.5993218E-006  0.1200628E+03  0.7818608E-02  0.1280591E+00
          2   -1    0    0  502    0  0.00000000000E+00  0.00000000000E+00  0.18346835437E+03  0.18346835437E+03  0.00000000000E+00 0. -1.
          1   -1    0    0  501    0 -0.00000000000E+00 -0.00000000000E+00 -0.30733219691E+03  0.30733219691E+03  0.00000000000E+00 0. -1.
         25    2    1    2    0    0 -0.83941362702E+02 -0.64346550623E+02 -0.81303592188E+02  0.18281956627E+03  0.12500435496E+03 0.  0.
          2    1    1    2  501    0  0.13731070481E+03  0.70585803487E+00 -0.12878782887E+03  0.18825788896E+03  0.00000000000E+00 0. -1.
          1    1    1    2  502    0 -0.53369342110E+02  0.63640692588E+02  0.86227578514E+02  0.11972309605E+03  0.00000000000E+00 0. -1.
         22    1    3    3    0    0 -0.10617999317E+02 -0.84963978056E+02 -0.57028264177E+02  0.10287780320E+03  0.00000000000E+00 0. -1.
         22    1    3    3    0    0 -0.73323363385E+02  0.20617427434E+02 -0.24275328011E+02  0.79941763066E+02  0.00000000000E+00 0. -1.
</event>
<event>
 7    1  0.5993218E-006  0.6256033E+02  0.7818608E-02  0.1441738E+00
          2   -1    0    0  502    0  0.00000000000E+00  0.00000000000E+00  0.51931279198E+03  0.51931279198E+03  0.00000000000E+00 0. -1.
          1   -1    0    0  501    0 -0.00000000000E+00 -0.00000000000E+00 -0.56885432709E+03  0.56885432709E+03  0.00000000000E+00 0. -1.
         25    2    1    2    0    0 -0.11497638883E+02  0.25130202915E+02  0.87466302850E+02  0.15504606678E+03  0.12500082356E+03 0.  0.
          2    1    1    2  501    0 -0.43351378243E+01 -0.63000402672E+02 -0.53213433599E+03  0.53586826338E+03  0.00000000000E+00 0. -1.
          1    1    1    2  502    0  0.15832776707E+02  0.37870199757E+02  0.39512649804E+03  0.39725278891E+03  0.00000000000E+00 0. -1.
         22    1    3    3    0    0 -0.50607923866E+01 -0.26281961315E+02  0.98499295322E+02  0.10207087875E+03  0.00000000000E+00 0. -1.
         22    1    3    3    0    0 -0.64368464964E+01  0.51412164230E+02 -0.11032992472E+02  0.52975188027E+02  0.00000000000E+00 0. -1.
</event>
<event>
 7    1  0.5993218E-006  0.4343189E+02  0.7818608E-02  0.1514365E+00
          2   -1    0    0  502    0  0.00000000000E+00  0.00000000000E+00  0.43267074853E+03  0.43267074853E+03  0.00000000000E+00 0. -1.
          1   -1    0    0  501    0 -0.00000000000E+00 -0.00000000000E+00 -0.44818834275E+03  0.44818834275E+03  0.00000000000E+00 0. -1.
         25    2    1    2    0    0  0.50300532761E+02 -0.54921265481E+02 -0.56098367582E+02  0.15594569524E+03  0.12500217606E+03 0.  0.
          2    1    1    2  501    0 -0.19225394117E+02  0.38097545394E+02 -0.34001412929E+03  0.34268155314E+03  0.00000000000E+00 0. -1.
          1    1    1    2  502    0 -0.31075138644E+02  0.16823720087E+02  0.38059490265E+03  0.38223184290E+03  0.00000000000E+00 0. -1.
         22    1    3    3    0    0  0.30949585068E+02 -0.65198741916E+01  0.37349559083E+02  0.48942569804E+02  0.00000000000E+00 0. -1.
         22    1    3    3    0    0  0.19350947693E+02 -0.48401391290E+02 -0.93447926664E+02  0.10700312544E+03  0.00000000000E+00 0. -1.
</event>
<event>
 7    1  0.5993218E-006  0.9227181E+02  0.7818608E-02  0.1448833E+00
          2   -1    0    0  502    0  0.00000000000E+00  0.00000000000E+00  0.19755946051E+03  0.19755946051E+03  0.00000000000E+00 0. -1.
          1   -1    0    0  501    0 -0.00000000000E+00 -0.00000000000E+00 -0.16451283174E+04  0.16451283174E+04  0.00000000000E+00 0. -1.
         25    2    1    2    0    0 -0.82212813098E+02  0.84641459154E+02  0.34341448456E+02  0.17529185062E+03  0.12499909826E+03 0.  0.
          2    1    1    2  501    0  0.61294097425E+02 -0.68531743289E+02 -0.15714025665E+04  0.15740900839E+04  0.00000000000E+00 0. -1.
          1    1    1    2  502    0  0.20918715674E+02 -0.16109715864E+02  0.89492261137E+02  0.93305843408E+02  0.00000000000E+00 0. -1.
         22    1    3    3    0    0 -0.64273687662E+02  0.56770781014E+02  0.81064536920E+02  0.11800630343E+03  0.00000000000E+00 0. -1.
         22    1    3    3    0    0 -0.17939125437E+02  0.27870678140E+02 -0.46723088464E+02  0.57285547192E+02  0.00000000000E+00 0. -1.
</event>
<event>
 7    1  0.5993218E-006  0.2095142E+03  0.7818608E-02  0.1261170E+00
          2   -1    0    0  502    0  0.00000000000E+00  0.00000000000E+00  0.11406088257E+04  0.11406088257E+04  0.00000000000E+00 0. -1.
          1   -1    0    0  501    0 -0.00000000000E+00 -0.00000000000E+00 -0.70977147310E+03  0.70977147310E+03  0.00000000000E+00 0. -1.
         25    2    1    2    0    0 -0.12836599831E+03  0.22264606171E+03 -0.39520068548E+03  0.48770586957E+03  0.12499734035E+03 0.  0.
          2    1    1    2  501    0  0.12325268013E+01 -0.57400147898E+02 -0.25516922168E+03  0.26154851901E+03  0.00000000000E+00 0. -1.
          1    1    1    2  502    0  0.12713347151E+03 -0.16524591381E+03  0.10812072597E+04  0.11011259102E+04  0.00000000000E+00 0. -1.
         22    1    3    3    0    0 -0.55795313289E+01  0.72097056411E+02 -0.39468152110E+02  0.82382350925E+02  0.00000000000E+00 0. -1.
         22    1    3    3    0    0 -0.12278646698E+03  0.15054900530E+03 -0.35573253337E+03  0.40532351865E+03  0.00000000000E+00 0. -1.
</event>
<event>
 7    1  0.5993218E-006  0.2398876E+03  0.7818608E-02  0.1248289E+00
          2   -1    0    0  502    0  0.00000000000E+00  0.00000000000E+00  0.22881952023E+04  0.22881952023E+04  0.00000000000E+00 0. -1.
          1   -1    0    0  501    0 -0.00000000000E+00 -0.00000000000E+00 -0.83405238428E+03  0.83405238428E+03  0.00000000000E+00 0. -1.
         25    2    1    2    0    0  0.16592979402E+03 -0.19504964043E+03 -0.64056145711E+03  0.70108530466E+03  0.12499826117E+03 0.  0.
          2    1    1    2  501    0 -0.54319830810E+02 -0.17184863114E+02 -0.15167416718E+03  0.16202165450E+03  0.00000000000E+00 0. -1.
          1    1    1    2  502    0 -0.11160996321E+03  0.21223450355E+03  0.22463784423E+04  0.22591406274E+04  0.00000000000E+00 0. -1.
         22    1    3    3    0    0  0.15353710316E+03 -0.95328650344E+02 -0.46364251051E+03  0.49761990633E+03  0.00000000000E+00 0. -1.
         22    1    3    3    0    0  0.12392690864E+02 -0.99720990091E+02 -0.17691894660E+03  0.20346539833E+03  0.00000000000E+00 0. -1.
</event>
<event>
 7    1  0.5993218E-006  0.6401614E+02  0.7818608E-02  0.1421316E+00
          2   -1    0    0  502    0  0.00000000000E+00  0.00000000000E+00  0.18745929462E+04  0.18745929462E+04  0.00000000000E+00 0. -1.
          1   -1    0    0  501    0 -0.00000000000E+00 -0.00000000000E+00 -0.14694520079E+04  0.14694520079E+04  0.00000000000E+00 0. -1.
         25    2    1    2    0    0  0.29991262080E+02 -0.91829405896E+02  0.29856164859E+03  0.33778125057E+03  0.12499999856E+03 0.  0.
          2    1    1    2  501    0  0.73113554862E+01  0.63544093618E+02 -0.14487843847E+04  0.14501956768E+04  0.00000000000E+00 0. -1.
          1    1    1    2  502    0 -0.37302617566E+02  0.28285312278E+02  0.15553636744E+04  0.15560680267E+04  0.00000000000E+00 0. -1.
         22    1    3    3    0    0 -0.57156983142E+01 -0.10337675428E+03  0.13589400734E+03  0.17084087264E+03  0.00000000000E+00 0. -1.
         22    1    3    3    0    0  0.35706960394E+02  0.11547348380E+02  0.16266764125E+03  0.16694037793E+03  0.00000000000E+00 0. -1.
</event>
<event>
 7    1  0.5993218E-006  0.3444187E+02  0.7818608E-02  0.1597246E+00
          2   -1    0    0  502    0  0.00000000000E+00  0.00000000000E+00  0.41469772096E+02  0.41469772096E+02  0.00000000000E+00 0. -1.
          1   -1    0    0  501    0 -0.00000000000E+00 -0.00000000000E+00 -0.15870112253E+04  0.15870112253E+04  0.00000000000E+00 0. -1.
         25    2    1    2    0    0 -0.10047861914E+02  0.79343956400E+01 -0.23619880903E+03  0.26754072142E+03  0.12499698423E+03 0.  0.
          2    1    1    2  501    0 -0.25527020246E+02 -0.61789629244E+01 -0.13226549286E+04  0.13229156694E+04  0.00000000000E+00 0. -1.
          1    1    1    2  502    0  0.35574882160E+02 -0.17554327155E+01  0.13312284422E+02  0.38024606524E+02  0.00000000000E+00 0. -1.
         22    1    3    3    0    0 -0.62562915620E+02 -0.16778043798E+02 -0.15251718426E+03  0.16570187887E+03  0.00000000000E+00 0. -1.
         22    1    3    3    0    0  0.52515053706E+02  0.24712439438E+02 -0.83681624765E+02  0.10183884255E+03  0.00000000000E+00 0. -1.
</event>
<event>
 7    1  0.5993218E-006  0.8031227E+02  0.7818608E-02  0.1409514E+00
          2   -1    0    0  502    0  0.00000000000E+00  0.00000000000E+00  0.86764493937E+03  0.86764493937E+03  0.00000000000E+00 0. -1.
          1   -1    0    0  501    0 -0.00000000000E+00 -0.00000000000E+00 -0.25998735629E+03  0.25998735629E+03  0.00000000000E+00 0. -1.
         25    2    1    2    0    0  0.35942908400E+01 -0.56472426340E+02 -0.54473389234E+02  0.14762517928E+03  0.12499515814E+03 0.  0.
          2    1    1    2  501    0 -0.37102665384E+02 -0.17175184651E+02 -0.15427539200E+03  0.15960103798E+03  0.00000000000E+00 0. -1.
          1    1    1    2  502    0  0.33508374544E+02  0.73647610991E+02  0.81640636432E+03  0.82040607840E+03  0.00000000000E+00 0. -1.
         22    1    3    3    0    0  0.33724196832E+02 -0.64119924438E+02  0.12751217798E+02  0.73561401001E+02  0.00000000000E+00 0.  1.
         22    1    3    3    0    0 -0.30129905992E+02  0.76474980978E+01 -0.67224607032E+02  0.74063778278E+02  0.00000000000E+00 0.  1.
</event>
<event>
 7    1  0.5993218E-006  0.7312103E+02  0.7818608E-02  0.1366595E+00
          2   -1    0    0  502    0  0.00000000000E+00  0.00000000000E+00  0.63557884582E+03  0.63557884582E+03  0.00000000000E+00 0. -1.
          1   -1    0    0  501    0 -0.00000000000E+00 -0.00000000000E+00 -0.17566385526E+04  0.17566385526E+04  0.00000000000E+00 0. -1.
         25    2    1    2    0    0 -0.61462949071E+02  0.12027108981E+03  0.85650739486E+02  0.20297626817E+03  0.12498194715E+03 0.  0.
          2    1    1    2  501    0  0.24885075416E+02 -0.68405428503E+02 -0.16951416468E+04  0.16967037963E+04  0.00000000000E+00 0. -1.
          1    1    1    2  502    0  0.36577873655E+02 -0.51865661304E+02  0.48843120055E+03  0.49253733395E+03  0.00000000000E+00 0. -1.
         22    1    3    3    0    0  0.34523164376E+02  0.61556440835E+02  0.23226280384E+02  0.74300096819E+02  0.00000000000E+00 0.  1.
         22    1    3    3    0    0 -0.95986113447E+02  0.58714648972E+02  0.62424459102E+02  0.12867617135E+03  0.00000000000E+00 0.  1.
</event>
<event>
 7    1  0.5993218E-006  0.1091077E+03  0.7818608E-02  0.1366205E+00
          2   -1    0    0  502    0  0.00000000000E+00  0.00000000000E+00  0.25460451524E+03  0.25460451524E+03  0.00000000000E+00 0. -1.
          1   -1    0    0  501    0 -0.00000000000E+00 -0.00000000000E+00 -0.35582852388E+03  0.35582852388E+03  0.00000000000E+00 0. -1.
         25    2    1    2    0    0 -0.99409933886E+02  0.80181511637E+02 -0.79837775010E+02  0.19572956570E+03  0.12499833122E+03 0.  0.
          2    1    1    2  501    0 -0.15651899324E+01 -0.42642932726E+02 -0.20088081337E+03  0.20536302177E+03  0.00000000000E+00 0. -1.
          1    1    1    2  502    0  0.10097512382E+03 -0.37538578910E+02  0.17949457974E+03  0.20934045164E+03  0.00000000000E+00 0. -1.
         22    1    3    3    0    0 -0.75377744097E+02  0.10251647882E+03 -0.95768589054E+02  0.15925782676E+03  0.00000000000E+00 0.  1.
         22    1    3    3    0    0 -0.24032189789E+02 -0.22334967188E+02  0.15930814044E+02  0.36471738942E+02  0.00000000000E+00 0.  1.
</event>
<event>
 7    1  0.5993218E-006  0.1209100E+03  0.7818608E-02  0.1318104E+00
          2   -1    0    0  502    0  0.00000000000E+00  0.00000000000E+00  0.25611115529E+03  0.25611115529E+03  0.00000000000E+00 0. -1.
          1   -1    0    0  501    0 -0.00000000000E+00 -0.00000000000E+00 -0.17690047321E+04  0.17690047321E+04  0.00000000000E+00 0. -1.
         25    2    1    2    0    0  0.10528967810E+03 -0.91242503362E+02  0.22075941160E+02  0.18847737310E+03  0.12500104903E+03 0.  0.
          2    1    1    2  501    0 -0.55982229985E+02 -0.16414572778E+02 -0.16619735965E+04  0.16629971989E+04  0.00000000000E+00 0. -1.
          1    1    1    2  502    0 -0.49307448114E+02  0.10765707614E+03  0.12700407844E+03  0.17364131543E+03  0.00000000000E+00 0. -1.
         22    1    3    3    0    0  0.49624077102E+02 -0.33369468664E+02 -0.51986636845E+02  0.79238127676E+02  0.00000000000E+00 0. -1.
         22    1    3    3    0    0  0.55665600997E+02 -0.57873034698E+02  0.74062578005E+02  0.10923924542E+03  0.00000000000E+00 0. -1.
</event>
<event>
 7    1  0.5993218E-006  0.1048632E+03  0.7818608E-02  0.1349188E+00
          2   -1    0    0  502    0  0.00000000000E+00  0.00000000000E+00  0.28302365506E+04  0.28302365506E+04  0.00000000000E+00 0. -1.
          1   -1    0    0  501    0 -0.00000000000E+00 -0.00000000000E+00 -0.11689492535E+03  0.11689492535E+03  0.00000000000E+00 0. -1.
         25    2    1    2    0    0  0.38007876736E+02  0.42842876765E+02 -0.42092694614E+02  0.14379654528E+03  0.12500216283E+03 0.  0.
          2    1    1    2  501    0  0.47907533208E+02  0.18205153876E+02  0.56825721949E+01  0.51564047479E+02  0.00000000000E+00 0. -1.
          1    1    1    2  502    0 -0.85915409943E+02 -0.61048030641E+02  0.27497517477E+04  0.27517708832E+04  0.00000000000E+00 0. -1.
         22    1    3    3    0    0 -0.31941468391E+02 -0.24418941541E+02 -0.16308902446E+02  0.43388044528E+02  0.00000000000E+00 0.  1.
         22    1    3    3    0    0  0.69949345126E+02  0.67261818306E+02 -0.25783792167E+02  0.10040850076E+03  0.00000000000E+00 0.  1.
</event>
<event>
 7    1  0.5993218E-006  0.2540478E+02  0.7818608E-02  0.1669359E+00
          2   -1    0    0  502    0  0.00000000000E+00  0.00000000000E+00  0.54812798128E+03  0.54812798128E+03  0.00000000000E+00 0. -1.
          1   -1    0    0  501    0 -0.00000000000E+00 -0.00000000000E+00 -0.48358025283E+03  0.48358025283E+03  0.00000000000E+00 0. -1.
         25    2    1    2    0    0 -0.13231215561E+02  0.11906678133E+02 -0.27426188947E+03  0.30192961033E+03  0.12500028610E+03 0.  0.
          2    1    1    2  501    0  0.25108628453E+02  0.83573545569E+01 -0.19432915582E+03  0.19612268966E+03  0.00000000000E+00 0. -1.
          1    1    1    2  502    0 -0.11877412893E+02 -0.20264032690E+02  0.53313877375E+03  0.53365593413E+03  0.00000000000E+00 0. -1.
         22    1    3    3    0    0 -0.10174954195E+02 -0.15122807214E+02 -0.27412220861E+03  0.27472752728E+03  0.00000000000E+00 0. -1.
         22    1    3    3    0    0 -0.30562613657E+01  0.27029485347E+02 -0.13968086666E+00  0.27202083053E+02  0.00000000000E+00 0. -1.
</event>
<event>
 7    1  0.5993218E-006  0.3292155E+02  0.7818608E-02  0.1621720E+00
          2   -1    0    0  502    0  0.00000000000E+00  0.00000000000E+00  0.16369612990E+04  0.16369612990E+04  0.00000000000E+00 0. -1.
          1   -1    0    0  501    0 -0.00000000000E+00 -0.00000000000E+00 -0.26858233594E+03  0.26858233594E+03  0.00000000000E+00 0. -1.
         25    2    1    2    0    0 -0.10421319402E+02 -0.45315672907E+01 -0.51033216870E+02  0.13549937371E+03  0.12500620805E+03 0.  0.
          2    1    1    2  501    0  0.23214315925E+02  0.24549957614E+02 -0.17359872467E+03  0.17685621869E+03  0.00000000000E+00 0. -1.
          1    1    1    2  502    0 -0.12792996524E+02 -0.20018390323E+02  0.15930109046E+04  0.15931880425E+04  0.00000000000E+00 0. -1.
         22    1    3    3    0    0 -0.24738735528E+02 -0.41636956433E+02 -0.74842009900E+02  0.89145766150E+02  0.00000000000E+00 0. -1.
         22    1    3    3    0    0  0.14317416126E+02  0.37105389142E+02  0.23808793030E+02  0.46353607556E+02  0.00000000000E+00 0. -1.
</event>
<event>
 7    1  0.5993218E-006  0.1391481E+03  0.7818608E-02  0.1339585E+00
          2   -1    0    0  502    0  0.00000000000E+00  0.00000000000E+00  0.77104033487E+03  0.77104033487E+03  0.00000000000E+00 0. -1.
          1   -1    0    0  501    0 -0.00000000000E+00 -0.00000000000E+00 -0.92795073205E+02  0.92795073205E+02  0.00000000000E+00 0. -1.
         25    2    1    2    0    0  0.12370936842E+03  0.38600312330E+02  0.33366383820E+03  0.37914373073E+03  0.12499767869E+03 0.  0.
          2    1    1    2  501    0 -0.11738965996E+03 -0.80071136904E+02  0.46416796778E+01  0.14217336045E+03  0.00000000000E+00 0. -1.
          1    1    1    2  502    0 -0.63197084531E+01  0.41470824575E+02  0.33993974379E+03  0.34251831690E+03  0.00000000000E+00 0. -1.
         22    1    3    3    0    0  0.11382812918E+03  0.36241765586E+02  0.34430040848E+03  0.36443528897E+03  0.00000000000E+00 0.  1.
         22    1    3    3    0    0  0.98812392413E+01  0.23585467433E+01 -0.10636570279E+02  0.14708441759E+02  0.00000000000E+00 0.  1.
</event>
<event>
 7    1  0.5993218E-006  0.1091683E+03  0.7818608E-02  0.1348231E+00
          2   -1    0    0  502    0  0.00000000000E+00  0.00000000000E+00  0.80631931837E+03  0.80631931837E+03  0.00000000000E+00 0. -1.
          1   -1    0    0  501    0 -0.00000000000E+00 -0.00000000000E+00 -0.32853561532E+03  0.32853561532E+03  0.00000000000E+00 0. -1.
         25    2    1    2    0    0  0.14842408479E+03  0.16608466108E+02  0.20375339750E+03  0.28186191885E+03  0.12500057684E+03 0.  0.
          2    1    1    2  501    0 -0.44197148868E+02 -0.22585427104E+02 -0.28246363801E+03  0.28679120678E+03  0.00000000000E+00 0. -1.
          1    1    1    2  502    0 -0.10422693592E+03  0.59769609954E+01  0.55649394356E+03  0.56620180806E+03  0.00000000000E+00 0. -1.
         22    1    3    3    0    0  0.60918092266E+02 -0.29295159997E+02  0.15651691499E+02  0.69384406111E+02  0.00000000000E+00 0. -1.
         22    1    3    3    0    0  0.87505992523E+02  0.45903626105E+02  0.18810170600E+03  0.21247751274E+03  0.00000000000E+00 0. -1.
</event>
<event>
 7    1  0.5993218E-006  0.1384048E+03  0.7818608E-02  0.1238255E+00
          2   -1    0    0  502    0  0.00000000000E+00  0.00000000000E+00  0.73648574894E+03  0.73648574894E+03  0.00000000000E+00 0. -1.
          1   -1    0    0  501    0 -0.00000000000E+00 -0.00000000000E+00 -0.78952423784E+03  0.78952423784E+03  0.00000000000E+00 0. -1.
         25    2    1    2    0    0  0.20391716004E+03  0.13140758954E+03  0.11816636664E+03  0.29738553930E+03  0.12499882413E+03 0.  0.
          2    1    1    2  501    0 -0.12097626152E+03 -0.60252963312E+02 -0.68761867335E+03  0.70077465378E+03  0.00000000000E+00 0. -1.
          1    1    1    2  502    0 -0.82940898521E+02 -0.71154626230E+02  0.51641381782E+03  0.52784979370E+03  0.00000000000E+00 0. -1.
         22    1    3    3    0    0  0.10256644656E+03  0.99513247256E+02  0.12643940233E+03  0.19081321967E+03  0.00000000000E+00 0. -1.
         22    1    3    3    0    0  0.10135071348E+03  0.31894342286E+02 -0.82730356879E+01  0.10657231963E+03  0.00000000000E+00 0. -1.
</event>
<event>
 7    1  0.5993218E-006  0.5251747E+02  0.7818608E-02  0.1518204E+00
          2   -1    0    0  502    0  0.00000000000E+00  0.00000000000E+00  0.52893933694E+03  0.52893933694E+03  0.00000000000E+00 0. -1.
          1   -1    0    0  501    0 -0.00000000000E+00 -0.00000000000E+00 -0.97841274070E+02  0.97841274070E+02  0.00000000000E+00 0. -1.
         25    2    1    2    0    0 -0.53774183518E+02  0.32582246927E+02  0.41101657085E+03  0.43418017562E+03  0.12499815102E+03 0.  0.
          2    1    1    2  501    0  0.27078328106E+02  0.88222191184E+01 -0.77893696284E+02  0.82936694678E+02  0.00000000000E+00 0. -1.
          1    1    1    2  502    0  0.26695855412E+02 -0.41404466045E+02  0.97975188305E+02  0.10966374072E+03  0.00000000000E+00 0. -1.
         22    1    3    3    0    0 -0.45934035018E+02  0.28540215098E+02  0.41888413620E+03  0.42236050835E+03  0.00000000000E+00 0. -1.
         22    1    3    3    0    0 -0.78401484996E+01  0.40420318285E+01 -0.78675653512E+01  0.11819667269E+02  0.00000000000E+00 0. -1.
</event>
<event>
 7    1  0.5993218E-006  0.1072377E+03  0.7818608E-02  0.1274316E+00
          2   -1    0    0  502    0  0.00000000000E+00  0.00000000000E+00  0.10004603957E+04  0.10004603957E+04  0.00000000000E+00 0. -1.
          1   -1    0    0  501    0 -0.00000000000E+00 -0.00000000000E+00 -0.23018981648E+04  0.23018981648E+04  0.00000000000E+00 0. -1.
         25    2    1    2    0    0 -0.75150537850E+01 -0.93642040107E+01  0.35665092891E+03  0.37811329141E+03  0.12500244676E+03 0.  0.
          2    1    1    2  501    0 -0.30568937502E+01  0.10753200881E+03 -0.22860447047E+04  0.22885744186E+04  0.00000000000E+00 0. -1.
          1    1    1    2  502    0  0.10571947535E+02 -0.98167804804E+02  0.62795600661E+03  0.63567085053E+03  0.00000000000E+00 0. -1.
         22    1    3    3    0    0  0.55396677894E+02 -0.91561128791E+01  0.22924636507E+03  0.23602229179E+03  0.00000000000E+00 0.  1.
         22    1    3    3    0    0 -0.62911731679E+02 -0.20809113165E+00  0.12740456384E+03  0.14209099962E+03  0.00000000000E+00 0.  1.
</event>
<event>
 7    1  0.5993218E-006  0.1173279E+03  0.7818608E-02  0.1326948E+00
          2   -1    0    0  502    0  0.00000000000E+00  0.00000000000E+00  0.11434537608E+03  0.11434537608E+03  0.00000000000E+00 0. -1.
          1   -1    0    0  501    0 -0.00000000000E+00 -0.00000000000E+00 -0.93059806093E+03  0.93059806093E+03  0.00000000000E+00 0. -1.
         25    2    1    2    0    0  0.51969652321E+02 -0.15945891281E+03 -0.30993548570E+02  0.21145647616E+03  0.12500100648E+03 0.  0.
          2    1    1    2  501    0 -0.49143884367E+02  0.10396117351E+03 -0.76613798772E+03  0.77471960295E+03  0.00000000000E+00 0. -1.
          1    1    1    2  502    0 -0.28257679540E+01  0.55497739295E+02 -0.19121148561E+02  0.58767357893E+02  0.00000000000E+00 0. -1.
         22    1    3    3    0    0  0.27038217527E+02  0.13798516819E+02 -0.19411844851E+02  0.36031708175E+02  0.00000000000E+00 0. -1.
         22    1    3    3    0    0  0.24931434793E+02 -0.17325742963E+03 -0.11581703718E+02  0.17542476799E+03  0.00000000000E+00 0. -1.
</event>
<event>
 7    1  0.5993218E-006  0.7523519E+02  0.7818608E-02  0.1422699E+00
          2   -1    0    0  502    0  0.00000000000E+00  0.00000000000E+00  0.77752021051E+03  0.77752021051E+03  0.00000000000E+00 0. -1.
          1   -1    0    0  501    0 -0.00000000000E+00 -0.00000000000E+00 -0.14481037492E+03  0.14481037492E+03  0.00000000000E+00 0. -1.
         25    2    1    2    0    0 -0.44730131400E+02 -0.47802638196E+02  0.57635986632E+03  0.59338193693E+03  0.12500220277E+03 0.  0.
          2    1    1    2  501    0  0.12431921599E+02 -0.37400882091E+02 -0.12225060283E+03  0.12844683160E+03  0.00000000000E+00 0. -1.
          1    1    1    2  502    0  0.32298209801E+02  0.85203520287E+02  0.17860057210E+03  0.20050181690E+03  0.00000000000E+00 0. -1.
         22    1    3    3    0    0 -0.78557290962E+02 -0.59770319816E+02  0.33077358424E+03  0.34518821406E+03  0.00000000000E+00 0.  1.
         22    1    3    3    0    0  0.33827159562E+02  0.11967681620E+02  0.24558628208E+03  0.24819372287E+03  0.00000000000E+00 0.  1.
</event>
<event>
 7    1  0.5993218E-006  0.6988323E+02  0.7818608E-02  0.1387444E+00
          2   -1    0    0  502    0  0.00000000000E+00  0.00000000000E+00  0.13996386774E+04  0.13996386774E+04  0.00000000000E+00 0. -1.
          1   -1    0    0  501    0 -0.00000000000E+00 -0.00000000000E+00 -0.29882897778E+03  0.29882897778E+03  0.00000000000E+00 0. -1.
         25    2    1    2    0    0  0.46526103312E+01  0.57676279095E+02  0.94411357507E+02  0.16699732945E+03  0.12500561454E+03 0.  0.
          2    1    1    2  501    0 -0.55360787958E+02 -0.83068912715E+01 -0.25855140488E+03  0.26454234113E+03  0.00000000000E+00 0. -1.
          1    1    1    2  502    0  0.50708177627E+02 -0.49369387823E+02  0.12649497470E+04  0.12669279846E+04  0.00000000000E+00 0. -1.
         22    1    3    3    0    0 -0.56315279107E+02  0.40568527412E+01  0.35682928057E+02  0.66791766482E+02  0.00000000000E+00 0.  1.
         22    1    3    3    0    0  0.60967889438E+02  0.53619426354E+02  0.58728429450E+02  0.10020556297E+03  0.00000000000E+00 0.  1.
</event>
<event>
 7    1  0.5993218E-006  0.5596473E+02  0.7818608E-02  0.1421277E+00
          2   -1    0    0  502    0  0.00000000000E+00  0.00000000000E+00  0.64264725772E+03  0.64264725772E+03  0.00000000000E+00 0. -1.
          1   -1    0    0  501    0 -0.00000000000E+00 -0.00000000000E+00 -0.60672559631E+03  0.60672559631E+03  0.00000000000E+00 0. -1.
         25    2    1    2    0    0  0.45869267848E+02 -0.22622257669E+02 -0.13483158518E+03  0.19084118581E+03  0.12500018226E+03 0.  0.
          2    1    1    2  501    0  0.10545874244E+01  0.53554543757E+02 -0.44098041394E+03  0.44422170905E+03  0.00000000000E+00 0. -1.
          1    1    1    2  502    0 -0.46923855272E+02 -0.30932286088E+02  0.61173366053E+03  0.61430995918E+03  0.00000000000E+00 0. -1.
         22    1    3    3    0    0  0.87273661429E+02 -0.48674406186E+01 -0.10584091174E+03  0.13726865103E+03  0.00000000000E+00 0. -1.
         22    1    3    3    0    0 -0.41404393581E+02 -0.17754817051E+02 -0.28990673440E+02  0.53572534780E+02  0.00000000000E+00 0. -1.
</event>
<event>
 7    1  0.5993218E-006  0.1846611E+03  0.7818608E-02  0.1305338E+00
          2   -1    0    0  502    0  0.00000000000E+00  0.00000000000E+00  0.28650905051E+04  0.28650905051E+04  0.00000000000E+00 0. -1.
          1   -1    0    0  501    0 -0.00000000000E+00 -0.00000000000E+00 -0.69316979351E+02  0.69316979351E+02  0.00000000000E+00 0. -1.
         25    2    1    2    0    0 -0.16273865670E+03 -0.15141354978E+03  0.14678522853E+04  0.14898404387E+04  0.12499707207E+03 0.  0.
          2    1    1    2  501    0  0.13967250839E+03  0.11526996732E+03  0.83519551008E+02  0.19942690482E+03  0.00000000000E+00 0. -1.
          1    1    1    2  502    0  0.23066148313E+02  0.36143582453E+02  0.12444016895E+04  0.12451401409E+04  0.00000000000E+00 0. -1.
         22    1    3    3    0    0 -0.94301812205E+02 -0.43629664802E+02  0.98239186949E+03  0.98787153248E+03  0.00000000000E+00 0. -1.
         22    1    3    3    0    0 -0.68436844498E+02 -0.10778388497E+03  0.48546041580E+03  0.50196890626E+03  0.00000000000E+00 0. -1.
</event>
<event>
 7    1  0.5993218E-006  0.1008885E+03  0.7818608E-02  0.1320053E+00
          2   -1    0    0  502    0  0.00000000000E+00  0.00000000000E+00  0.78545638833E+03  0.78545638833E+03  0.00000000000E+00 0. -1.
          1   -1    0    0  501    0 -0.00000000000E+00 -0.00000000000E+00 -0.78758803676E+03  0.78758803676E+03  0.00000000000E+00 0. -1.
         25    2    1    2    0    0 -0.18593904866E+02  0.34173642027E+02  0.24698326112E+03  0.27953054954E+03  0.12499210274E+03 0.  0.
          2    1    1    2  501    0  0.82402379518E+02 -0.59654219301E+02 -0.76567550273E+03  0.77240387979E+03  0.00000000000E+00 0. -1.
          1    1    1    2  502    0 -0.63808474652E+02  0.25480577274E+02  0.51656059318E+03  0.52110999576E+03  0.00000000000E+00 0. -1.
         22    1    3    3    0    0 -0.22435313197E+02  0.47043744290E+02  0.25734324040E+03  0.26256808743E+03  0.00000000000E+00 0.  1.
         22    1    3    3    0    0  0.38414083313E+01 -0.12870102262E+02 -0.10359979285E+02  0.16962462115E+02  0.00000000000E+00 0.  1.
</event>
<event>
 7    1  0.5993218E-006  0.3449480E+03  0.7818608E-02  0.1192786E+00
          2   -1    0    0  502    0  0.00000000000E+00  0.00000000000E+00  0.72557857833E+03  0.72557857833E+03  0.00000000000E+00 0. -1.
          1   -1    0    0  501    0 -0.00000000000E+00 -0.00000000000E+00 -0.17374068004E+04  0.17374068004E+04  0.00000000000E+00 0. -1.
         25    2    1    2    0    0 -0.32182223193E+03 -0.94014287595E+02 -0.31380971061E+03  0.47593097539E+03  0.12500209449E+03 0.  0.
          2    1    1    2  501    0  0.15762754493E+02 -0.69166943405E+02 -0.12948321452E+04  0.12967740029E+04  0.00000000000E+00 0. -1.
          1    1    1    2  502    0  0.30605947744E+03  0.16318123100E+03  0.59681363368E+03  0.69028040044E+03  0.00000000000E+00 0. -1.
         22    1    3    3    0    0 -0.11509009168E+03 -0.39327575147E+02 -0.19898179734E+03  0.23320836829E+03  0.00000000000E+00 0. -1.
         22    1    3    3    0    0 -0.20673214025E+03 -0.54686712448E+02 -0.11482791327E+03  0.24272260710E+03  0.00000000000E+00 0. -1.
</event>
<event>
 7    1  0.5993218E-006  0.6142369E+02  0.7818608E-02  0.1407913E+00
          2   -1    0    0  502    0  0.00000000000E+00  0.00000000000E+00  0.23706593171E+04  0.23706593171E+04  0.00000000000E+00 0. -1.
          1   -1    0    0  501    0 -0.00000000000E+00 -0.00000000000E+00 -0.14631641614E+03  0.14631641614E+03  0.00000000000E+00 0. -1.
         25    2    1    2    0    0  0.43543775155E+02 -0.20649924800E+01 -0.25734484186E+02  0.13486347243E+03  0.12500227187E+03 0.  0.
          2    1    1    2  501    0 -0.45701474116E+02  0.56153101566E+02 -0.45751972263E+02  0.85644839412E+02  0.00000000000E+00 0. -1.
          1    1    1    2  502    0  0.21576989609E+01 -0.54088109086E+02  0.22958293574E+04  0.22964674214E+04  0.00000000000E+00 0. -1.
         22    1    3    3    0    0  0.95809882377E+01 -0.46542699433E+02  0.29745991695E+02  0.56061058035E+02  0.00000000000E+00 0.  1.
         22    1    3    3    0    0  0.33962786917E+02  0.44477706953E+02 -0.55480475882E+02  0.78802414398E+02  0.00000000000E+00 0.  1.
</event>
<event>
 7    1  0.5993218E-006  0.1493494E+03  0.7818608E-02  0.1397074E+00
          2   -1    0    0  502    0  0.00000000000E+00  0.00000000000E+00  0.14594101596E+04  0.14594101596E+04  0.00000000000E+00 0. -1.
          1   -1    0    0  501    0 -0.00000000000E+00 -0.00000000000E+00 -0.39550581921E+02  0.39550581921E+02  0.00000000000E+00 0. -1.
         25    2    1    2    0    0  0.14645352616E+03 -0.89325471406E+01  0.54773578023E+03  0.58066311247E+03  0.12500695788E+03 0.  0.
          2    1    1    2  501    0  0.76415181964E+00 -0.24238031022E+02 -0.78413625671E+01  0.25486330508E+02  0.00000000000E+00 0. -1.
          1    1    1    2  502    0 -0.14721767798E+03  0.33170578163E+02  0.87996516004E+03  0.89281129857E+03  0.00000000000E+00 0. -1.
         22    1    3    3    0    0  0.14414585205E+03 -0.38799071086E+02  0.34759674185E+03  0.37829471253E+03  0.00000000000E+00 0.  1.
         22    1    3    3    0    0  0.23076741031E+01  0.29866523945E+02  0.20013903838E+03  0.20236839994E+03  0.00000000000E+00 0.  1.
</event>
<event>
 7    1  0.5993218E-006  0.5931211E+02  0.7818608E-02  0.1426059E+00
          2   -1    0    0  502    0  0.00000000000E+00  0.00000000000E+00  0.12131900373E+04  0.12131900373E+04  0.00000000000E+00 0. -1.
          1   -1    0    0  501    0 -0.00000000000E+00 -0.00000000000E+00 -0.34411290637E+03  0.34411290637E+03  0.00000000000E+00 0. -1.
         25    2    1    2    0    0 -0.54046461840E+02  0.51630731138E+01  0.66635708625E+03  0.68015116306E+03  0.12500464330E+03 0.  0.
          2    1    1    2  501    0  0.41972575341E+02  0.42043725593E+02 -0.33348601957E+03  0.33873632399E+03  0.00000000000E+00 0. -1.
          1    1    1    2  502    0  0.12073886499E+02 -0.47206798707E+02  0.53620606425E+03  0.53841545661E+03  0.00000000000E+00 0. -1.
         22    1    3    3    0    0 -0.86642130767E+02 -0.12041389825E+02  0.57538298543E+03  0.58199435892E+03  0.00000000000E+00 0. -1.
         22    1    3    3    0    0  0.32595668927E+02  0.17204462938E+02  0.90974100818E+02  0.98156804133E+02  0.00000000000E+00 0. -1.
</event>
<event>
 7    1  0.1159533E-005  0.1057748E+03  0.7818608E-02  0.1358235E+00
          2   -1    0    0  502    0  0.00000000000E+00  0.00000000000E+00  0.31068229115E+04  0.31068229115E+04  0.00000000000E+00 0. -1.
          1   -1    0    0  501    0 -0.00000000000E+00 -0.00000000000E+00 -0.66441733241E+03  0.66441733241E+03  0.00000000000E+00 0. -1.
         25    2    1    2    0    0  0.36690890165E+02 -0.14350154663E+03 -0.23614384350E+03  0.30549599253E+03  0.12499988529E+03 0.  0.
          2    1    1    2  501    0  0.56420215797E+01  0.46715327645E+02 -0.39127925545E+03  0.39409847753E+03  0.00000000000E+00 0. -1.
          1    1    1    2  502    0 -0.42332911745E+02  0.96786218980E+02  0.30698286780E+04  0.30716457738E+04  0.00000000000E+00 0. -1.
         22    1    3    3    0    0  0.72563855806E+02 -0.93849443167E+02 -0.20482371547E+03  0.23669808950E+03  0.00000000000E+00 0. -1.
         22    1    3    3    0    0 -0.35872965641E+02 -0.49652103458E+02 -0.31320128027E+02  0.68797903029E+02  0.00000000000E+00 0. -1.
</event>
<event>
 7    1  0.5993218E-006  0.1185763E+03  0.7818608E-02  0.1365822E+00
          2   -1    0    0  502    0  0.00000000000E+00  0.00000000000E+00  0.43565834549E+04  0.43565834549E+04  0.00000000000E+00 0. -1.
          1   -1    0    0  501    0 -0.00000000000E+00 -0.00000000000E+00 -0.25057595180E+02  0.25057595180E+02  0.00000000000E+00 0. -1.
         25    2    1    2    0    0 -0.26510770757E+02  0.10887193017E+03  0.70442748900E+03  0.72415385138E+03  0.12499918027E+03 0.  0.
          2    1    1    2  501    0  0.37996719719E+02  0.10382792659E+02  0.13110913817E+02  0.41514445123E+02  0.00000000000E+00 0. -1.
          1    1    1    2  502    0 -0.11485948962E+02 -0.11925472283E+03  0.36139874569E+04  0.36159727536E+04  0.00000000000E+00 0. -1.
         22    1    3    3    0    0 -0.54933479643E+02  0.17275212353E+02  0.42145458284E+03  0.42537052735E+03  0.00000000000E+00 0. -1.
         22    1    3    3    0    0  0.28422708886E+02  0.91596717814E+02  0.28297290616E+03  0.29878332403E+03  0.00000000000E+00 0. -1.
</event>
<event>
 7    1  0.5993218E-006  0.7501225E+02  0.7818608E-02  0.1428532E+00
          2   -1    0    0  502    0  0.00000000000E+00  0.00000000000E+00  0.15498492094E+04  0.15498492094E+04  0.00000000000E+00 0. -1.
          1   -1    0    0  501    0 -0.00000000000E+00 -0.00000000000E+00 -0.11971356698E+03  0.11971356698E+03  0.00000000000E+00 0. -1.
         25    2    1    2    0    0 -0.48207465787E+02  0.18117158651E+02  0.42307235848E+02  0.14165934278E+03  0.12500110398E+03 0.  0.
          2    1    1    2  501    0  0.81840802402E+02 -0.84415727753E+00 -0.45792004906E+02  0.93784525657E+02  0.00000000000E+00 0. -1.
          1    1    1    2  502    0 -0.33633336616E+02 -0.17273001374E+02  0.14336204115E+04  0.14341189080E+04  0.00000000000E+00 0. -1.
         22    1    3    3    0    0  0.46647779484E+01  0.63468315014E+02  0.32036995471E+02  0.71248552567E+02  0.00000000000E+00 0. -1.
         22    1    3    3    0    0 -0.52872243735E+02 -0.45351156363E+02  0.10270240377E+02  0.70410790213E+02  0.00000000000E+00 0. -1.
</event>
<event>
 7    1  0.5993218E-006  0.1045231E+03  0.7818608E-02  0.1389359E+00
          2   -1    0    0  502    0  0.00000000000E+00  0.00000000000E+00  0.19469136330E+04  0.19469136330E+04  0.00000000000E+00 0. -1.
          1   -1    0    0  501    0 -0.00000000000E+00 -0.00000000000E+00 -0.12329633893E+03  0.12329633893E+03  0.00000000000E+00 0. -1.
         25    2    1    2    0    0 -0.82129932892E+02  0.14534679349E+02  0.73266344728E+03  0.74791514160E+03  0.12499899712E+03 0.  0.
          2    1    1    2  501    0 -0.20960500441E+02  0.30314717177E+02 -0.11004132529E+03  0.11604920477E+03  0.00000000000E+00 0. -1.
          1    1    1    2  502    0  0.10309043333E+03 -0.44849396526E+02  0.12009951721E+04  0.12062456256E+04  0.00000000000E+00 0. -1.
         22    1    3    3    0    0 -0.61737763528E+02 -0.51923943576E+02  0.40597668793E+03  0.41391390228E+03  0.00000000000E+00 0. -1.
         22    1    3    3    0    0 -0.20392169363E+02  0.66458622925E+02  0.32668675935E+03  0.33400123932E+03  0.00000000000E+00 0. -1.
</event>
<event>
 7    1  0.5993218E-006  0.7334288E+02  0.7818608E-02  0.1423027E+00
          2   -1    0    0  502    0  0.00000000000E+00  0.00000000000E+00  0.80237977414E+03  0.80237977414E+03  0.00000000000E+00 0. -1.
          1   -1    0    0  501    0 -0.00000000000E+00 -0.00000000000E+00 -0.58780131326E+03  0.58780131326E+03  0.00000000000E+00 0. -1.
         25    2    1    2    0    0  0.10178742326E+03 -0.26935911532E+02  0.39373098206E+03  0.42630530996E+03  0.12500363277E+03 0.  0.
          2    1    1    2  501    0 -0.40294149772E+02 -0.16556913262E+01 -0.56786342970E+03  0.56929362776E+03  0.00000000000E+00 0. -1.
          1    1    1    2  502    0 -0.61493273490E+02  0.28591602858E+02  0.38871090852E+03  0.39458214968E+03  0.00000000000E+00 0. -1.
         22    1    3    3    0    0 -0.97112754415E+01 -0.39381433253E+02  0.48086045868E+02  0.62908457007E+02  0.00000000000E+00 0. -1.
         22    1    3    3    0    0  0.11149869870E+03  0.12445521721E+02  0.34564493619E+03  0.36339685295E+03  0.00000000000E+00 0. -1.
</event>
<event>
 7    1  0.5993218E-006  0.8571547E+02  0.7818608E-02  0.1321988E+00
          2   -1    0    0  502    0  0.00000000000E+00  0.00000000000E+00  0.25297650130E+03  0.25297650130E+03  0.00000000000E+00 0. -1.
          1   -1    0    0  501    0 -0.00000000000E+00 -0.00000000000E+00 -0.16371147219E+04  0.16371147219E+04  0.00000000000E+00 0. -1.
         25    2    1    2    0    0 -0.18885808897E+02 -0.56303567613E+01 -0.19229395994E+02  0.12799824015E+03  0.12500162045E+03 0.  0.
          2    1    1    2  501    0 -0.51657822799E+02 -0.60411642266E+02 -0.15506672086E+04  0.15527030911E+04  0.00000000000E+00 0. -1.
          1    1    1    2  502    0  0.70543631695E+02  0.66041999027E+02  0.18575838404E+03  0.20938989194E+03  0.00000000000E+00 0. -1.
         22    1    3    3    0    0  0.31919637040E+02  0.43752900430E+02 -0.18214512028E+02  0.57139723251E+02  0.00000000000E+00 0. -1.
         22    1    3    3    0    0 -0.50805445936E+02 -0.49383257191E+02 -0.10148839659E+01  0.70858516898E+02  0.00000000000E+00 0. -1.
</event>
<event>
 7    1  0.5993218E-006  0.2350976E+03  0.7818608E-02  0.1293911E+00
          2   -1    0    0  502    0  0.00000000000E+00  0.00000000000E+00  0.13337800816E+04  0.13337800816E+04  0.00000000000E+00 0. -1.
          1   -1    0    0  501    0 -0.00000000000E+00 -0.00000000000E+00 -0.25635290970E+03  0.25635290970E+03  0.00000000000E+00 0. -1.
         25    2    1    2    0    0 -0.19275065498E+03  0.55844929533E+02  0.70251743990E+03  0.74123374668E+03  0.12500097081E+03 0.  0.
          2    1    1    2  501    0  0.22952388783E+03 -0.62780345011E+02 -0.17647048979E+03  0.29625060433E+03  0.00000000000E+00 0. -1.
          1    1    1    2  502    0 -0.36773232847E+02  0.69354154787E+01  0.55138022174E+03  0.55264864025E+03  0.00000000000E+00 0. -1.
         22    1    3    3    0    0 -0.79570064464E+01 -0.90074794320E+01  0.22219463379E+03  0.22251944617E+03  0.00000000000E+00 0.  1.
         22    1    3    3    0    0 -0.18479364853E+03  0.64852408965E+02  0.48032280611E+03  0.51871430051E+03  0.00000000000E+00 0.  1.
</event>
<event>
 7    1  0.5993218E-006  0.3498551E+02  0.7818608E-02  0.1629373E+00
          2   -1    0    0  502    0  0.00000000000E+00  0.00000000000E+00  0.43018032631E+02  0.43018032631E+02  0.00000000000E+00 0. -1.
          1   -1    0    0  501    0 -0.00000000000E+00 -0.00000000000E+00 -0.25827384184E+03  0.25827384184E+03  0.00000000000E+00 0. -1.
         25    2    1    2    0    0  0.31613539131E+02 -0.31548639657E+02 -0.15651546537E+03  0.20522456784E+03  0.12500119930E+03 0.  0.
          2    1    1    2  501    0  0.13255449301E+01  0.21340079014E+02 -0.57736078864E+02  0.61567936820E+02  0.00000000000E+00 0. -1.
          1    1    1    2  502    0 -0.32939084061E+02  0.10208560643E+02 -0.10042649791E+01  0.34499369811E+02  0.00000000000E+00 0. -1.
         22    1    3    3    0    0 -0.10278175678E+02  0.44182549824E+02 -0.43221389917E+02  0.62656421463E+02  0.00000000000E+00 0.  1.
         22    1    3    3    0    0  0.41891714809E+02 -0.75731189481E+02 -0.11329407545E+03  0.14256814638E+03  0.00000000000E+00 0.  1.
</event>
<event>
 7    1  0.5993218E-006  0.3653703E+02  0.7818608E-02  0.1581890E+00
          2   -1    0    0  502    0  0.00000000000E+00  0.00000000000E+00  0.49127179405E+03  0.49127179405E+03  0.00000000000E+00 0. -1.
          1   -1    0    0  501    0 -0.00000000000E+00 -0.00000000000E+00 -0.25695100858E+03  0.25695100858E+03  0.00000000000E+00 0. -1.
         25    2    1    2    0    0  0.24467425757E+02  0.56466852727E+02  0.10246717049E+02  0.13970435348E+03  0.12500060316E+03 0.  0.
          2    1    1    2  501    0 -0.20543117952E+02 -0.29562960378E+02 -0.19008700321E+03  0.19346590684E+03  0.00000000000E+00 0. -1.
          1    1    1    2  502    0 -0.39243078048E+01 -0.26903892349E+02  0.41416107164E+03  0.41505254231E+03  0.00000000000E+00 0. -1.
         22    1    3    3    0    0 -0.10326676635E+02 -0.52220908498E+00  0.57168027262E+02  0.58095578951E+02  0.00000000000E+00 0. -1.
         22    1    3    3    0    0  0.34794102392E+02  0.56989061812E+02 -0.46921310213E+02  0.81608774526E+02  0.00000000000E+00 0. -1.
</event>
<event>
 7    1  0.5993218E-006  0.1895547E+03  0.7818608E-02  0.1229269E+00
          2   -1    0    0  502    0  0.00000000000E+00  0.00000000000E+00  0.26154959965E+04  0.26154959965E+04  0.00000000000E+00 0. -1.
          1   -1    0    0  501    0 -0.00000000000E+00 -0.00000000000E+00 -0.16993890138E+03  0.16993890138E+03  0.00000000000E+00 0. -1.
         25    2    1    2    0    0  0.56772393182E+02 -0.18525275581E+03  0.11667907518E+03  0.25842562417E+03  0.12501243330E+03 0.  0.
          2    1    1    2  501    0  0.30483982259E+02  0.19175130917E+03 -0.23166448253E+01  0.19417313045E+03  0.00000000000E+00 0. -1.
          1    1    1    2  502    0 -0.87256375440E+02 -0.64985533594E+01  0.23311946648E+04  0.23328361433E+04  0.00000000000E+00 0. -1.
         22    1    3    3    0    0  0.54295148995E+02 -0.11169814545E+03  0.13411977203E+03  0.18279100675E+03  0.00000000000E+00 0. -1.
         22    1    3    3    0    0  0.24772441869E+01 -0.73554610368E+02 -0.17440696852E+02  0.75634617417E+02  0.00000000000E+00 0. -1.
</event>
<event>
 7    1  0.5993218E-006  0.1233842E+03  0.7818608E-02  0.1332176E+00
          2   -1    0    0  502    0  0.00000000000E+00  0.00000000000E+00  0.42084325956E+03  0.42084325956E+03  0.00000000000E+00 0. -1.
          1   -1    0    0  501    0 -0.00000000000E+00 -0.00000000000E+00 -0.10207919480E+04  0.10207919480E+04  0.00000000000E+00 0. -1.
         25    2    1    2    0    0  0.43287923982E+02  0.95029425183E+02 -0.18171839269E+03  0.24403088844E+03  0.12500025703E+03 0.  0.
          2    1    1    2  501    0 -0.40866777507E+02  0.29608676770E+02 -0.79712904663E+03  0.79872491149E+03  0.00000000000E+00 0. -1.
          1    1    1    2  502    0 -0.24211464756E+01 -0.12463810195E+03  0.37889875089E+03  0.39887940763E+03  0.00000000000E+00 0. -1.
         22    1    3    3    0    0  0.19911267943E+02  0.12391900442E+03 -0.13490616583E+03  0.18426082553E+03  0.00000000000E+00 0.  1.
         22    1    3    3    0    0  0.23376656040E+02 -0.28889579238E+02 -0.46812226861E+02  0.59770062907E+02  0.00000000000E+00 0.  1.
</event>
<event>
 7    1  0.5993218E-006  0.1026360E+03  0.7818608E-02  0.1312739E+00
          2   -1    0    0  502    0  0.00000000000E+00  0.00000000000E+00  0.94364526419E+03  0.94364526419E+03  0.00000000000E+00 0. -1.
          1   -1    0    0  501    0 -0.00000000000E+00 -0.00000000000E+00 -0.11142013549E+03  0.11142013549E+03  0.00000000000E+00 0. -1.
         25    2    1    2    0    0  0.33202310876E+02 -0.24398011963E+02  0.86744929797E+01  0.13192808315E+03  0.12502846020E+03 0.  0.
          2    1    1    2  501    0  0.13961628641E+02 -0.70760421498E+02 -0.18464486977E+02  0.74450665573E+02  0.00000000000E+00 0. -1.
          1    1    1    2  502    0 -0.47163939516E+02  0.95158433461E+02  0.84201512269E+03  0.84868665095E+03  0.00000000000E+00 0. -1.
         22    1    3    3    0    0  0.43693159933E+02 -0.45493060837E+02  0.52568726313E+02  0.82110789763E+02  0.00000000000E+00 0. -1.
         22    1    3    3    0    0 -0.10490849057E+02  0.21095048874E+02 -0.43894233333E+02  0.49817293392E+02  0.00000000000E+00 0. -1.
</event>
<event>
 7    1  0.5993218E-006  0.3442078E+02  0.7818608E-02  0.1581790E+00
          2   -1    0    0  502    0  0.00000000000E+00  0.00000000000E+00  0.25636166591E+04  0.25636166591E+04  0.00000000000E+00 0. -1.
          1   -1    0    0  501    0 -0.00000000000E+00 -0.00000000000E+00 -0.23709746261E+04  0.23709746261E+04  0.00000000000E+00 0. -1.
         25    2    1    2    0    0  0.39539508985E+02 -0.48013228852E+02  0.51613784331E+03  0.53469214866E+03  0.12501510959E+03 0.  0.
          2    1    1    2  501    0 -0.17056231251E+02  0.29890361930E+02 -0.23614698030E+04  0.23617205548E+04  0.00000000000E+00 0. -1.
          1    1    1    2  502    0 -0.22483277735E+02  0.18122866922E+02  0.20379739926E+04  0.20381785817E+04  0.00000000000E+00 0. -1.
         22    1    3    3    0    0  0.30925937048E+01 -0.25572640843E+02  0.47376286200E+03  0.47446261550E+03  0.00000000000E+00 0. -1.
         22    1    3    3    0    0  0.36446915280E+02 -0.22440588009E+02  0.42374981310E+02  0.60229533160E+02  0.00000000000E+00 0. -1.
</event>
<event>
 7    1  0.5993218E-006  0.5607663E+02  0.7818608E-02  0.1513069E+00
          2   -1    0    0  502    0  0.00000000000E+00  0.00000000000E+00  0.44517182518E+03  0.44517182518E+03  0.00000000000E+00 0. -1.
          1   -1    0    0  501    0 -0.00000000000E+00 -0.00000000000E+00 -0.23571555383E+03  0.23571555383E+03  0.00000000000E+00 0. -1.
         25    2    1    2    0    0 -0.49152788054E+02 -0.55762024374E+02 -0.20010544322E+03  0.24738749367E+03  0.12503193066E+03 0.  0.
          2    1    1    2  501    0  0.80804979319E+00  0.27597273104E+02  0.89846194288E+01  0.29034217977E+02  0.00000000000E+00 0. -1.
          1    1    1    2  502    0  0.48344738261E+02  0.28164751270E+02  0.40057709513E+03  0.40446566736E+03  0.00000000000E+00 0. -1.
         22    1    3    3    0    0 -0.87719059625E+02 -0.60424282519E+02 -0.15054164272E+03  0.18441397325E+03  0.00000000000E+00 0.  1.
         22    1    3    3    0    0  0.38566271571E+02  0.46622581445E+01 -0.49563800498E+02  0.62973520417E+02  0.00000000000E+00 0.  1.
</event>
<event>
 7    1  0.5993218E-006  0.4032777E+03  0.7818608E-02  0.1202521E+00
          2   -1    0    0  502    0  0.00000000000E+00  0.00000000000E+00  0.43356971098E+03  0.43356971098E+03  0.00000000000E+00 0. -1.
          1   -1    0    0  501    0 -0.00000000000E+00 -0.00000000000E+00 -0.13671006477E+04  0.13671006477E+04  0.00000000000E+00 0. -1.
         25    2    1    2    0    0 -0.11844443514E+02  0.35859791737E+03  0.63091069997E+02  0.38514663361E+03  0.12499875631E+03 0.  0.
          2    1    1    2  501    0 -0.57799814870E+01 -0.41024191370E+03 -0.11667887267E+04  0.12368216398E+04  0.00000000000E+00 0. -1.
          1    1    1    2  502    0  0.17624425001E+02  0.51643996323E+02  0.17016671994E+03  0.17870208530E+03  0.00000000000E+00 0. -1.
         22    1    3    3    0    0  0.24720346726E+02  0.59787051475E+01  0.44456346748E+01  0.25818677835E+02  0.00000000000E+00 0. -1.
         22    1    3    3    0    0 -0.36564790240E+02  0.35261921223E+03  0.58645435323E+02  0.35932795577E+03  0.00000000000E+00 0. -1.
</event>
<event>
 7    1  0.5993218E-006  0.2686604E+02  0.7818608E-02  0.1637958E+00
          2   -1    0    0  502    0  0.00000000000E+00  0.00000000000E+00  0.11627893323E+03  0.11627893323E+03  0.00000000000E+00 0. -1.
          1   -1    0    0  501    0 -0.00000000000E+00 -0.00000000000E+00 -0.60285787567E+03  0.60285787567E+03  0.00000000000E+00 0. -1.
         25    2    1    2    0    0 -0.41136630672E+02 -0.28183543450E+02 -0.10591560500E+03  0.17125867191E+03  0.12499953127E+03 0.  0.
          2    1    1    2  501    0  0.25808376082E+02  0.65680276576E+01 -0.46177776770E+03  0.46254504429E+03  0.00000000000E+00 0. -1.
          1    1    1    2  502    0  0.15328254589E+02  0.21615515792E+02  0.81114430259E+02  0.85333092689E+02  0.00000000000E+00 0. -1.
         22    1    3    3    0    0 -0.13691184707E+02 -0.25827972348E+02  0.24391370161E+02  0.38071927093E+02  0.00000000000E+00 0.  1.
         22    1    3    3    0    0 -0.27445445965E+02 -0.23555711020E+01 -0.13030697516E+03  0.13318674482E+03  0.00000000000E+00 0.  1.
</event>
<event>
 7    1  0.5993218E-006  0.2076683E+03  0.7818608E-02  0.1270260E+00
          2   -1    0    0  502    0  0.00000000000E+00  0.00000000000E+00  0.17868760209E+04  0.17868760209E+04  0.00000000000E+00 0. -1.
          1   -1    0    0  501    0 -0.00000000000E+00 -0.00000000000E+00 -0.23046310095E+03  0.23046310095E+03  0.00000000000E+00 0. -1.
         25    2    1    2    0    0 -0.13475155673E+03  0.10012834804E+03  0.65192798597E+03  0.68470345495E+03  0.12500021682E+03 0.  0.
          2    1    1    2  501    0  0.14641523489E+03 -0.15184672168E+03 -0.16129434081E+03  0.26553853255E+03  0.00000000000E+00 0. -1.
          1    1    1    2  502    0 -0.11663678162E+02  0.51718373636E+02  0.10657792748E+04  0.10670971343E+04  0.00000000000E+00 0. -1.
         22    1    3    3    0    0  0.79057574011E+01  0.36802616006E+02  0.48372013797E+02  0.61292619978E+02  0.00000000000E+00 0. -1.
         22    1    3    3    0    0 -0.14265731413E+03  0.63325732034E+02  0.60355597218E+03  0.62341083497E+03  0.00000000000E+00 0. -1.
</event>
<event>
 7    1  0.5993218E-006  0.7559938E+02  0.7818608E-02  0.1406719E+00
          2   -1    0    0  502    0  0.00000000000E+00  0.00000000000E+00  0.18950521834E+04  0.18950521834E+04  0.00000000000E+00 0. -1.
          1   -1    0    0  501    0 -0.00000000000E+00 -0.00000000000E+00 -0.27155967166E+04  0.27155967166E+04  0.00000000000E+00 0. -1.
         25    2    1    2    0    0  0.98791176613E+01 -0.11920779221E+03  0.67353987011E+03  0.69541277567E+03  0.12503950274E+03 0.  0.
          2    1    1    2  501    0 -0.10592119191E+02  0.74819552521E+02 -0.27037251980E+04  0.27047809717E+04  0.00000000000E+00 0. -1.
          1    1    1    2  502    0  0.71300152990E+00  0.44388239688E+02  0.12096407947E+04  0.12104551526E+04  0.00000000000E+00 0. -1.
         22    1    3    3    0    0  0.38361638333E+02 -0.93321084279E+02  0.62678291200E+03  0.63485215510E+03  0.00000000000E+00 0. -1.
         22    1    3    3    0    0 -0.28482520671E+02 -0.25886707930E+02  0.46756958109E+02  0.60560620562E+02  0.00000000000E+00 0. -1.
</event>
<event>
 7    1  0.5993218E-006  0.1173628E+03  0.7818608E-02  0.1395385E+00
          2   -1    0    0  502    0  0.00000000000E+00  0.00000000000E+00  0.18078672553E+04  0.18078672553E+04  0.00000000000E+00 0. -1.
          1   -1    0    0  501    0 -0.00000000000E+00 -0.00000000000E+00 -0.43488608804E+03  0.43488608804E+03  0.00000000000E+00 0. -1.
         25    2    1    2    0    0  0.57768014438E+02  0.83877834860E+02  0.70356098444E+03  0.72180074660E+03  0.12500249713E+03 0.  0.
          2    1    1    2  501    0 -0.88393625276E+02 -0.77526621664E+02 -0.41741991760E+03  0.43366253892E+03  0.00000000000E+00 0. -1.
          1    1    1    2  502    0  0.30625610837E+02 -0.63512131956E+01  0.10868401005E+04  0.10872900579E+04  0.00000000000E+00 0. -1.
         22    1    3    3    0    0  0.45211924326E+00  0.78947172310E+02  0.20085387774E+03  0.21581274436E+03  0.00000000000E+00 0. -1.
         22    1    3    3    0    0  0.57315895195E+02  0.49306625501E+01  0.50270710670E+03  0.50598800224E+03  0.00000000000E+00 0. -1.
</event>
<event>
 7    1  0.5993218E-006  0.1777835E+03  0.7818608E-02  0.1375996E+00
          2   -1    0    0  502    0  0.00000000000E+00  0.00000000000E+00  0.59116517765E+03  0.59116517765E+03  0.00000000000E+00 0. -1.
          1   -1    0    0  501    0 -0.00000000000E+00 -0.00000000000E+00 -0.22820605452E+03  0.22820605452E+03  0.00000000000E+00 0. -1.
         25    2    1    2    0    0 -0.14672782024E+03  0.74291386248E+02  0.70572253245E+02  0.21829736151E+03  0.12500012724E+03 0.  0.
          2    1    1    2  501    0 -0.22397386661E+02 -0.90388600816E+01 -0.13483632797E+03  0.13698240493E+03  0.00000000000E+00 0. -1.
          1    1    1    2  502    0  0.16912520690E+03 -0.65252526167E+02  0.42722319785E+03  0.46409146573E+03  0.00000000000E+00 0. -1.
         22    1    3    3    0    0 -0.14871742692E+03  0.17520971242E+02  0.52643035565E+02  0.15872979146E+03  0.00000000000E+00 0.  1.
         22    1    3    3    0    0  0.19896066821E+01  0.56770415006E+02  0.17929217680E+02  0.59567570047E+02  0.00000000000E+00 0.  1.
</event>
<event>
 7    1  0.5993218E-006  0.9589789E+02  0.7818608E-02  0.1337037E+00
          2   -1    0    0  502    0  0.00000000000E+00  0.00000000000E+00  0.15676879117E+04  0.15676879117E+04  0.00000000000E+00 0. -1.
          1   -1    0    0  501    0 -0.00000000000E+00 -0.00000000000E+00 -0.12481012085E+03  0.12481012085E+03  0.00000000000E+00 0. -1.
         25    2    1    2    0    0 -0.41111768236E+02  0.29118396503E+02  0.12594051637E+03  0.18445563168E+03  0.12499923157E+03 0.  0.
          2    1    1    2  501    0  0.10289912148E+03 -0.21703744794E+02 -0.65704118264E+02  0.12400126167E+03  0.00000000000E+00 0. -1.
          1    1    1    2  502    0 -0.61787353240E+02 -0.74146517085E+01  0.13826413927E+04  0.13840411392E+04  0.00000000000E+00 0. -1.
         22    1    3    3    0    0 -0.31929125550E+02  0.57849310461E+01  0.14772027675E+03  0.15124223831E+03  0.00000000000E+00 0.  1.
         22    1    3    3    0    0 -0.91826426860E+01  0.23333465457E+02 -0.21779760381E+02  0.33213393370E+02  0.00000000000E+00 0.  1.
</event>
<event>
 7    1  0.6394447E-006  0.6380005E+02  0.7818608E-02  0.1422961E+00
          2   -1    0    0  502    0  0.00000000000E+00  0.00000000000E+00  0.11518284487E+04  0.11518284487E+04  0.00000000000E+00 0. -1.
          1   -1    0    0  501    0 -0.00000000000E+00 -0.00000000000E+00 -0.31005079435E+04  0.31005079435E+04  0.00000000000E+00 0. -1.
         25    2    1    2    0    0 -0.12089311112E+02  0.13674370306E+02 -0.18142411635E+03  0.22107122906E+03  0.12499855389E+03 0.  0.
          2    1    1    2  501    0  0.41560385658E+02 -0.49492310245E+02 -0.28984247579E+04  0.28991451898E+04  0.00000000000E+00 0. -1.
          1    1    1    2  502    0 -0.29471074547E+02  0.35817939939E+02  0.11311693795E+04  0.11321199734E+04  0.00000000000E+00 0. -1.
         22    1    3    3    0    0  0.18999685470E+02 -0.24655971458E+02  0.19339517605E+01  0.31187259352E+02  0.00000000000E+00 0.  1.
         22    1    3    3    0    0 -0.31088996581E+02  0.38330341764E+02 -0.18335806811E+03  0.18988396970E+03  0.00000000000E+00 0.  1.
</event>
<event>
 7    1  0.5993218E-006  0.3781793E+03  0.7818608E-02  0.1153723E+00
          2   -1    0    0  502    0  0.00000000000E+00  0.00000000000E+00  0.39015854848E+04  0.39015854848E+04  0.00000000000E+00 0. -1.
          1   -1    0    0  501    0 -0.00000000000E+00 -0.00000000000E+00 -0.57294663292E+03  0.57294663292E+03  0.00000000000E+00 0. -1.
         25    2    1    2    0    0  0.42993435299E+02  0.29603313160E+03  0.49695799129E+03  0.59336046625E+03  0.12500138928E+03 0.  0.
          2    1    1    2  501    0 -0.10918857599E+02  0.10031633796E+03 -0.50798766784E+03  0.51791317785E+03  0.00000000000E+00 0. -1.
          1    1    1    2  502    0 -0.32074577700E+02 -0.39634946956E+03  0.33396685285E+04  0.33632584736E+04  0.00000000000E+00 0. -1.
         22    1    3    3    0    0  0.34242327708E+02  0.14821292129E+03  0.13930816338E+03  0.20626771785E+03  0.00000000000E+00 0. -1.
         22    1    3    3    0    0  0.87511075905E+01  0.14782021031E+03  0.35764982791E+03  0.38709274840E+03  0.00000000000E+00 0. -1.
</event>
<event>
 7    1  0.5993218E-006  0.3729229E+02  0.7818608E-02  0.1578473E+00
          2   -1    0    0  502    0  0.00000000000E+00  0.00000000000E+00  0.82559255486E+02  0.82559255486E+02  0.00000000000E+00 0. -1.
          1   -1    0    0  501    0 -0.00000000000E+00 -0.00000000000E+00 -0.14615992556E+04  0.14615992556E+04  0.00000000000E+00 0. -1.
         25    2    1    2    0    0 -0.35065730641E+02 -0.41858251199E+02 -0.80715436172E+03  0.81859850413E+03  0.12499451455E+03 0.  0.
          2    1    1    2  501    0  0.33063124392E+02  0.14726220039E+02 -0.64579189009E+03  0.64680537804E+03  0.00000000000E+00 0. -1.
          1    1    1    2  502    0  0.20026062487E+01  0.27132031160E+02  0.73906251661E+02  0.78754628951E+02  0.00000000000E+00 0. -1.
         22    1    3    3    0    0 -0.61295299122E+02  0.15812761630E+02 -0.55534848295E+03  0.55894462574E+03  0.00000000000E+00 0.  1.
         22    1    3    3    0    0  0.26229568481E+02 -0.57671012829E+02 -0.25180587877E+03  0.25965387839E+03  0.00000000000E+00 0.  1.
</event>
<event>
 7    1  0.5993218E-006  0.3407358E+02  0.7818608E-02  0.1572088E+00
          2   -1    0    0  502    0  0.00000000000E+00  0.00000000000E+00  0.34218607983E+03  0.34218607983E+03  0.00000000000E+00 0. -1.
          1   -1    0    0  501    0 -0.00000000000E+00 -0.00000000000E+00 -0.72836211257E+02  0.72836211257E+02  0.00000000000E+00 0. -1.
         25    2    1    2    0    0  0.24326483800E+01  0.40128739686E+00  0.19128611391E+03  0.22852091620E+03  0.12500141182E+03 0.  0.
          2    1    1    2  501    0  0.14923949207E+02 -0.30631435510E+02 -0.46219768493E+02  0.57421913072E+02  0.00000000000E+00 0. -1.
          1    1    1    2  502    0 -0.17356597587E+02  0.30230148114E+02  0.12428352315E+03  0.12907946181E+03  0.00000000000E+00 0. -1.
         22    1    3    3    0    0  0.39318733588E+01 -0.61959403646E+02  0.10624961259E+03  0.12305855315E+03  0.00000000000E+00 0. -1.
         22    1    3    3    0    0 -0.14992249787E+01  0.62360691043E+02  0.85036501321E+02  0.10546236305E+03  0.00000000000E+00 0. -1.
</event>
<event>
 7    1  0.5993218E-006  0.9414208E+02  0.7818608E-02  0.1313912E+00
          2   -1    0    0  502    0  0.00000000000E+00  0.00000000000E+00  0.30973195444E+04  0.30973195444E+04  0.00000000000E+00 0. -1.
          1   -1    0    0  501    0 -0.00000000000E+00 -0.00000000000E+00 -0.20388921202E+03  0.20388921202E+03  0.00000000000E+00 0. -1.
         25    2    1    2    0    0 -0.17579677391E+02 -0.32661081329E+01  0.20187924388E+04  0.20227378648E+04  0.12500338494E+03 0.  0.
          2    1    1    2  501    0  0.93680716380E+02 -0.12923579971E+02 -0.18934482090E+03  0.21164724600E+03  0.00000000000E+00 0. -1.
          1    1    1    2  502    0 -0.76101038990E+02  0.16189688103E+02  0.10639827145E+04  0.10668236456E+04  0.00000000000E+00 0. -1.
         22    1    3    3    0    0  0.36419695208E+00  0.50101986932E+02  0.42371595108E+03  0.42666796099E+03  0.00000000000E+00 0.  1.
         22    1    3    3    0    0 -0.17943874343E+02 -0.53368095065E+02  0.15950764877E+04  0.15960699038E+04  0.00000000000E+00 0.  1.
</event>
<event>
 7    1  0.5993218E-006  0.7561977E+02  0.7818608E-02  0.1417175E+00
          2   -1    0    0  502    0  0.00000000000E+00  0.00000000000E+00  0.24262446970E+04  0.24262446970E+04  0.00000000000E+00 0. -1.
          1   -1    0    0  501    0 -0.00000000000E+00 -0.00000000000E+00 -0.43989879341E+02  0.43989879341E+02  0.00000000000E+00 0. -1.
         25    2    1    2    0    0  0.34583932756E+02 -0.58081707587E+02  0.17568220572E+04  0.17625602303E+04  0.12500116715E+03 0.  0.
          2    1    1    2  501    0 -0.28116836369E+02 -0.29722394616E+02 -0.27199480572E+02  0.49130326403E+02  0.00000000000E+00 0. -1.
          1    1    1    2  502    0 -0.64670963868E+01  0.87804102203E+02  0.65263224104E+03  0.65854401959E+03  0.00000000000E+00 0. -1.
         22    1    3    3    0    0  0.78178719255E+02 -0.27608092318E+02  0.80641310386E+03  0.81066405680E+03  0.00000000000E+00 0. -1.
         22    1    3    3    0    0 -0.43594786499E+02 -0.30473615269E+02  0.95040895330E+03  0.95189617352E+03  0.00000000000E+00 0. -1.
</event>
<event>
 7    1  0.5993218E-006  0.1072563E+03  0.7818608E-02  0.1359402E+00
          2   -1    0    0  502    0  0.00000000000E+00  0.00000000000E+00  0.25054333972E+04  0.25054333972E+04  0.00000000000E+00 0. -1.
          1   -1    0    0  501    0 -0.00000000000E+00 -0.00000000000E+00 -0.23949661976E+03  0.23949661976E+03  0.00000000000E+00 0. -1.
         25    2    1    2    0    0  0.70548155987E+02  0.82066269979E+02 -0.16739059753E+03  0.23527897860E+03  0.12499868258E+03 0.  0.
          2    1    1    2  501    0  0.26941109859E+02 -0.37224811161E+02 -0.22719588815E+02  0.51260995721E+02  0.00000000000E+00 0. -1.
          1    1    1    2  502    0 -0.97489265846E+02 -0.44841458818E+02  0.24560469638E+04  0.24583900427E+04  0.00000000000E+00 0. -1.
         22    1    3    3    0    0 -0.18337922910E+02 -0.56025543875E+01 -0.81538767773E+02  0.83762991126E+02  0.00000000000E+00 0. -1.
         22    1    3    3    0    0  0.88886078896E+02  0.87668824366E+02 -0.85851829760E+02  0.15151598747E+03  0.00000000000E+00 0. -1.
</event>
<event>
 7    1  0.5993218E-006  0.1140902E+03  0.7818608E-02  0.1446693E+00
          2   -1    0    0  502    0  0.00000000000E+00  0.00000000000E+00  0.26206609082E+03  0.26206609082E+03  0.00000000000E+00 0. -1.
          1   -1    0    0  501    0 -0.00000000000E+00 -0.00000000000E+00 -0.16871245640E+04  0.16871245640E+04  0.00000000000E+00 0. -1.
         25    2    1    2    0    0  0.74235969809E+02  0.75096298102E+02 -0.51324497347E+02  0.17149328749E+03  0.12500124169E+03 0.  0.
          2    1    1    2  501    0 -0.64542815441E+02 -0.94504495789E+02 -0.15730483906E+04  0.15772057932E+04  0.00000000000E+00 0. -1.
          1    1    1    2  502    0 -0.96931543679E+01  0.19408197687E+02  0.19931441477E+03  0.20049157417E+03  0.00000000000E+00 0. -1.
         22    1    3    3    0    0 -0.23255142434E+02  0.22976144906E+02  0.21487249076E+02  0.39120413561E+02  0.00000000000E+00 0. -1.
         22    1    3    3    0    0  0.97491112243E+02  0.52120153196E+02 -0.72811746423E+02  0.13237287393E+03  0.00000000000E+00 0. -1.
</event>
<event>
 7    1  0.5993218E-006  0.1637686E+03  0.7818608E-02  0.1385878E+00
          2   -1    0    0  502    0  0.00000000000E+00  0.00000000000E+00  0.60296186654E+03  0.60296186654E+03  0.00000000000E+00 0. -1.
          1   -1    0    0  501    0 -0.00000000000E+00 -0.00000000000E+00 -0.18780819727E+03  0.18780819727E+03  0.00000000000E+00 0. -1.
         25    2    1    2    0    0  0.59777288514E+02 -0.13610299949E+03  0.17457856376E+01  0.19423020019E+03  0.12499988882E+03 0.  0.
          2    1    1    2  501    0 -0.96597614106E+01 -0.22179922998E+02 -0.75989141382E+02  0.79747160342E+02  0.00000000000E+00 0. -1.
          1    1    1    2  502    0 -0.50117527103E+02  0.15828292249E+03  0.48939702501E+03  0.51679270328E+03  0.00000000000E+00 0. -1.
         22    1    3    3    0    0 -0.37012328458E+02 -0.17199590360E+02  0.27960200020E+01  0.40909119940E+02  0.00000000000E+00 0. -1.
         22    1    3    3    0    0  0.96789616971E+02 -0.11890340913E+03 -0.10502343645E+01  0.15332108025E+03  0.00000000000E+00 0. -1.
</event>
<event>
 7    1  0.5993218E-006  0.5835625E+02  0.7818608E-02  0.1418687E+00
          2   -1    0    0  502    0  0.00000000000E+00  0.00000000000E+00  0.72768787788E+03  0.72768787788E+03  0.00000000000E+00 0. -1.
          1   -1    0    0  501    0 -0.00000000000E+00 -0.00000000000E+00 -0.73147531955E+02  0.73147531955E+02  0.00000000000E+00 0. -1.
         25    2    1    2    0    0  0.25343672566E+02  0.10486973035E+02  0.19198462395E+03  0.23072645112E+03  0.12499728426E+03 0.  0.
          2    1    1    2  501    0 -0.51253860029E+02  0.35062438417E+02 -0.33998595331E+02  0.70797155593E+02  0.00000000000E+00 0. -1.
          1    1    1    2  502    0  0.25910187463E+02 -0.45549411452E+02  0.49655431731E+03  0.49931180312E+03  0.00000000000E+00 0. -1.
         22    1    3    3    0    0 -0.69422414848E+01 -0.17204203905E+02  0.18698051861E+03  0.18789862609E+03  0.00000000000E+00 0.  1.
         22    1    3    3    0    0  0.32285914051E+02  0.27691176940E+02  0.50041053402E+01  0.42827825028E+02  0.00000000000E+00 0.  1.
</event>
<event>
 7    1  0.5993218E-006  0.1253249E+03  0.7818608E-02  0.1299765E+00
          2   -1    0    0  502    0  0.00000000000E+00  0.00000000000E+00  0.11924330481E+04  0.11924330481E+04  0.00000000000E+00 0. -1.
          1   -1    0    0  501    0 -0.00000000000E+00 -0.00000000000E+00 -0.22904112813E+03  0.22904112813E+03  0.00000000000E+00 0. -1.
         25    2    1    2    0    0  0.53425545994E+02  0.17742476866E+03  0.27972162902E+03  0.35803825366E+03  0.12495344671E+03 0.  0.
          2    1    1    2  501    0 -0.14434300464E+02 -0.64907863237E+02 -0.17984752695E+03  0.19174595873E+03  0.00000000000E+00 0. -1.
          1    1    1    2  502    0 -0.38991245530E+02 -0.11251690542E+03  0.86351781791E+03  0.87168996386E+03  0.00000000000E+00 0. -1.
         22    1    3    3    0    0 -0.24417686507E+02  0.12588174322E+03  0.13848839873E+03  0.18873651812E+03  0.00000000000E+00 0.  1.
         22    1    3    3    0    0  0.77843232501E+02  0.51543025436E+02  0.14123323030E+03  0.16930173554E+03  0.00000000000E+00 0.  1.
</event>
<event>
 7    1  0.5993218E-006  0.2827853E+03  0.7818608E-02  0.1217295E+00
          2   -1    0    0  502    0  0.00000000000E+00  0.00000000000E+00  0.18755730511E+04  0.18755730511E+04  0.00000000000E+00 0. -1.
          1   -1    0    0  501    0 -0.00000000000E+00 -0.00000000000E+00 -0.92943803798E+03  0.92943803798E+03  0.00000000000E+00 0. -1.
         25    2    1    2    0    0 -0.22033592489E+03  0.26026638265E+03  0.16902779123E+03  0.40060169864E+03  0.12499926803E+03 0.  0.
          2    1    1    2  501    0  0.19373389480E+03 -0.19936021278E+03 -0.78918177381E+03  0.83671093488E+03  0.00000000000E+00 0. -1.
          1    1    1    2  502    0  0.26602030089E+02 -0.60906169870E+02  0.15662889957E+04  0.15676984556E+04  0.00000000000E+00 0. -1.
         22    1    3    3    0    0 -0.20939865565E+03  0.18867987772E+03  0.96023684072E+02  0.29777246539E+03  0.00000000000E+00 0. -1.
         22    1    3    3    0    0 -0.10937269239E+02  0.71586504936E+02  0.73004107163E+02  0.10282923325E+03  0.00000000000E+00 0. -1.
</event>
<event>
 7    1  0.5993218E-006  0.6911932E+02  0.7818608E-02  0.1366067E+00
          2   -1    0    0  502    0  0.00000000000E+00  0.00000000000E+00  0.62438627724E+03  0.62438627724E+03  0.00000000000E+00 0. -1.
          1   -1    0    0  501    0 -0.00000000000E+00 -0.00000000000E+00 -0.13767214341E+04  0.13767214341E+04  0.00000000000E+00 0. -1.
         25    2    1    2    0    0  0.77203362590E+02  0.93240727431E+01 -0.33446043466E+02  0.15094987262E+03  0.12497971313E+03 0.  0.
          2    1    1    2  501    0 -0.43428332729E+02  0.51591188588E+02 -0.12814892993E+04  0.12832624420E+04  0.00000000000E+00 0. -1.
          1    1    1    2  502    0 -0.33775029861E+02 -0.60915261331E+02  0.56260018588E+03  0.56689539675E+03  0.00000000000E+00 0. -1.
         22    1    3    3    0    0  0.72592305572E+02  0.61143041763E+02 -0.25901671644E+02  0.98381964700E+02  0.00000000000E+00 0. -1.
         22    1    3    3    0    0  0.46110570175E+01 -0.51818969020E+02 -0.75443718222E+01  0.52567907922E+02  0.00000000000E+00 0. -1.
</event>
<event>
 7    1  0.5993218E-006  0.2241783E+03  0.7818608E-02  0.1278818E+00
          2   -1    0    0  502    0  0.00000000000E+00  0.00000000000E+00  0.20547946754E+04  0.20547946754E+04  0.00000000000E+00 0. -1.
          1   -1    0    0  501    0 -0.00000000000E+00 -0.00000000000E+00 -0.31388932975E+03  0.31388932975E+03  0.00000000000E+00 0. -1.
         25    2    1    2    0    0  0.62835849527E+02  0.21767381747E+03  0.66132818535E+03  0.71014791335E+03  0.12499942118E+03 0.  0.
          2    1    1    2  501    0 -0.44822879425E+02  0.61269184727E+01 -0.27843606270E+03  0.28208734580E+03  0.00000000000E+00 0. -1.
          1    1    1    2  502    0 -0.18012970102E+02 -0.22380073595E+03  0.13580132230E+04  0.13764487460E+04  0.00000000000E+00 0. -1.
         22    1    3    3    0    0  0.56308852546E+02  0.16647712090E+03  0.32127733464E+03  0.36620273676E+03  0.00000000000E+00 0. -1.
         22    1    3    3    0    0  0.65269969809E+01  0.51196696579E+02  0.34005085071E+03  0.34394517659E+03  0.00000000000E+00 0. -1.
</event>
<event>
 7    1  0.5993218E-006  0.5400144E+02  0.7818608E-02  0.1530938E+00
          2   -1    0    0  502    0  0.00000000000E+00  0.00000000000E+00  0.92968468332E+02  0.92968468332E+02  0.00000000000E+00 0. -1.
          1   -1    0    0  501    0 -0.00000000000E+00 -0.00000000000E+00 -0.11347013304E+04  0.11347013304E+04  0.00000000000E+00 0. -1.
         25    2    1    2    0    0  0.21289810349E+02  0.28841963209E+02 -0.10008531664E+04  0.10092659036E+04  0.12500195391E+03 0.  0.
          2    1    1    2  501    0  0.25411851638E+02 -0.13811852892E+01 -0.11991323304E+03  0.12258406640E+03  0.00000000000E+00 0. -1.
          1    1    1    2  502    0 -0.46701661987E+02 -0.27460777920E+02  0.79033537386E+02  0.95819828784E+02  0.00000000000E+00 0. -1.
         22    1    3    3    0    0 -0.22636031640E+02  0.37183343315E+02 -0.86800068725E+03  0.86909158551E+03  0.00000000000E+00 0. -1.
         22    1    3    3    0    0  0.43925841989E+02 -0.83413801056E+01 -0.13285247918E+03  0.14017431805E+03  0.00000000000E+00 0. -1.
</event>
<event>
 7    1  0.5993218E-006  0.6183020E+02  0.7818608E-02  0.1491173E+00
          2   -1    0    0  502    0  0.00000000000E+00  0.00000000000E+00  0.72505545879E+03  0.72505545879E+03  0.00000000000E+00 0. -1.
          1   -1    0    0  501    0 -0.00000000000E+00 -0.00000000000E+00 -0.86811098569E+02  0.86811098569E+02  0.00000000000E+00 0. -1.
         25    2    1    2    0    0 -0.18125911097E+01  0.52711659644E+02  0.29377966668E+03  0.32359418328E+03  0.12499959342E+03 0.  0.
          2    1    1    2  501    0  0.30860083742E+02 -0.54338489073E+02 -0.57701205242E+02  0.85055542146E+02  0.00000000000E+00 0. -1.
          1    1    1    2  502    0 -0.29047492632E+02  0.16268294296E+01  0.40216589878E+03  0.40321683192E+03  0.00000000000E+00 0. -1.
         22    1    3    3    0    0 -0.12815748226E+02  0.35406031550E+02  0.98449327214E+01  0.38919830074E+02  0.00000000000E+00 0.  1.
         22    1    3    3    0    0  0.11003157116E+02  0.17305628094E+02  0.28393473395E+03  0.28467435321E+03  0.00000000000E+00 0.  1.
</event>
<event>
 7    1  0.9241931E-006  0.9155351E+02  0.7818608E-02  0.1314273E+00
          2   -1    0    0  502    0  0.00000000000E+00  0.00000000000E+00  0.74745933743E+03  0.74745933743E+03  0.00000000000E+00 0. -1.
          1   -1    0    0  501    0 -0.00000000000E+00 -0.00000000000E+00 -0.11351521601E+04  0.11351521601E+04  0.00000000000E+00 0. -1.
         25    2    1    2    0    0 -0.12218687862E+02 -0.14032669944E+01 -0.45770176281E+03  0.47462335273E+03  0.12500063114E+03 0.  0.
          2    1    1    2  501    0 -0.79310030176E+02 -0.83068888363E+01 -0.66372771132E+03  0.66850097985E+03  0.00000000000E+00 0. -1.
          1    1    1    2  502    0  0.91528718038E+02  0.97101558307E+01  0.73373665148E+03  0.73948716492E+03  0.00000000000E+00 0. -1.
         22    1    3    3    0    0 -0.55941932287E+02 -0.26057162175E+02 -0.35485486192E+03  0.36018113292E+03  0.00000000000E+00 0. -1.
         22    1    3    3    0    0  0.43723244425E+02  0.24653895181E+02 -0.10284690090E+03  0.11444221981E+03  0.00000000000E+00 0. -1.
</event>
<event>
 7    1  0.5993218E-006  0.9660349E+02  0.7818608E-02  0.1442243E+00
          2   -1    0    0  502    0  0.00000000000E+00  0.00000000000E+00  0.33082100064E+03  0.33082100064E+03  0.00000000000E+00 0. -1.
          1   -1    0    0  501    0 -0.00000000000E+00 -0.00000000000E+00 -0.37882469513E+03  0.37882469513E+03  0.00000000000E+00 0. -1.
         25    2    1    2    0    0  0.14091623582E+02 -0.12105028484E+03  0.24662575464E+03  0.30215914278E+03  0.12499655755E+03 0.  0.
          2    1    1    2  501    0 -0.16069664427E+02  0.94642468246E+02 -0.34090836181E+03  0.35416654566E+03  0.00000000000E+00 0. -1.
          1    1    1    2  502    0  0.19780408450E+01  0.26407816595E+02  0.46278912675E+02  0.53320007326E+02  0.00000000000E+00 0. -1.
         22    1    3    3    0    0  0.20625085909E+02 -0.58611516137E+02  0.17447575688E+02  0.64537755540E+02  0.00000000000E+00 0.  1.
         22    1    3    3    0    0 -0.65334623278E+01 -0.62438768704E+02  0.22917817896E+03  0.23762138725E+03  0.00000000000E+00 0.  1.
</event>
<event>
 7    1  0.5993218E-006  0.6323372E+02  0.7818608E-02  0.1397237E+00
          2   -1    0    0  502    0  0.00000000000E+00  0.00000000000E+00  0.27188165755E+02  0.27188165755E+02  0.00000000000E+00 0. -1.
          1   -1    0    0  501    0 -0.00000000000E+00 -0.00000000000E+00 -0.92787772815E+03  0.92787772815E+03  0.00000000000E+00 0. -1.
         25    2    1    2    0    0 -0.89355373612E+01  0.20264212435E+02 -0.24604592211E+03  0.27686517421E+03  0.12500098708E+03 0.  0.
          2    1    1    2  501    0 -0.56186032142E+02  0.29010913096E+02 -0.49361324050E+03  0.49764699787E+03  0.00000000000E+00 0. -1.
          1    1    1    2  502    0  0.65121569503E+02 -0.49275125531E+02 -0.16103039978E+03  0.18055372182E+03  0.00000000000E+00 0. -1.
         22    1    3    3    0    0  0.39149262403E+02 -0.33076585506E+02 -0.13722463179E+03  0.14648318957E+03  0.00000000000E+00 0. -1.
         22    1    3    3    0    0 -0.48084799765E+02  0.53340797940E+02 -0.10882129031E+03  0.13038198464E+03  0.00000000000E+00 0. -1.
</event>
<event>
 7    1  0.5993218E-006  0.8564090E+02  0.7818608E-02  0.1376015E+00
          2   -1    0    0  502    0  0.00000000000E+00  0.00000000000E+00  0.74955279196E+03  0.74955279196E+03  0.00000000000E+00 0. -1.
          1   -1    0    0  501    0 -0.00000000000E+00 -0.00000000000E+00 -0.11796980241E+03  0.11796980241E+03  0.00000000000E+00 0. -1.
         25    2    1    2    0    0 -0.63083426844E+02  0.92754361299E+01  0.20558314649E+03  0.24890732165E+03  0.12499948876E+03 0.  0.
          2    1    1    2  501    0  0.65720066638E+02 -0.59337214746E+02 -0.74435731266E+02  0.11567502022E+03  0.00000000000E+00 0. -1.
          1    1    1    2  502    0 -0.26366397944E+01  0.50061778616E+02  0.50043557432E+03  0.50294025251E+03  0.00000000000E+00 0. -1.
         22    1    3    3    0    0 -0.71795363751E+02  0.52172399779E+02  0.17266430851E+03  0.19413782988E+03  0.00000000000E+00 0.  1.
         22    1    3    3    0    0  0.87119369077E+01 -0.42896963649E+02  0.32918837977E+02  0.54769491770E+02  0.00000000000E+00 0.  1.
</event>
<event>
 7    1  0.5993218E-006  0.4157804E+03  0.7818608E-02  0.1109745E+00
          2   -1    0    0  502    0  0.00000000000E+00  0.00000000000E+00  0.12890379774E+04  0.12890379774E+04  0.00000000000E+00 0. -1.
          1   -1    0    0  501    0 -0.00000000000E+00 -0.00000000000E+00 -0.14003964977E+04  0.14003964977E+04  0.00000000000E+00 0. -1.
         25    2    1    2    0    0  0.90516507372E+02 -0.33059588763E+03 -0.36240578027E+03  0.51424599201E+03  0.12499644672E+03 0.  0.
          2    1    1    2  501    0 -0.12796310838E+03 -0.91430524535E+02 -0.91818656949E+03  0.93155819695E+03  0.00000000000E+00 0. -1.
          1    1    1    2  502    0  0.37446601006E+02  0.42202641217E+03  0.11692338294E+04  0.12436302861E+04  0.00000000000E+00 0. -1.
         22    1    3    3    0    0  0.99525887316E+02 -0.33678581384E+03 -0.33759923129E+03  0.48713789385E+03  0.00000000000E+00 0.  1.
         22    1    3    3    0    0 -0.90093799439E+01  0.61899262098E+01 -0.24806548982E+02  0.27108098160E+02  0.00000000000E+00 0.  1.
</event>
<event>
 7    1  0.5993218E-006  0.1133321E+03  0.7818608E-02  0.1351153E+00
          2   -1    0    0  502    0  0.00000000000E+00  0.00000000000E+00  0.17827971329E+04  0.17827971329E+04  0.00000000000E+00 0. -1.
          1   -1    0    0  501    0 -0.00000000000E+00 -0.00000000000E+00 -0.21106972988E+03  0.21106972988E+03  0.00000000000E+00 0. -1.
         25    2    1    2    0    0 -0.13529673673E+03  0.71478646344E+02  0.10946896266E+03  0.22588355056E+03  0.12500208308E+03 0.  0.
          2    1    1    2  501    0  0.89719957915E+02 -0.61612888376E+02 -0.13310513701E+03  0.17193835047E+03  0.00000000000E+00 0. -1.
          1    1    1    2  502    0  0.45576778812E+02 -0.98657579678E+01  0.15953635774E+04  0.15960449618E+04  0.00000000000E+00 0. -1.
         22    1    3    3    0    0 -0.12836050440E+03  0.93882120606E+01  0.45611695402E+02  0.13654663809E+03  0.00000000000E+00 0. -1.
         22    1    3    3    0    0 -0.69362323262E+01  0.62090434284E+02  0.63857267255E+02  0.89336912470E+02  0.00000000000E+00 0. -1.
</event>
<event>
 7    1  0.5993218E-006  0.2157155E+03  0.7818608E-02  0.1204005E+00
          2   -1    0    0  502    0  0.00000000000E+00  0.00000000000E+00  0.14072893427E+04  0.14072893427E+04  0.00000000000E+00 0. -1.
          1   -1    0    0  501    0 -0.00000000000E+00 -0.00000000000E+00 -0.98167731491E+03  0.98167731491E+03  0.00000000000E+00 0. -1.
         25    2    1    2    0    0  0.20427620636E+03 -0.16241040870E+03  0.58084228897E+03  0.64892884004E+03  0.12499986176E+03 0.  0.
          2    1    1    2  501    0 -0.99762091945E+02 -0.11242188045E+02 -0.93193377801E+03  0.93732567892E+03  0.00000000000E+00 0. -1.
          1    1    1    2  502    0 -0.10451411442E+03  0.17365259675E+03  0.77670351687E+03  0.80271213868E+03  0.00000000000E+00 0. -1.
         22    1    3    3    0    0 -0.16371266164E+02 -0.25676795048E+01  0.41126696169E+02  0.44339784298E+02  0.00000000000E+00 0.  1.
         22    1    3    3    0    0  0.22064747253E+03 -0.15984272920E+03  0.53971559280E+03  0.60458905574E+03  0.00000000000E+00 0.  1.
</event>
<event>
 7    1  0.5993218E-006  0.7266095E+02  0.7818608E-02  0.1494033E+00
          2   -1    0    0  502    0  0.00000000000E+00  0.00000000000E+00  0.84416973934E+03  0.84416973934E+03  0.00000000000E+00 0. -1.
          1   -1    0    0  501    0 -0.00000000000E+00 -0.00000000000E+00 -0.37818560798E+03  0.37818560798E+03  0.00000000000E+00 0. -1.
         25    2    1    2    0    0 -0.92079981226E+02 -0.36582492261E+01  0.22433829830E+03  0.27284556726E+03  0.12499970304E+03 0.  0.
          2    1    1    2  501    0  0.71751276225E+02 -0.95993789446E+01 -0.34997902029E+03  0.35738733660E+03  0.00000000000E+00 0. -1.
          1    1    1    2  502    0  0.20328705001E+02  0.13257628171E+02  0.59162485335E+03  0.59212244347E+03  0.00000000000E+00 0. -1.
         22    1    3    3    0    0 -0.39038322200E+02  0.30697308521E+02  0.11708972947E+02  0.51023674879E+02  0.00000000000E+00 0.  1.
         22    1    3    3    0    0 -0.53041659027E+02 -0.34355557748E+02  0.21262932535E+03  0.22182189238E+03  0.00000000000E+00 0.  1.
</event>
<event>
 7    1  0.5993218E-006  0.8682257E+02  0.7818608E-02  0.1367318E+00
          2   -1    0    0  502    0  0.00000000000E+00  0.00000000000E+00  0.83715694201E+02  0.83715694201E+02  0.00000000000E+00 0. -1.
          1   -1    0    0  501    0 -0.00000000000E+00 -0.00000000000E+00 -0.22777321367E+04  0.22777321367E+04  0.00000000000E+00 0. -1.
         25    2    1    2    0    0 -0.41677148934E+02  0.12412034905E+03 -0.11846629366E+04  0.11984123148E+04  0.12499182896E+03 0.  0.
          2    1    1    2  501    0  0.25318453304E+02 -0.73571173205E+02 -0.10754339783E+04  0.10782448624E+04  0.00000000000E+00 0. -1.
          1    1    1    2  502    0  0.16358695630E+02 -0.50549175844E+02  0.66080472428E+02  0.84790653598E+02  0.00000000000E+00 0. -1.
         22    1    3    3    0    0  0.18682324078E+02  0.11150697354E+03 -0.90480540370E+03  0.91184190129E+03  0.00000000000E+00 0. -1.
         22    1    3    3    0    0 -0.60359473012E+02  0.12613375514E+02 -0.27985753286E+03  0.28657041355E+03  0.00000000000E+00 0. -1.
</event>
<event>
 7    1  0.5993218E-006  0.7564725E+02  0.7818608E-02  0.1387936E+00
          2   -1    0    0  502    0  0.00000000000E+00  0.00000000000E+00  0.12144968711E+04  0.12144968711E+04  0.00000000000E+00 0. -1.
          1   -1    0    0  501    0 -0.00000000000E+00 -0.00000000000E+00 -0.11340258148E+04  0.11340258148E+04  0.00000000000E+00 0. -1.
         25    2    1    2    0    0  0.11752685553E+03 -0.40692777271E+02  0.64938116275E+03  0.67289619457E+03  0.12499972095E+03 0.  0.
          2    1    1    2  501    0 -0.66192926377E+02  0.36432613907E+02 -0.11197937170E+04  0.11223398805E+04  0.00000000000E+00 0. -1.
          1    1    1    2  502    0 -0.51333929150E+02  0.42601633641E+01  0.55088361055E+03  0.55328661076E+03  0.00000000000E+00 0. -1.
         22    1    3    3    0    0  0.10962820508E+03 -0.24185206532E+02  0.26144954103E+03  0.28453317920E+03  0.00000000000E+00 0. -1.
         22    1    3    3    0    0  0.78986504480E+01 -0.16507570739E+02  0.38793162172E+03  0.38836301536E+03  0.00000000000E+00 0. -1.
</event>
<event>
 7    1  0.5993218E-006  0.3168914E+03  0.7818608E-02  0.1256372E+00
          2   -1    0    0  502    0  0.00000000000E+00  0.00000000000E+00  0.66584770031E+03  0.66584770031E+03  0.00000000000E+00 0. -1.
          1   -1    0    0  501    0 -0.00000000000E+00 -0.00000000000E+00 -0.42457119855E+03  0.42457119855E+03  0.00000000000E+00 0. -1.
         25    2    1    2    0    0  0.93534479457E+02 -0.31799698371E+03 -0.31880030285E+02  0.35568429914E+03  0.12499681529E+03 0.  0.
          2    1    1    2  501    0 -0.38713398627E+02  0.92176035048E+01 -0.17960929222E+03  0.18396518502E+03  0.00000000000E+00 0. -1.
          1    1    1    2  502    0 -0.54821080830E+02  0.30877938020E+03  0.45276582426E+03  0.55076941469E+03  0.00000000000E+00 0. -1.
         22    1    3    3    0    0 -0.21717321912E+02 -0.99215218948E+02  0.18728392118E+02  0.10327659180E+03  0.00000000000E+00 0. -1.
         22    1    3    3    0    0  0.11525180137E+03 -0.21878176476E+03 -0.50608422402E+02  0.25240770735E+03  0.00000000000E+00 0. -1.
</event>
<event>
 7    1  0.5993218E-006  0.4485876E+02  0.7818608E-02  0.1498244E+00
          2   -1    0    0  502    0  0.00000000000E+00  0.00000000000E+00  0.80575016779E+03  0.80575016779E+03  0.00000000000E+00 0. -1.
          1   -1    0    0  501    0 -0.00000000000E+00 -0.00000000000E+00 -0.57096789342E+02  0.57096789342E+02  0.00000000000E+00 0. -1.
         25    2    1    2    0    0  0.16009704975E+02  0.18396749406E+02  0.20150136961E+03  0.23837402629E+03  0.12499849365E+03 0.  0.
          2    1    1    2  501    0  0.10794883437E+02 -0.45591589996E+02 -0.23589465519E+02  0.52455557096E+02  0.00000000000E+00 0. -1.
          1    1    1    2  502    0 -0.26804588412E+02  0.27194840590E+02  0.57074147436E+03  0.57201737375E+03  0.00000000000E+00 0. -1.
         22    1    3    3    0    0 -0.60998099129E+01  0.70459165971E+02  0.10801953654E+03  0.12911205220E+03  0.00000000000E+00 0.  1.
         22    1    3    3    0    0  0.22109514888E+02 -0.52062416565E+02  0.93481833067E+02  0.10926197408E+03  0.00000000000E+00 0.  1.
</event>
<event>
 7    1  0.5993218E-006  0.2042391E+03  0.7818608E-02  0.1288107E+00
          2   -1    0    0  502    0  0.00000000000E+00  0.00000000000E+00  0.61452733396E+03  0.61452733396E+03  0.00000000000E+00 0. -1.
          1   -1    0    0  501    0 -0.00000000000E+00 -0.00000000000E+00 -0.14363552706E+04  0.14363552706E+04  0.00000000000E+00 0. -1.
         25    2    1    2    0    0  0.93109292149E+02  0.20880956097E+03 -0.11378580604E+03  0.28432936169E+03  0.12500081290E+03 0.  0.
          2    1    1    2  501    0  0.19654392622E+02 -0.41011406618E+02 -0.12175513650E+04  0.12184004091E+04  0.00000000000E+00 0. -1.
          1    1    1    2  502    0 -0.11276368477E+03 -0.16779815435E+03  0.50950923438E+03  0.54815283373E+03  0.00000000000E+00 0. -1.
         22    1    3    3    0    0  0.58679489161E+02  0.12437039306E+03  0.12637683212E+01  0.13752408600E+03  0.00000000000E+00 0. -1.
         22    1    3    3    0    0  0.34429802988E+02  0.84439167906E+02 -0.11504957436E+03  0.14680527569E+03  0.00000000000E+00 0. -1.
</event>
<event>
 7    1  0.5993218E-006  0.9318926E+02  0.7818608E-02  0.1398039E+00
          2   -1    0    0  502    0  0.00000000000E+00  0.00000000000E+00  0.28023756569E+02  0.28023756569E+02  0.00000000000E+00 0. -1.
          1   -1    0    0  501    0 -0.00000000000E+00 -0.00000000000E+00 -0.10047412954E+04  0.10047412954E+04  0.00000000000E+00 0. -1.
         25    2    1    2    0    0  0.26263335870E+02 -0.57231433252E+02 -0.31266898087E+03  0.34256559055E+03  0.12499636980E+03 0.  0.
          2    1    1    2  501    0 -0.46374014709E+02  0.90140722379E+02 -0.63193078783E+03  0.64000970280E+03  0.00000000000E+00 0. -1.
          1    1    1    2  502    0  0.20110678839E+02 -0.32909289127E+02 -0.32117770178E+02  0.50189758670E+02  0.00000000000E+00 0. -1.
         22    1    3    3    0    0 -0.35964832904E+02 -0.46509984404E+01 -0.26202672583E+02  0.44740150232E+02  0.00000000000E+00 0.  1.
         22    1    3    3    0    0  0.62228168774E+02 -0.52580434812E+02 -0.28646630829E+03  0.29782544032E+03  0.00000000000E+00 0.  1.
</event>
<event>
 7    1  0.5993218E-006  0.1736566E+03  0.7818608E-02  0.1190676E+00
          2   -1    0    0  502    0  0.00000000000E+00  0.00000000000E+00  0.11332828648E+04  0.11332828648E+04  0.00000000000E+00 0. -1.
          1   -1    0    0  501    0 -0.00000000000E+00 -0.00000000000E+00 -0.94902963247E+03  0.94902963247E+03  0.00000000000E+00 0. -1.
         25    2    1    2    0    0  0.24847177635E+03  0.10872596151E+03  0.40494697775E+03  0.50315550825E+03  0.12499540927E+03 0.  0.
          2    1    1    2  501    0 -0.17190899821E+03  0.13501254579E+02 -0.88384190387E+03  0.90050624572E+03  0.00000000000E+00 0. -1.
          1    1    1    2  502    0 -0.76562778138E+02 -0.12222721609E+03  0.66314815844E+03  0.67865074331E+03  0.00000000000E+00 0. -1.
         22    1    3    3    0    0  0.10716719860E+03  0.33454257023E+02  0.27473037746E+03  0.29678405629E+03  0.00000000000E+00 0.  1.
         22    1    3    3    0    0  0.14130457775E+03  0.75271704492E+02  0.13021660029E+03  0.20637145196E+03  0.00000000000E+00 0.  1.
</event>
<event>
 7    1  0.5993218E-006  0.4103979E+02  0.7818608E-02  0.1512874E+00
          2   -1    0    0  502    0  0.00000000000E+00  0.00000000000E+00  0.22035939973E+03  0.22035939973E+03  0.00000000000E+00 0. -1.
          1   -1    0    0  501    0 -0.00000000000E+00 -0.00000000000E+00 -0.23949942369E+03  0.23949942369E+03  0.00000000000E+00 0. -1.
         25    2    1    2    0    0 -0.44806935516E+02 -0.29955182371E+02  0.15051022245E+03  0.20294239197E+03  0.12500925156E+03 0.  0.
          2    1    1    2  501    0  0.40365356735E+02 -0.75573805890E+01 -0.20264295138E+03  0.20676228323E+03  0.00000000000E+00 0. -1.
          1    1    1    2  502    0  0.44415787809E+01  0.37512562960E+02  0.32992704970E+02  0.50154148215E+02  0.00000000000E+00 0. -1.
         22    1    3    3    0    0 -0.31615071953E+02  0.43675922016E+01  0.16145366149E+03  0.16457786439E+03  0.00000000000E+00 0.  1.
         22    1    3    3    0    0 -0.13191863564E+02 -0.34322774573E+02 -0.10943439046E+02  0.38364527585E+02  0.00000000000E+00 0.  1.
</event>
<event>
 7    1  0.5993218E-006  0.6131381E+02  0.7818608E-02  0.1410457E+00
          2   -1    0    0  502    0  0.00000000000E+00  0.00000000000E+00  0.10003015631E+04  0.10003015631E+04  0.00000000000E+00 0. -1.
          1   -1    0    0  501    0 -0.00000000000E+00 -0.00000000000E+00 -0.33379062244E+03  0.33379062244E+03  0.00000000000E+00 0. -1.
         25    2    1    2    0    0  0.31387839236E+02  0.63125081847E+01 -0.77639891982E+01  0.12926732330E+03  0.12499886853E+03 0.  0.
          2    1    1    2  501    0 -0.45704723008E+02  0.44884337190E+02 -0.26064159240E+03  0.26839814663E+03  0.00000000000E+00 0. -1.
          1    1    1    2  502    0  0.14316883772E+02 -0.51196845374E+02  0.93491652225E+03  0.93642671561E+03  0.00000000000E+00 0. -1.
         22    1    3    3    0    0  0.68067017704E+02  0.12299430463E+02  0.30793960706E+02  0.75714350719E+02  0.00000000000E+00 0.  1.
         22    1    3    3    0    0 -0.36679178468E+02 -0.59869222782E+01 -0.38557949904E+02  0.53552972581E+02  0.00000000000E+00 0.  1.
</event>
<event>
 7    1  0.5993218E-006  0.3818140E+02  0.7818608E-02  0.1585124E+00
          2   -1    0    0  502    0  0.00000000000E+00  0.00000000000E+00  0.51685456659E+03  0.51685456659E+03  0.00000000000E+00 0. -1.
          1   -1    0    0  501    0 -0.00000000000E+00 -0.00000000000E+00 -0.32432862863E+03  0.32432862863E+03  0.00000000000E+00 0. -1.
         25    2    1    2    0    0 -0.57979837052E+02  0.16141079698E+02  0.45036770010E+01  0.13880716342E+03  0.12499979821E+03 0.  0.
          2    1    1    2  501    0  0.20041147399E+02 -0.15776260375E+02 -0.25573301804E+03  0.25700177917E+03  0.00000000000E+00 0. -1.
          1    1    1    2  502    0  0.37938689653E+02 -0.36481932281E+00  0.44375527900E+03  0.44537425263E+03  0.00000000000E+00 0. -1.
         22    1    3    3    0    0  0.19543205341E+02  0.50130623717E+02 -0.25580507402E+01  0.53866129737E+02  0.00000000000E+00 0.  1.
         22    1    3    3    0    0 -0.77523042393E+02 -0.33989544019E+02  0.70617277411E+01  0.84941033683E+02  0.00000000000E+00 0.  1.
</event>
<event>
 7    1  0.5993218E-006  0.9734716E+02  0.7818608E-02  0.1359195E+00
          2   -1    0    0  502    0  0.00000000000E+00  0.00000000000E+00  0.80194252644E+03  0.80194252644E+03  0.00000000000E+00 0. -1.
          1   -1    0    0  501    0 -0.00000000000E+00 -0.00000000000E+00 -0.19478512660E+04  0.19478512660E+04  0.00000000000E+00 0. -1.
         25    2    1    2    0    0 -0.71712978562E+00  0.67395169381E+02  0.12371787070E+03  0.18834448632E+03  0.12499964346E+03 0.  0.
          2    1    1    2  501    0 -0.46517924384E+02 -0.85862057675E+02 -0.19132952394E+04  0.19157857091E+04  0.00000000000E+00 0. -1.
          1    1    1    2  502    0  0.47235054169E+02  0.18466888294E+02  0.64366862915E+03  0.64566359697E+03  0.00000000000E+00 0. -1.
         22    1    3    3    0    0  0.50077229888E+02 -0.83940944155E+01  0.44375256371E+02  0.67434065221E+02  0.00000000000E+00 0.  1.
         22    1    3    3    0    0 -0.50794359674E+02  0.75789263797E+02  0.79342614329E+02  0.12091042110E+03  0.00000000000E+00 0.  1.
</event>
<event>
 7    1  0.5993218E-006  0.6812317E+02  0.7818608E-02  0.1392985E+00
          2   -1    0    0  502    0  0.00000000000E+00  0.00000000000E+00  0.29384577838E+02  0.29384577838E+02  0.00000000000E+00 0. -1.
          1   -1    0    0  501    0 -0.00000000000E+00 -0.00000000000E+00 -0.18344211061E+04  0.18344211061E+04  0.00000000000E+00 0. -1.
         25    2    1    2    0    0 -0.80226749104E+02  0.23855851236E+02 -0.12082367511E+04  0.12175655146E+04  0.12499721099E+03 0.  0.
          2    1    1    2  501    0  0.17969717609E+02 -0.51904570041E+02 -0.57038776908E+03  0.57302635389E+03  0.00000000000E+00 0. -1.
          1    1    1    2  502    0  0.62257031495E+02  0.28048718805E+02 -0.26412008063E+02  0.73213815412E+02  0.00000000000E+00 0. -1.
         22    1    3    3    0    0 -0.71136089799E+02  0.45081179977E+02 -0.38939145671E+03  0.39839473217E+03  0.00000000000E+00 0. -1.
         22    1    3    3    0    0 -0.90906593050E+01 -0.21225328740E+02 -0.81884529443E+03  0.81917078248E+03  0.00000000000E+00 0. -1.
</event>
<event>
 7    1  0.1411346E-005  0.1219373E+03  0.7818608E-02  0.1289157E+00
          2   -1    0    0  502    0  0.00000000000E+00  0.00000000000E+00  0.18403505695E+04  0.18403505695E+04  0.00000000000E+00 0. -1.
          1   -1    0    0  501    0 -0.00000000000E+00 -0.00000000000E+00 -0.12662744959E+04  0.12662744959E+04  0.00000000000E+00 0. -1.
         25    2    1    2    0    0 -0.52903250286E+02 -0.16903648458E+02 -0.40962289950E+03  0.43185801643E+03  0.12500375732E+03 0.  0.
          2    1    1    2  501    0 -0.37497230681E+02 -0.65444809415E+02 -0.84180229418E+03  0.84517463751E+03  0.00000000000E+00 0. -1.
          1    1    1    2  502    0  0.90400480967E+02  0.82348457873E+02  0.18255012672E+04  0.18295924114E+04  0.00000000000E+00 0. -1.
         22    1    3    3    0    0  0.12470750572E+02 -0.57149262676E+02 -0.14590822101E+03  0.15719658649E+03  0.00000000000E+00 0. -1.
         22    1    3    3    0    0 -0.65374000858E+02  0.40245614218E+02 -0.26371467848E+03  0.27466142995E+03  0.00000000000E+00 0. -1.
</event>
<event>
 7    1  0.5993218E-006  0.1553417E+03  0.7818608E-02  0.1247952E+00
          2   -1    0    0  502    0  0.00000000000E+00  0.00000000000E+00  0.40193741650E+04  0.40193741650E+04  0.00000000000E+00 0. -1.
          1   -1    0    0  501    0 -0.00000000000E+00 -0.00000000000E+00 -0.48209434845E+02  0.48209434845E+02  0.00000000000E+00 0. -1.
         25    2    1    2    0    0  0.18517536729E+03 -0.14576177285E+03  0.21376576310E+04  0.21542378117E+04  0.12499596414E+03 0.  0.
          2    1    1    2  501    0 -0.10658450390E+03  0.10555481698E+03  0.10622486651E+03  0.18380913504E+03  0.00000000000E+00 0. -1.
          1    1    1    2  502    0 -0.78590863394E+02  0.40206955872E+02  0.17272822326E+04  0.17295366531E+04  0.00000000000E+00 0. -1.
         22    1    3    3    0    0  0.15829229674E+03 -0.67796804905E+02  0.17139651767E+04  0.17225938247E+04  0.00000000000E+00 0.  1.
         22    1    3    3    0    0  0.26883070555E+02 -0.77964967948E+02  0.42369245433E+03  0.43164398706E+03  0.00000000000E+00 0.  1.
</event>
<event>
 7    1  0.5993218E-006  0.5992523E+02  0.7818608E-02  0.1447099E+00
          2   -1    0    0  502    0  0.00000000000E+00  0.00000000000E+00  0.33067442151E+04  0.33067442151E+04  0.00000000000E+00 0. -1.
          1   -1    0    0  501    0 -0.00000000000E+00 -0.00000000000E+00 -0.98714270349E+03  0.98714270349E+03  0.00000000000E+00 0. -1.
         25    2    1    2    0    0  0.33636484917E+01  0.96781319452E+02  0.17206001837E+02  0.15905901612E+03  0.12500314470E+03 0.  0.
          2    1    1    2  501    0  0.12672225657E+02 -0.39180640830E+02 -0.91547564209E+03  0.91640130902E+03  0.00000000000E+00 0. -1.
          1    1    1    2  502    0 -0.16035874149E+02 -0.57600678622E+02  0.32178711519E+04  0.32184265935E+04  0.00000000000E+00 0. -1.
         22    1    3    3    0    0  0.57154760173E+02  0.66551674590E+02 -0.15715676242E+02  0.89122244591E+02  0.00000000000E+00 0.  1.
         22    1    3    3    0    0 -0.53791111682E+02  0.30229644862E+02  0.32921678079E+02  0.69936771529E+02  0.00000000000E+00 0.  1.
</event>
<event>
 7    1  0.5993218E-006  0.7293009E+02  0.7818608E-02  0.1368904E+00
          2   -1    0    0  502    0  0.00000000000E+00  0.00000000000E+00  0.16723517461E+04  0.16723517461E+04  0.00000000000E+00 0. -1.
          1   -1    0    0  501    0 -0.00000000000E+00 -0.00000000000E+00 -0.26526889875E+03  0.26526889875E+03  0.00000000000E+00 0. -1.
         25    2    1    2    0    0 -0.77037562176E+02 -0.15235766440E+02 -0.12753142781E+03  0.19507734410E+03  0.12499596209E+03 0.  0.
          2    1    1    2  501    0  0.63599814782E+02 -0.45724674455E+02 -0.88524637488E+02  0.11820445735E+03  0.00000000000E+00 0. -1.
          1    1    1    2  502    0  0.13437747394E+02  0.60960440896E+02  0.16231389127E+04  0.16243388434E+04  0.00000000000E+00 0. -1.
         22    1    3    3    0    0 -0.11257659552E+02  0.52187519998E+02 -0.48137163030E+02  0.71885037433E+02  0.00000000000E+00 0.  1.
         22    1    3    3    0    0 -0.65779902624E+02 -0.67423286438E+02 -0.79394264779E+02  0.12319230667E+03  0.00000000000E+00 0.  1.
</event>
<event>
 7    1  0.5993218E-006  0.1244911E+03  0.7818608E-02  0.1404410E+00
          2   -1    0    0  502    0  0.00000000000E+00  0.00000000000E+00  0.73036140871E+03  0.73036140871E+03  0.00000000000E+00 0. -1.
          1   -1    0    0  501    0 -0.00000000000E+00 -0.00000000000E+00 -0.18485621910E+03  0.18485621910E+03  0.00000000000E+00 0. -1.
         25    2    1    2    0    0  0.22688794625E+02 -0.12428694439E+03  0.21880810643E+03  0.28189386940E+03  0.12500056087E+03 0.  0.
          2    1    1    2  501    0  0.47629508662E+01  0.12448969763E+03 -0.12752206779E+03  0.17827576473E+03  0.00000000000E+00 0. -1.
          1    1    1    2  502    0 -0.27451745491E+02 -0.20275323320E+00  0.45421915097E+03  0.45504799368E+03  0.00000000000E+00 0. -1.
         22    1    3    3    0    0  0.29628935649E+02 -0.10677594985E+03  0.23320035172E+03  0.25818865454E+03  0.00000000000E+00 0.  1.
         22    1    3    3    0    0 -0.69401410240E+01 -0.17510994549E+02 -0.14392245281E+02  0.23705214864E+02  0.00000000000E+00 0.  1.
</event>
<event>
 7    1  0.5993218E-006  0.1440085E+03  0.7818608E-02  0.1230572E+00
          2   -1    0    0  502    0  0.00000000000E+00  0.00000000000E+00  0.19327472186E+03  0.19327472186E+03  0.00000000000E+00 0. -1.
          1   -1    0    0  501    0 -0.00000000000E+00 -0.00000000000E+00 -0.17738315010E+04  0.17738315010E+04  0.00000000000E+00 0. -1.
         25    2    1    2    0    0  0.84960612427E+02  0.67305129995E+02 -0.10997978698E+03  0.19866503572E+03  0.12499582667E+03 0.  0.
          2    1    1    2  501    0 -0.64711718846E+02  0.93405761441E+02 -0.15728011257E+04  0.15769006385E+04  0.00000000000E+00 0. -1.
          1    1    1    2  502    0 -0.20248893581E+02 -0.16071089144E+03  0.10222413348E+03  0.19154054866E+03  0.00000000000E+00 0. -1.
         22    1    3    3    0    0  0.36896216804E+02  0.24922765852E+02  0.23685265087E+02  0.50432795426E+02  0.00000000000E+00 0.  1.
         22    1    3    3    0    0  0.48064395623E+02  0.42382364143E+02 -0.13366505207E+03  0.14823224029E+03  0.00000000000E+00 0.  1.
</event>
<event>
 7    1  0.5993218E-006  0.1086857E+03  0.7818608E-02  0.1384804E+00
          2   -1    0    0  502    0  0.00000000000E+00  0.00000000000E+00  0.33245506081E+04  0.33245506081E+04  0.00000000000E+00 0. -1.
          1   -1    0    0  501    0 -0.00000000000E+00 -0.00000000000E+00 -0.12267108853E+03  0.12267108853E+03  0.00000000000E+00 0. -1.
         25    2    1    2    0    0  0.75944614967E+02 -0.17849190824E+02  0.12191365738E+03  0.19124073736E+03  0.12499560638E+03 0.  0.
          2    1    1    2  501    0  0.23401979111E+02 -0.28362786288E+02 -0.83176277748E+02  0.90941703593E+02  0.00000000000E+00 0. -1.
          1    1    1    2  502    0 -0.99346594078E+02  0.46211977113E+02  0.31631421399E+04  0.31650392556E+04  0.00000000000E+00 0. -1.
         22    1    3    3    0    0  0.19211476609E+01 -0.48670979492E+02  0.43050582661E+01  0.48898758468E+02  0.00000000000E+00 0. -1.
         22    1    3    3    0    0  0.74023467306E+02  0.30821788667E+02  0.11760859912E+03  0.14234197889E+03  0.00000000000E+00 0. -1.
</event>
<event>
 7    1  0.5993218E-006  0.4691958E+02  0.7818608E-02  0.1588434E+00
          2   -1    0    0  502    0  0.00000000000E+00  0.00000000000E+00  0.41976624479E+03  0.41976624479E+03  0.00000000000E+00 0. -1.
          1   -1    0    0  501    0 -0.00000000000E+00 -0.00000000000E+00 -0.22356585185E+03  0.22356585185E+03  0.00000000000E+00 0. -1.
         25    2    1    2    0    0 -0.41990831612E+02  0.51295566929E+02  0.45627538422E+02  0.14866698077E+03  0.12500213512E+03 0.  0.
          2    1    1    2  501    0  0.15148334664E+02 -0.13572450987E+02 -0.16977494904E+03  0.17098893763E+03  0.00000000000E+00 0. -1.
          1    1    1    2  502    0  0.26842496948E+02 -0.37723115942E+02  0.32034780355E+03  0.32367617824E+03  0.00000000000E+00 0. -1.
         22    1    3    3    0    0  0.12218225954E+02  0.16261432785E+02  0.75031949968E+02  0.77740033173E+02  0.00000000000E+00 0. -1.
         22    1    3    3    0    0 -0.54209057567E+02  0.35034134144E+02 -0.29404411546E+02  0.70926947600E+02  0.00000000000E+00 0. -1.
</event>
<event>
 7    1  0.5993218E-006  0.1366180E+03  0.7818608E-02  0.1333153E+00
          2   -1    0    0  502    0  0.00000000000E+00  0.00000000000E+00  0.65720293516E+03  0.65720293516E+03  0.00000000000E+00 0. -1.
          1   -1    0    0  501    0 -0.00000000000E+00 -0.00000000000E+00 -0.14567514050E+04  0.14567514050E+04  0.00000000000E+00 0. -1.
         25    2    1    2    0    0  0.10063418582E+03  0.23296854070E+02 -0.15623565662E+03  0.22517829061E+03  0.12500279756E+03 0.  0.
          2    1    1    2  501    0 -0.12729986331E+03 -0.59779153500E+02 -0.12613112959E+04  0.12691276483E+04  0.00000000000E+00 0. -1.
          1    1    1    2  502    0  0.26665677497E+02  0.36482299430E+02  0.61799848272E+03  0.61964840125E+03  0.00000000000E+00 0. -1.
         22    1    3    3    0    0  0.56849650393E+01  0.23276158263E+02  0.15785303697E+02  0.28692754900E+02  0.00000000000E+00 0. -1.
         22    1    3    3    0    0  0.94949220776E+02  0.20695807489E-01 -0.17202096031E+03  0.19648553571E+03  0.00000000000E+00 0. -1.
</event>
<event>
 7    1  0.5993218E-006  0.3073257E+02  0.7818608E-02  0.1606646E+00
          2   -1    0    0  502    0  0.00000000000E+00  0.00000000000E+00  0.10926635931E+04  0.10926635931E+04  0.00000000000E+00 0. -1.
          1   -1    0    0  501    0 -0.00000000000E+00 -0.00000000000E+00 -0.44131105434E+03  0.44131105434E+03  0.00000000000E+00 0. -1.
         25    2    1    2    0    0  0.20902223482E+02 -0.13983074672E+02  0.32501586628E+03  0.34913095248E+03  0.12499871729E+03 0.  0.
          2    1    1    2  501    0  0.13093883083E+01  0.30733543525E+02 -0.42844581476E+03  0.42954869500E+03  0.00000000000E+00 0. -1.
          1    1    1    2  502    0 -0.22211611790E+02 -0.16750468853E+02  0.75478248720E+03  0.75529499991E+03  0.00000000000E+00 0. -1.
         22    1    3    3    0    0 -0.43759844958E+02 -0.18070994952E+02  0.60647987397E+02  0.76939347960E+02  0.00000000000E+00 0. -1.
         22    1    3    3    0    0  0.64662068440E+02  0.40879202798E+01  0.26436787888E+03  0.27219160452E+03  0.00000000000E+00 0. -1.
</event>
<event>
 7    1  0.5993218E-006  0.3620614E+02  0.7818608E-02  0.1543135E+00
          2   -1    0    0  502    0  0.00000000000E+00  0.00000000000E+00  0.56472160749E+02  0.56472160749E+02  0.00000000000E+00 0. -1.
          1   -1    0    0  501    0 -0.00000000000E+00 -0.00000000000E+00 -0.22654458634E+03  0.22654458634E+03  0.00000000000E+00 0. -1.
         25    2    1    2    0    0 -0.14632311354E+02  0.38182053900E+02 -0.16002165008E+03  0.20713159393E+03  0.12499837972E+03 0.  0.
          2    1    1    2  501    0  0.36902554403E+02 -0.96352347046E+01 -0.10907924336E+02  0.39668867927E+02  0.00000000000E+00 0. -1.
          1    1    1    2  502    0 -0.22270243049E+02 -0.28546819196E+02  0.85714883011E+00  0.36216285229E+02  0.00000000000E+00 0. -1.
         22    1    3    3    0    0 -0.98458858903E+00  0.82439159874E+02 -0.12181690515E+03  0.14709365342E+03  0.00000000000E+00 0. -1.
         22    1    3    3    0    0 -0.13647722765E+02 -0.44257105974E+02 -0.38204744935E+02  0.60037940516E+02  0.00000000000E+00 0. -1.
</event>
<event>
 7    1  0.5993218E-006  0.1056949E+03  0.7818608E-02  0.1296966E+00
          2   -1    0    0  502    0  0.00000000000E+00  0.00000000000E+00  0.74527059978E+03  0.74527059978E+03  0.00000000000E+00 0. -1.
          1   -1    0    0  501    0 -0.00000000000E+00 -0.00000000000E+00 -0.99310289932E+03  0.99310289932E+03  0.00000000000E+00 0. -1.
         25    2    1    2    0    0 -0.21259364993E+01 -0.68869156704E+02 -0.14097114636E+03  0.20061161893E+03  0.12499870876E+03 0.  0.
          2    1    1    2  501    0  0.82618246585E+02  0.77069834510E+02 -0.81611966669E+03  0.82390341935E+03  0.00000000000E+00 0. -1.
          1    1    1    2  502    0 -0.80492310086E+02 -0.82006778062E+01  0.70925851350E+03  0.71385846082E+03  0.00000000000E+00 0. -1.
         22    1    3    3    0    0 -0.32507339774E+02  0.69167163197E+01  0.47523551460E+01  0.33573099102E+02  0.00000000000E+00 0. -1.
         22    1    3    3    0    0  0.30381403275E+02 -0.75785873024E+02 -0.14572350151E+03  0.16703851983E+03  0.00000000000E+00 0. -1.
</event>
<event>
 7    1  0.5993218E-006  0.7892668E+02  0.7818608E-02  0.1375764E+00
          2   -1    0    0  502    0  0.00000000000E+00  0.00000000000E+00  0.74321254064E+03  0.74321254064E+03  0.00000000000E+00 0. -1.
          1   -1    0    0  501    0 -0.00000000000E+00 -0.00000000000E+00 -0.28644054040E+03  0.28644054040E+03  0.00000000000E+00 0. -1.
         25    2    1    2    0    0  0.49298629430E+02 -0.11017098751E+01 -0.10887109773E+03  0.17294555898E+03  0.12500272726E+03 0.  0.
          2    1    1    2  501    0  0.10665727725E+02  0.53453817371E+02 -0.13810467258E+03  0.14847211498E+03  0.00000000000E+00 0. -1.
          1    1    1    2  502    0 -0.59964357155E+02 -0.52352107496E+02  0.70374777055E+03  0.70823540708E+03  0.00000000000E+00 0. -1.
         22    1    3    3    0    0  0.84058081873E+02 -0.11167896872E+02 -0.10724875809E+03  0.13672153876E+03  0.00000000000E+00 0. -1.
         22    1    3    3    0    0 -0.34759452443E+02  0.10066186997E+02 -0.16223396353E+01  0.36224020217E+02  0.00000000000E+00 0. -1.
</event>
<event>
 7    1  0.5993218E-006  0.6606193E+02  0.7818608E-02  0.1426275E+00
          2   -1    0    0  502    0  0.00000000000E+00  0.00000000000E+00  0.36787335759E+03  0.36787335759E+03  0.00000000000E+00 0. -1.
          1   -1    0    0  501    0 -0.00000000000E+00 -0.00000000000E+00 -0.18173696916E+04  0.18173696916E+04  0.00000000000E+00 0. -1.
         25    2    1    2    0    0 -0.23817388474E+02 -0.14041621317E+01 -0.12397533521E+04  0.12462674041E+04  0.12499931531E+03 0.  0.
          2    1    1    2  501    0 -0.40825892461E+02  0.15518554318E+02 -0.57051598173E+03  0.57218534098E+03  0.00000000000E+00 0. -1.
          1    1    1    2  502    0  0.64643280935E+02 -0.14114392186E+02  0.36077299978E+03  0.36679030414E+03  0.00000000000E+00 0. -1.
         22    1    3    3    0    0 -0.13515319293E+02  0.44171466095E+02 -0.10437448879E+04  0.10447665640E+04  0.00000000000E+00 0. -1.
         22    1    3    3    0    0 -0.10302069181E+02 -0.45575628227E+02 -0.19600846417E+03  0.20150084006E+03  0.00000000000E+00 0. -1.
</event>
<event>
 7    1  0.5993218E-006  0.3834522E+02  0.7818608E-02  0.1574192E+00
          2   -1    0    0  502    0  0.00000000000E+00  0.00000000000E+00  0.10174521978E+04  0.10174521978E+04  0.00000000000E+00 0. -1.
          1   -1    0    0  501    0 -0.00000000000E+00 -0.00000000000E+00 -0.49866687133E+03  0.49866687133E+03  0.00000000000E+00 0. -1.
         25    2    1    2    0    0 -0.25800804858E+02 -0.24031458950E+02  0.37058117488E+03  0.39268159054E+03  0.12500092728E+03 0.  0.
          2    1    1    2  501    0  0.26640547560E+01  0.38277495199E+02 -0.48657076384E+03  0.48808131705E+03  0.00000000000E+00 0. -1.
          1    1    1    2  502    0  0.23136750102E+02 -0.14246036249E+02  0.63477491541E+03  0.63535616152E+03  0.00000000000E+00 0. -1.
         22    1    3    3    0    0  0.27704601996E+02 -0.24331837513E+02  0.28933141243E+02  0.46869072433E+02  0.00000000000E+00 0. -1.
         22    1    3    3    0    0 -0.53505406854E+02  0.30037856370E+00  0.34164803364E+03  0.34581251810E+03  0.00000000000E+00 0. -1.
</event>
<event>
 7    1  0.5993218E-006  0.2220211E+03  0.7818608E-02  0.1167811E+00
          2   -1    0    0  502    0  0.00000000000E+00  0.00000000000E+00  0.16798342980E+04  0.16798342980E+04  0.00000000000E+00 0. -1.
          1   -1    0    0  501    0 -0.00000000000E+00 -0.00000000000E+00 -0.93051795793E+03  0.93051795793E+03  0.00000000000E+00 0. -1.
         25    2    1    2    0    0  0.25110401956E+03 -0.22098226631E+03 -0.10372664129E+03  0.37184487507E+03  0.12499201711E+03 0.  0.
          2    1    1    2  501    0 -0.19055936286E+03  0.88217749444E+02 -0.67325874440E+03  0.70524646685E+03  0.00000000000E+00 0. -1.
          1    1    1    2  502    0 -0.60544656698E+02  0.13276451686E+03  0.15263017257E+04  0.15332609140E+04  0.00000000000E+00 0. -1.
         22    1    3    3    0    0  0.25985703483E+03 -0.19588023944E+03 -0.77531989513E+02  0.33452347624E+03  0.00000000000E+00 0.  1.
         22    1    3    3    0    0 -0.87530152712E+01 -0.25102026861E+02 -0.26194651780E+02  0.37321398831E+02  0.00000000000E+00 0.  1.
</event>
<event>
 7    1  0.5993218E-006  0.8044177E+02  0.7818608E-02  0.1480108E+00
          2   -1    0    0  502    0  0.00000000000E+00  0.00000000000E+00  0.25359751234E+03  0.25359751234E+03  0.00000000000E+00 0. -1.
          1   -1    0    0  501    0 -0.00000000000E+00 -0.00000000000E+00 -0.27244968564E+04  0.27244968564E+04  0.00000000000E+00 0. -1.
         25    2    1    2    0    0 -0.28570207229E+02 -0.56950186690E+02 -0.85178161944E+02  0.16413515867E+03  0.12500180213E+03 0.  0.
          2    1    1    2  501    0  0.18032419979E+02  0.78696457577E+02 -0.25985294308E+04  0.25997833570E+04  0.00000000000E+00 0. -1.
          1    1    1    2  502    0  0.10537787250E+02 -0.21746270888E+02  0.21280824877E+03  0.21417585299E+03  0.00000000000E+00 0. -1.
         22    1    3    3    0    0 -0.67844332590E+02 -0.41909362869E+02 -0.13283965618E+02  0.80843749933E+02  0.00000000000E+00 0.  1.
         22    1    3    3    0    0  0.39274125361E+02 -0.15040823821E+02 -0.71894196326E+02  0.83291408737E+02  0.00000000000E+00 0.  1.
</event>
<event>
 7    1  0.5993218E-006  0.6611495E+02  0.7818608E-02  0.1469786E+00
          2   -1    0    0  502    0  0.00000000000E+00  0.00000000000E+00  0.12022471244E+04  0.12022471244E+04  0.00000000000E+00 0. -1.
          1   -1    0    0  501    0 -0.00000000000E+00 -0.00000000000E+00 -0.11690758705E+04  0.11690758705E+04  0.00000000000E+00 0. -1.
         25    2    1    2    0    0 -0.34032152048E+02  0.75168569134E+02  0.33485728040E+03  0.36682811360E+03  0.12499986212E+03 0.  0.
          2    1    1    2  501    0  0.37547684753E+01 -0.65978820496E+02 -0.11518490391E+04  0.11537432609E+04  0.00000000000E+00 0. -1.
          1    1    1    2  502    0  0.30277383572E+02 -0.91897486379E+01  0.85016301266E+03  0.85075162035E+03  0.00000000000E+00 0. -1.
         22    1    3    3    0    0 -0.49169988356E+02  0.43138145832E+02  0.32286754199E+03  0.32942683110E+03  0.00000000000E+00 0. -1.
         22    1    3    3    0    0  0.15137836309E+02  0.32030423302E+02  0.11989738410E+02  0.37401282493E+02  0.00000000000E+00 0. -1.
</event>
<event>
 7    1  0.5993218E-006  0.1039364E+03  0.7818608E-02  0.1340824E+00
          2   -1    0    0  502    0  0.00000000000E+00  0.00000000000E+00  0.42947669013E+03  0.42947669013E+03  0.00000000000E+00 0. -1.
          1   -1    0    0  501    0 -0.00000000000E+00 -0.00000000000E+00 -0.22717219846E+04  0.22717219846E+04  0.00000000000E+00 0. -1.
         25    2    1    2    0    0 -0.15692972607E+03  0.17366776236E+02 -0.11912464419E+03  0.23397504557E+03  0.12500038901E+03 0.  0.
          2    1    1    2  501    0  0.10137060531E+03 -0.16819223080E+02 -0.20918295372E+04  0.20943518564E+04  0.00000000000E+00 0. -1.
          1    1    1    2  502    0  0.55559120764E+02 -0.54755315642E+00  0.36870888684E+03  0.37287177279E+03  0.00000000000E+00 0. -1.
         22    1    3    3    0    0 -0.99089801323E+02 -0.46992612202E+02 -0.92419388788E+02  0.14341700649E+03  0.00000000000E+00 0. -1.
         22    1    3    3    0    0 -0.57839924748E+02  0.64359388438E+02 -0.26705255403E+02  0.90558039075E+02  0.00000000000E+00 0. -1.
</event>
<event>
 7    1  0.5993218E-006  0.5026619E+02  0.7818608E-02  0.1454840E+00
          2   -1    0    0  502    0  0.00000000000E+00  0.00000000000E+00  0.62273313997E+03  0.62273313997E+03  0.00000000000E+00 0. -1.
          1   -1    0    0  501    0 -0.00000000000E+00 -0.00000000000E+00 -0.14407384089E+04  0.14407384089E+04  0.00000000000E+00 0. -1.
         25    2    1    2    0    0 -0.78077343469E+02 -0.49419767120E+02 -0.18079415150E+01  0.15545863325E+03  0.12500293218E+03 0.  0.
          2    1    1    2  501    0  0.48000940787E+02  0.14121359727E+02 -0.13606596085E+04  0.13615792571E+04  0.00000000000E+00 0. -1.
          1    1    1    2  502    0  0.30076402682E+02  0.35298407393E+02  0.54446228113E+03  0.54643365849E+03  0.00000000000E+00 0. -1.
         22    1    3    3    0    0  0.72927538955E+01 -0.66477784009E+02 -0.11517861242E+02  0.67861190335E+02  0.00000000000E+00 0. -1.
         22    1    3    3    0    0 -0.85370097364E+02  0.17058016889E+02  0.97099197266E+01  0.87597442915E+02  0.00000000000E+00 0. -1.
</event>
<event>
 7    1  0.5993218E-006  0.8005858E+02  0.7818608E-02  0.1378138E+00
          2   -1    0    0  502    0  0.00000000000E+00  0.00000000000E+00  0.29900783613E+03  0.29900783613E+03  0.00000000000E+00 0. -1.
          1   -1    0    0  501    0 -0.00000000000E+00 -0.00000000000E+00 -0.18125856122E+04  0.18125856122E+04  0.00000000000E+00 0. -1.
         25    2    1    2    0    0 -0.10108154158E+03  0.57785514791E+02 -0.31510894252E+03  0.35843404318E+03  0.12499869552E+03 0.  0.
          2    1    1    2  501    0  0.52443740201E+02  0.52124070140E+01 -0.14696222159E+04  0.14705668881E+04  0.00000000000E+00 0. -1.
          1    1    1    2  502    0  0.48637801382E+02 -0.62997921805E+02  0.27115338238E+03  0.28259251698E+03  0.00000000000E+00 0. -1.
         22    1    3    3    0    0 -0.37131009901E+02 -0.71638772096E+01 -0.87659909335E+01  0.38818495978E+02  0.00000000000E+00 0. -1.
         22    1    3    3    0    0 -0.63950531682E+02  0.64949392000E+02 -0.30634295159E+03  0.31961554720E+03  0.00000000000E+00 0. -1.
</event>
<event>
 7    1  0.5993218E-006  0.1021884E+03  0.7818608E-02  0.1329936E+00
          2   -1    0    0  502    0  0.00000000000E+00  0.00000000000E+00  0.12601324328E+03  0.12601324328E+03  0.00000000000E+00 0. -1.
          1   -1    0    0  501    0 -0.00000000000E+00 -0.00000000000E+00 -0.86646128015E+03  0.86646128015E+03  0.00000000000E+00 0. -1.
         25    2    1    2    0    0  0.86220145056E+02  0.11486573752E+03 -0.32602479877E+03  0.37755147411E+03  0.12499958046E+03 0.  0.
          2    1    1    2  501    0 -0.80037810118E+02 -0.53030703649E+02 -0.50001574402E+03  0.50915032245E+03  0.00000000000E+00 0. -1.
          1    1    1    2  502    0 -0.61823349382E+01 -0.61835033873E+02  0.85592505922E+02  0.10577272687E+03  0.00000000000E+00 0. -1.
         22    1    3    3    0    0  0.79819298187E+02  0.10236011266E+03 -0.33607978275E+03  0.36027535774E+03  0.00000000000E+00 0. -1.
         22    1    3    3    0    0  0.64008468689E+01  0.12505624865E+02  0.10054983974E+02  0.17276116364E+02  0.00000000000E+00 0. -1.
</event>
<event>
 7    1  0.5993218E-006  0.6473486E+02  0.7818608E-02  0.1526939E+00
          2   -1    0    0  502    0  0.00000000000E+00  0.00000000000E+00  0.31752127412E+03  0.31752127412E+03  0.00000000000E+00 0. -1.
          1   -1    0    0  501    0 -0.00000000000E+00 -0.00000000000E+00 -0.11177322619E+04  0.11177322619E+04  0.00000000000E+00 0. -1.
         25    2    1    2    0    0 -0.25304655670E+02  0.36038154404E+02 -0.31520012498E+02  0.13622362647E+03  0.12499716417E+03 0.  0.
          2    1    1    2  501    0 -0.14433620573E+02  0.16334848736E+02 -0.10296685043E+04  0.10298992113E+04  0.00000000000E+00 0. -1.
          1    1    1    2  502    0  0.39738276243E+02 -0.52373003141E+02  0.26097752905E+03  0.26913069822E+03  0.00000000000E+00 0. -1.
         22    1    3    3    0    0 -0.48916765771E+02 -0.32060671862E+02 -0.25787712177E+02  0.63919815027E+02  0.00000000000E+00 0.  1.
         22    1    3    3    0    0  0.23612110101E+02  0.68098826266E+02 -0.57323003206E+01  0.72303811443E+02  0.00000000000E+00 0.  1.
</event>
<event>
 7    1  0.5993218E-006  0.2470126E+02  0.7818608E-02  0.1665337E+00
          2   -1    0    0  502    0  0.00000000000E+00  0.00000000000E+00  0.66798305490E+02  0.66798305490E+02  0.00000000000E+00 0. -1.
          1   -1    0    0  501    0 -0.00000000000E+00 -0.00000000000E+00 -0.12820515580E+04  0.12820515580E+04  0.00000000000E+00 0. -1.
         25    2    1    2    0    0 -0.47271790149E+01  0.16321745485E+02 -0.12826978228E+03  0.17990204566E+03  0.12499145326E+03 0.  0.
          2    1    1    2  501    0 -0.20330736815E+02 -0.14029022915E+02 -0.11239547285E+04  0.11242261267E+04  0.00000000000E+00 0. -1.
          1    1    1    2  502    0  0.25057915830E+02 -0.22927225704E+01  0.36971258229E+02  0.44721691130E+02  0.00000000000E+00 0. -1.
         22    1    3    3    0    0  0.44387767322E+02 -0.29575260513E+02 -0.31089180026E+02  0.61737403873E+02  0.00000000000E+00 0.  1.
         22    1    3    3    0    0 -0.49114946337E+02  0.45897005998E+02 -0.97180602256E+02  0.11816464178E+03  0.00000000000E+00 0.  1.
</event>
<event>
 7    1  0.5993218E-006  0.5148703E+02  0.7818608E-02  0.1512839E+00
          2   -1    0    0  502    0  0.00000000000E+00  0.00000000000E+00  0.40020065409E+03  0.40020065409E+03  0.00000000000E+00 0. -1.
          1   -1    0    0  501    0 -0.00000000000E+00 -0.00000000000E+00 -0.87847524711E+03  0.87847524711E+03  0.00000000000E+00 0. -1.
         25    2    1    2    0    0 -0.46262510360E+01 -0.37909884391E+02  0.21260280830E+03  0.24959327961E+03  0.12505314710E+03 0.  0.
          2    1    1    2  501    0  0.26973714514E+02 -0.13395828541E+02 -0.85507777520E+03  0.85560798918E+03  0.00000000000E+00 0. -1.
          1    1    1    2  502    0 -0.22347463478E+02  0.51305712932E+02  0.16420037389E+03  0.17347463241E+03  0.00000000000E+00 0. -1.
         22    1    3    3    0    0  0.13596727791E+02  0.42814355925E+02  0.50500373649E+02  0.67588666347E+02  0.00000000000E+00 0.  1.
         22    1    3    3    0    0 -0.18222978827E+02 -0.80724240315E+02  0.16210243465E+03  0.18200461327E+03  0.00000000000E+00 0.  1.
</event>
<event>
 7    1  0.5993218E-006  0.6502784E+02  0.7818608E-02  0.1487061E+00
          2   -1    0    0  502    0  0.00000000000E+00  0.00000000000E+00  0.61514270562E+03  0.61514270562E+03  0.00000000000E+00 0. -1.
          1   -1    0    0  501    0 -0.00000000000E+00 -0.00000000000E+00 -0.16233818327E+04  0.16233818327E+04  0.00000000000E+00 0. -1.
         25    2    1    2    0    0 -0.40773372692E+02 -0.12507963436E+02 -0.13266649260E+03  0.18720099269E+03  0.12499958534E+03 0.  0.
          2    1    1    2  501    0 -0.12163373684E+02 -0.25737870011E+02 -0.14614953000E+04  0.14617725191E+04  0.00000000000E+00 0. -1.
          1    1    1    2  502    0  0.52936746376E+02  0.38245833447E+02  0.58592266554E+03  0.58955102653E+03  0.00000000000E+00 0. -1.
         22    1    3    3    0    0 -0.28672511765E+02 -0.11165522992E+02  0.18262790215E+02  0.35781438499E+02  0.00000000000E+00 0. -1.
         22    1    3    3    0    0 -0.12100860927E+02 -0.13424404436E+01 -0.15092928281E+03  0.15141955419E+03  0.00000000000E+00 0. -1.
</event>
<event>
 7    1  0.5993218E-006  0.7717919E+02  0.7818608E-02  0.1405118E+00
          2   -1    0    0  502    0  0.00000000000E+00  0.00000000000E+00  0.70579435909E+02  0.70579435909E+02  0.00000000000E+00 0. -1.
          1   -1    0    0  501    0 -0.00000000000E+00 -0.00000000000E+00 -0.10531931959E+04  0.10531931959E+04  0.00000000000E+00 0. -1.
         25    2    1    2    0    0 -0.47390942865E+01 -0.64577903223E+02 -0.23552556849E+03  0.27438994949E+03  0.12499914546E+03 0.  0.
          2    1    1    2  501    0 -0.39048043234E+02  0.69246479780E+02 -0.78636676855E+03  0.79037492326E+03  0.00000000000E+00 0. -1.
          1    1    1    2  502    0  0.43787137521E+02 -0.46685765568E+01  0.39278577025E+02  0.59007759087E+02  0.00000000000E+00 0. -1.
         22    1    3    3    0    0  0.27832781641E+02  0.18373345520E+02 -0.13929992246E+03  0.14323655943E+03  0.00000000000E+00 0. -1.
         22    1    3    3    0    0 -0.32571875928E+02 -0.82951248743E+02 -0.96225646033E+02  0.13115339006E+03  0.00000000000E+00 0. -1.
</event>
<event>
 7    1  0.5993218E-006  0.1299728E+03  0.7818608E-02  0.1324756E+00
          2   -1    0    0  502    0  0.00000000000E+00  0.00000000000E+00  0.84532001726E+03  0.84532001726E+03  0.00000000000E+00 0. -1.
          1   -1    0    0  501    0 -0.00000000000E+00 -0.00000000000E+00 -0.86255945551E+03  0.86255945551E+03  0.00000000000E+00 0. -1.
         25    2    1    2    0    0  0.13590329778E+03 -0.31621863978E+02  0.12605304319E+03  0.22579769970E+03  0.12500233143E+03 0.  0.
          2    1    1    2  501    0 -0.29021916237E+02 -0.42115033746E+02 -0.80557145773E+03  0.80719348436E+03  0.00000000000E+00 0. -1.
          1    1    1    2  502    0 -0.10688138155E+03  0.73736897724E+02  0.66227897629E+03  0.67488828871E+03  0.00000000000E+00 0. -1.
         22    1    3    3    0    0  0.38141881997E+02 -0.40145225790E+02  0.11424429987E+03  0.12695748252E+03  0.00000000000E+00 0. -1.
         22    1    3    3    0    0  0.97761415786E+02  0.85233618125E+01  0.11808743320E+02  0.98840217179E+02  0.00000000000E+00 0. -1.
</event>
<event>
 7    1  0.5993218E-006  0.8031129E+02  0.7818608E-02  0.1339678E+00
          2   -1    0    0  502    0  0.00000000000E+00  0.00000000000E+00  0.13987031765E+04  0.13987031765E+04  0.00000000000E+00 0. -1.
          1   -1    0    0  501    0 -0.00000000000E+00 -0.00000000000E+00 -0.15914994787E+03  0.15914994787E+03  0.00000000000E+00 0. -1.
         25    2    1    2    0    0  0.17890566622E+02  0.45035840461E+01  0.49739907907E+03  0.51319652769E+03  0.12499791010E+03 0.  0.
          2    1    1    2  501    0  0.53989106698E+02 -0.59456530011E+02 -0.13810540078E+03  0.15975920733E+03  0.00000000000E+00 0. -1.
          1    1    1    2  502    0 -0.71879673320E+02  0.54952945965E+02  0.88025955030E+03  0.88489738931E+03  0.00000000000E+00 0. -1.
         22    1    3    3    0    0 -0.29333681963E+02  0.23228578621E+02  0.41297383448E+03  0.41466543108E+03  0.00000000000E+00 0.  1.
         22    1    3    3    0    0  0.47224248586E+02 -0.18724994575E+02  0.84425244590E+02  0.98531096616E+02  0.00000000000E+00 0.  1.
</event>
<event>
 7    1  0.5993218E-006  0.7146907E+02  0.7818608E-02  0.1421837E+00
          2   -1    0    0  502    0  0.00000000000E+00  0.00000000000E+00  0.22597825980E+03  0.22597825980E+03  0.00000000000E+00 0. -1.
          1   -1    0    0  501    0 -0.00000000000E+00 -0.00000000000E+00 -0.12653698767E+04  0.12653698767E+04  0.00000000000E+00 0. -1.
         25    2    1    2    0    0 -0.46155744544E+02  0.12905472056E+02 -0.37983245270E+03  0.40273351778E+03  0.12499876104E+03 0.  0.
          2    1    1    2  501    0 -0.63653794395E+00  0.41759975165E+02 -0.86753637438E+03  0.86854111104E+03  0.00000000000E+00 0. -1.
          1    1    1    2  502    0  0.46792282488E+02 -0.54665447221E+02  0.20797721018E+03  0.22007350766E+03  0.00000000000E+00 0. -1.
         22    1    3    3    0    0 -0.35120603049E+02 -0.16646584891E+02 -0.36638660758E+03  0.36844227738E+03  0.00000000000E+00 0.  1.
         22    1    3    3    0    0 -0.11035141495E+02  0.29552056947E+02 -0.13445845119E+02  0.34291240406E+02  0.00000000000E+00 0.  1.
</event>
<event>
 7    1  0.5993218E-006  0.1383755E+03  0.7818608E-02  0.1333885E+00
          2   -1    0    0  502    0  0.00000000000E+00  0.00000000000E+00  0.50014744020E+03  0.50014744020E+03  0.00000000000E+00 0. -1.
          1   -1    0    0  501    0 -0.00000000000E+00 -0.00000000000E+00 -0.76555474520E+03  0.76555474520E+03  0.00000000000E+00 0. -1.
         25    2    1    2    0    0  0.12130834414E+03  0.62645591587E+02 -0.21622004681E+03  0.28463430189E+03  0.12500157066E+03 0.  0.
          2    1    1    2  501    0 -0.98142791075E+02 -0.10044099964E+03 -0.50446033606E+03  0.52364170242E+03  0.00000000000E+00 0. -1.
          1    1    1    2  502    0 -0.23165553066E+02  0.37795408049E+02  0.45527307787E+03  0.45742618109E+03  0.00000000000E+00 0. -1.
         22    1    3    3    0    0  0.71986534073E+02  0.31945806892E+02 -0.21226443158E+03  0.22640402952E+03  0.00000000000E+00 0.  1.
         22    1    3    3    0    0  0.49321810068E+02  0.30699784695E+02 -0.39556152209E+01  0.58230272372E+02  0.00000000000E+00 0.  1.
</event>
<event>
 7    1  0.5993218E-006  0.7312012E+02  0.7818608E-02  0.1386397E+00
          2   -1    0    0  502    0  0.00000000000E+00  0.00000000000E+00  0.77120428429E+01  0.77120428429E+01  0.00000000000E+00 0. -1.
          1   -1    0    0  501    0 -0.00000000000E+00 -0.00000000000E+00 -0.29311252504E+04  0.29311252504E+04  0.00000000000E+00 0. -1.
         25    2    1    2    0    0  0.84306595429E+02  0.42342706165E+02 -0.11376672067E+04  0.11483954430E+04  0.12499965401E+03 0.  0.
          2    1    1    2  501    0 -0.34389032641E+02 -0.62826222268E+02 -0.12297293493E+04  0.12318133025E+04  0.00000000000E+00 0. -1.
          1    1    1    2  502    0 -0.49917562788E+02  0.20483516102E+02 -0.55601665161E+03  0.55862854776E+03  0.00000000000E+00 0. -1.
         22    1    3    3    0    0  0.72740964724E+01 -0.89375871950E+01 -0.74050439329E+03  0.74059405171E+03  0.00000000000E+00 0.  1.
         22    1    3    3    0    0  0.77032498957E+02  0.51280293360E+02 -0.39716281337E+03  0.40780139125E+03  0.00000000000E+00 0.  1.
</event>
<event>
 7    1  0.5993218E-006  0.7940508E+02  0.7818608E-02  0.1480505E+00
          2   -1    0    0  502    0  0.00000000000E+00  0.00000000000E+00  0.27635352527E+04  0.27635352527E+04  0.00000000000E+00 0. -1.
          1   -1    0    0  501    0 -0.00000000000E+00 -0.00000000000E+00 -0.94844974188E+01  0.94844974188E+01  0.00000000000E+00 0. -1.
         25    2    1    2    0    0 -0.39344868019E+02  0.43054682711E+02  0.71752269021E+03  0.73065929175E+03  0.12498986083E+03 0.  0.
          2    1    1    2  501    0 -0.20476641976E+02  0.13291049210E+02  0.70340311765E+02  0.74456056268E+02  0.00000000000E+00 0. -1.
          1    1    1    2  502    0  0.59821509995E+02 -0.56345731921E+02  0.19661877533E+04  0.19679044021E+04  0.00000000000E+00 0. -1.
         22    1    3    3    0    0  0.44811667424E+02  0.59895748681E+01  0.20179047227E+03  0.20679302514E+03  0.00000000000E+00 0. -1.
         22    1    3    3    0    0 -0.84156535443E+02  0.37065107843E+02  0.51573221793E+03  0.52386626661E+03  0.00000000000E+00 0. -1.
</event>
<event>
 7    1  0.5993218E-006  0.3069798E+03  0.7818608E-02  0.1164716E+00
          2   -1    0    0  502    0  0.00000000000E+00  0.00000000000E+00  0.86175729005E+03  0.86175729005E+03  0.00000000000E+00 0. -1.
          1   -1    0    0  501    0 -0.00000000000E+00 -0.00000000000E+00 -0.66489764095E+03  0.66489764095E+03  0.00000000000E+00 0. -1.
         25    2    1    2    0    0 -0.57902572250E+02 -0.31583001689E+03  0.92596841937E+02  0.35679161909E+03  0.12499910750E+03 0.  0.
          2    1    1    2  501    0  0.15495335251E+03  0.26541839530E+03 -0.48300703100E+03  0.57249738691E+03  0.00000000000E+00 0. -1.
          1    1    1    2  502    0 -0.97050780259E+02  0.50411621585E+02  0.58726983816E+03  0.59736592500E+03  0.00000000000E+00 0. -1.
         22    1    3    3    0    0 -0.67034438257E+02 -0.32474188018E+03  0.91519006850E+02  0.34398638530E+03  0.00000000000E+00 0.  1.
         22    1    3    3    0    0  0.91318660066E+01  0.89118632899E+01  0.10778350871E+01  0.12805233795E+02  0.00000000000E+00 0.  1.
</event>
<event>
 7    1  0.5993218E-006  0.4216256E+02  0.7818608E-02  0.1495789E+00
          2   -1    0    0  502    0  0.00000000000E+00  0.00000000000E+00  0.38551685093E+02  0.38551685093E+02  0.00000000000E+00 0. -1.
          1   -1    0    0  501    0 -0.00000000000E+00 -0.00000000000E+00 -0.15712115549E+04  0.15712115549E+04  0.00000000000E+00 0. -1.
         25    2    1    2    0    0  0.15382445621E+01 -0.76212896246E+01 -0.50894567572E+03  0.52413129708E+03  0.12500986159E+03 0.  0.
          2    1    1    2  501    0  0.41305565712E+02  0.11002677760E+01 -0.10388922560E+04  0.10397136528E+04  0.00000000000E+00 0. -1.
          1    1    1    2  502    0 -0.42843810274E+02  0.65210218486E+01  0.15178061863E+02  0.45918290110E+02  0.00000000000E+00 0. -1.
         22    1    3    3    0    0 -0.10235450592E+02 -0.58098881320E+02 -0.14544558887E+03  0.15695433662E+03  0.00000000000E+00 0. -1.
         22    1    3    3    0    0  0.11773695154E+02  0.50477591695E+02 -0.36350008685E+03  0.36717696047E+03  0.00000000000E+00 0. -1.
</event>
<event>
 7    1  0.5993218E-006  0.7794130E+02  0.7818608E-02  0.1456299E+00
          2   -1    0    0  502    0  0.00000000000E+00  0.00000000000E+00  0.16383715233E+04  0.16383715233E+04  0.00000000000E+00 0. -1.
          1   -1    0    0  501    0 -0.00000000000E+00 -0.00000000000E+00 -0.32629753527E+02  0.32629753527E+02  0.00000000000E+00 0. -1.
         25    2    1    2    0    0  0.66840326185E+02  0.66196454753E+00  0.46513401228E+03  0.48625403113E+03  0.12500106404E+03 0.  0.
          2    1    1    2  501    0  0.80889729905E+01 -0.28463614865E+02 -0.10100406930E+02  0.31267028567E+02  0.00000000000E+00 0. -1.
          1    1    1    2  502    0 -0.74929299176E+02  0.27801650317E+02  0.11507081644E+04  0.11534802171E+04  0.00000000000E+00 0. -1.
         22    1    3    3    0    0  0.96323072734E+02 -0.27965426662E+02  0.31381718499E+03  0.32945625662E+03  0.00000000000E+00 0.  1.
         22    1    3    3    0    0 -0.29482746549E+02  0.28627391210E+02  0.15131682729E+03  0.15679777451E+03  0.00000000000E+00 0.  1.
</event>
<event>
 7    1  0.5993218E-006  0.1534009E+03  0.7818608E-02  0.1202249E+00
          2   -1    0    0  502    0  0.00000000000E+00  0.00000000000E+00  0.18387489893E+04  0.18387489893E+04  0.00000000000E+00 0. -1.
          1   -1    0    0  501    0 -0.00000000000E+00 -0.00000000000E+00 -0.45076547132E+03  0.45076547132E+03  0.00000000000E+00 0. -1.
         25    2    1    2    0    0 -0.60600231163E+02  0.26812612136E+03  0.26784011130E+03  0.40364272404E+03  0.12500047389E+03 0.  0.
          2    1    1    2  501    0 -0.17414392486E+02 -0.14282206651E+03 -0.36555916577E+03  0.39285481724E+03  0.00000000000E+00 0. -1.
          1    1    1    2  502    0  0.78014623648E+02 -0.12530405485E+03  0.14857025725E+04  0.14930169193E+04  0.00000000000E+00 0. -1.
         22    1    3    3    0    0 -0.57678159159E+02  0.12396332276E+03  0.56816201011E+02  0.14805997478E+03  0.00000000000E+00 0.  1.
         22    1    3    3    0    0 -0.29220720038E+01  0.14416279860E+03  0.21102391029E+03  0.25558274926E+03  0.00000000000E+00 0.  1.
</event>
<event>
 7    1  0.5993218E-006  0.1115302E+03  0.7818608E-02  0.1337821E+00
          2   -1    0    0  502    0  0.00000000000E+00  0.00000000000E+00  0.17694953384E+03  0.17694953384E+03  0.00000000000E+00 0. -1.
          1   -1    0    0  501    0 -0.00000000000E+00 -0.00000000000E+00 -0.25436931627E+03  0.25436931627E+03  0.00000000000E+00 0. -1.
         25    2    1    2    0    0 -0.14046886894E+03 -0.25759629437E+02 -0.67624055856E+01  0.18991196416E+03  0.12500304938E+03 0.  0.
          2    1    1    2  501    0  0.38638991130E+02  0.36488281314E+02 -0.11738511372E+03  0.12885507841E+03  0.00000000000E+00 0. -1.
          1    1    1    2  502    0  0.10182987781E+03 -0.10728651877E+02  0.46727736878E+02  0.11255180754E+03  0.00000000000E+00 0. -1.
         22    1    3    3    0    0 -0.85329611004E+02  0.28665546751E+02 -0.48139518469E+02  0.10207972043E+03  0.00000000000E+00 0.  1.
         22    1    3    3    0    0 -0.55139257936E+02 -0.54425176188E+02  0.41377112883E+02  0.87832243734E+02  0.00000000000E+00 0.  1.
</event>
<event>
 7    1  0.5993218E-006  0.3901130E+02  0.7818608E-02  0.1555879E+00
          2   -1    0    0  502    0  0.00000000000E+00  0.00000000000E+00  0.20951016864E+04  0.20951016864E+04  0.00000000000E+00 0. -1.
          1   -1    0    0  501    0 -0.00000000000E+00 -0.00000000000E+00 -0.72530490572E+03  0.72530490572E+03  0.00000000000E+00 0. -1.
         25    2    1    2    0    0 -0.29596672164E+01 -0.47345078914E+02  0.19067825122E+03  0.23288305558E+03  0.12500402378E+03 0.  0.
          2    1    1    2  501    0  0.25614567238E+02  0.15561704922E+02 -0.70368125431E+03  0.70431923187E+03  0.00000000000E+00 0. -1.
          1    1    1    2  502    0 -0.22654900022E+02  0.31783373992E+02  0.18827997837E+04  0.18832043046E+04  0.00000000000E+00 0. -1.
         22    1    3    3    0    0  0.58141180455E+02 -0.33080762205E+02  0.69727230305E+02  0.96626188680E+02  0.00000000000E+00 0.  1.
         22    1    3    3    0    0 -0.61100847671E+02 -0.14264316709E+02  0.12095102092E+03  0.13625686690E+03  0.00000000000E+00 0.  1.
</event>
<event>
 7    1  0.5993218E-006  0.1143554E+03  0.7818608E-02  0.1263865E+00
          2   -1    0    0  502    0  0.00000000000E+00  0.00000000000E+00  0.59226695142E+03  0.59226695142E+03  0.00000000000E+00 0. -1.
          1   -1    0    0  501    0 -0.00000000000E+00 -0.00000000000E+00 -0.18079943329E+03  0.18079943329E+03  0.00000000000E+00 0. -1.
         25    2    1    2    0    0 -0.52253888874E+02 -0.22220459240E+02  0.15982476579E+03  0.21069575514E+03  0.12499811104E+03 0.  0.
          2    1    1    2  501    0 -0.44756048364E+02 -0.92157589986E+02 -0.12225975520E+03  0.15951041658E+03  0.00000000000E+00 0. -1.
          1    1    1    2  502    0  0.97009937237E+02  0.11437804923E+03  0.37390250753E+03  0.40286021299E+03  0.00000000000E+00 0. -1.
         22    1    3    3    0    0 -0.78980492232E+02 -0.45244572536E+02  0.14750822708E+03  0.17333108940E+03  0.00000000000E+00 0.  1.
         22    1    3    3    0    0  0.26726603358E+02  0.23024113297E+02  0.12316538717E+02  0.37364665744E+02  0.00000000000E+00 0.  1.
</event>
<event>
 7    1  0.5993218E-006  0.5636905E+02  0.7818608E-02  0.1427936E+00
          2   -1    0    0  502    0  0.00000000000E+00  0.00000000000E+00  0.64404035807E+03  0.64404035807E+03  0.00000000000E+00 0. -1.
          1   -1    0    0  501    0 -0.00000000000E+00 -0.00000000000E+00 -0.88132152838E+02  0.88132152838E+02  0.00000000000E+00 0. -1.
         25    2    1    2    0    0  0.85160998278E+02 -0.35585031877E+02  0.17535548866E+03  0.23429463039E+03  0.12500294518E+03 0.  0.
          2    1    1    2  501    0 -0.35025415492E+02  0.41988236227E+02 -0.44088386645E+02  0.70239430157E+02  0.00000000000E+00 0. -1.
          1    1    1    2  502    0 -0.50135582786E+02 -0.64032043503E+01  0.42464110321E+03  0.42763845036E+03  0.00000000000E+00 0. -1.
         22    1    3    3    0    0 -0.50043390704E+00 -0.43806990546E+02  0.58539168624E+01  0.44199221684E+02  0.00000000000E+00 0.  1.
         22    1    3    3    0    0  0.85661432185E+02  0.82219586698E+01  0.16950157180E+03  0.19009540871E+03  0.00000000000E+00 0.  1.
</event>
<event>
 7    1  0.5993218E-006  0.6495972E+02  0.7818608E-02  0.1388892E+00
          2   -1    0    0  502    0  0.00000000000E+00  0.00000000000E+00  0.11769633172E+03  0.11769633172E+03  0.00000000000E+00 0. -1.
          1   -1    0    0  501    0 -0.00000000000E+00 -0.00000000000E+00 -0.55070616548E+03  0.55070616548E+03  0.00000000000E+00 0. -1.
         25    2    1    2    0    0 -0.10112835205E+03 -0.66069986091E+02 -0.92653430399E+02  0.19698058607E+03  0.12499802587E+03 0.  0.
          2    1    1    2  501    0  0.56174904452E+02  0.27051634568E+02 -0.38936015185E+03  0.39432060392E+03  0.00000000000E+00 0. -1.
          1    1    1    2  502    0  0.44953447602E+02  0.39018351523E+02  0.49003748496E+02  0.77101307210E+02  0.00000000000E+00 0. -1.
         22    1    3    3    0    0 -0.96385672708E+02 -0.28803629810E+01 -0.16365382446E+02  0.97807566869E+02  0.00000000000E+00 0. -1.
         22    1    3    3    0    0 -0.47426793465E+01 -0.63189623110E+02 -0.76288047953E+02  0.99173019197E+02  0.00000000000E+00 0. -1.
</event>
<event>
 7    1  0.5993218E-006  0.8119332E+02  0.7818608E-02  0.1347928E+00
          2   -1    0    0  502    0  0.00000000000E+00  0.00000000000E+00  0.10401651077E+04  0.10401651077E+04  0.00000000000E+00 0. -1.
          1   -1    0    0  501    0 -0.00000000000E+00 -0.00000000000E+00 -0.19908368255E+03  0.19908368255E+03  0.00000000000E+00 0. -1.
         25    2    1    2    0    0  0.16167076823E+02 -0.13550596632E+03 -0.32357691225E+02  0.18787007038E+03  0.12499960753E+03 0.  0.
          2    1    1    2  501    0 -0.18700750117E+02  0.68646471480E+02 -0.73373888786E+02  0.10220461661E+03  0.00000000000E+00 0. -1.
          1    1    1    2  502    0  0.25336732936E+01  0.66859494838E+02  0.94681300521E+03  0.94917410330E+03  0.00000000000E+00 0. -1.
         22    1    3    3    0    0  0.56658025183E+02 -0.89505246976E+02 -0.58765959532E+02  0.12113941990E+03  0.00000000000E+00 0.  1.
         22    1    3    3    0    0 -0.40490948360E+02 -0.46000719342E+02  0.26408268307E+02  0.66730650484E+02  0.00000000000E+00 0.  1.
</event>
<event>
 7    1  0.1044219E-005  0.6367826E+02  0.7818608E-02  0.1478791E+00
          2   -1    0    0  502    0  0.00000000000E+00  0.00000000000E+00  0.20086370217E+04  0.20086370217E+04  0.00000000000E+00 0. -1.
          1   -1    0    0  501    0 -0.00000000000E+00 -0.00000000000E+00 -0.25921351923E+04  0.25921351923E+04  0.00000000000E+00 0. -1.
         25    2    1    2    0    0  0.12765724682E+02  0.89880381818E+02 -0.42242003684E+03  0.44978294487E+03  0.12499825284E+03 0.  0.
          2    1    1    2  501    0 -0.16027525699E+02 -0.26315366848E+02 -0.21554158891E+04  0.21556361092E+04  0.00000000000E+00 0. -1.
          1    1    1    2  502    0  0.32618010171E+01 -0.63565014970E+02  0.19943377554E+04  0.19953531600E+04  0.00000000000E+00 0. -1.
         22    1    3    3    0    0  0.51316809190E+02  0.42693307591E+02 -0.91287486875E+02  0.11309084259E+03  0.00000000000E+00 0. -1.
         22    1    3    3    0    0 -0.38551084509E+02  0.47187074228E+02 -0.33113254997E+03  0.33669210228E+03  0.00000000000E+00 0. -1.
</event>
<event>
 7    1  0.5993218E-006  0.7872638E+02  0.7818608E-02  0.1391406E+00
          2   -1    0    0  502    0  0.00000000000E+00  0.00000000000E+00  0.69052935789E+03  0.69052935789E+03  0.00000000000E+00 0. -1.
          1   -1    0    0  501    0 -0.00000000000E+00 -0.00000000000E+00 -0.66057412072E+03  0.66057412072E+03  0.00000000000E+00 0. -1.
         25    2    1    2    0    0 -0.24242303450E+02  0.20587241426E+02 -0.54248520794E+02  0.13991875523E+03  0.12499132878E+03 0.  0.
          2    1    1    2  501    0 -0.35280750472E+02  0.32744079138E+02 -0.55998872621E+03  0.56205362694E+03  0.00000000000E+00 0. -1.
          1    1    1    2  502    0  0.59523053923E+02 -0.53331320563E+02  0.64419248417E+03  0.64913109644E+03  0.00000000000E+00 0. -1.
         22    1    3    3    0    0  0.14353358298E+01 -0.48314275509E+02 -0.44580469521E+02  0.65755210209E+02  0.00000000000E+00 0. -1.
         22    1    3    3    0    0 -0.25677639280E+02  0.68901516935E+02 -0.96680512729E+01  0.74163545023E+02  0.00000000000E+00 0. -1.
</event>
<event>
 7    1  0.5993218E-006  0.2545453E+03  0.7818608E-02  0.1128072E+00
          2   -1    0    0  502    0  0.00000000000E+00  0.00000000000E+00  0.13544218327E+04  0.13544218327E+04  0.00000000000E+00 0. -1.
          1   -1    0    0  501    0 -0.00000000000E+00 -0.00000000000E+00 -0.11777326132E+04  0.11777326132E+04  0.00000000000E+00 0. -1.
         25    2    1    2    0    0 -0.37397166700E+02 -0.55330859967E+02  0.18510221632E+03  0.23312644847E+03  0.12500023340E+03 0.  0.
          2    1    1    2  501    0  0.98387208774E+02  0.25018943678E+03 -0.11287056923E+04  0.11602807147E+04  0.00000000000E+00 0. -1.
          1    1    1    2  502    0 -0.60990042073E+02 -0.19485857681E+03  0.11202926955E+04  0.11387472827E+04  0.00000000000E+00 0. -1.
         22    1    3    3    0    0  0.43769838558E+02 -0.26848752521E+02  0.42804346269E+02  0.66849579945E+02  0.00000000000E+00 0. -1.
         22    1    3    3    0    0 -0.81167005258E+02 -0.28482107446E+02  0.14229787005E+03  0.16627686853E+03  0.00000000000E+00 0. -1.
</event>
<event>
 7    1  0.5993218E-006  0.5924604E+02  0.7818608E-02  0.1438572E+00
          2   -1    0    0  502    0  0.00000000000E+00  0.00000000000E+00  0.60164653556E+03  0.60164653556E+03  0.00000000000E+00 0. -1.
          1   -1    0    0  501    0 -0.00000000000E+00 -0.00000000000E+00 -0.43587722378E+03  0.43587722378E+03  0.00000000000E+00 0. -1.
         25    2    1    2    0    0 -0.30971745997E+02  0.26076722256E+02  0.17016403140E+02  0.13249304515E+03  0.12500241815E+03 0.  0.
          2    1    1    2  501    0 -0.28717438484E+02 -0.33836705739E+02 -0.37510743504E+03  0.37772371086E+03  0.00000000000E+00 0. -1.
          1    1    1    2  502    0  0.59689184481E+02  0.77599834836E+01  0.52386034367E+03  0.52730700333E+03  0.00000000000E+00 0. -1.
         22    1    3    3    0    0 -0.72735949988E+02 -0.13308192537E+02  0.78281254021E+01  0.74356613402E+02  0.00000000000E+00 0.  1.
         22    1    3    3    0    0  0.41764203992E+02  0.39384914792E+02  0.91882777381E+01  0.58136431745E+02  0.00000000000E+00 0.  1.
</event>
<event>
 7    1  0.5993218E-006  0.4308930E+02  0.7818608E-02  0.1531528E+00
          2   -1    0    0  502    0  0.00000000000E+00  0.00000000000E+00  0.11066981668E+04  0.11066981668E+04  0.00000000000E+00 0. -1.
          1   -1    0    0  501    0 -0.00000000000E+00 -0.00000000000E+00 -0.91624614494E+03  0.91624614494E+03  0.00000000000E+00 0. -1.
         25    2    1    2    0    0 -0.56977020088E+02  0.19041550229E+02  0.64092861371E+02  0.15277733929E+03  0.12499623622E+03 0.  0.
          2    1    1    2  501    0  0.42090000227E+02  0.90252155972E+01 -0.87111952138E+03  0.87218245979E+03  0.00000000000E+00 0. -1.
          1    1    1    2  502    0  0.14887019862E+02 -0.28066765826E+02  0.99747868184E+03  0.99798451262E+03  0.00000000000E+00 0. -1.
         22    1    3    3    0    0  0.34236471490E+02  0.29086237604E+02  0.92281358617E+01  0.45861788992E+02  0.00000000000E+00 0.  1.
         22    1    3    3    0    0 -0.91213491578E+02 -0.10044687375E+02  0.54864725509E+02  0.10691555030E+03  0.00000000000E+00 0.  1.
</event>
<event>
 7    1  0.5993218E-006  0.1862511E+03  0.7818608E-02  0.1308899E+00
          2   -1    0    0  502    0  0.00000000000E+00  0.00000000000E+00  0.64104287120E+03  0.64104287120E+03  0.00000000000E+00 0. -1.
          1   -1    0    0  501    0 -0.00000000000E+00 -0.00000000000E+00 -0.15334339048E+04  0.15334339048E+04  0.00000000000E+00 0. -1.
         25    2    1    2    0    0 -0.22600757734E+03 -0.32303064107E+01  0.11001102408E+03  0.28074413999E+03  0.12499994729E+03 0.  0.
          2    1    1    2  501    0  0.18504629202E+03 -0.73432149983E+00 -0.14411888359E+04  0.14530202786E+04  0.00000000000E+00 0. -1.
          1    1    1    2  502    0  0.40961285322E+02  0.39646279105E+01  0.43878677823E+03  0.44071235735E+03  0.00000000000E+00 0. -1.
         22    1    3    3    0    0 -0.55842802858E+02  0.51618047366E+02  0.12405666429E+02  0.77050256355E+02  0.00000000000E+00 0.  1.
         22    1    3    3    0    0 -0.17016477449E+03 -0.54848353776E+02  0.97605357655E+02  0.20369388364E+03  0.00000000000E+00 0.  1.
</event>
<event>
 7    1  0.5993218E-006  0.1187439E+03  0.7818608E-02  0.1282049E+00
          2   -1    0    0  502    0  0.00000000000E+00  0.00000000000E+00  0.12223140107E+04  0.12223140107E+04  0.00000000000E+00 0. -1.
          1   -1    0    0  501    0 -0.00000000000E+00 -0.00000000000E+00 -0.24343735927E+03  0.24343735927E+03  0.00000000000E+00 0. -1.
         25    2    1    2    0    0 -0.10731134891E+03  0.92371237273E+02  0.90696721941E+02  0.20952875236E+03  0.12501292578E+03 0.  0.
          2    1    1    2  501    0  0.11836737858E+03 -0.10288452479E+02 -0.16304314854E+03  0.20174180740E+03  0.00000000000E+00 0. -1.
          1    1    1    2  502    0 -0.11056029669E+02 -0.82082784794E+02  0.10512230780E+04  0.10544808102E+04  0.00000000000E+00 0. -1.
         22    1    3    3    0    0 -0.68977046320E+02  0.11978925223E+03  0.84453566328E+02  0.16198673629E+03  0.00000000000E+00 0.  1.
         22    1    3    3    0    0 -0.38334302595E+02 -0.27418014958E+02  0.62431556130E+01  0.47542016067E+02  0.00000000000E+00 0.  1.
</event>
<event>
 7    1  0.5993218E-006  0.8584017E+02  0.7818608E-02  0.1315438E+00
          2   -1    0    0  502    0  0.00000000000E+00  0.00000000000E+00  0.16503538123E+03  0.16503538123E+03  0.00000000000E+00 0. -1.
          1   -1    0    0  501    0 -0.00000000000E+00 -0.00000000000E+00 -0.26557838637E+03  0.26557838637E+03  0.00000000000E+00 0. -1.
         25    2    1    2    0    0 -0.35719314837E+02  0.92588426320E+02 -0.94439021645E+02  0.18544760726E+03  0.12499440023E+03 0.  0.
          2    1    1    2  501    0  0.87899886950E+02 -0.26552100157E+02 -0.88395663168E+02  0.12745664916E+03  0.00000000000E+00 0. -1.
          1    1    1    2  502    0 -0.52180572113E+02 -0.66036326163E+02  0.82291679673E+02  0.11770951118E+03  0.00000000000E+00 0. -1.
         22    1    3    3    0    0  0.43329712044E+02  0.17578040123E+02 -0.47939784049E+02  0.66967711138E+02  0.00000000000E+00 0. -1.
         22    1    3    3    0    0 -0.79049026881E+02  0.75010386197E+02 -0.46499237596E+02  0.11847989612E+03  0.00000000000E+00 0. -1.
</event>
<event>
 7    1  0.5993218E-006  0.1784409E+03  0.7818608E-02  0.1280687E+00
          2   -1    0    0  502    0  0.00000000000E+00  0.00000000000E+00  0.26834758046E+04  0.26834758046E+04  0.00000000000E+00 0. -1.
          1   -1    0    0  501    0 -0.00000000000E+00 -0.00000000000E+00 -0.12718299892E+04  0.12718299892E+04  0.00000000000E+00 0. -1.
         25    2    1    2    0    0 -0.77073066644E+02 -0.10102995675E+03  0.61678340014E+02  0.18861841134E+03  0.12500151081E+03 0.  0.
          2    1    1    2  501    0 -0.18774343652E+02 -0.52581828164E+02 -0.12045088913E+04  0.12058022201E+04  0.00000000000E+00 0. -1.
          1    1    1    2  502    0  0.95847410296E+02  0.15361178491E+03  0.25544763668E+04  0.25608851624E+04  0.00000000000E+00 0. -1.
         22    1    3    3    0    0 -0.93584590715E+02 -0.31048249828E+02  0.62445312235E+02  0.11671112396E+03  0.00000000000E+00 0.  1.
         22    1    3    3    0    0  0.16511524071E+02 -0.69981706922E+02 -0.76697222064E+00  0.71907287372E+02  0.00000000000E+00 0.  1.
</event>
<event>
 7    1  0.5993218E-006  0.1124583E+03  0.7818608E-02  0.1385569E+00
          2   -1    0    0  502    0  0.00000000000E+00  0.00000000000E+00  0.14700685719E+04  0.14700685719E+04  0.00000000000E+00 0. -1.
          1   -1    0    0  501    0 -0.00000000000E+00 -0.00000000000E+00 -0.44345966166E+03  0.44345966166E+03  0.00000000000E+00 0. -1.
         25    2    1    2    0    0  0.10814404735E+03  0.13622216466E+02  0.54891040354E+03  0.57341528296E+03  0.12498702276E+03 0.  0.
          2    1    1    2  501    0  0.45500675441E+01 -0.35023763935E+02 -0.42685582192E+03  0.42831444041E+03  0.00000000000E+00 0. -1.
          1    1    1    2  502    0 -0.11269411489E+03  0.21401547469E+02  0.90455432858E+03  0.91179851015E+03  0.00000000000E+00 0. -1.
         22    1    3    3    0    0 -0.25980894549E+02  0.12669449044E+01  0.15362920642E+03  0.15581574084E+03  0.00000000000E+00 0. -1.
         22    1    3    3    0    0  0.13412494190E+03  0.12355271562E+02  0.39528119712E+03  0.41759954211E+03  0.00000000000E+00 0. -1.
</event>
<event>
 7    1  0.5993218E-006  0.9784249E+02  0.7818608E-02  0.1329886E+00
          2   -1    0    0  502    0  0.00000000000E+00  0.00000000000E+00  0.52353577743E+03  0.52353577743E+03  0.00000000000E+00 0. -1.
          1   -1    0    0  501    0 -0.00000000000E+00 -0.00000000000E+00 -0.56228840567E+03  0.56228840567E+03  0.00000000000E+00 0. -1.
         25    2    1    2    0    0 -0.58235409142E+02  0.40858111754E+02  0.18616487297E+03  0.23525239420E+03  0.12500232347E+03 0.  0.
          2    1    1    2  501    0  0.23774736950E+02 -0.95891347796E+02 -0.52975861193E+03  0.53889198882E+03  0.00000000000E+00 0. -1.
          1    1    1    2  502    0  0.34460672193E+02  0.55033236042E+02  0.30484111072E+03  0.31167980008E+03  0.00000000000E+00 0. -1.
         22    1    3    3    0    0  0.34436440032E+02 -0.59154820776E+01  0.77290348847E+02  0.84821337853E+02  0.00000000000E+00 0.  1.
         22    1    3    3    0    0 -0.92671849175E+02  0.46773593831E+02  0.10887452412E+03  0.15043105634E+03  0.00000000000E+00 0.  1.
</event>
<event>
 7    1  0.5993218E-006  0.7629365E+02  0.7818608E-02  0.1431273E+00
          2   -1    0    0  502    0  0.00000000000E+00  0.00000000000E+00  0.18178752472E+04  0.18178752472E+04  0.00000000000E+00 0. -1.
          1   -1    0    0  501    0 -0.00000000000E+00 -0.00000000000E+00 -0.34494623138E+03  0.34494623138E+03  0.00000000000E+00 0. -1.
         25    2    1    2    0    0 -0.38330560230E+02  0.24704063111E+02  0.81682916194E+02  0.15613465099E+03  0.12500563131E+03 0.  0.
          2    1    1    2  501    0 -0.36101369874E+02 -0.47310542678E+01 -0.30576579373E+03  0.30792598525E+03  0.00000000000E+00 0. -1.
          1    1    1    2  502    0  0.74431930104E+02 -0.19973008844E+02  0.16970118934E+04  0.16987608424E+04  0.00000000000E+00 0. -1.
         22    1    3    3    0    0 -0.38308423457E+02  0.50899749481E+02 -0.66012615793E+01  0.64046049522E+02  0.00000000000E+00 0. -1.
         22    1    3    3    0    0 -0.22136772562E-01 -0.26195686369E+02  0.88284177773E+02  0.92088601464E+02  0.00000000000E+00 0. -1.
</event>
<event>
 7    1  0.5993218E-006  0.4974166E+02  0.7818608E-02  0.1488704E+00
          2   -1    0    0  502    0  0.00000000000E+00  0.00000000000E+00  0.65405961693E+03  0.65405961693E+03  0.00000000000E+00 0. -1.
          1   -1    0    0  501    0 -0.00000000000E+00 -0.00000000000E+00 -0.66184824390E+02  0.66184824390E+02  0.00000000000E+00 0. -1.
         25    2    1    2    0    0  0.36290768862E+02 -0.43524597585E+02  0.32703440008E+03  0.35466726565E+03  0.12500383988E+03 0.  0.
          2    1    1    2  501    0 -0.49120223769E+02  0.90431473584E+01 -0.39074304167E+02  0.63414321280E+02  0.00000000000E+00 0. -1.
          1    1    1    2  502    0  0.12829454907E+02  0.34481450227E+02  0.29991469663E+03  0.30216285439E+03  0.00000000000E+00 0. -1.
         22    1    3    3    0    0 -0.73907313963E+01  0.12989194275E+02  0.24677377960E+03  0.24722588938E+03  0.00000000000E+00 0. -1.
         22    1    3    3    0    0  0.43681500258E+02 -0.56513791860E+02  0.80260620477E+02  0.10744137627E+03  0.00000000000E+00 0. -1.
</event>
<event>
 7    1  0.5993218E-006  0.3475398E+02  0.7818608E-02  0.1620663E+00
          2   -1    0    0  502    0  0.00000000000E+00  0.00000000000E+00  0.87091055631E+03  0.87091055631E+03  0.00000000000E+00 0. -1.
          1   -1    0    0  501    0 -0.00000000000E+00 -0.00000000000E+00 -0.12227972969E+02  0.12227972969E+02  0.00000000000E+00 0. -1.
         25    2    1    2    0    0  0.22160055069E+02 -0.27488719950E+02  0.43767987853E+03  0.45654795107E+03  0.12500263114E+03 0.  0.
          2    1    1    2  501    0 -0.36180528449E+02  0.97070184405E+01  0.35153741410E+03  0.35352766562E+03  0.00000000000E+00 0. -1.
          1    1    1    2  502    0  0.14020473380E+02  0.17781701510E+02  0.69465290710E+02  0.73062912588E+02  0.00000000000E+00 0. -1.
         22    1    3    3    0    0 -0.51777419809E+02 -0.24899452167E+01  0.17234304831E+03  0.17997007343E+03  0.00000000000E+00 0. -1.
         22    1    3    3    0    0  0.73937474878E+02 -0.24998774734E+02  0.26533683022E+03  0.27657787764E+03  0.00000000000E+00 0. -1.
</event>
<event>
 7    1  0.5993218E-006  0.6421680E+02  0.7818608E-02  0.1423603E+00
          2   -1    0    0  502    0  0.00000000000E+00  0.00000000000E+00  0.28231597062E+04  0.28231597062E+04  0.00000000000E+00 0. -1.
          1   -1    0    0  501    0 -0.00000000000E+00 -0.00000000000E+00 -0.10223533421E+03  0.10223533421E+03  0.00000000000E+00 0. -1.
         25    2    1    2    0    0  0.23890896483E+02 -0.73940436043E+01  0.58267972403E+03  0.59646100441E+03  0.12499848869E+03 0.  0.
          2    1    1    2  501    0  0.42754262509E+02  0.16580462491E+02 -0.89293547844E+02  0.10038015932E+03  0.00000000000E+00 0. -1.
          1    1    1    2  502    0 -0.66645158993E+02 -0.91864188867E+01  0.22275381958E+04  0.22285538767E+04  0.00000000000E+00 0. -1.
         22    1    3    3    0    0  0.10882340124E+02  0.17458225895E+02  0.96116332260E+01  0.22706793504E+02  0.00000000000E+00 0.  1.
         22    1    3    3    0    0  0.13008556360E+02 -0.24852269499E+02  0.57306809080E+03  0.57375421090E+03  0.00000000000E+00 0.  1.
</event>
<event>
 7    1  0.5993218E-006  0.9015537E+02  0.7818608E-02  0.1327364E+00
          2   -1    0    0  502    0  0.00000000000E+00  0.00000000000E+00  0.21868473770E+04  0.21868473770E+04  0.00000000000E+00 0. -1.
          1   -1    0    0  501    0 -0.00000000000E+00 -0.00000000000E+00 -0.64920681485E+02  0.64920681485E+02  0.00000000000E+00 0. -1.
         25    2    1    2    0    0  0.80866017403E+02  0.34986175199E+02  0.12211885488E+04  0.12307274929E+04  0.12500137897E+03 0.  0.
          2    1    1    2  501    0 -0.83140027338E+02  0.37031260233E+02 -0.23499164740E+02  0.93998878311E+02  0.00000000000E+00 0. -1.
          1    1    1    2  502    0  0.22740099352E+01 -0.72017435432E+02  0.92423731140E+03  0.92704168726E+03  0.00000000000E+00 0. -1.
         22    1    3    3    0    0  0.11197944249E+03  0.16787098273E+02  0.10268817914E+04  0.10331057137E+04  0.00000000000E+00 0. -1.
         22    1    3    3    0    0 -0.31113425084E+02  0.18199076926E+02  0.19430675745E+03  0.19762177920E+03  0.00000000000E+00 0. -1.
</event>
<event>
 7    1  0.5993218E-006  0.1042087E+03  0.7818608E-02  0.1334787E+00
          2   -1    0    0  502    0  0.00000000000E+00  0.00000000000E+00  0.44055690877E+03  0.44055690877E+03  0.00000000000E+00 0. -1.
          1   -1    0    0  501    0 -0.00000000000E+00 -0.00000000000E+00 -0.18797327919E+04  0.18797327919E+04  0.00000000000E+00 0. -1.
         25    2    1    2    0    0 -0.94455120868E+02  0.94240423533E+02  0.24727367164E+03  0.30752849988E+03  0.12500592894E+03 0.  0.
          2    1    1    2  501    0  0.57870582697E+02 -0.78622189631E+01 -0.18356190092E+04  0.18365478392E+04  0.00000000000E+00 0. -1.
          1    1    1    2  502    0  0.36584538171E+02 -0.86378204570E+02  0.14916945443E+03  0.17621336156E+03  0.00000000000E+00 0. -1.
         22    1    3    3    0    0 -0.25652164240E+02  0.21303972702E+02 -0.71123238697E+01  0.34095130648E+02  0.00000000000E+00 0. -1.
         22    1    3    3    0    0 -0.68802956628E+02  0.72936450831E+02  0.25438599551E+03  0.27343336924E+03  0.00000000000E+00 0. -1.
</event>
<event>
 7    1  0.5993218E-006  0.1316475E+03  0.7818608E-02  0.1403945E+00
          2   -1    0    0  502    0  0.00000000000E+00  0.00000000000E+00  0.75208737201E+02  0.75208737201E+02  0.00000000000E+00 0. -1.
          1   -1    0    0  501    0 -0.00000000000E+00 -0.00000000000E+00 -0.24138593258E+04  0.24138593258E+04  0.00000000000E+00 0. -1.
         25    2    1    2    0    0  0.13337948649E+03 -0.76387384645E+02 -0.41779651718E+03  0.46239012316E+03  0.12500230509E+03 0.  0.
          2    1    1    2  501    0 -0.21343383268E+02  0.14944459865E+02 -0.18964019675E+04  0.18965809498E+04  0.00000000000E+00 0. -1.
          1    1    1    2  502    0 -0.11203610322E+03  0.61442924780E+02 -0.24452103943E+02  0.13009699004E+03  0.00000000000E+00 0. -1.
         22    1    3    3    0    0  0.40541585875E+02  0.13938857037E+02 -0.23182578727E+03  0.23575645816E+03  0.00000000000E+00 0.  1.
         22    1    3    3    0    0  0.92837900618E+02 -0.90326241682E+02 -0.18597072991E+03  0.22663366500E+03  0.00000000000E+00 0.  1.
</event>
<event>
 7    1  0.5993218E-006  0.8548346E+02  0.7818608E-02  0.1374728E+00
          2   -1    0    0  502    0  0.00000000000E+00  0.00000000000E+00  0.27540274188E+04  0.27540274188E+04  0.00000000000E+00 0. -1.
          1   -1    0    0  501    0 -0.00000000000E+00 -0.00000000000E+00 -0.93058276048E+02  0.93058276048E+02  0.00000000000E+00 0. -1.
         25    2    1    2    0    0 -0.30628289273E+02  0.28909530392E+02 -0.39722778048E+02  0.13775262207E+03  0.12499613090E+03 0.  0.
          2    1    1    2  501    0 -0.14751356411E+01  0.50735466649E+02  0.17578157704E+03  0.18296290998E+03  0.00000000000E+00 0. -1.
          1    1    1    2  502    0  0.32103424914E+02 -0.79644997042E+02  0.25249103438E+04  0.25263701628E+04  0.00000000000E+00 0. -1.
         22    1    3    3    0    0  0.46668855366E+01 -0.39831662348E+02  0.15265902384E+02  0.42911407826E+02  0.00000000000E+00 0.  1.
         22    1    3    3    0    0 -0.35295174810E+02  0.68741192740E+02 -0.54988680432E+02  0.94841214247E+02  0.00000000000E+00 0.  1.
</event>
<event>
 7    1  0.5993218E-006  0.1359312E+03  0.7818608E-02  0.1316936E+00
          2   -1    0    0  502    0  0.00000000000E+00  0.00000000000E+00  0.25627034866E+04  0.25627034866E+04  0.00000000000E+00 0. -1.
          1   -1    0    0  501    0 -0.00000000000E+00 -0.00000000000E+00 -0.36928214356E+02  0.36928214356E+02  0.00000000000E+00 0. -1.
         25    2    1    2    0    0 -0.50283535319E+02 -0.94962015784E+02  0.76641665692E+03  0.78394227038E+03  0.12499909165E+03 0.  0.
          2    1    1    2  501    0  0.10237621249E+03  0.10097398347E+03  0.15863352526E+03  0.21410565046E+03  0.00000000000E+00 0. -1.
          1    1    1    2  502    0 -0.52092677174E+02 -0.60119676906E+01  0.16007250901E+04  0.16015837802E+04  0.00000000000E+00 0. -1.
         22    1    3    3    0    0  0.81197129073E+01 -0.43880613170E+02  0.58409556362E+03  0.58579780248E+03  0.00000000000E+00 0.  1.
         22    1    3    3    0    0 -0.58403248226E+02 -0.51081402613E+02  0.18232109330E+03  0.19814446790E+03  0.00000000000E+00 0.  1.
</event>
<event>
 7    1  0.5993218E-006  0.6553367E+02  0.7818608E-02  0.1396371E+00
          2   -1    0    0  502    0  0.00000000000E+00  0.00000000000E+00  0.52815343521E+03  0.52815343521E+03  0.00000000000E+00 0. -1.
          1   -1    0    0  501    0 -0.00000000000E+00 -0.00000000000E+00 -0.71603569045E+03  0.71603569045E+03  0.00000000000E+00 0. -1.
         25    2    1    2    0    0 -0.42557705373E+02 -0.42541100525E+01 -0.47568406559E+03  0.49368975949E+03  0.12499997051E+03 0.  0.
          2    1    1    2  501    0  0.31337820232E+02  0.68820174902E+02 -0.22301981406E+03  0.23549121621E+03  0.00000000000E+00 0. -1.
          1    1    1    2  502    0  0.11219885141E+02 -0.64566064849E+02  0.51082162441E+03  0.51500814996E+03  0.00000000000E+00 0. -1.
         22    1    3    3    0    0  0.52788768500E+01  0.52480787829E+02 -0.13331224744E+03  0.14336755194E+03  0.00000000000E+00 0.  1.
         22    1    3    3    0    0 -0.47836582223E+02 -0.56734897881E+02 -0.34237181815E+03  0.35032220755E+03  0.00000000000E+00 0.  1.
</event>
<event>
 7    1  0.5993218E-006  0.9131389E+02  0.7818608E-02  0.1311010E+00
          2   -1    0    0  502    0  0.00000000000E+00  0.00000000000E+00  0.12301219946E+04  0.12301219946E+04  0.00000000000E+00 0. -1.
          1   -1    0    0  501    0 -0.00000000000E+00 -0.00000000000E+00 -0.63695235191E+03  0.63695235191E+03  0.00000000000E+00 0. -1.
         25    2    1    2    0    0 -0.10183729306E+00 -0.36795298639E+02  0.66696636700E+01  0.13047276108E+03  0.12499901039E+03 0.  0.
          2    1    1    2  501    0  0.81401890118E+02  0.49878735172E+02 -0.56961390767E+03  0.57755879333E+03  0.00000000000E+00 0. -1.
          1    1    1    2  502    0 -0.81300052825E+02 -0.13083436533E+02  0.11561138866E+04  0.11590427920E+04  0.00000000000E+00 0. -1.
         22    1    3    3    0    0 -0.14476622715E+02 -0.65287078432E+02  0.44994566827E+02  0.80600783243E+02  0.00000000000E+00 0.  1.
         22    1    3    3    0    0  0.14374785422E+02  0.28491779793E+02 -0.38324903157E+02  0.49871977840E+02  0.00000000000E+00 0.  1.
</event>
<event>
 7    1  0.5993218E-006  0.1467276E+03  0.7818608E-02  0.1376743E+00
          2   -1    0    0  502    0  0.00000000000E+00  0.00000000000E+00  0.21473226782E+03  0.21473226782E+03  0.00000000000E+00 0. -1.
          1   -1    0    0  501    0 -0.00000000000E+00 -0.00000000000E+00 -0.59964992703E+03  0.59964992703E+03  0.00000000000E+00 0. -1.
         25    2    1    2    0    0  0.94301668700E+02  0.89306604999E+02 -0.32406473641E+03  0.37082469924E+03  0.12499811903E+03 0.  0.
          2    1    1    2  501    0 -0.45798552384E+01  0.28723013786E+02 -0.22239746452E+03  0.22429137037E+03  0.00000000000E+00 0. -1.
          1    1    1    2  502    0 -0.89721813462E+02 -0.11802961878E+03  0.16154454172E+03  0.21926612525E+03  0.00000000000E+00 0. -1.
         22    1    3    3    0    0  0.86927321899E+02  0.50452656986E+02 -0.94761376904E+02  0.13813597809E+03  0.00000000000E+00 0.  1.
         22    1    3    3    0    0  0.73743468012E+01  0.38853948013E+02 -0.22930335951E+03  0.23268872115E+03  0.00000000000E+00 0.  1.
</event>
<event>
 7    1  0.5993218E-006  0.1525615E+03  0.7818608E-02  0.1219653E+00
          2   -1    0    0  502    0  0.00000000000E+00  0.00000000000E+00  0.14027388464E+03  0.14027388464E+03  0.00000000000E+00 0. -1.
          1   -1    0    0  501    0 -0.00000000000E+00 -0.00000000000E+00 -0.19256339168E+04  0.19256339168E+04  0.00000000000E+00 0. -1.
         25    2    1    2    0    0  0.22943109444E+03 -0.12359351765E+03 -0.43426356618E+03  0.52165506392E+03  0.12500070440E+03 0.  0.
          2    1    1    2  501    0 -0.10297491774E+03  0.61948466076E+02 -0.13924446836E+04  0.13976207079E+04  0.00000000000E+00 0. -1.
          1    1    1    2  502    0 -0.12645617670E+03  0.61645051577E+02  0.41348217660E+02  0.14663202963E+03  0.00000000000E+00 0. -1.
         22    1    3    3    0    0  0.89729888022E+02  0.14892648282E+02 -0.11450631756E+03  0.14623590715E+03  0.00000000000E+00 0. -1.
         22    1    3    3    0    0  0.13970120642E+03 -0.13848616593E+03 -0.31975724862E+03  0.37541915677E+03  0.00000000000E+00 0. -1.
</event>
<event>
 7    1  0.5993218E-006  0.3389588E+02  0.7818608E-02  0.1566741E+00
          2   -1    0    0  502    0  0.00000000000E+00  0.00000000000E+00  0.11917372777E+04  0.11917372777E+04  0.00000000000E+00 0. -1.
          1   -1    0    0  501    0 -0.00000000000E+00 -0.00000000000E+00 -0.72682672632E+03  0.72682672632E+03  0.00000000000E+00 0. -1.
         25    2    1    2    0    0  0.43267999533E+02  0.40613421440E+02  0.20848854889E+03  0.25022820957E+03  0.12500044826E+03 0.  0.
          2    1    1    2  501    0 -0.30801865230E+02 -0.93959277389E+01 -0.70529585851E+03  0.70603065542E+03  0.00000000000E+00 0. -1.
          1    1    1    2  502    0 -0.12466134303E+02 -0.31217493701E+02  0.96171786103E+03  0.96230513905E+03  0.00000000000E+00 0. -1.
         22    1    3    3    0    0  0.67260616936E+02  0.44081153320E+02  0.61461057989E+02  0.10121561301E+03  0.00000000000E+00 0. -1.
         22    1    3    3    0    0 -0.23992617403E+02 -0.34677318795E+01  0.14702749090E+03  0.14901259656E+03  0.00000000000E+00 0. -1.
</event>
<event>
 7    1  0.5993218E-006  0.7504330E+02  0.7818608E-02  0.1480911E+00
          2   -1    0    0  502    0  0.00000000000E+00  0.00000000000E+00  0.12475824704E+03  0.12475824704E+03  0.00000000000E+00 0. -1.
          1   -1    0    0  501    0 -0.00000000000E+00 -0.00000000000E+00 -0.18083092092E+03  0.18083092092E+03  0.00000000000E+00 0. -1.
         25    2    1    2    0    0 -0.72523422791E+02 -0.61173018952E+00  0.69985560297E+01  0.14468648118E+03  0.12500070792E+03 0.  0.
          2    1    1    2  501    0 -0.41922735916E+00 -0.25753444101E+02 -0.77802235266E+02  0.81954886658E+02  0.00000000000E+00 0. -1.
          1    1    1    2  502    0  0.72942650150E+02  0.26365174291E+02  0.14731005358E+02  0.78947800129E+02  0.00000000000E+00 0. -1.
         22    1    3    3    0    0 -0.59995353362E+02 -0.24348582707E+02  0.58081630817E+02  0.86981444821E+02  0.00000000000E+00 0. -1.
         22    1    3    3    0    0 -0.12528069429E+02  0.23736852517E+02 -0.51083074787E+02  0.57705036355E+02  0.00000000000E+00 0. -1.
</event>
<event>
 7    1  0.9206972E-006  0.8805719E+02  0.7818608E-02  0.1322676E+00
          2   -1    0    0  502    0  0.00000000000E+00  0.00000000000E+00  0.98535873647E+03  0.98535873647E+03  0.00000000000E+00 0. -1.
          1   -1    0    0  501    0 -0.00000000000E+00 -0.00000000000E+00 -0.29767159990E+04  0.29767159990E+04  0.00000000000E+00 0. -1.
         25    2    1    2    0    0 -0.44759529032E+02 -0.12412580128E+03 -0.77715211970E+03  0.79812354380E+03  0.12500057617E+03 0.  0.
          2    1    1    2  501    0  0.66382613665E+02  0.38820301395E+02 -0.21864147651E+04  0.21877667134E+04  0.00000000000E+00 0. -1.
          1    1    1    2  502    0 -0.21623084633E+02  0.85305499888E+02  0.97220962223E+03  0.97618447829E+03  0.00000000000E+00 0. -1.
         22    1    3    3    0    0 -0.28671356604E+02 -0.10049527339E+03 -0.26049229873E+03  0.28067344791E+03  0.00000000000E+00 0.  1.
         22    1    3    3    0    0 -0.16088172427E+02 -0.23630527888E+02 -0.51665982097E+03  0.51745009589E+03  0.00000000000E+00 0.  1.
</event>
<event>
 7    1  0.5993218E-006  0.7347327E+02  0.7818608E-02  0.1486526E+00
          2   -1    0    0  502    0  0.00000000000E+00  0.00000000000E+00  0.31286455692E+03  0.31286455692E+03  0.00000000000E+00 0. -1.
          1   -1    0    0  501    0 -0.00000000000E+00 -0.00000000000E+00 -0.79360702838E+03  0.79360702838E+03  0.00000000000E+00 0. -1.
         25    2    1    2    0    0 -0.35672775671E+02 -0.35808389864E+02 -0.49988762382E+03  0.51775241360E+03  0.12500055051E+03 0.  0.
          2    1    1    2  501    0 -0.24304495333E+02 -0.69890962843E+01 -0.27974266833E+03  0.28088345705E+03  0.00000000000E+00 0. -1.
          1    1    1    2  502    0  0.59977271004E+02  0.42797486148E+02  0.29888782069E+03  0.30783571465E+03  0.00000000000E+00 0. -1.
         22    1    3    3    0    0 -0.79681411278E+02 -0.39426077121E+02 -0.29231362069E+03  0.30553362450E+03  0.00000000000E+00 0. -1.
         22    1    3    3    0    0  0.44008635607E+02  0.36176872578E+01 -0.20757400314E+03  0.21221878910E+03  0.00000000000E+00 0. -1.
</event>
<event>
 7    1  0.5993218E-006  0.5009028E+02  0.7818608E-02  0.1474254E+00
          2   -1    0    0  502    0  0.00000000000E+00  0.00000000000E+00  0.12335457645E+04  0.12335457645E+04  0.00000000000E+00 0. -1.
          1   -1    0    0  501    0 -0.00000000000E+00 -0.00000000000E+00 -0.37400343037E+03  0.37400343037E+03  0.00000000000E+00 0. -1.
         25    2    1    2    0    0 -0.34731950004E+01 -0.96494848989E+01  0.12007795601E+03  0.17363705797E+03  0.12500374690E+03 0.  0.
          2    1    1    2  501    0  0.23361205067E+02  0.44875272820E+02 -0.34500191604E+03  0.34869163754E+03  0.00000000000E+00 0. -1.
          1    1    1    2  502    0 -0.19888010066E+02 -0.35225787921E+02  0.10844662941E+04  0.10852204993E+04  0.00000000000E+00 0. -1.
         22    1    3    3    0    0 -0.17499386195E+02  0.27262725701E+02  0.12912484483E+03  0.13312667007E+03  0.00000000000E+00 0.  1.
         22    1    3    3    0    0  0.14026191195E+02 -0.36912210600E+02 -0.90468888233E+01  0.40510387905E+02  0.00000000000E+00 0.  1.
</event>
<event>
 7    1  0.5993218E-006  0.1423420E+03  0.7818608E-02  0.1362661E+00
          2   -1    0    0  502    0  0.00000000000E+00  0.00000000000E+00  0.18569108994E+04  0.18569108994E+04  0.00000000000E+00 0. -1.
          1   -1    0    0  501    0 -0.00000000000E+00 -0.00000000000E+00 -0.32199690381E+03  0.32199690381E+03  0.00000000000E+00 0. -1.
         25    2    1    2    0    0 -0.51489293238E+02 -0.16417875608E+03  0.44333525047E+03  0.49170772762E+03  0.12499813530E+03 0.  0.
          2    1    1    2  501    0  0.53982266222E+02  0.13058041917E+03 -0.28083220213E+03  0.31437566173E+03  0.00000000000E+00 0. -1.
          1    1    1    2  502    0 -0.24929729847E+01  0.33598336910E+02  0.13724109472E+04  0.13728244138E+04  0.00000000000E+00 0. -1.
         22    1    3    3    0    0 -0.43066802570E+02 -0.18403111895E+03  0.37317825693E+03  0.41831114457E+03  0.00000000000E+00 0.  1.
         22    1    3    3    0    0 -0.84224906677E+01  0.19852362878E+02  0.70156993537E+02  0.73396583047E+02  0.00000000000E+00 0.  1.
</event>
<event>
 7    1  0.5993218E-006  0.9345388E+02  0.7818608E-02  0.1357455E+00
          2   -1    0    0  502    0  0.00000000000E+00  0.00000000000E+00  0.24515189611E+04  0.24515189611E+04  0.00000000000E+00 0. -1.
          1   -1    0    0  501    0 -0.00000000000E+00 -0.00000000000E+00 -0.37714637782E+03  0.37714637782E+03  0.00000000000E+00 0. -1.
         25    2    1    2    0    0 -0.29286383796E+02 -0.32243890460E+02  0.22611798812E+03  0.26201408091E+03  0.12499869317E+03 0.  0.
          2    1    1    2  501    0 -0.44798302333E+02 -0.29446705193E+02 -0.35613860335E+03  0.36015094215E+03  0.00000000000E+00 0. -1.
          1    1    1    2  502    0  0.74084686130E+02  0.61690595653E+02  0.22043931985E+04  0.22065003159E+04  0.00000000000E+00 0. -1.
         22    1    3    3    0    0 -0.61887670600E+02 -0.24113014436E+02  0.21737416969E+03  0.22729507449E+03  0.00000000000E+00 0. -1.
         22    1    3    3    0    0  0.32601286804E+02 -0.81308760234E+01  0.87438184356E+01  0.34719006423E+02  0.00000000000E+00 0. -1.
</event>
<event>
 7    1  0.5993218E-006  0.7637766E+02  0.7818608E-02  0.1491570E+00
          2   -1    0    0  502    0  0.00000000000E+00  0.00000000000E+00  0.21591447986E+04  0.21591447986E+04  0.00000000000E+00 0. -1.
          1   -1    0    0  501    0 -0.00000000000E+00 -0.00000000000E+00 -0.51136480609E+03  0.51136480609E+03  0.00000000000E+00 0. -1.
         25    2    1    2    0    0 -0.26166007153E+01 -0.98413734553E+02  0.76041684961E+03  0.77688511151E+03  0.12499832623E+03 0.  0.
          2    1    1    2  501    0 -0.48408694535E+01  0.76142354158E+02 -0.50013828292E+03  0.50592429686E+03  0.00000000000E+00 0. -1.
          1    1    1    2  502    0  0.74574701688E+01  0.22271380395E+02  0.13875014258E+04  0.13877001964E+04  0.00000000000E+00 0. -1.
         22    1    3    3    0    0 -0.25830113163E+02 -0.11620623513E+03  0.69642685482E+03  0.70652774039E+03  0.00000000000E+00 0.  1.
         22    1    3    3    0    0  0.23213512448E+02  0.17792500575E+02  0.63989994794E+02  0.70357371118E+02  0.00000000000E+00 0.  1.
</event>
<event>
 7    1  0.5993218E-006  0.4149262E+02  0.7818608E-02  0.1516978E+00
          2   -1    0    0  502    0  0.00000000000E+00  0.00000000000E+00  0.16314555886E+04  0.16314555886E+04  0.00000000000E+00 0. -1.
          1   -1    0    0  501    0 -0.00000000000E+00 -0.00000000000E+00 -0.77610923733E+03  0.77610923733E+03  0.00000000000E+00 0. -1.
         25    2    1    2    0    0 -0.35229780898E+01  0.10468748692E+02 -0.15390491784E+02  0.12642388390E+03  0.12499650039E+03 0.  0.
          2    1    1    2  501    0  0.27932460053E+02  0.23252484337E+02 -0.70445860825E+03  0.70539551394E+03  0.00000000000E+00 0. -1.
          1    1    1    2  502    0 -0.24409481963E+02 -0.33721233028E+02  0.15751954513E+04  0.15757454281E+04  0.00000000000E+00 0. -1.
         22    1    3    3    0    0  0.31263768394E+02 -0.32572376338E+02  0.30538207223E+02  0.54506559375E+02  0.00000000000E+00 0.  1.
         22    1    3    3    0    0 -0.34786746484E+02  0.43041125029E+02 -0.45928699007E+02  0.71917324528E+02  0.00000000000E+00 0.  1.
</event>
<event>
 7    1  0.5993218E-006  0.1090240E+03  0.7818608E-02  0.1310581E+00
          2   -1    0    0  502    0  0.00000000000E+00  0.00000000000E+00  0.37555399394E+03  0.37555399394E+03  0.00000000000E+00 0. -1.
          1   -1    0    0  501    0 -0.00000000000E+00 -0.00000000000E+00 -0.14089977177E+04  0.14089977177E+04  0.00000000000E+00 0. -1.
         25    2    1    2    0    0 -0.22898778006E+01  0.12674765149E+03 -0.12747855130E+03  0.21896439649E+03  0.12499766073E+03 0.  0.
          2    1    1    2  501    0  0.61185824439E+02 -0.90343983702E+02 -0.12296998521E+04  0.12345312741E+04  0.00000000000E+00 0. -1.
          1    1    1    2  502    0 -0.58895946638E+02 -0.36403667793E+02  0.32373467960E+03  0.33105604108E+03  0.00000000000E+00 0. -1.
         22    1    3    3    0    0  0.55079006337E+02  0.62197440825E+02 -0.96215373068E+02  0.12712048064E+03  0.00000000000E+00 0. -1.
         22    1    3    3    0    0 -0.57368884138E+02  0.64550210669E+02 -0.31263178236E+02  0.91843915847E+02  0.00000000000E+00 0. -1.
</event>
<event>
 7    1  0.5993218E-006  0.8567265E+02  0.7818608E-02  0.1341750E+00
          2   -1    0    0  502    0  0.00000000000E+00  0.00000000000E+00  0.12726942290E+04  0.12726942290E+04  0.00000000000E+00 0. -1.
          1   -1    0    0  501    0 -0.00000000000E+00 -0.00000000000E+00 -0.97946258635E+02  0.97946258635E+02  0.00000000000E+00 0. -1.
         25    2    1    2    0    0 -0.15535620341E+02 -0.16180506681E+02  0.34078060335E+02  0.13145913632E+03  0.12496810005E+03 0.  0.
          2    1    1    2  501    0 -0.22889757106E+02 -0.62829143764E+02 -0.24117509882E+02  0.71085136065E+02  0.00000000000E+00 0. -1.
          1    1    1    2  502    0  0.38425377447E+02  0.79009650445E+02  0.11647874199E+04  0.11680962152E+04  0.00000000000E+00 0. -1.
         22    1    3    3    0    0 -0.10763030703E+02 -0.10861954647E+02 -0.47329583254E+02  0.49738459362E+02  0.00000000000E+00 0.  1.
         22    1    3    3    0    0 -0.47725896385E+01 -0.53185520345E+01  0.81407643589E+02  0.81720676957E+02  0.00000000000E+00 0.  1.
</event>
<event>
 7    1  0.5993218E-006  0.4055498E+02  0.7818608E-02  0.1530323E+00
          2   -1    0    0  502    0  0.00000000000E+00  0.00000000000E+00  0.14602064957E+04  0.14602064957E+04  0.00000000000E+00 0. -1.
          1   -1    0    0  501    0 -0.00000000000E+00 -0.00000000000E+00 -0.12673527499E+03  0.12673527499E+03  0.00000000000E+00 0. -1.
         25    2    1    2    0    0 -0.25660175966E+02 -0.25566460294E+02  0.11334156707E+04  0.11408626570E+04  0.12499772440E+03 0.  0.
          2    1    1    2  501    0 -0.20736792063E+02  0.26975794175E+02 -0.11894661641E+03  0.12371744247E+03  0.00000000000E+00 0. -1.
          1    1    1    2  502    0  0.46396968029E+02 -0.14093338801E+01  0.31900216644E+03  0.32236167120E+03  0.00000000000E+00 0. -1.
         22    1    3    3    0    0  0.22754028964E+02  0.74375313084E+01  0.45880490344E+02  0.51750189374E+02  0.00000000000E+00 0.  1.
         22    1    3    3    0    0 -0.48414204930E+02 -0.33003991603E+02  0.10875351804E+04  0.10891124677E+04  0.00000000000E+00 0.  1.
</event>
<event>
 7    1  0.5993218E-006  0.1084314E+03  0.7818608E-02  0.1329795E+00
          2   -1    0    0  502    0  0.00000000000E+00  0.00000000000E+00  0.52003823145E+03  0.52003823145E+03  0.00000000000E+00 0. -1.
          1   -1    0    0  501    0 -0.00000000000E+00 -0.00000000000E+00 -0.20628888524E+03  0.20628888524E+03  0.00000000000E+00 0. -1.
         25    2    1    2    0    0  0.29858060877E+02  0.15913303295E+03  0.36990155888E+02  0.20786599826E+03  0.12500070249E+03 0.  0.
          2    1    1    2  501    0 -0.18525793822E+02 -0.55634875387E+02 -0.10635633134E+03  0.12145004574E+03  0.00000000000E+00 0. -1.
          1    1    1    2  502    0 -0.11332267055E+02 -0.10349815756E+03  0.38311552166E+03  0.39701107268E+03  0.00000000000E+00 0. -1.
         22    1    3    3    0    0  0.28010996756E+02  0.11207361993E+03 -0.36000294594E+02  0.12100055138E+03  0.00000000000E+00 0.  1.
         22    1    3    3    0    0  0.18470641206E+01  0.47059413018E+02  0.72990450482E+02  0.86865446876E+02  0.00000000000E+00 0.  1.
</event>
<event>
 7    1  0.5993218E-006  0.6340875E+02  0.7818608E-02  0.1433421E+00
          2   -1    0    0  502    0  0.00000000000E+00  0.00000000000E+00  0.60425777078E+03  0.60425777078E+03  0.00000000000E+00 0. -1.
          1   -1    0    0  501    0 -0.00000000000E+00 -0.00000000000E+00 -0.10816082575E+04  0.10816082575E+04  0.00000000000E+00 0. -1.
         25    2    1    2    0    0  0.81916284397E+02  0.53993808516E+02  0.11693940814E+03  0.19728943652E+03  0.12499074997E+03 0.  0.
          2    1    1    2  501    0 -0.42639257736E+02 -0.63095911088E+01 -0.10388503853E+04  0.10397442187E+04  0.00000000000E+00 0. -1.
          1    1    1    2  502    0 -0.39277026660E+02 -0.47684217407E+02  0.44456049047E+03  0.44883237305E+03  0.00000000000E+00 0. -1.
         22    1    3    3    0    0  0.84698270804E+02  0.63170730368E+02  0.30020813923E+02  0.10984346827E+03  0.00000000000E+00 0.  1.
         22    1    3    3    0    0 -0.27819864070E+01 -0.91769218523E+01  0.86918594216E+02  0.87445968252E+02  0.00000000000E+00 0.  1.
</event>
<event>
 7    1  0.5993218E-006  0.5858622E+02  0.7818608E-02  0.1482054E+00
          2   -1    0    0  502    0  0.00000000000E+00  0.00000000000E+00  0.20111749486E+04  0.20111749486E+04  0.00000000000E+00 0. -1.
          1   -1    0    0  501    0 -0.00000000000E+00 -0.00000000000E+00 -0.30047567927E+03  0.30047567927E+03  0.00000000000E+00 0. -1.
         25    2    1    2    0    0  0.81299033646E+02 -0.14600600317E+02  0.40568090353E+02  0.15522045058E+03  0.12499963168E+03 0.  0.
          2    1    1    2  501    0 -0.29928287661E+02 -0.13243027404E+02 -0.24159983820E+03  0.24380640269E+03  0.00000000000E+00 0. -1.
          1    1    1    2  502    0 -0.51370745984E+02  0.27843627721E+02  0.19117310171E+04  0.19126237746E+04  0.00000000000E+00 0. -1.
         22    1    3    3    0    0  0.16155535961E+02 -0.33796920713E+02  0.71404944468E+02  0.80634355496E+02  0.00000000000E+00 0. -1.
         22    1    3    3    0    0  0.65143497685E+02  0.19196320396E+02 -0.30836854115E+02  0.74586095079E+02  0.00000000000E+00 0. -1.
</event>
<event>
 7    1  0.5993218E-006  0.7993733E+02  0.7818608E-02  0.1340493E+00
          2   -1    0    0  502    0  0.00000000000E+00  0.00000000000E+00  0.36453102778E+03  0.36453102778E+03  0.00000000000E+00 0. -1.
          1   -1    0    0  501    0 -0.00000000000E+00 -0.00000000000E+00 -0.15567251566E+04  0.15567251566E+04  0.00000000000E+00 0. -1.
         25    2    1    2    0    0 -0.79396269056E+01  0.77198890808E+01 -0.97493669504E+02  0.15891266696E+03  0.12500234303E+03 0.  0.
          2    1    1    2  501    0  0.76148604479E+02 -0.32144646208E+02 -0.14233778684E+04  0.14257757343E+04  0.00000000000E+00 0. -1.
          1    1    1    2  502    0 -0.68208977573E+02  0.24424757127E+02  0.32867740910E+03  0.33656778312E+03  0.00000000000E+00 0. -1.
         22    1    3    3    0    0  0.31649263219E+02  0.44828247908E+02 -0.88176114089E+02  0.10385699191E+03  0.00000000000E+00 0. -1.
         22    1    3    3    0    0 -0.39588890124E+02 -0.37108358827E+02 -0.93175554148E+01  0.55055675048E+02  0.00000000000E+00 0. -1.
</event>
<event>
 7    1  0.5993218E-006  0.1187447E+03  0.7818608E-02  0.1263645E+00
          2   -1    0    0  502    0  0.00000000000E+00  0.00000000000E+00  0.64934060674E+03  0.64934060674E+03  0.00000000000E+00 0. -1.
          1   -1    0    0  501    0 -0.00000000000E+00 -0.00000000000E+00 -0.17254881917E+04  0.17254881917E+04  0.00000000000E+00 0. -1.
         25    2    1    2    0    0 -0.70335824328E+02  0.44732900313E+02 -0.74069506028E+02  0.16750924881E+03  0.12499958464E+03 0.  0.
          2    1    1    2  501    0  0.84655761118E+01 -0.12186038344E+03 -0.15982966204E+04  0.16029577991E+04  0.00000000000E+00 0. -1.
          1    1    1    2  502    0  0.61870248216E+02  0.77127483130E+02  0.59621854147E+03  0.60436175049E+03  0.00000000000E+00 0. -1.
         22    1    3    3    0    0 -0.10475409430E+03  0.46363238841E+02 -0.65669102127E+02  0.13204317916E+03  0.00000000000E+00 0.  1.
         22    1    3    3    0    0  0.34418269968E+02 -0.16303385277E+01 -0.84004039006E+01  0.35466069658E+02  0.00000000000E+00 0.  1.
</event>
<event>
 7    1  0.5993218E-006  0.6845507E+02  0.7818608E-02  0.1444792E+00
          2   -1    0    0  502    0  0.00000000000E+00  0.00000000000E+00  0.15506113854E+03  0.15506113854E+03  0.00000000000E+00 0. -1.
          1   -1    0    0  501    0 -0.00000000000E+00 -0.00000000000E+00 -0.36553257268E+04  0.36553257268E+04  0.00000000000E+00 0. -1.
         25    2    1    2    0    0  0.80399060785E+02 -0.66223336768E+02 -0.44204333170E+03  0.47103847181E+03  0.12500158206E+03 0.  0.
          2    1    1    2  501    0 -0.50860724681E+02  0.44494595611E+02 -0.31960300290E+04  0.31967443640E+04  0.00000000000E+00 0. -1.
          1    1    1    2  502    0 -0.29538336104E+02  0.21728741157E+02  0.13780877243E+03  0.14260402957E+03  0.00000000000E+00 0. -1.
         22    1    3    3    0    0  0.86681775471E+02 -0.82265211097E+02 -0.23847694435E+03  0.26674434978E+03  0.00000000000E+00 0. -1.
         22    1    3    3    0    0 -0.62827146867E+01  0.16041874329E+02 -0.20356638735E+03  0.20429412202E+03  0.00000000000E+00 0. -1.
</event>
<event>
 7    1  0.5993218E-006  0.1001636E+03  0.7818608E-02  0.1397179E+00
          2   -1    0    0  502    0  0.00000000000E+00  0.00000000000E+00  0.93005580185E+02  0.93005580185E+02  0.00000000000E+00 0. -1.
          1   -1    0    0  501    0 -0.00000000000E+00 -0.00000000000E+00 -0.13102902485E+04  0.13102902485E+04  0.00000000000E+00 0. -1.
         25    2    1    2    0    0 -0.47222046514E+02 -0.86058688015E+02 -0.24123162219E+03  0.28888953634E+03  0.12501379605E+03 0.  0.
          2    1    1    2  501    0  0.13896449064E+02  0.10001052799E+03 -0.10378894106E+04  0.10427893583E+04  0.00000000000E+00 0. -1.
          1    1    1    2  502    0  0.33325597450E+02 -0.13951839971E+02  0.61836364462E+02  0.71616934128E+02  0.00000000000E+00 0. -1.
         22    1    3    3    0    0 -0.36607603141E+01 -0.95493757969E+02 -0.90167942845E+02  0.13138765883E+03  0.00000000000E+00 0. -1.
         22    1    3    3    0    0 -0.43561286200E+02  0.94350699536E+01 -0.15106367935E+03  0.15750187751E+03  0.00000000000E+00 0. -1.
</event>
<event>
 7    1  0.5993218E-006  0.3629841E+02  0.7818608E-02  0.1578123E+00
          2   -1    0    0  502    0  0.00000000000E+00  0.00000000000E+00  0.48651611899E+03  0.48651611899E+03  0.00000000000E+00 0. -1.
          1   -1    0    0  501    0 -0.00000000000E+00 -0.00000000000E+00 -0.37832829440E+02  0.37832829440E+02  0.00000000000E+00 0. -1.
         25    2    1    2    0    0 -0.47506320901E+02  0.18345621093E+02  0.10998221240E+03  0.17411649716E+03  0.12500822052E+03 0.  0.
          2    1    1    2  501    0  0.32165621807E+02  0.50913103813E+01  0.46944836118E+02  0.57134633155E+02  0.00000000000E+00 0. -1.
          1    1    1    2  502    0  0.15340699094E+02 -0.23436931474E+02  0.29175624103E+03  0.29309781811E+03  0.00000000000E+00 0. -1.
         22    1    3    3    0    0  0.31258401264E+02  0.12907078281E+02  0.84721225253E+02  0.91221523380E+02  0.00000000000E+00 0. -1.
         22    1    3    3    0    0 -0.78764722165E+02  0.54385428114E+01  0.25260987147E+02  0.82894973776E+02  0.00000000000E+00 0. -1.
</event>
<event>
 7    1  0.5993218E-006  0.5740902E+02  0.7818608E-02  0.1456902E+00
          2   -1    0    0  502    0  0.00000000000E+00  0.00000000000E+00  0.65865988763E+03  0.65865988763E+03  0.00000000000E+00 0. -1.
          1   -1    0    0  501    0 -0.00000000000E+00 -0.00000000000E+00 -0.85093468819E+03  0.85093468819E+03  0.00000000000E+00 0. -1.
         25    2    1    2    0    0 -0.93939935403E+02  0.12246042288E+02 -0.43339721393E+02  0.16271970657E+03  0.12499877776E+03 0.  0.
          2    1    1    2  501    0  0.39681644980E+02  0.50149108552E+01 -0.74601492242E+03  0.74708637168E+03  0.00000000000E+00 0. -1.
          1    1    1    2  502    0  0.54258290423E+02 -0.17260953143E+02  0.59707984326E+03  0.59978849756E+03  0.00000000000E+00 0. -1.
         22    1    3    3    0    0 -0.21701281314E+01  0.33519995244E+02  0.28657541593E+02  0.44153756662E+02  0.00000000000E+00 0.  1.
         22    1    3    3    0    0 -0.91769807272E+02 -0.21273952956E+02 -0.71997262986E+02  0.11856594991E+03  0.00000000000E+00 0.  1.
</event>
<event>
 7    1  0.5993218E-006  0.3687245E+02  0.7818608E-02  0.1534151E+00
          2   -1    0    0  502    0  0.00000000000E+00  0.00000000000E+00  0.29015615868E+03  0.29015615868E+03  0.00000000000E+00 0. -1.
          1   -1    0    0  501    0 -0.00000000000E+00 -0.00000000000E+00 -0.51507270267E+02  0.51507270267E+02  0.00000000000E+00 0. -1.
         25    2    1    2    0    0  0.81308341070E+01  0.35379026948E+02  0.72480484335E+02  0.14898799483E+03  0.12500486384E+03 0.  0.
          2    1    1    2  501    0  0.27927757962E+02 -0.23489526045E+02  0.19913190701E+02  0.41572258328E+02  0.00000000000E+00 0. -1.
          1    1    1    2  502    0 -0.36058592069E+02 -0.11889500903E+02  0.14625521338E+03  0.15110317579E+03  0.00000000000E+00 0. -1.
         22    1    3    3    0    0 -0.42460762372E+02  0.38704584640E+02  0.79199038162E+02  0.97844002673E+02  0.00000000000E+00 0. -1.
         22    1    3    3    0    0  0.50591596479E+02 -0.33255576914E+01 -0.67185538267E+01  0.51143992157E+02  0.00000000000E+00 0. -1.
</event>
<event>
 7    1  0.5993218E-006  0.2474012E+02  0.7818608E-02  0.1673636E+00
          2   -1    0    0  502    0  0.00000000000E+00  0.00000000000E+00  0.83221300430E+03  0.83221300430E+03  0.00000000000E+00 0. -1.
          1   -1    0    0  501    0 -0.00000000000E+00 -0.00000000000E+00 -0.58149285669E+02  0.58149285669E+02  0.00000000000E+00 0. -1.
         25    2    1    2    0    0 -0.14022943116E+02  0.11648279826E+02  0.27619482021E+02  0.12931338199E+03  0.12500715826E+03 0.  0.
          2    1    1    2  501    0 -0.12032814692E+01 -0.29625583287E+02  0.23799488537E+02  0.38020241004E+02  0.00000000000E+00 0. -1.
          1    1    1    2  502    0  0.15226224585E+02  0.17977303461E+02  0.72264474807E+03  0.72302866698E+03  0.00000000000E+00 0. -1.
         22    1    3    3    0    0 -0.44032700516E+02  0.48623191311E+02  0.43961704139E+02  0.78966606098E+02  0.00000000000E+00 0. -1.
         22    1    3    3    0    0  0.30009757400E+02 -0.36974911485E+02 -0.16342222117E+02  0.50346775887E+02  0.00000000000E+00 0. -1.
</event>
<event>
 7    1  0.5993218E-006  0.7101369E+02  0.7818608E-02  0.1390297E+00
          2   -1    0    0  502    0  0.00000000000E+00  0.00000000000E+00  0.10584040883E+04  0.10584040883E+04  0.00000000000E+00 0. -1.
          1   -1    0    0  501    0 -0.00000000000E+00 -0.00000000000E+00 -0.48828452238E+03  0.48828452238E+03  0.00000000000E+00 0. -1.
         25    2    1    2    0    0  0.41797831649E+02 -0.10500405133E+03 -0.26320516820E+03  0.31252753333E+03  0.12499435585E+03 0.  0.
          2    1    1    2  501    0 -0.36406490707E+02  0.51435802571E+02 -0.19474282550E+03  0.20468473913E+03  0.00000000000E+00 0. -1.
          1    1    1    2  502    0 -0.53913409425E+01  0.53568248755E+02  0.10280675596E+04  0.10294763382E+04  0.00000000000E+00 0. -1.
         22    1    3    3    0    0  0.32724137901E+02 -0.11146311004E+03 -0.27363254408E+03  0.29727035385E+03  0.00000000000E+00 0. -1.
         22    1    3    3    0    0  0.90736937478E+01  0.64590587173E+01  0.10427375878E+02  0.15257179472E+02  0.00000000000E+00 0. -1.
</event>
<event>
 7    1  0.5993218E-006  0.1047053E+03  0.7818608E-02  0.1398191E+00
          2   -1    0    0  502    0  0.00000000000E+00  0.00000000000E+00  0.13091755083E+04  0.13091755083E+04  0.00000000000E+00 0. -1.
          1   -1    0    0  501    0 -0.00000000000E+00 -0.00000000000E+00 -0.58698620678E+03  0.58698620678E+03  0.00000000000E+00 0. -1.
         25    2    1    2    0    0  0.54929373177E+02  0.81945114877E+02 -0.26889698844E+03  0.31251195426E+03  0.12500357304E+03 0.  0.
          2    1    1    2  501    0 -0.85902764175E+02 -0.67245847446E+02 -0.28600166968E+03  0.30610168891E+03  0.00000000000E+00 0. -1.
          1    1    1    2  502    0  0.30973390998E+02 -0.14699267431E+02  0.12770879597E+04  0.12775480720E+04  0.00000000000E+00 0. -1.
         22    1    3    3    0    0  0.27586633769E+02 -0.26538988307E+02 -0.29719802355E+02  0.48462427870E+02  0.00000000000E+00 0.  1.
         22    1    3    3    0    0  0.27342739408E+02  0.10848410318E+03 -0.23917718609E+03  0.26404952639E+03  0.00000000000E+00 0.  1.
</event>
<event>
 7    1  0.5993218E-006  0.7800959E+02  0.7818608E-02  0.1447498E+00
          2   -1    0    0  502    0  0.00000000000E+00  0.00000000000E+00  0.12344842782E+03  0.12344842782E+03  0.00000000000E+00 0. -1.
          1   -1    0    0  501    0 -0.00000000000E+00 -0.00000000000E+00 -0.22649449043E+04  0.22649449043E+04  0.00000000000E+00 0. -1.
         25    2    1    2    0    0 -0.83855449161E+02 -0.66493154417E+02 -0.64687333536E+03  0.66747570928E+03  0.12500253816E+03 0.  0.
          2    1    1    2  501    0  0.58429534238E+02  0.47830978950E+02 -0.16046672543E+04  0.16064429060E+04  0.00000000000E+00 0. -1.
          1    1    1    2  502    0  0.25425914923E+02  0.18662175467E+02  0.11004411322E+03  0.11447471685E+03  0.00000000000E+00 0. -1.
         22    1    3    3    0    0 -0.76827292164E+02 -0.32652429682E+02 -0.17038787823E+03  0.18973835414E+03  0.00000000000E+00 0.  1.
         22    1    3    3    0    0 -0.70281569967E+01 -0.33840724735E+02 -0.47648545713E+03  0.47773735514E+03  0.00000000000E+00 0.  1.
</event>
<event>
 7    1  0.5993218E-006  0.2015801E+03  0.7818608E-02  0.1365268E+00
          2   -1    0    0  502    0  0.00000000000E+00  0.00000000000E+00  0.14455018566E+04  0.14455018566E+04  0.00000000000E+00 0. -1.
          1   -1    0    0  501    0 -0.00000000000E+00 -0.00000000000E+00 -0.20108883059E+04  0.20108883059E+04  0.00000000000E+00 0. -1.
         25    2    1    2    0    0  0.21828398794E+03 -0.52199515389E+02  0.77284347717E+03  0.81442294736E+03  0.12500003279E+03 0.  0.
          2    1    1    2  501    0 -0.19666485717E+03  0.43570456768E+02 -0.19847914250E+04  0.19949868299E+04  0.00000000000E+00 0. -1.
          1    1    1    2  502    0 -0.21619130772E+02  0.86290586210E+01  0.64656149853E+03  0.64698038521E+03  0.00000000000E+00 0. -1.
         22    1    3    3    0    0  0.54345331956E+02 -0.73591621068E+02  0.28563095200E+03  0.29992362784E+03  0.00000000000E+00 0.  1.
         22    1    3    3    0    0  0.16393865599E+03  0.21392105679E+02  0.48721252517E+03  0.51449931952E+03  0.00000000000E+00 0.  1.
</event>
<event>
 7    1  0.5993218E-006  0.6700860E+02  0.7818608E-02  0.1452517E+00
          2   -1    0    0  502    0  0.00000000000E+00  0.00000000000E+00  0.35712154525E+03  0.35712154525E+03  0.00000000000E+00 0. -1.
          1   -1    0    0  501    0 -0.00000000000E+00 -0.00000000000E+00 -0.64714081647E+03  0.64714081647E+03  0.00000000000E+00 0. -1.
         25    2    1    2    0    0  0.49147870210E+02  0.36929630144E+02 -0.23382430919E+03  0.27217234119E+03  0.12499866004E+03 0.  0.
          2    1    1    2  501    0 -0.24458204141E+02  0.25571067712E+02 -0.38999287370E+03  0.39159484776E+03  0.00000000000E+00 0. -1.
          1    1    1    2  502    0 -0.24689666069E+02 -0.62500697856E+02  0.33379791168E+03  0.34049517277E+03  0.00000000000E+00 0. -1.
         22    1    3    3    0    0  0.57209549161E+02  0.25465403854E+02 -0.32858540261E+02  0.70718476912E+02  0.00000000000E+00 0.  1.
         22    1    3    3    0    0 -0.80616789505E+01  0.11464226290E+02 -0.20096576893E+03  0.20145386428E+03  0.00000000000E+00 0.  1.
</event>
<event>
 7    1  0.5993218E-006  0.7328280E+02  0.7818608E-02  0.1462561E+00
          2   -1    0    0  502    0  0.00000000000E+00  0.00000000000E+00  0.69665720429E+03  0.69665720429E+03  0.00000000000E+00 0. -1.
          1   -1    0    0  501    0 -0.00000000000E+00 -0.00000000000E+00 -0.84483032343E+03  0.84483032343E+03  0.00000000000E+00 0. -1.
         25    2    1    2    0    0 -0.94474510079E+02  0.40930088913E+02 -0.37291587589E+03  0.40655995266E+03  0.12499615749E+03 0.  0.
          2    1    1    2  501    0  0.28716461677E+02 -0.89242055484E+01 -0.45262521635E+03  0.45362304074E+03  0.00000000000E+00 0. -1.
          1    1    1    2  502    0  0.65758048402E+02 -0.32005883365E+02  0.67736797310E+03  0.68130453431E+03  0.00000000000E+00 0. -1.
         22    1    3    3    0    0 -0.60785231869E+02  0.84703607388E+02 -0.27559885945E+03  0.29465959487E+03  0.00000000000E+00 0. -1.
         22    1    3    3    0    0 -0.33689278210E+02 -0.43773518475E+02 -0.97317016436E+02  0.11190035779E+03  0.00000000000E+00 0. -1.
</event>
<event>
 7    1  0.5993218E-006  0.8886044E+02  0.7818608E-02  0.1376500E+00
          2   -1    0    0  502    0  0.00000000000E+00  0.00000000000E+00  0.12541078394E+04  0.12541078394E+04  0.00000000000E+00 0. -1.
          1   -1    0    0  501    0 -0.00000000000E+00 -0.00000000000E+00 -0.44423909385E+03  0.44423909385E+03  0.00000000000E+00 0. -1.
         25    2    1    2    0    0  0.65395466606E+02 -0.67497970204E+01 -0.20998158205E+03  0.25306057159E+03  0.12500104511E+03 0.  0.
          2    1    1    2  501    0 -0.93893012011E+02  0.45527390764E+02 -0.19941770996E+03  0.22506902066E+03  0.00000000000E+00 0. -1.
          1    1    1    2  502    0  0.28497545405E+02 -0.38777593743E+02  0.12192680375E+04  0.12202173410E+04  0.00000000000E+00 0. -1.
         22    1    3    3    0    0  0.84563628527E+02  0.13587875938E+02 -0.70863878049E+02  0.11116351404E+03  0.00000000000E+00 0. -1.
         22    1    3    3    0    0 -0.19168161921E+02 -0.20337672958E+02 -0.13911770400E+03  0.14189705755E+03  0.00000000000E+00 0. -1.
</event>
<event>
 7    1  0.1152007E-005  0.1207470E+03  0.7818608E-02  0.1334986E+00
          2   -1    0    0  502    0  0.00000000000E+00  0.00000000000E+00  0.19034615165E+04  0.19034615165E+04  0.00000000000E+00 0. -1.
          1   -1    0    0  501    0 -0.00000000000E+00 -0.00000000000E+00 -0.10342800852E+04  0.10342800852E+04  0.00000000000E+00 0. -1.
         25    2    1    2    0    0  0.12946627867E+03  0.10946959733E+03 -0.24242844289E+03  0.32115743639E+03  0.12500175589E+03 0.  0.
          2    1    1    2  501    0 -0.43685199216E+02 -0.24965108565E+02 -0.74969842905E+03  0.75138497975E+03  0.00000000000E+00 0. -1.
          1    1    1    2  502    0 -0.85781079451E+02 -0.84504488760E+02  0.18613083032E+04  0.18651991856E+04  0.00000000000E+00 0. -1.
         22    1    3    3    0    0  0.10858550809E+03  0.64250578722E+02 -0.24017559931E+03  0.27129922215E+03  0.00000000000E+00 0.  1.
         22    1    3    3    0    0  0.20880770577E+02  0.45219018603E+02 -0.22528435813E+01  0.49858214243E+02  0.00000000000E+00 0.  1.
</event>
<event>
 7    1  0.5993218E-006  0.7367388E+02  0.7818608E-02  0.1483174E+00
          2   -1    0    0  502    0  0.00000000000E+00  0.00000000000E+00  0.20958275987E+04  0.20958275987E+04  0.00000000000E+00 0. -1.
          1   -1    0    0  501    0 -0.00000000000E+00 -0.00000000000E+00 -0.12523670827E+03  0.12523670827E+03  0.00000000000E+00 0. -1.
         25    2    1    2    0    0  0.15723796198E+02 -0.69080933343E+02  0.45957112512E+02  0.15085131982E+03  0.12499860552E+03 0.  0.
          2    1    1    2  501    0 -0.25503383991E+02 -0.40358708961E+01 -0.69796214832E+02  0.74419234434E+02  0.00000000000E+00 0. -1.
          1    1    1    2  502    0  0.97795877932E+01  0.73116804239E+02  0.19944299928E+04  0.19957937528E+04  0.00000000000E+00 0. -1.
         22    1    3    3    0    0 -0.11445622301E+02  0.19969054162E+02 -0.24858047501E+02  0.33877542998E+02  0.00000000000E+00 0.  1.
         22    1    3    3    0    0  0.27169418499E+02 -0.89049987505E+02  0.70815160013E+02  0.11697377682E+03  0.00000000000E+00 0.  1.
</event>
<event>
 7    1  0.5993218E-006  0.2653227E+03  0.7818608E-02  0.1143457E+00
          2   -1    0    0  502    0  0.00000000000E+00  0.00000000000E+00  0.43051164963E+03  0.43051164963E+03  0.00000000000E+00 0. -1.
          1   -1    0    0  501    0 -0.00000000000E+00 -0.00000000000E+00 -0.25232620210E+04  0.25232620210E+04  0.00000000000E+00 0. -1.
         25    2    1    2    0    0 -0.12392494956E+03  0.32686633316E+01  0.11603568825E+02  0.17643027997E+03  0.12499969439E+03 0.  0.
          2    1    1    2  501    0  0.26440330111E+03 -0.84913629419E+02 -0.24127947603E+04  0.24287235300E+04  0.00000000000E+00 0. -1.
          1    1    1    2  502    0 -0.14047835155E+03  0.81644966087E+02  0.30844082008E+03  0.34861986064E+03  0.00000000000E+00 0. -1.
         22    1    3    3    0    0 -0.50288701709E+01  0.47462730969E+02  0.13399297671E+02  0.49573597250E+02  0.00000000000E+00 0.  1.
         22    1    3    3    0    0 -0.11889607939E+03 -0.44194067637E+02 -0.17957288459E+01  0.12685668272E+03  0.00000000000E+00 0.  1.
</event>
<event>
 7    1  0.5993218E-006  0.1041871E+03  0.7818608E-02  0.1345239E+00
          2   -1    0    0  502    0  0.00000000000E+00  0.00000000000E+00  0.85543507719E+03  0.85543507719E+03  0.00000000000E+00 0. -1.
          1   -1    0    0  501    0 -0.00000000000E+00 -0.00000000000E+00 -0.38407421655E+03  0.38407421655E+03  0.00000000000E+00 0. -1.
         25    2    1    2    0    0  0.44816521452E+02  0.14790744918E+03 -0.20637822368E+03  0.28656064200E+03  0.12505957068E+03 0.  0.
          2    1    1    2  501    0 -0.27233357098E+02 -0.45884787722E+02 -0.12899705305E+03  0.13959695262E+03  0.00000000000E+00 0. -1.
          1    1    1    2  502    0 -0.17583164354E+02 -0.10202266146E+03  0.80673613737E+03  0.81335169912E+03  0.00000000000E+00 0. -1.
         22    1    3    3    0    0 -0.36119073865E+02  0.39817444275E+02 -0.10411244950E+03  0.11717260135E+03  0.00000000000E+00 0. -1.
         22    1    3    3    0    0  0.80935595318E+02  0.10809000490E+03 -0.10226577418E+03  0.16938804066E+03  0.00000000000E+00 0. -1.
</event>
<event>
 7    1  0.5993218E-006  0.4617988E+02  0.7818608E-02  0.1491281E+00
          2   -1    0    0  502    0  0.00000000000E+00  0.00000000000E+00  0.26969605432E+02  0.26969605432E+02  0.00000000000E+00 0. -1.
          1   -1    0    0  501    0 -0.00000000000E+00 -0.00000000000E+00 -0.23463821893E+04  0.23463821893E+04  0.00000000000E+00 0. -1.
         25    2    1    2    0    0 -0.14929260333E+02 -0.73290765395E+02 -0.51751858385E+03  0.53762951646E+03  0.12500237290E+03 0.  0.
          2    1    1    2  501    0  0.25281606473E+02  0.29594770940E+02 -0.17884133993E+04  0.17888369117E+04  0.00000000000E+00 0. -1.
          1    1    1    2  502    0 -0.10352346139E+02  0.43695994455E+02 -0.13480600791E+02  0.46885366583E+02  0.00000000000E+00 0. -1.
         22    1    3    3    0    0 -0.43659758561E+02 -0.19626994351E+02 -0.63358646946E+02  0.79408510675E+02  0.00000000000E+00 0.  1.
         22    1    3    3    0    0  0.28730498228E+02 -0.53663771044E+02 -0.45415993691E+03  0.45822100578E+03  0.00000000000E+00 0.  1.
</event>
<event>
 7    1  0.5993218E-006  0.1164997E+03  0.7818608E-02  0.1324580E+00
          2   -1    0    0  502    0  0.00000000000E+00  0.00000000000E+00  0.52370722801E+03  0.52370722801E+03  0.00000000000E+00 0. -1.
          1   -1    0    0  501    0 -0.00000000000E+00 -0.00000000000E+00 -0.21585069908E+04  0.21585069908E+04  0.00000000000E+00 0. -1.
         25    2    1    2    0    0 -0.10141293456E+03  0.23760538503E+02 -0.86595333422E+03  0.88110680589E+03  0.12499951938E+03 0.  0.
          2    1    1    2  501    0  0.95412657404E+02 -0.80595543740E+02 -0.12803467949E+04  0.12864241649E+04  0.00000000000E+00 0. -1.
          1    1    1    2  502    0  0.60002771530E+01  0.56835005237E+02  0.51150036627E+03  0.51468324807E+03  0.00000000000E+00 0. -1.
         22    1    3    3    0    0 -0.50227096585E+02  0.42417361107E+01 -0.76144175872E+03  0.76310831832E+03  0.00000000000E+00 0.  1.
         22    1    3    3    0    0 -0.51185837973E+02  0.19518802392E+02 -0.10451157550E+03  0.11799848757E+03  0.00000000000E+00 0.  1.
</event>
<event>
 7    1  0.5993218E-006  0.7015628E+02  0.7818608E-02  0.1413495E+00
          2   -1    0    0  502    0  0.00000000000E+00  0.00000000000E+00  0.20061032220E+04  0.20061032220E+04  0.00000000000E+00 0. -1.
          1   -1    0    0  501    0 -0.00000000000E+00 -0.00000000000E+00 -0.16798054332E+03  0.16798054332E+03  0.00000000000E+00 0. -1.
         25    2    1    2    0    0 -0.14663752089E+01 -0.59350357731E+02 -0.93323776991E+02  0.16690845420E+03  0.12499795803E+03 0.  0.
          2    1    1    2  501    0 -0.37484079925E+02  0.82626573813E+02  0.17146276839E+02  0.92337434215E+02  0.00000000000E+00 0. -1.
          1    1    1    2  502    0  0.38950455134E+02 -0.23276216083E+02  0.19143001788E+04  0.19148378769E+04  0.00000000000E+00 0. -1.
         22    1    3    3    0    0  0.10380787403E+02  0.36557607370E+02 -0.99680689068E+01  0.39288443612E+02  0.00000000000E+00 0. -1.
         22    1    3    3    0    0 -0.11847162612E+02 -0.95907965101E+02 -0.83355708085E+02  0.12762001059E+03  0.00000000000E+00 0. -1.
</event>
<event>
 7    1  0.5993218E-006  0.1525695E+03  0.7818608E-02  0.1233937E+00
          2   -1    0    0  502    0  0.00000000000E+00  0.00000000000E+00  0.13028253498E+04  0.13028253498E+04  0.00000000000E+00 0. -1.
          1   -1    0    0  501    0 -0.00000000000E+00 -0.00000000000E+00 -0.28862821883E+03  0.28862821883E+03  0.00000000000E+00 0. -1.
         25    2    1    2    0    0  0.22116561539E+02 -0.17987542643E+03 -0.11904211293E+03  0.25028337977E+03  0.12500573671E+03 0.  0.
          2    1    1    2  501    0 -0.95655653818E+02  0.10689273610E+03 -0.51125581625E+02  0.15228225844E+03  0.00000000000E+00 0. -1.
          1    1    1    2  502    0  0.73539092279E+02  0.72982690334E+02  0.11843648255E+04  0.11888879304E+04  0.00000000000E+00 0. -1.
         22    1    3    3    0    0 -0.30126494909E+02 -0.61646390303E+02 -0.97530988331E+02  0.11924838287E+03  0.00000000000E+00 0.  1.
         22    1    3    3    0    0  0.52243056447E+02 -0.11822903613E+03 -0.21511124599E+02  0.13103499690E+03  0.00000000000E+00 0.  1.
</event>
<event>
 7    1  0.5993218E-006  0.1905484E+03  0.7818608E-02  0.1361384E+00
          2   -1    0    0  502    0  0.00000000000E+00  0.00000000000E+00  0.32914004876E+03  0.32914004876E+03  0.00000000000E+00 0. -1.
          1   -1    0    0  501    0 -0.00000000000E+00 -0.00000000000E+00 -0.20288414943E+04  0.20288414943E+04  0.00000000000E+00 0. -1.
         25    2    1    2    0    0  0.78422251905E+02  0.19176898573E+03 -0.17794204644E+03  0.30035333273E+03  0.12499343627E+03 0.  0.
          2    1    1    2  501    0 -0.87282185104E+02 -0.16792373467E+03 -0.17840736417E+04  0.17940834204E+04  0.00000000000E+00 0. -1.
          1    1    1    2  502    0  0.88599331987E+01 -0.23845251058E+02  0.26231424259E+03  0.26354478989E+03  0.00000000000E+00 0. -1.
         22    1    3    3    0    0  0.72944511385E+02  0.16113743766E+03 -0.73792691812E+02  0.19165473363E+03  0.00000000000E+00 0. -1.
         22    1    3    3    0    0  0.54777405198E+01  0.30631548068E+02 -0.10414935463E+03  0.10869859910E+03  0.00000000000E+00 0. -1.
</event>
<event>
 7    1  0.5993218E-006  0.4741950E+02  0.7818608E-02  0.1475267E+00
          2   -1    0    0  502    0  0.00000000000E+00  0.00000000000E+00  0.63058616081E+02  0.63058616081E+02  0.00000000000E+00 0. -1.
          1   -1    0    0  501    0 -0.00000000000E+00 -0.00000000000E+00 -0.43814486291E+03  0.43814486291E+03  0.00000000000E+00 0. -1.
         25    2    1    2    0    0 -0.53253758738E+02  0.12979325423E+02 -0.30334482889E+03  0.33263731657E+03  0.12500029382E+03 0.  0.
          2    1    1    2  501    0  0.23782843722E+02 -0.43495346726E+02 -0.10404005946E+03  0.11524670414E+03  0.00000000000E+00 0. -1.
          1    1    1    2  502    0  0.29470915016E+02  0.30516021303E+02  0.32298641515E+02  0.53319458285E+02  0.00000000000E+00 0. -1.
         22    1    3    3    0    0  0.26373105038E+02  0.39933966252E+02 -0.15392131278E+03  0.16118943159E+03  0.00000000000E+00 0. -1.
         22    1    3    3    0    0 -0.79626863776E+02 -0.26954640829E+02 -0.14942351611E+03  0.17144788498E+03  0.00000000000E+00 0. -1.
</event>
<event>
 7    1  0.5993218E-006  0.9036087E+02  0.7818608E-02  0.1460753E+00
          2   -1    0    0  502    0  0.00000000000E+00  0.00000000000E+00  0.17431404757E+04  0.17431404757E+04  0.00000000000E+00 0. -1.
          1   -1    0    0  501    0 -0.00000000000E+00 -0.00000000000E+00 -0.14320768173E+04  0.14320768173E+04  0.00000000000E+00 0. -1.
         25    2    1    2    0    0 -0.10390694751E+02 -0.11182972831E+03  0.87743701306E+03  0.89338402519E+03  0.12500179959E+03 0.  0.
          2    1    1    2  501    0  0.18360240833E+02  0.88440807973E+02 -0.14224925947E+04  0.14253575190E+04  0.00000000000E+00 0. -1.
          1    1    1    2  502    0 -0.79695460821E+01  0.23388920335E+02  0.85611924002E+03  0.85647574887E+03  0.00000000000E+00 0. -1.
         22    1    3    3    0    0 -0.10657419659E+02 -0.87823929487E+02  0.24486252022E+03  0.26035413765E+03  0.00000000000E+00 0.  1.
         22    1    3    3    0    0  0.26672490797E+00 -0.24005798821E+02  0.63257449284E+03  0.63302988753E+03  0.00000000000E+00 0.  1.
</event>
<event>
 7    1  0.5993218E-006  0.1798910E+03  0.7818608E-02  0.1238320E+00
          2   -1    0    0  502    0  0.00000000000E+00  0.00000000000E+00  0.48712030619E+03  0.48712030619E+03  0.00000000000E+00 0. -1.
          1   -1    0    0  501    0 -0.00000000000E+00 -0.00000000000E+00 -0.77498073170E+03  0.77498073170E+03  0.00000000000E+00 0. -1.
         25    2    1    2    0    0  0.32671687677E+02 -0.17236299042E+03 -0.30754118577E+03  0.37547650135E+03  0.12499832993E+03 0.  0.
          2    1    1    2  501    0 -0.84011737283E+02 -0.13270125029E+01 -0.41095207888E+03  0.41945362569E+03  0.00000000000E+00 0. -1.
          1    1    1    2  502    0  0.51340049606E+02  0.17369000292E+03  0.43063283913E+03  0.46717091085E+03  0.00000000000E+00 0. -1.
         22    1    3    3    0    0 -0.45694909130E+02 -0.84608721469E+02 -0.11583846001E+03  0.15054969042E+03  0.00000000000E+00 0. -1.
         22    1    3    3    0    0  0.78366596807E+02 -0.87754268948E+02 -0.19170272575E+03  0.22492681093E+03  0.00000000000E+00 0. -1.
</event>
<event>
 7    1  0.5993218E-006  0.6735569E+02  0.7818608E-02  0.1408411E+00
          2   -1    0    0  502    0  0.00000000000E+00  0.00000000000E+00  0.50144799247E+03  0.50144799247E+03  0.00000000000E+00 0. -1.
          1   -1    0    0  501    0 -0.00000000000E+00 -0.00000000000E+00 -0.26686331412E+03  0.26686331412E+03  0.00000000000E+00 0. -1.
         25    2    1    2    0    0  0.15408991756E+02 -0.51307020091E+02 -0.23535601825E+02  0.13801648701E+03  0.12499911518E+03 0.  0.
          2    1    1    2  501    0  0.32411917204E+02  0.62753493754E+02 -0.17795348440E+03  0.19145750434E+03  0.00000000000E+00 0. -1.
          1    1    1    2  502    0 -0.47820908960E+02 -0.11446473663E+02  0.43607376458E+03  0.43883731525E+03  0.00000000000E+00 0. -1.
         22    1    3    3    0    0  0.66135735821E+02 -0.23933458808E+02 -0.36047812984E+02  0.79032846488E+02  0.00000000000E+00 0. -1.
         22    1    3    3    0    0 -0.50726744065E+02 -0.27373561282E+02  0.12512211158E+02  0.58983640518E+02  0.00000000000E+00 0. -1.
</event>
<event>
 7    1  0.5993218E-006  0.5053625E+02  0.7818608E-02  0.1500651E+00
          2   -1    0    0  502    0  0.00000000000E+00  0.00000000000E+00  0.72617200620E+03  0.72617200620E+03  0.00000000000E+00 0. -1.
          1   -1    0    0  501    0 -0.00000000000E+00 -0.00000000000E+00 -0.41945713295E+03  0.41945713295E+03  0.00000000000E+00 0. -1.
         25    2    1    2    0    0  0.52432491635E+02  0.17571712256E+02  0.36949915204E+03  0.39396736404E+03  0.12499091692E+03 0.  0.
          2    1    1    2  501    0 -0.48130300626E+02  0.15487745310E+02 -0.40484008856E+03  0.40798516321E+03  0.00000000000E+00 0. -1.
          1    1    1    2  502    0 -0.43021910089E+01 -0.33059457566E+02  0.34205580976E+03  0.34367661191E+03  0.00000000000E+00 0. -1.
         22    1    3    3    0    0  0.39418245166E+02 -0.41813633614E+02  0.27958323183E+03  0.28542768179E+03  0.00000000000E+00 0. -1.
         22    1    3    3    0    0  0.13014246469E+02  0.59385345870E+02  0.89915920210E+02  0.10853968225E+03  0.00000000000E+00 0. -1.
</event>
<event>
 7    1  0.5993218E-006  0.2754961E+03  0.7818608E-02  0.1244645E+00
          2   -1    0    0  502    0  0.00000000000E+00  0.00000000000E+00  0.29478341556E+04  0.29478341556E+04  0.00000000000E+00 0. -1.
          1   -1    0    0  501    0 -0.00000000000E+00 -0.00000000000E+00 -0.59265727044E+03  0.59265727044E+03  0.00000000000E+00 0. -1.
         25    2    1    2    0    0 -0.66375717688E+02 -0.21946307567E+03  0.12529349695E+03  0.28964478823E+03  0.12500346191E+03 0.  0.
          2    1    1    2  501    0 -0.27188766777E+01 -0.51387483936E+02 -0.50203490840E+03  0.50466534956E+03  0.00000000000E+00 0. -1.
          1    1    1    2  502    0  0.69094594366E+02  0.27085055961E+03  0.27319182966E+04  0.27461812882E+04  0.00000000000E+00 0. -1.
         22    1    3    3    0    0  0.19723759562E+02 -0.11413695712E+03  0.96109738161E+02  0.15051031008E+03  0.00000000000E+00 0. -1.
         22    1    3    3    0    0 -0.86099477250E+02 -0.10532611855E+03  0.29183758789E+02  0.13913447814E+03  0.00000000000E+00 0. -1.
</event>
<event>
 7    1  0.5993218E-006  0.8845088E+02  0.7818608E-02  0.1472457E+00
          2   -1    0    0  502    0  0.00000000000E+00  0.00000000000E+00  0.25928097797E+04  0.25928097797E+04  0.00000000000E+00 0. -1.
          1   -1    0    0  501    0 -0.00000000000E+00 -0.00000000000E+00 -0.13521021852E+02  0.13521021852E+02  0.00000000000E+00 0. -1.
         25    2    1    2    0    0  0.76048882097E+02 -0.60482614091E+02  0.64577353799E+03  0.66489893939E+03  0.12500223265E+03 0.  0.
          2    1    1    2  501    0 -0.74441964217E+02  0.37334647666E+02  0.44439973234E+03  0.45213560361E+03  0.00000000000E+00 0. -1.
          1    1    1    2  502    0 -0.16069178797E+01  0.23147966425E+02  0.14891154875E+04  0.14892962586E+04  0.00000000000E+00 0. -1.
         22    1    3    3    0    0  0.11054044166E+03 -0.43030116561E+02  0.51787563742E+03  0.53128707495E+03  0.00000000000E+00 0.  1.
         22    1    3    3    0    0 -0.34491559564E+02 -0.17452497530E+02  0.12789790056E+03  0.13361186444E+03  0.00000000000E+00 0.  1.
</event>
<event>
 7    1  0.5993218E-006  0.8440634E+02  0.7818608E-02  0.1340738E+00
          2   -1    0    0  502    0  0.00000000000E+00  0.00000000000E+00  0.69556930034E+03  0.69556930034E+03  0.00000000000E+00 0. -1.
          1   -1    0    0  501    0 -0.00000000000E+00 -0.00000000000E+00 -0.74952480822E+03  0.74952480822E+03  0.00000000000E+00 0. -1.
         25    2    1    2    0    0 -0.11997293020E+03  0.45094831708E+02 -0.30527345692E+03  0.35389834133E+03  0.12500041870E+03 0.  0.
          2    1    1    2  501    0  0.36748415861E+02 -0.57771538210E+02 -0.41447975296E+03  0.42009696775E+03  0.00000000000E+00 0. -1.
          1    1    1    2  502    0  0.83224514338E+02  0.12676706503E+02  0.66579770199E+03  0.67109879947E+03  0.00000000000E+00 0. -1.
         22    1    3    3    0    0 -0.56153097105E+02  0.78786465422E+02 -0.23048936252E+03  0.24997164576E+03  0.00000000000E+00 0. -1.
         22    1    3    3    0    0 -0.63819833094E+02 -0.33691633714E+02 -0.74784094393E+02  0.10392669557E+03  0.00000000000E+00 0. -1.
</event>
<event>
 7    1  0.5993218E-006  0.1312779E+03  0.7818608E-02  0.1262746E+00
          2   -1    0    0  502    0  0.00000000000E+00  0.00000000000E+00  0.20660314342E+04  0.20660314342E+04  0.00000000000E+00 0. -1.
          1   -1    0    0  501    0 -0.00000000000E+00 -0.00000000000E+00 -0.10363259959E+03  0.10363259959E+03  0.00000000000E+00 0. -1.
         25    2    1    2    0    0  0.97144753755E+02 -0.11347822224E+03  0.20427067545E+03  0.28225320505E+03  0.12500381117E+03 0.  0.
          2    1    1    2  501    0 -0.88387662178E+02 -0.18120094011E+02 -0.29498341525E+02  0.94925596047E+02  0.00000000000E+00 0. -1.
          1    1    1    2  502    0 -0.87570915776E+01  0.13159831625E+03  0.17876265007E+04  0.17924852327E+04  0.00000000000E+00 0. -1.
         22    1    3    3    0    0  0.38627203365E+02 -0.12657061208E+03  0.16046083255E+03  0.20799004655E+03  0.00000000000E+00 0. -1.
         22    1    3    3    0    0  0.58517550390E+02  0.13092389837E+02  0.43809842896E+02  0.74263158497E+02  0.00000000000E+00 0. -1.
</event>
<event>
 7    1  0.5993218E-006  0.1156643E+03  0.7818608E-02  0.1306833E+00
          2   -1    0    0  502    0  0.00000000000E+00  0.00000000000E+00  0.18965044753E+03  0.18965044753E+03  0.00000000000E+00 0. -1.
          1   -1    0    0  501    0 -0.00000000000E+00 -0.00000000000E+00 -0.52998887668E+03  0.52998887668E+03  0.00000000000E+00 0. -1.
         25    2    1    2    0    0 -0.31068731026E+02  0.56465530738E+02 -0.22873030176E+03  0.26850839574E+03  0.12500234172E+03 0.  0.
          2    1    1    2  501    0  0.21897644753E+02  0.63876441485E+02 -0.25495287998E+03  0.26374358312E+03  0.00000000000E+00 0. -1.
          1    1    1    2  502    0  0.91710862729E+01 -0.12034197222E+03  0.14334475260E+03  0.18738734535E+03  0.00000000000E+00 0. -1.
         22    1    3    3    0    0 -0.64888321599E+02  0.17790157832E+02 -0.53675183036E+02  0.86069793014E+02  0.00000000000E+00 0. -1.
         22    1    3    3    0    0  0.33819590573E+02  0.38675372906E+02 -0.17505511872E+03  0.18243860273E+03  0.00000000000E+00 0. -1.
</event>
<event>
 7    1  0.5993218E-006  0.1458964E+03  0.7818608E-02  0.1424575E+00
          2   -1    0    0  502    0  0.00000000000E+00  0.00000000000E+00  0.12175956523E+04  0.12175956523E+04  0.00000000000E+00 0. -1.
          1   -1    0    0  501    0 -0.00000000000E+00 -0.00000000000E+00 -0.58434210712E+03  0.58434210712E+03  0.00000000000E+00 0. -1.
         25    2    1    2    0    0  0.11793584418E+03  0.64345787159E+02 -0.36881700866E+03  0.41194520602E+03  0.12499449274E+03 0.  0.
          2    1    1    2  501    0  0.17508859157E+02 -0.97379656221E+01 -0.18897156623E+03  0.19003063166E+03  0.00000000000E+00 0. -1.
          1    1    1    2  502    0 -0.13544470334E+03 -0.54607821537E+02  0.11910421201E+04  0.11999619218E+04  0.00000000000E+00 0. -1.
         22    1    3    3    0    0  0.11864844612E+03  0.90750857624E+02 -0.25892954679E+03  0.29892755331E+03  0.00000000000E+00 0.  1.
         22    1    3    3    0    0 -0.71260193348E+00 -0.26405070465E+02 -0.10988746187E+03  0.11301765271E+03  0.00000000000E+00 0.  1.
</event>
<event>
 7    1  0.5993218E-006  0.2678393E+03  0.7818608E-02  0.1267960E+00
          2   -1    0    0  502    0  0.00000000000E+00  0.00000000000E+00  0.10783279224E+04  0.10783279224E+04  0.00000000000E+00 0. -1.
          1   -1    0    0  501    0 -0.00000000000E+00 -0.00000000000E+00 -0.14466479486E+04  0.14466479486E+04  0.00000000000E+00 0. -1.
         25    2    1    2    0    0  0.16588303986E+03  0.16781209862E+03 -0.75300537558E+02  0.27744269996E+03  0.12500478969E+03 0.  0.
          2    1    1    2  501    0 -0.20676625531E+03 -0.17757484820E+03 -0.12551923419E+04  0.12844426520E+04  0.00000000000E+00 0. -1.
          1    1    1    2  502    0  0.40883215443E+02  0.97627495868E+01  0.96217285322E+03  0.96309051914E+03  0.00000000000E+00 0. -1.
         22    1    3    3    0    0  0.73547208312E+02 -0.17418447501E+01 -0.14082256451E+02  0.74903510067E+02  0.00000000000E+00 0.  1.
         22    1    3    3    0    0  0.92335831552E+02  0.16955394337E+03 -0.61218281107E+02  0.20253918989E+03  0.00000000000E+00 0.  1.
</event>
<event>
 7    1  0.5993218E-006  0.1513903E+03  0.7818608E-02  0.1312343E+00
          2   -1    0    0  502    0  0.00000000000E+00  0.00000000000E+00  0.40846408817E+03  0.40846408817E+03  0.00000000000E+00 0. -1.
          1   -1    0    0  501    0 -0.00000000000E+00 -0.00000000000E+00 -0.45639835769E+03  0.45639835769E+03  0.00000000000E+00 0. -1.
         25    2    1    2    0    0  0.12289440296E+03  0.18753766337E+02 -0.43520736302E+02  0.18158379655E+03  0.12499553052E+03 0.  0.
          2    1    1    2  501    0 -0.14722368728E+03 -0.61371211778E+02 -0.32337055288E+03  0.36056865393E+03  0.00000000000E+00 0. -1.
          1    1    1    2  502    0  0.24329284322E+02  0.42617445440E+02  0.31895701966E+03  0.32270999538E+03  0.00000000000E+00 0. -1.
         22    1    3    3    0    0  0.41466431396E+02 -0.87324537167E+01  0.42479816335E+02  0.60002128933E+02  0.00000000000E+00 0. -1.
         22    1    3    3    0    0  0.81427971565E+02  0.27486220054E+02 -0.86000552637E+02  0.12158166761E+03  0.00000000000E+00 0. -1.
</event>
<event>
 7    1  0.5993218E-006  0.1139212E+03  0.7818608E-02  0.1384682E+00
          2   -1    0    0  502    0  0.00000000000E+00  0.00000000000E+00  0.63675388309E+03  0.63675388309E+03  0.00000000000E+00 0. -1.
          1   -1    0    0  501    0 -0.00000000000E+00 -0.00000000000E+00 -0.92304922825E+03  0.92304922825E+03  0.00000000000E+00 0. -1.
         25    2    1    2    0    0 -0.10276706628E+03 -0.10608292782E+03  0.42018175696E+00  0.19349265740E+03  0.12499829771E+03 0.  0.
          2    1    1    2  501    0  0.78594789364E+02  0.80611185482E+02 -0.82210116441E+03  0.82977444446E+03  0.00000000000E+00 0. -1.
          1    1    1    2  502    0  0.24172276921E+02  0.25471742336E+02  0.53538563750E+03  0.53653600948E+03  0.00000000000E+00 0. -1.
         22    1    3    3    0    0 -0.12644934184E+03 -0.65203333001E+02 -0.16689111195E+02  0.14324607192E+03  0.00000000000E+00 0. -1.
         22    1    3    3    0    0  0.23682275558E+02 -0.40879594816E+02  0.17109292952E+02  0.50246585488E+02  0.00000000000E+00 0. -1.
</event>
<event>
 7    1  0.5993218E-006  0.1935249E+03  0.7818608E-02  0.1336084E+00
          2   -1    0    0  502    0  0.00000000000E+00  0.00000000000E+00  0.14365718785E+04  0.14365718785E+04  0.00000000000E+00 0. -1.
          1   -1    0    0  501    0 -0.00000000000E+00 -0.00000000000E+00 -0.19123757236E+04  0.19123757236E+04  0.00000000000E+00 0. -1.
         25    2    1    2    0    0 -0.70799733279E+02 -0.14939248066E+03  0.63940383913E+02  0.21689696145E+03  0.12500081472E+03 0.  0.
          2    1    1    2  501    0 -0.16215090358E+02 -0.26531604592E+02 -0.18283346384E+04  0.18285990280E+04  0.00000000000E+00 0. -1.
          1    1    1    2  502    0  0.87014823637E+02  0.17592408525E+03  0.12885904094E+04  0.13034516126E+04  0.00000000000E+00 0. -1.
         22    1    3    3    0    0  0.28808563277E+02 -0.77507158884E+02  0.12104196841E+02  0.83569160445E+02  0.00000000000E+00 0. -1.
         22    1    3    3    0    0 -0.99608296556E+02 -0.71885321775E+02  0.51836187072E+02  0.13332780100E+03  0.00000000000E+00 0. -1.
</event>
<event>
 7    1  0.5993218E-006  0.3843718E+02  0.7818608E-02  0.1547777E+00
          2   -1    0    0  502    0  0.00000000000E+00  0.00000000000E+00  0.14316128633E+04  0.14316128633E+04  0.00000000000E+00 0. -1.
          1   -1    0    0  501    0 -0.00000000000E+00 -0.00000000000E+00 -0.63766081420E+03  0.63766081420E+03  0.00000000000E+00 0. -1.
         25    2    1    2    0    0 -0.62860348707E+00 -0.63992873041E+02  0.19936489482E+03  0.24385770277E+03  0.12499893988E+03 0.  0.
          2    1    1    2  501    0  0.14633729723E+02  0.28502539433E+02 -0.61469632491E+03  0.61553075687E+03  0.00000000000E+00 0. -1.
          1    1    1    2  502    0 -0.14005126236E+02  0.35490333608E+02  0.12092834792E+04  0.12098852179E+04  0.00000000000E+00 0. -1.
         22    1    3    3    0    0 -0.30941194355E+02  0.10429399996E+02  0.14050331019E+03  0.14424739189E+03  0.00000000000E+00 0.  1.
         22    1    3    3    0    0  0.30312590868E+02 -0.74422273036E+02  0.58861584632E+02  0.99610310884E+02  0.00000000000E+00 0.  1.
</event>
<event>
 7    1  0.5993218E-006  0.1070004E+03  0.7818608E-02  0.1294758E+00
          2   -1    0    0  502    0  0.00000000000E+00  0.00000000000E+00  0.32437520763E+03  0.32437520763E+03  0.00000000000E+00 0. -1.
          1   -1    0    0  501    0 -0.00000000000E+00 -0.00000000000E+00 -0.66793464485E+03  0.66793464485E+03  0.00000000000E+00 0. -1.
         25    2    1    2    0    0  0.27364632092E+02  0.63980343627E+02  0.10999035213E+03  0.18045699810E+03  0.12499817255E+03 0.  0.
          2    1    1    2  501    0  0.46521976265E+02 -0.98554382455E+02 -0.61839639689E+03  0.62792624110E+03  0.00000000000E+00 0. -1.
          1    1    1    2  502    0 -0.73886608357E+02  0.34574038828E+02  0.16484660754E+03  0.18392661328E+03  0.00000000000E+00 0. -1.
         22    1    3    3    0    0 -0.48950346354E+02  0.34035628463E+02  0.33776759740E+02  0.68523207102E+02  0.00000000000E+00 0. -1.
         22    1    3    3    0    0  0.76314978446E+02  0.29944715164E+02  0.76213592389E+02  0.11193379099E+03  0.00000000000E+00 0. -1.
</event>
<event>
 7    1  0.5993218E-006  0.9685158E+02  0.7818608E-02  0.1445209E+00
          2   -1    0    0  502    0  0.00000000000E+00  0.00000000000E+00  0.12257718140E+04  0.12257718140E+04  0.00000000000E+00 0. -1.
          1   -1    0    0  501    0 -0.00000000000E+00 -0.00000000000E+00 -0.24850172405E+03  0.24850172405E+03  0.00000000000E+00 0. -1.
         25    2    1    2    0    0 -0.10722834505E+03 -0.74352479290E+01  0.79113285868E+03  0.80812766144E+03  0.12500366479E+03 0.  0.
          2    1    1    2  501    0  0.95492835591E+02 -0.15583976108E+02 -0.22983552366E+03  0.24937142959E+03  0.00000000000E+00 0. -1.
          1    1    1    2  502    0  0.11735509461E+02  0.23019224037E+02  0.41597275495E+03  0.41677444705E+03  0.00000000000E+00 0. -1.
         22    1    3    3    0    0 -0.68567891538E+02  0.44751698341E+02  0.61453457592E+03  0.61996533392E+03  0.00000000000E+00 0.  1.
         22    1    3    3    0    0 -0.38660453513E+02 -0.52186946270E+02  0.17659828275E+03  0.18816232752E+03  0.00000000000E+00 0.  1.
</event>
<event>
 7    1  0.5993218E-006  0.7325298E+02  0.7818608E-02  0.1448479E+00
          2   -1    0    0  502    0  0.00000000000E+00  0.00000000000E+00  0.85467321661E+03  0.85467321661E+03  0.00000000000E+00 0. -1.
          1   -1    0    0  501    0 -0.00000000000E+00 -0.00000000000E+00 -0.32783116837E+03  0.32783116837E+03  0.00000000000E+00 0. -1.
         25    2    1    2    0    0  0.10070152914E+03  0.26883108079E+02  0.17395659353E+03  0.23822153710E+03  0.12500041933E+03 0.  0.
          2    1    1    2  501    0 -0.30684055752E+02 -0.13053284836E+02 -0.29278607734E+03  0.29467878547E+03  0.00000000000E+00 0. -1.
          1    1    1    2  502    0 -0.70017473392E+02 -0.13829823243E+02  0.64567153205E+03  0.64960406241E+03  0.00000000000E+00 0. -1.
         22    1    3    3    0    0  0.28410663261E+02  0.66081313242E+02  0.43655824083E+02  0.84141171391E+02  0.00000000000E+00 0. -1.
         22    1    3    3    0    0  0.72290865883E+02 -0.39198205163E+02  0.13030076944E+03  0.15408036571E+03  0.00000000000E+00 0. -1.
</event>
<event>
 7    1  0.5993218E-006  0.1728717E+03  0.7818608E-02  0.1183869E+00
          2   -1    0    0  502    0  0.00000000000E+00  0.00000000000E+00  0.26522692779E+04  0.26522692779E+04  0.00000000000E+00 0. -1.
          1   -1    0    0  501    0 -0.00000000000E+00 -0.00000000000E+00 -0.22038990790E+04  0.22038990790E+04  0.00000000000E+00 0. -1.
         25    2    1    2    0    0  0.28483807464E+03 -0.10131833196E+03  0.42018096340E+03  0.53251790975E+03  0.12500059620E+03 0.  0.
          2    1    1    2  501    0 -0.11839107193E+03  0.10197188242E+03 -0.21416971532E+04  0.21473894399E+04  0.00000000000E+00 0. -1.
          1    1    1    2  502    0 -0.16644700271E+03 -0.65355046402E+00  0.21698863886E+04  0.21762610072E+04  0.00000000000E+00 0. -1.
         22    1    3    3    0    0  0.11708303010E+03 -0.10794948013E+03  0.20602553745E+03  0.26039978548E+03  0.00000000000E+00 0.  1.
         22    1    3    3    0    0  0.16775504454E+03  0.66311481674E+01  0.21415542595E+03  0.27211812427E+03  0.00000000000E+00 0.  1.
</event>
<event>
 7    1  0.5993218E-006  0.1657433E+03  0.7818608E-02  0.1242381E+00
          2   -1    0    0  502    0  0.00000000000E+00  0.00000000000E+00  0.16569861203E+03  0.16569861203E+03  0.00000000000E+00 0. -1.
          1   -1    0    0  501    0 -0.00000000000E+00 -0.00000000000E+00 -0.22692676673E+04  0.22692676673E+04  0.00000000000E+00 0. -1.
         25    2    1    2    0    0 -0.70468185192E+02 -0.22356391760E+03 -0.28324982331E+03  0.38833372352E+03  0.12500411209E+03 0.  0.
          2    1    1    2  501    0 -0.42869927701E+01  0.87407009072E+02 -0.18786686442E+04  0.18807057820E+04  0.00000000000E+00 0. -1.
          1    1    1    2  502    0  0.74755177962E+02  0.13615690853E+03  0.58349412244E+02  0.16592677386E+03  0.00000000000E+00 0. -1.
         22    1    3    3    0    0  0.47223007087E+01 -0.22681919025E+02  0.98148246393E+01  0.25161485595E+02  0.00000000000E+00 0. -1.
         22    1    3    3    0    0 -0.75190485900E+02 -0.20088199858E+03 -0.29306464794E+03  0.36317223792E+03  0.00000000000E+00 0. -1.
</event>
<event>
 7    1  0.5993218E-006  0.6982118E+02  0.7818608E-02  0.1384245E+00
          2   -1    0    0  502    0  0.00000000000E+00  0.00000000000E+00  0.11065781824E+04  0.11065781824E+04  0.00000000000E+00 0. -1.
          1   -1    0    0  501    0 -0.00000000000E+00 -0.00000000000E+00 -0.40290041992E+02  0.40290041992E+02  0.00000000000E+00 0. -1.
         25    2    1    2    0    0 -0.40816605088E+02 -0.10560563022E+03  0.81073301142E+03  0.82808923187E+03  0.12500086297E+03 0.  0.
          2    1    1    2  501    0  0.47750813902E+02  0.48526933102E+02  0.12757344356E+02  0.69265816241E+02  0.00000000000E+00 0. -1.
          1    1    1    2  502    0 -0.69342088140E+01  0.57078697122E+02  0.24279778464E+03  0.24951317629E+03  0.00000000000E+00 0. -1.
         22    1    3    3    0    0 -0.65232382614E+02 -0.38592026440E+02  0.21235548826E+03  0.22547607776E+03  0.00000000000E+00 0. -1.
         22    1    3    3    0    0  0.24415777527E+02 -0.67013603784E+02  0.59837752316E+03  0.60261315411E+03  0.00000000000E+00 0. -1.
</event>
<event>
 7    1  0.5993218E-006  0.8450074E+02  0.7818608E-02  0.1344412E+00
          2   -1    0    0  502    0  0.00000000000E+00  0.00000000000E+00  0.89733830502E+03  0.89733830502E+03  0.00000000000E+00 0. -1.
          1   -1    0    0  501    0 -0.00000000000E+00 -0.00000000000E+00 -0.34349513185E+03  0.34349513185E+03  0.00000000000E+00 0. -1.
         25    2    1    2    0    0 -0.19822650132E+02 -0.58214594839E+02  0.18779776788E+03  0.23383206956E+03  0.12501023408E+03 0.  0.
          2    1    1    2  501    0 -0.62451299736E+02  0.22135568754E+02 -0.31406758740E+03  0.32098068120E+03  0.00000000000E+00 0. -1.
          1    1    1    2  502    0  0.82273949868E+02  0.36079026085E+02  0.68011299269E+03  0.68602068611E+03  0.00000000000E+00 0. -1.
         22    1    3    3    0    0 -0.25143399763E+02 -0.10951782058E+02 -0.10907139696E+02  0.29514365625E+02  0.00000000000E+00 0. -1.
         22    1    3    3    0    0  0.53207496313E+01 -0.47262812781E+02  0.19870490757E+03  0.20431770394E+03  0.00000000000E+00 0. -1.
</event>
<event>
 7    1  0.5993218E-006  0.8814711E+02  0.7818608E-02  0.1411100E+00
          2   -1    0    0  502    0  0.00000000000E+00  0.00000000000E+00  0.78735784267E+03  0.78735784267E+03  0.00000000000E+00 0. -1.
          1   -1    0    0  501    0 -0.00000000000E+00 -0.00000000000E+00 -0.38668695339E+03  0.38668695339E+03  0.00000000000E+00 0. -1.
         25    2    1    2    0    0 -0.54889403741E+02  0.10957254564E+03  0.29642030286E+02  0.17754552607E+03  0.12499909787E+03 0.  0.
          2    1    1    2  501    0  0.22897610788E+02 -0.28799600024E+02 -0.30887935261E+03  0.31106297114E+03  0.00000000000E+00 0. -1.
          1    1    1    2  502    0  0.31991792953E+02 -0.80772945612E+02  0.67990821161E+03  0.68543629884E+03  0.00000000000E+00 0. -1.
         22    1    3    3    0    0 -0.29716027433E+02  0.99761406442E+02 -0.33103702944E+02  0.10923019569E+03  0.00000000000E+00 0. -1.
         22    1    3    3    0    0 -0.25173376308E+02  0.98111391939E+01  0.62745733230E+02  0.68315330385E+02  0.00000000000E+00 0. -1.
</event>
<event>
 7    1  0.5993218E-006  0.5477466E+02  0.7818608E-02  0.1534036E+00
          2   -1    0    0  502    0  0.00000000000E+00  0.00000000000E+00  0.67022067546E+03  0.67022067546E+03  0.00000000000E+00 0. -1.
          1   -1    0    0  501    0 -0.00000000000E+00 -0.00000000000E+00 -0.12798551820E+04  0.12798551820E+04  0.00000000000E+00 0. -1.
         25    2    1    2    0    0 -0.45546649959E+02  0.33634792460E+02  0.37157466890E+03  0.39610409081E+03  0.12499967841E+03 0.  0.
          2    1    1    2  501    0  0.19372495535E+02  0.15135854632E+02 -0.12647954418E+04  0.12650343463E+04  0.00000000000E+00 0. -1.
          1    1    1    2  502    0  0.26174154424E+02 -0.48770647092E+02  0.28358626639E+03  0.28893742033E+03  0.00000000000E+00 0. -1.
         22    1    3    3    0    0 -0.74135343968E+02 -0.27504739021E+01  0.31184182429E+03  0.32054475149E+03  0.00000000000E+00 0. -1.
         22    1    3    3    0    0  0.28588694008E+02  0.36385266362E+02  0.59732844614E+02  0.75559339324E+02  0.00000000000E+00 0. -1.
</event>
<event>
 7    1  0.5993218E-006  0.4906412E+02  0.7818608E-02  0.1568147E+00
          2   -1    0    0  502    0  0.00000000000E+00  0.00000000000E+00  0.60984932254E+03  0.60984932254E+03  0.00000000000E+00 0. -1.
          1   -1    0    0  501    0 -0.00000000000E+00 -0.00000000000E+00 -0.11150147649E+04  0.11150147649E+04  0.00000000000E+00 0. -1.
         25    2    1    2    0    0  0.64499306989E+02  0.15689513978E+02  0.51354050877E+02  0.15055842002E+03  0.12499711135E+03 0.  0.
          2    1    1    2  501    0 -0.15802367040E+02 -0.15381117726E+02 -0.10641330623E+04  0.10643615307E+04  0.00000000000E+00 0. -1.
          1    1    1    2  502    0 -0.48696939949E+02 -0.30839625243E+00  0.50761356911E+03  0.50994413675E+03  0.00000000000E+00 0. -1.
         22    1    3    3    0    0  0.44182506498E+02  0.68020891340E+02  0.48159708978E+02  0.94330764377E+02  0.00000000000E+00 0.  1.
         22    1    3    3    0    0  0.20316800491E+02 -0.52331377361E+02  0.31943418994E+01  0.56227655641E+02  0.00000000000E+00 0.  1.
</event>
<event>
 7    1  0.5993218E-006  0.5201813E+02  0.7818608E-02  0.1546300E+00
          2   -1    0    0  502    0  0.00000000000E+00  0.00000000000E+00  0.72638820320E+03  0.72638820320E+03  0.00000000000E+00 0. -1.
          1   -1    0    0  501    0 -0.00000000000E+00 -0.00000000000E+00 -0.34859970543E+03  0.34859970543E+03  0.00000000000E+00 0. -1.
         25    2    1    2    0    0  0.43144490799E+01 -0.28136411982E+02 -0.18689730609E+03  0.22664090313E+03  0.12500089519E+03 0.  0.
          2    1    1    2  501    0 -0.94178458439E+00 -0.23882683925E+02 -0.13985384330E+03  0.14188152465E+03  0.00000000000E+00 0. -1.
          1    1    1    2  502    0 -0.33726644955E+01  0.52019095907E+02  0.70453964717E+03  0.70646548085E+03  0.00000000000E+00 0. -1.
         22    1    3    3    0    0 -0.22437604277E+02  0.16985479873E+02  0.42192170936E+01  0.28456183951E+02  0.00000000000E+00 0.  1.
         22    1    3    3    0    0  0.26752053356E+02 -0.45121891854E+02 -0.19111652319E+03  0.19818471918E+03  0.00000000000E+00 0.  1.
</event>
<event>
 7    1  0.5993218E-006  0.2078160E+03  0.7818608E-02  0.1296412E+00
          2   -1    0    0  502    0  0.00000000000E+00  0.00000000000E+00  0.63148841510E+03  0.63148841510E+03  0.00000000000E+00 0. -1.
          1   -1    0    0  501    0 -0.00000000000E+00 -0.00000000000E+00 -0.98563915335E+03  0.98563915335E+03  0.00000000000E+00 0. -1.
         25    2    1    2    0    0 -0.13978018494E+03  0.15188556262E+03  0.35326069893E+03  0.42781521038E+03  0.12500003437E+03 0.  0.
          2    1    1    2  501    0 -0.31313782222E+02 -0.27023447900E+02 -0.90124709414E+03  0.90219573507E+03  0.00000000000E+00 0. -1.
          1    1    1    2  502    0  0.17109396716E+03 -0.12486211472E+03  0.19383565696E+03  0.28711662299E+03  0.00000000000E+00 0. -1.
         22    1    3    3    0    0 -0.20436838029E+02  0.11407040002E+03  0.17929327158E+03  0.21348488880E+03  0.00000000000E+00 0. -1.
         22    1    3    3    0    0 -0.11934334691E+03  0.37815162604E+02  0.17396742735E+03  0.21433032159E+03  0.00000000000E+00 0. -1.
</event>
<event>
 7    1  0.5993218E-006  0.6039807E+02  0.7818608E-02  0.1459168E+00
          2   -1    0    0  502    0  0.00000000000E+00  0.00000000000E+00  0.10061871288E+04  0.10061871288E+04  0.00000000000E+00 0. -1.
          1   -1    0    0  501    0 -0.00000000000E+00 -0.00000000000E+00 -0.34596930727E+02  0.34596930727E+02  0.00000000000E+00 0. -1.
         25    2    1    2    0    0  0.79751195213E+02  0.50569260937E+02  0.46591242632E+03  0.49155705881E+03  0.12504579073E+03 0.  0.
          2    1    1    2  501    0 -0.51225367844E+02 -0.26388900773E+02  0.18361089657E+02  0.60477615761E+02  0.00000000000E+00 0. -1.
          1    1    1    2  502    0 -0.28525827369E+02 -0.24180360164E+02  0.48731668207E+03  0.48874938493E+03  0.00000000000E+00 0. -1.
         22    1    3    3    0    0  0.65547555077E+02  0.53780890333E+02  0.12924011894E+03  0.15456996631E+03  0.00000000000E+00 0. -1.
         22    1    3    3    0    0  0.14203640136E+02 -0.32116293958E+01  0.33667230738E+03  0.33698709250E+03  0.00000000000E+00 0. -1.
</event>
<event>
 7    1  0.5993218E-006  0.4589709E+02  0.7818608E-02  0.1561931E+00
          2   -1    0    0  502    0  0.00000000000E+00  0.00000000000E+00  0.14452310049E+03  0.14452310049E+03  0.00000000000E+00 0. -1.
          1   -1    0    0  501    0 -0.00000000000E+00 -0.00000000000E+00 -0.94659913031E+03  0.94659913031E+03  0.00000000000E+00 0. -1.
         25    2    1    2    0    0  0.11462621134E+02  0.32079352516E+02 -0.60503002192E+02  0.14297655815E+03  0.12498482454E+03 0.  0.
          2    1    1    2  501    0 -0.35799097006E+02 -0.29129309039E+02 -0.84276438603E+03  0.84402719289E+03  0.00000000000E+00 0. -1.
          1    1    1    2  502    0  0.24336475872E+02 -0.29500434763E+01  0.10119135839E+03  0.10411847976E+03  0.00000000000E+00 0. -1.
         22    1    3    3    0    0  0.48883093543E+02  0.59137195354E+02 -0.58977065425E+02  0.96773234702E+02  0.00000000000E+00 0.  1.
         22    1    3    3    0    0 -0.37420472409E+02 -0.27057842838E+02 -0.15259367670E+01  0.46203323445E+02  0.00000000000E+00 0.  1.
</event>
<event>
 7    1  0.5993218E-006  0.1157932E+03  0.7818608E-02  0.1296504E+00
          2   -1    0    0  502    0  0.00000000000E+00  0.00000000000E+00  0.73646239446E+03  0.73646239446E+03  0.00000000000E+00 0. -1.
          1   -1    0    0  501    0 -0.00000000000E+00 -0.00000000000E+00 -0.10433795403E+04  0.10433795403E+04  0.00000000000E+00 0. -1.
         25    2    1    2    0    0 -0.43260990895E+02  0.12938366786E+01  0.13006232335E+03  0.18551018232E+03  0.12499852975E+03 0.  0.
          2    1    1    2  501    0  0.11695934076E+03 -0.96413135408E+01 -0.10098669370E+04  0.10166630084E+04  0.00000000000E+00 0. -1.
          1    1    1    2  502    0 -0.73698349867E+02  0.83474768621E+01  0.57288746775E+03  0.57766874404E+03  0.00000000000E+00 0. -1.
         22    1    3    3    0    0 -0.37552867655E+02 -0.55117978120E+02  0.36290380887E+02  0.75928921539E+02  0.00000000000E+00 0.  1.
         22    1    3    3    0    0 -0.57081232403E+01  0.56411814799E+02  0.93771942467E+02  0.10958126078E+03  0.00000000000E+00 0.  1.
</event>
<event>
 7    1  0.7086332E-006  0.1058753E+03  0.7818608E-02  0.1430133E+00
          2   -1    0    0  502    0  0.00000000000E+00  0.00000000000E+00  0.16541927153E+04  0.16541927153E+04  0.00000000000E+00 0. -1.
          1   -1    0    0  501    0 -0.00000000000E+00 -0.00000000000E+00 -0.73939833645E+03  0.73939833645E+03  0.00000000000E+00 0. -1.
         25    2    1    2    0    0  0.91327057789E+02 -0.12569854252E+02 -0.29770880126E+03  0.33578976579E+03  0.12500241496E+03 0.  0.
          2    1    1    2  501    0  0.76205874193E+01 -0.25343503197E+02 -0.42051598550E+03  0.42134790917E+03  0.00000000000E+00 0. -1.
          1    1    1    2  502    0 -0.98947645208E+02  0.37913357449E+02  0.16330191656E+04  0.16364533768E+04  0.00000000000E+00 0. -1.
         22    1    3    3    0    0  0.18984832110E+02 -0.50441567702E+01  0.82493569424E+01  0.21305380957E+02  0.00000000000E+00 0. -1.
         22    1    3    3    0    0  0.72342225679E+02 -0.75256974822E+01 -0.30595815820E+03  0.31448438484E+03  0.00000000000E+00 0. -1.
</event>
<event>
 7    1  0.5993218E-006  0.5366995E+02  0.7818608E-02  0.1442185E+00
          2   -1    0    0  502    0  0.00000000000E+00  0.00000000000E+00  0.31861940820E+03  0.31861940820E+03  0.00000000000E+00 0. -1.
          1   -1    0    0  501    0 -0.00000000000E+00 -0.00000000000E+00 -0.12498413858E+04  0.12498413858E+04  0.00000000000E+00 0. -1.
         25    2    1    2    0    0 -0.65506411598E+01  0.17691834241E+01 -0.26422439613E+03  0.29237903151E+03  0.12499970259E+03 0.  0.
          2    1    1    2  501    0 -0.38547998012E+02  0.28073064471E+02 -0.96854772916E+03  0.96972096438E+03  0.00000000000E+00 0. -1.
          1    1    1    2  502    0  0.45098639172E+02 -0.29842247895E+02  0.30155014771E+03  0.30636079808E+03  0.00000000000E+00 0. -1.
         22    1    3    3    0    0 -0.59155896025E+02  0.10919581542E+02 -0.20003645540E+03  0.20888571226E+03  0.00000000000E+00 0. -1.
         22    1    3    3    0    0  0.52605254865E+02 -0.91503981178E+01 -0.64187940732E+02  0.83493319257E+02  0.00000000000E+00 0. -1.
</event>
<event>
 7    1  0.5993218E-006  0.1768776E+03  0.7818608E-02  0.1333250E+00
          2   -1    0    0  502    0  0.00000000000E+00  0.00000000000E+00  0.56932600802E+03  0.56932600802E+03  0.00000000000E+00 0. -1.
          1   -1    0    0  501    0 -0.00000000000E+00 -0.00000000000E+00 -0.42537179444E+03  0.42537179444E+03  0.00000000000E+00 0. -1.
         25    2    1    2    0    0  0.67606780038E+01  0.18400163150E+03  0.41455675931E+03  0.47051531246E+03  0.12500018165E+03 0.  0.
          2    1    1    2  501    0 -0.39578203981E+02 -0.17220425369E+03 -0.37476876538E+03  0.41433364179E+03  0.00000000000E+00 0. -1.
          1    1    1    2  502    0  0.32817525977E+02 -0.11797377809E+02  0.10416621966E+03  0.10984884821E+03  0.00000000000E+00 0. -1.
         22    1    3    3    0    0 -0.39981111789E+02  0.19851533177E+02  0.14273814991E+03  0.14955518081E+03  0.00000000000E+00 0. -1.
         22    1    3    3    0    0  0.46741789793E+02  0.16415009832E+03  0.27181860940E+03  0.32096013165E+03  0.00000000000E+00 0. -1.
</event>
<event>
 7    1  0.5993218E-006  0.8409871E+02  0.7818608E-02  0.1343796E+00
          2   -1    0    0  502    0  0.00000000000E+00  0.00000000000E+00  0.25451685216E+03  0.25451685216E+03  0.00000000000E+00 0. -1.
          1   -1    0    0  501    0 -0.00000000000E+00 -0.00000000000E+00 -0.30476879178E+03  0.30476879178E+03  0.00000000000E+00 0. -1.
         25    2    1    2    0    0 -0.10858406794E+03  0.94932661260E+02  0.92152818622E+01  0.19108198669E+03  0.12499877693E+03 0.  0.
          2    1    1    2  501    0  0.52462314999E+02 -0.41559195709E+02 -0.19826647581E+03  0.20925834911E+03  0.00000000000E+00 0. -1.
          1    1    1    2  502    0  0.56121752941E+02 -0.53373465551E+02  0.13879925433E+03  0.15894530814E+03  0.00000000000E+00 0. -1.
         22    1    3    3    0    0 -0.11057790452E+03  0.33825189352E+02 -0.28694556214E+02  0.11914274614E+03  0.00000000000E+00 0.  1.
         22    1    3    3    0    0  0.19938365798E+01  0.61107471908E+02  0.37909838076E+02  0.71939240546E+02  0.00000000000E+00 0.  1.
</event>
<event>
 7    1  0.5993218E-006  0.3133644E+02  0.7818608E-02  0.1589858E+00
          2   -1    0    0  502    0  0.00000000000E+00  0.00000000000E+00  0.17037722300E+04  0.17037722300E+04  0.00000000000E+00 0. -1.
          1   -1    0    0  501    0 -0.00000000000E+00 -0.00000000000E+00 -0.17591331411E+03  0.17591331411E+03  0.00000000000E+00 0. -1.
         25    2    1    2    0    0  0.99816854088E+01 -0.58664252985E+02 -0.39950720088E+02  0.14409031791E+03  0.12499932423E+03 0.  0.
          2    1    1    2  501    0  0.27266719064E+01  0.30066892104E+02 -0.81023384061E+02  0.86465261840E+02  0.00000000000E+00 0. -1.
          1    1    1    2  502    0 -0.12708357315E+02  0.28597360881E+02  0.16488330200E+04  0.16491299643E+04  0.00000000000E+00 0. -1.
         22    1    3    3    0    0  0.11986883361E+02 -0.33908001629E+02 -0.85196094785E+02  0.92476010477E+02  0.00000000000E+00 0. -1.
         22    1    3    3    0    0 -0.20051979525E+01 -0.24756251356E+02  0.45245374697E+02  0.51614307430E+02  0.00000000000E+00 0. -1.
</event>
<event>
 7    1  0.5993218E-006  0.5401477E+02  0.7818608E-02  0.1441609E+00
          2   -1    0    0  502    0  0.00000000000E+00  0.00000000000E+00  0.21918464897E+03  0.21918464897E+03  0.00000000000E+00 0. -1.
          1   -1    0    0  501    0 -0.00000000000E+00 -0.00000000000E+00 -0.80389464851E+03  0.80389464851E+03  0.00000000000E+00 0. -1.
         25    2    1    2    0    0 -0.62330378138E+02  0.79320469773E+02  0.39531621078E+02  0.16542324866E+03  0.12500115667E+03 0.  0.
          2    1    1    2  501    0  0.30081247485E+02 -0.44328333628E+02 -0.73508251157E+03  0.73703200841E+03  0.00000000000E+00 0. -1.
          1    1    1    2  502    0  0.32249130653E+02 -0.34992136145E+02  0.11084089094E+03  0.12062404041E+03  0.00000000000E+00 0. -1.
         22    1    3    3    0    0 -0.53073474650E+01 -0.24325523529E+02  0.40011465310E+02  0.47125538600E+02  0.00000000000E+00 0.  1.
         22    1    3    3    0    0 -0.57023030673E+02  0.10364599330E+03 -0.47984423236E+00  0.11829771006E+03  0.00000000000E+00 0.  1.
</event>
<event>
 7    1  0.5993218E-006  0.1997155E+03  0.7818608E-02  0.1278540E+00
          2   -1    0    0  502    0  0.00000000000E+00  0.00000000000E+00  0.21849581440E+04  0.21849581440E+04  0.00000000000E+00 0. -1.
          1   -1    0    0  501    0 -0.00000000000E+00 -0.00000000000E+00 -0.18057727112E+04  0.18057727112E+04  0.00000000000E+00 0. -1.
         25    2    1    2    0    0 -0.22648855414E+03  0.46141727529E+02  0.21255774752E+03  0.33798210789E+03  0.12499994019E+03 0.  0.
          2    1    1    2  501    0  0.43128820159E+02  0.27060960842E+02 -0.17375837745E+04  0.17383295902E+04  0.00000000000E+00 0. -1.
          1    1    1    2  502    0  0.18335973398E+03 -0.73202688371E+02  0.19042114598E+04  0.19144191572E+04  0.00000000000E+00 0. -1.
         22    1    3    3    0    0 -0.18475793244E+03  0.85696287522E+02  0.14949600984E+03  0.25264283931E+03  0.00000000000E+00 0.  1.
         22    1    3    3    0    0 -0.41730621706E+02 -0.39554559993E+02  0.63061737673E+02  0.85339268584E+02  0.00000000000E+00 0.  1.
</event>
<event>
 7    1  0.5993218E-006  0.1069695E+03  0.7818608E-02  0.1287556E+00
          2   -1    0    0  502    0  0.00000000000E+00  0.00000000000E+00  0.32315731262E+04  0.32315731262E+04  0.00000000000E+00 0. -1.
          1   -1    0    0  501    0 -0.00000000000E+00 -0.00000000000E+00 -0.35833574449E+02  0.35833574449E+02  0.00000000000E+00 0. -1.
         25    2    1    2    0    0  0.13558242754E+03  0.93485846217E+02  0.13324431392E+04  0.13483863566E+04  0.12497539477E+03 0.  0.
          2    1    1    2  501    0 -0.37252418194E+02 -0.78933303000E+02  0.45354222835E+02  0.98362668288E+02  0.00000000000E+00 0. -1.
          1    1    1    2  502    0 -0.98330009343E+02 -0.14552543218E+02  0.18179421898E+04  0.18206576758E+04  0.00000000000E+00 0. -1.
         22    1    3    3    0    0  0.13024287087E+02  0.79367258466E+02  0.41896135757E+03  0.42661154802E+03  0.00000000000E+00 0.  1.
         22    1    3    3    0    0  0.12255814045E+03  0.14118587751E+02  0.91348178161E+03  0.92177480853E+03  0.00000000000E+00 0.  1.
</event>
<event>
 7    1  0.5993218E-006  0.1039310E+03  0.7818608E-02  0.1380466E+00
          2   -1    0    0  502    0  0.00000000000E+00  0.00000000000E+00  0.18921415218E+04  0.18921415218E+04  0.00000000000E+00 0. -1.
          1   -1    0    0  501    0 -0.00000000000E+00 -0.00000000000E+00 -0.42477869891E+03  0.42477869891E+03  0.00000000000E+00 0. -1.
         25    2    1    2    0    0  0.81649870517E+02 -0.21835251934E+02  0.16307400003E+03  0.22217249634E+03  0.12499603618E+03 0.  0.
          2    1    1    2  501    0  0.23107671271E+02  0.32444616393E+02 -0.39258985751E+03  0.39460539001E+03  0.00000000000E+00 0. -1.
          1    1    1    2  502    0 -0.10475754179E+03 -0.10609364459E+02  0.16968786804E+04  0.17001423344E+04  0.00000000000E+00 0. -1.
         22    1    3    3    0    0 -0.32048518154E+02  0.23501333510E+01  0.20084428458E+02  0.37894787361E+02  0.00000000000E+00 0.  1.
         22    1    3    3    0    0  0.11369838867E+03 -0.24185385285E+02  0.14298957158E+03  0.18427770898E+03  0.00000000000E+00 0.  1.
</event>
<event>
 7    1  0.5993218E-006  0.3184915E+03  0.7818608E-02  0.1224013E+00
          2   -1    0    0  502    0  0.00000000000E+00  0.00000000000E+00  0.88844267852E+03  0.88844267852E+03  0.00000000000E+00 0. -1.
          1   -1    0    0  501    0 -0.00000000000E+00 -0.00000000000E+00 -0.73974166856E+03  0.73974166856E+03  0.00000000000E+00 0. -1.
         25    2    1    2    0    0 -0.20388747491E+03  0.22264683253E+03 -0.40237605409E+03  0.51833746458E+03  0.12500209530E+03 0.  0.
          2    1    1    2  501    0  0.21616560854E+03 -0.27625527083E+03 -0.16781606789E+03  0.38885315689E+03  0.00000000000E+00 0. -1.
          1    1    1    2  502    0 -0.12278133635E+02  0.53608438308E+02  0.71889313193E+03  0.72099372561E+03  0.00000000000E+00 0. -1.
         22    1    3    3    0    0 -0.20553134424E+03  0.15811776042E+03 -0.34765237371E+03  0.43371249990E+03  0.00000000000E+00 0. -1.
         22    1    3    3    0    0  0.16438693313E+01  0.64529072107E+02 -0.54723680378E+02  0.84624964682E+02  0.00000000000E+00 0. -1.
</event>
<event>
 7    1  0.1113631E-005  0.8020756E+02  0.7818608E-02  0.1466957E+00
          2   -1    0    0  502    0  0.00000000000E+00  0.00000000000E+00  0.23824241012E+04  0.23824241012E+04  0.00000000000E+00 0. -1.
          1   -1    0    0  501    0 -0.00000000000E+00 -0.00000000000E+00 -0.97978492774E+03  0.97978492774E+03  0.00000000000E+00 0. -1.
         25    2    1    2    0    0  0.96125705165E+02  0.35309128169E+01 -0.38889975931E+03  0.41966730789E+03  0.12500003193E+03 0.  0.
          2    1    1    2  501    0 -0.19051380763E+02  0.18588137944E+02 -0.57451409143E+03  0.57513034630E+03  0.00000000000E+00 0. -1.
          1    1    1    2  502    0 -0.77074324402E+02 -0.22119050761E+02  0.23660530242E+04  0.23674113747E+04  0.00000000000E+00 0. -1.
         22    1    3    3    0    0  0.12643827633E+03  0.82138584253E+00 -0.32945283324E+03  0.35288309924E+03  0.00000000000E+00 0.  1.
         22    1    3    3    0    0 -0.30312571162E+02  0.27095269743E+01 -0.59446926070E+02  0.66784208658E+02  0.00000000000E+00 0.  1.
</event>
<event>
 7    1  0.5993218E-006  0.9193742E+02  0.7818608E-02  0.1326911E+00
          2   -1    0    0  502    0  0.00000000000E+00  0.00000000000E+00  0.22068345588E+04  0.22068345588E+04  0.00000000000E+00 0. -1.
          1   -1    0    0  501    0 -0.00000000000E+00 -0.00000000000E+00 -0.17368400270E+04  0.17368400270E+04  0.00000000000E+00 0. -1.
         25    2    1    2    0    0 -0.20413485438E+02  0.14237762164E+03  0.28139796981E+03  0.33985172816E+03  0.12500512864E+03 0.  0.
          2    1    1    2  501    0 -0.27234636214E+02 -0.65503477132E+02 -0.17057970344E+04  0.17072714938E+04  0.00000000000E+00 0. -1.
          1    1    1    2  502    0  0.47648121652E+02 -0.76874144508E+02  0.18943935964E+04  0.18965513638E+04  0.00000000000E+00 0. -1.
         22    1    3    3    0    0 -0.26550100197E+02 -0.10272424377E+02  0.93200108161E+02  0.97450965538E+02  0.00000000000E+00 0. -1.
         22    1    3    3    0    0  0.61366147593E+01  0.15265004602E+03  0.18819786165E+03  0.24240076262E+03  0.00000000000E+00 0. -1.
</event>
<event>
 7    1  0.5993218E-006  0.1913918E+03  0.7818608E-02  0.1261169E+00
          2   -1    0    0  502    0  0.00000000000E+00  0.00000000000E+00  0.23399331926E+04  0.23399331926E+04  0.00000000000E+00 0. -1.
          1   -1    0    0  501    0 -0.00000000000E+00 -0.00000000000E+00 -0.16481758622E+03  0.16481758622E+03  0.00000000000E+00 0. -1.
         25    2    1    2    0    0  0.14733145489E+03 -0.34437500517E+02  0.26979760191E+03  0.33362869502E+03  0.12499944441E+03 0.  0.
          2    1    1    2  501    0 -0.18316740432E+03  0.86070273521E+02 -0.55059146175E+02  0.20973769229E+03  0.00000000000E+00 0. -1.
          1    1    1    2  502    0  0.35835949437E+02 -0.51632773004E+02  0.19603771506E+04  0.19613843915E+04  0.00000000000E+00 0. -1.
         22    1    3    3    0    0 -0.80198154482E+00 -0.41495918590E+01 -0.12606521985E+02  0.13296115356E+02  0.00000000000E+00 0. -1.
         22    1    3    3    0    0  0.14813343643E+03 -0.30287908658E+02  0.28240412390E+03  0.32033257966E+03  0.00000000000E+00 0. -1.
</event>
<event>
 7    1  0.5993218E-006  0.1526930E+03  0.7818608E-02  0.1241933E+00
          2   -1    0    0  502    0  0.00000000000E+00  0.00000000000E+00  0.34009272556E+04  0.34009272556E+04  0.00000000000E+00 0. -1.
          1   -1    0    0  501    0 -0.00000000000E+00 -0.00000000000E+00 -0.15298791247E+03  0.15298791247E+03  0.00000000000E+00 0. -1.
         25    2    1    2    0    0 -0.12323784696E+03  0.18468857646E+03  0.14143509543E+04  0.14371187314E+04  0.12499675564E+03 0.  0.
          2    1    1    2  501    0  0.18236202955E+02 -0.93665081798E+02 -0.12277871061E+03  0.15550022002E+03  0.00000000000E+00 0. -1.
          1    1    1    2  502    0  0.10500164401E+03 -0.91023494667E+02  0.19563670994E+04  0.19612962167E+04  0.00000000000E+00 0. -1.
         22    1    3    3    0    0 -0.14905130736E+03  0.16454564056E+03  0.12241460070E+04  0.12441161547E+04  0.00000000000E+00 0. -1.
         22    1    3    3    0    0  0.25813460397E+02  0.20142935904E+02  0.19020494732E+03  0.19300257664E+03  0.00000000000E+00 0. -1.
</event>
<event>
 7    1  0.5993218E-006  0.8447239E+02  0.7818608E-02  0.1322156E+00
          2   -1    0    0  502    0  0.00000000000E+00  0.00000000000E+00  0.45032935830E+03  0.45032935830E+03  0.00000000000E+00 0. -1.
          1   -1    0    0  501    0 -0.00000000000E+00 -0.00000000000E+00 -0.59193320193E+03  0.59193320193E+03  0.00000000000E+00 0. -1.
         25    2    1    2    0    0  0.12321715433E+03 -0.92792389141E+02 -0.34106040289E+01  0.19857000024E+03  0.12500207266E+03 0.  0.
          2    1    1    2  501    0 -0.76133371367E+02  0.26262156452E+02 -0.48285472648E+03  0.48952495134E+03  0.00000000000E+00 0. -1.
          1    1    1    2  502    0 -0.47083782967E+02  0.66530232689E+02  0.34466148689E+03  0.35416760866E+03  0.00000000000E+00 0. -1.
         22    1    3    3    0    0  0.11005492512E+03 -0.10975003543E+03 -0.36005200761E+02  0.15954162874E+03  0.00000000000E+00 0. -1.
         22    1    3    3    0    0  0.13162229210E+02  0.16957646286E+02  0.32594596732E+02  0.39028371493E+02  0.00000000000E+00 0. -1.
</event>
<event>
 7    1  0.5993218E-006  0.1971424E+03  0.7818608E-02  0.1277068E+00
          2   -1    0    0  502    0  0.00000000000E+00  0.00000000000E+00  0.14728225387E+04  0.14728225387E+04  0.00000000000E+00 0. -1.
          1   -1    0    0  501    0 -0.00000000000E+00 -0.00000000000E+00 -0.30978682887E+03  0.30978682887E+03  0.00000000000E+00 0. -1.
         25    2    1    2    0    0  0.11371899167E+03  0.10823504781E+03  0.15370535711E+03  0.25277926564E+03  0.12500074278E+03 0.  0.
          2    1    1    2  501    0 -0.16355354920E+03 -0.12413761890E+03 -0.21910698408E+03  0.30027950705E+03  0.00000000000E+00 0. -1.
          1    1    1    2  502    0  0.49834557535E+02  0.15902571083E+02  0.12284373368E+04  0.12295505949E+04  0.00000000000E+00 0. -1.
         22    1    3    3    0    0  0.11607977481E+03  0.13206241125E+03  0.12690435897E+03  0.21684028895E+03  0.00000000000E+00 0. -1.
         22    1    3    3    0    0 -0.23607831384E+01 -0.23827363435E+02  0.26800998132E+02  0.35938976699E+02  0.00000000000E+00 0. -1.
</event>
<event>
 7    1  0.5993218E-006  0.6469428E+02  0.7818608E-02  0.1490144E+00
          2   -1    0    0  502    0  0.00000000000E+00  0.00000000000E+00  0.61482217917E+03  0.61482217917E+03  0.00000000000E+00 0. -1.
          1   -1    0    0  501    0 -0.00000000000E+00 -0.00000000000E+00 -0.21173795743E+03  0.21173795743E+03  0.00000000000E+00 0. -1.
         25    2    1    2    0    0  0.32043757637E+02  0.81165281295E+02  0.28677937574E+03  0.32478055293E+03  0.12500156766E+03 0.  0.
          2    1    1    2  501    0 -0.18368469033E+01 -0.27944441945E+02 -0.18866417729E+03  0.19073132316E+03  0.00000000000E+00 0. -1.
          1    1    1    2  502    0 -0.30206910733E+02 -0.53220839349E+02  0.30496902329E+03  0.31104826051E+03  0.00000000000E+00 0. -1.
         22    1    3    3    0    0  0.65230588329E+02  0.85018181325E+02  0.15235379624E+03  0.18626540215E+03  0.00000000000E+00 0. -1.
         22    1    3    3    0    0 -0.33186830693E+02 -0.38529000298E+01  0.13442557950E+03  0.13851515078E+03  0.00000000000E+00 0. -1.
</event>
<event>
 7    1  0.5993218E-006  0.8365554E+02  0.7818608E-02  0.1336563E+00
          2   -1    0    0  502    0  0.00000000000E+00  0.00000000000E+00  0.12745838125E+04  0.12745838125E+04  0.00000000000E+00 0. -1.
          1   -1    0    0  501    0 -0.00000000000E+00 -0.00000000000E+00 -0.75295302441E+02  0.75295302441E+02  0.00000000000E+00 0. -1.
         25    2    1    2    0    0 -0.20835078394E+02  0.13919999627E+01  0.17763015503E+03  0.21820498743E+03  0.12499962563E+03 0.  0.
          2    1    1    2  501    0 -0.62194120434E+02 -0.35540655571E+02 -0.28932000121E+02  0.77254821506E+02  0.00000000000E+00 0. -1.
          1    1    1    2  502    0  0.83029198828E+02  0.34148655609E+02  0.10505903552E+04  0.10544193060E+04  0.00000000000E+00 0. -1.
         22    1    3    3    0    0  0.64538806270E+01  0.55693570989E+02  0.12800370651E+03  0.13974396339E+03  0.00000000000E+00 0. -1.
         22    1    3    3    0    0 -0.27288959021E+02 -0.54301571026E+02  0.49626448520E+02  0.78461024038E+02  0.00000000000E+00 0. -1.
</event>
<event>
 7    1  0.5993218E-006  0.1755958E+03  0.7818608E-02  0.1264290E+00
          2   -1    0    0  502    0  0.00000000000E+00  0.00000000000E+00  0.11355333557E+04  0.11355333557E+04  0.00000000000E+00 0. -1.
          1   -1    0    0  501    0 -0.00000000000E+00 -0.00000000000E+00 -0.10623870023E+04  0.10623870023E+04  0.00000000000E+00 0. -1.
         25    2    1    2    0    0  0.19397227003E+03  0.94426592618E+02  0.13192146882E+03  0.28208302576E+03  0.12500374616E+03 0.  0.
          2    1    1    2  501    0 -0.13087194835E+03 -0.11523867553E+03 -0.97839867235E+03  0.99381657324E+03  0.00000000000E+00 0. -1.
          1    1    1    2  502    0 -0.63100321687E+02  0.20812082916E+02  0.91962355701E+03  0.92202075898E+03  0.00000000000E+00 0. -1.
         22    1    3    3    0    0  0.19425654969E+03  0.52963478463E+02  0.13174427322E+03  0.24061855846E+03  0.00000000000E+00 0.  1.
         22    1    3    3    0    0 -0.28427965993E+00  0.41463114155E+02  0.17719559184E+00  0.41464467302E+02  0.00000000000E+00 0.  1.
</event>
<event>
 7    1  0.5993218E-006  0.4570121E+02  0.7818608E-02  0.1547239E+00
          2   -1    0    0  502    0  0.00000000000E+00  0.00000000000E+00  0.39781669785E+03  0.39781669785E+03  0.00000000000E+00 0. -1.
          1   -1    0    0  501    0 -0.00000000000E+00 -0.00000000000E+00 -0.76272427300E+02  0.76272427300E+02  0.00000000000E+00 0. -1.
         25    2    1    2    0    0  0.38332874891E+02 -0.14264173819E+02  0.29758320249E+03  0.32535394970E+03  0.12500621675E+03 0.  0.
          2    1    1    2  501    0 -0.73340263946E+01 -0.26027041549E+02 -0.51255241198E+02  0.57950794517E+02  0.00000000000E+00 0. -1.
          1    1    1    2  502    0 -0.30998848497E+02  0.40291215368E+02  0.75216309254E+02  0.90784380935E+02  0.00000000000E+00 0. -1.
         22    1    3    3    0    0  0.17994101917E+02  0.49535863640E+02  0.20122687232E+03  0.20801404672E+03  0.00000000000E+00 0. -1.
         22    1    3    3    0    0  0.20338772974E+02 -0.63800037459E+02  0.96356330170E+02  0.11733990297E+03  0.00000000000E+00 0. -1.
</event>
<event>
 7    1  0.5993218E-006  0.2232192E+03  0.7818608E-02  0.1301077E+00
          2   -1    0    0  502    0  0.00000000000E+00  0.00000000000E+00  0.23667270497E+04  0.23667270497E+04  0.00000000000E+00 0. -1.
          1   -1    0    0  501    0 -0.00000000000E+00 -0.00000000000E+00 -0.52517882412E+02  0.52517882412E+02  0.00000000000E+00 0. -1.
         25    2    1    2    0    0 -0.11150038078E+03 -0.19716801702E+03  0.54610958498E+03  0.60429199492E+03  0.12500229786E+03 0.  0.
          2    1    1    2  501    0  0.34795003771E+02 -0.12236392932E+02  0.43262134928E+01  0.37136743565E+02  0.00000000000E+00 0. -1.
          1    1    1    2  502    0  0.76705377008E+02  0.20940440995E+03  0.17637733688E+04  0.17778161936E+04  0.00000000000E+00 0. -1.
         22    1    3    3    0    0 -0.12132112945E+03 -0.20998634385E+03  0.50897714398E+03  0.56380033181E+03  0.00000000000E+00 0.  1.
         22    1    3    3    0    0  0.98207486723E+01  0.12818326827E+02  0.37132441000E+02  0.40491663114E+02  0.00000000000E+00 0.  1.
</event>
<event>
 7    1  0.5993218E-006  0.1045932E+03  0.7818608E-02  0.1389880E+00
          2   -1    0    0  502    0  0.00000000000E+00  0.00000000000E+00  0.28273894892E+03  0.28273894892E+03  0.00000000000E+00 0. -1.
          1   -1    0    0  501    0 -0.00000000000E+00 -0.00000000000E+00 -0.19585800339E+04  0.19585800339E+04  0.00000000000E+00 0. -1.
         25    2    1    2    0    0  0.78043291171E+02 -0.76690421409E+02 -0.15672488467E+03  0.22838592961E+03  0.12500106935E+03 0.  0.
          2    1    1    2  501    0 -0.45766285631E+02  0.94107933670E+02 -0.17631025798E+04  0.17662054135E+04  0.00000000000E+00 0. -1.
          1    1    1    2  502    0 -0.32277005540E+02 -0.17417512261E+02  0.24398637944E+03  0.24672763966E+03  0.00000000000E+00 0. -1.
         22    1    3    3    0    0  0.16138230210E+02 -0.94094665429E+02 -0.61782578042E+02  0.11371603003E+03  0.00000000000E+00 0. -1.
         22    1    3    3    0    0  0.61905060961E+02  0.17404244020E+02 -0.94942306629E+02  0.11466989958E+03  0.00000000000E+00 0. -1.
</event>
<event>
 7    1  0.5993218E-006  0.1311127E+03  0.7818608E-02  0.1264702E+00
          2   -1    0    0  502    0  0.00000000000E+00  0.00000000000E+00  0.91642351486E+03  0.91642351486E+03  0.00000000000E+00 0. -1.
          1   -1    0    0  501    0 -0.00000000000E+00 -0.00000000000E+00 -0.14403844216E+04  0.14403844216E+04  0.00000000000E+00 0. -1.
         25    2    1    2    0    0  0.64332133798E+02  0.15151245674E+03  0.95888936459E+02  0.22784678752E+03  0.12499928984E+03 0.  0.
          2    1    1    2  501    0  0.42881803415E+02 -0.77565548330E+02 -0.13673398775E+04  0.13702093286E+04  0.00000000000E+00 0. -1.
          1    1    1    2  502    0 -0.10721393721E+03 -0.73946908407E+02  0.74749003431E+03  0.75875182042E+03  0.00000000000E+00 0. -1.
         22    1    3    3    0    0  0.20535174556E+02  0.15640910246E+03  0.53171183550E+02  0.16647124522E+03  0.00000000000E+00 0. -1.
         22    1    3    3    0    0  0.43796959242E+02 -0.48966457229E+01  0.42717752910E+02  0.61375542294E+02  0.00000000000E+00 0. -1.
</event>
<event>
 7    1  0.5993218E-006  0.1531944E+03  0.7818608E-02  0.1249107E+00
          2   -1    0    0  502    0  0.00000000000E+00  0.00000000000E+00  0.21850967235E+04  0.21850967235E+04  0.00000000000E+00 0. -1.
          1   -1    0    0  501    0 -0.00000000000E+00 -0.00000000000E+00 -0.27554589322E+03  0.27554589322E+03  0.00000000000E+00 0. -1.
         25    2    1    2    0    0  0.10956130269E+03  0.13771296459E+03  0.70287762105E+02  0.22701085710E+03  0.12500008031E+03 0.  0.
          2    1    1    2  501    0 -0.22070369959E+02 -0.15095511542E+03 -0.16655359058E+03  0.22586422169E+03  0.00000000000E+00 0. -1.
          1    1    1    2  502    0 -0.87490932726E+02  0.13242150830E+02  0.20058166588E+04  0.20077675379E+04  0.00000000000E+00 0. -1.
         22    1    3    3    0    0  0.13436080947E+03  0.89299694819E+02  0.49117689251E+02  0.16864106859E+03  0.00000000000E+00 0.  1.
         22    1    3    3    0    0 -0.24799506785E+02  0.48413269771E+02  0.21170072854E+02  0.58369788516E+02  0.00000000000E+00 0.  1.
</event>
<event>
 7    1  0.5993218E-006  0.9739716E+02  0.7818608E-02  0.1292080E+00
          2   -1    0    0  502    0  0.00000000000E+00  0.00000000000E+00  0.22250351166E+04  0.22250351166E+04  0.00000000000E+00 0. -1.
          1   -1    0    0  501    0 -0.00000000000E+00 -0.00000000000E+00 -0.58959214393E+03  0.58959214393E+03  0.00000000000E+00 0. -1.
         25    2    1    2    0    0  0.87978373877E+02  0.58527989547E+02  0.11243219189E+04  0.11361735682E+04  0.12499952022E+03 0.  0.
          2    1    1    2  501    0  0.13378581902E+02 -0.90903143466E+02 -0.57744018497E+03  0.58470465636E+03  0.00000000000E+00 0. -1.
          1    1    1    2  502    0 -0.10135695578E+03  0.32375153918E+02  0.10885612388E+04  0.10937490360E+04  0.00000000000E+00 0. -1.
         22    1    3    3    0    0  0.78771654777E+02  0.95249219611E+02  0.77325329373E+03  0.78306962889E+03  0.00000000000E+00 0.  1.
         22    1    3    3    0    0  0.92067191002E+01 -0.36721230064E+02  0.35106862512E+03  0.35310393932E+03  0.00000000000E+00 0.  1.
</event>
<event>
 7    1  0.5993218E-006  0.1393582E+03  0.7818608E-02  0.1307256E+00
          2   -1    0    0  502    0  0.00000000000E+00  0.00000000000E+00  0.21184768832E+03  0.21184768832E+03  0.00000000000E+00 0. -1.
          1   -1    0    0  501    0 -0.00000000000E+00 -0.00000000000E+00 -0.84874353767E+03  0.84874353767E+03  0.00000000000E+00 0. -1.
         25    2    1    2    0    0 -0.15560585828E+02  0.98564282119E+02 -0.99209208179E+02  0.18821297071E+03  0.12499842325E+03 0.  0.
          2    1    1    2  501    0 -0.38712543399E+02  0.40227467112E+02 -0.67046271413E+03  0.67278314572E+03  0.00000000000E+00 0. -1.
          1    1    1    2  502    0  0.54273129227E+02 -0.13879174923E+03  0.13277607296E+03  0.19959510956E+03  0.00000000000E+00 0. -1.
         22    1    3    3    0    0 -0.36101571494E+01 -0.11465556873E+02  0.21383435286E+02  0.24530461342E+02  0.00000000000E+00 0. -1.
         22    1    3    3    0    0 -0.11950428679E+02  0.11002983899E+03 -0.12059264346E+03  0.16368250936E+03  0.00000000000E+00 0. -1.
</event>
<event>
 7    1  0.5993218E-006  0.1502625E+03  0.7818608E-02  0.1337688E+00
          2   -1    0    0  502    0  0.00000000000E+00  0.00000000000E+00  0.15490717560E+04  0.15490717560E+04  0.00000000000E+00 0. -1.
          1   -1    0    0  501    0 -0.00000000000E+00 -0.00000000000E+00 -0.38411451717E+03  0.38411451717E+03  0.00000000000E+00 0. -1.
         25    2    1    2    0    0 -0.66559168194E+02 -0.11466643871E+03 -0.14900568329E+03  0.23538597994E+03  0.12500140343E+03 0.  0.
          2    1    1    2  501    0  0.61381919855E+02  0.15381738110E+03 -0.15587596717E+03  0.22743096525E+03  0.00000000000E+00 0. -1.
          1    1    1    2  502    0  0.51772483389E+01 -0.39150942390E+02  0.14698388893E+04  0.14703693280E+04  0.00000000000E+00 0. -1.
         22    1    3    3    0    0 -0.39612437264E+02  0.73271640874E+01 -0.87079784198E+02  0.95946450353E+02  0.00000000000E+00 0.  1.
         22    1    3    3    0    0 -0.26946730930E+02 -0.12199360280E+03 -0.61925899096E+02  0.13943952958E+03  0.00000000000E+00 0.  1.
</event>
<event>
 7    1  0.5993218E-006  0.6911869E+02  0.7818608E-02  0.1521246E+00
          2   -1    0    0  502    0  0.00000000000E+00  0.00000000000E+00  0.37498231204E+03  0.37498231204E+03  0.00000000000E+00 0. -1.
          1   -1    0    0  501    0 -0.00000000000E+00 -0.00000000000E+00 -0.33847500098E+03  0.33847500098E+03  0.00000000000E+00 0. -1.
         25    2    1    2    0    0  0.72839579947E+02 -0.22771088365E+02 -0.71477397873E+02  0.16296603461E+03  0.12499913262E+03 0.  0.
          2    1    1    2  501    0 -0.57483350081E+02  0.37391646046E+02 -0.21558450775E+03  0.22622809444E+03  0.00000000000E+00 0. -1.
          1    1    1    2  502    0 -0.15356229867E+02 -0.14620557681E+02  0.32356921668E+03  0.32426318398E+03  0.00000000000E+00 0. -1.
         22    1    3    3    0    0  0.61210111793E+02 -0.47245025987E+02  0.91924572162E+01  0.77867011859E+02  0.00000000000E+00 0. -1.
         22    1    3    3    0    0  0.11629468154E+02  0.24473937621E+02 -0.80669855089E+02  0.85099022746E+02  0.00000000000E+00 0. -1.
</event>
<event>
 7    1  0.5993218E-006  0.7418300E+02  0.7818608E-02  0.1357662E+00
          2   -1    0    0  502    0  0.00000000000E+00  0.00000000000E+00  0.29373983511E+04  0.29373983511E+04  0.00000000000E+00 0. -1.
          1   -1    0    0  501    0 -0.00000000000E+00 -0.00000000000E+00 -0.30847238011E+03  0.30847238011E+03  0.00000000000E+00 0. -1.
         25    2    1    2    0    0 -0.64326606897E+02  0.11013537978E+03  0.98680868389E+03  0.10028377013E+04  0.12499744909E+03 0.  0.
          2    1    1    2  501    0  0.76720109100E+01 -0.73590956198E+02 -0.29530751567E+03  0.30443557183E+03  0.00000000000E+00 0. -1.
          1    1    1    2  502    0  0.56654595987E+02 -0.36544423581E+02  0.19374248028E+04  0.19385974581E+04  0.00000000000E+00 0. -1.
         22    1    3    3    0    0 -0.85016100398E+02  0.85683971868E+02  0.47739277867E+03  0.49241582579E+03  0.00000000000E+00 0.  1.
         22    1    3    3    0    0  0.20689493502E+02  0.24451407911E+02  0.50941590523E+03  0.51042187550E+03  0.00000000000E+00 0.  1.
</event>
<event>
 7    1  0.5993218E-006  0.3694086E+02  0.7818608E-02  0.1583651E+00
          2   -1    0    0  502    0  0.00000000000E+00  0.00000000000E+00  0.99878885565E+03  0.99878885565E+03  0.00000000000E+00 0. -1.
          1   -1    0    0  501    0 -0.00000000000E+00 -0.00000000000E+00 -0.57201085139E+03  0.57201085139E+03  0.00000000000E+00 0. -1.
         25    2    1    2    0    0 -0.40886449218E+02  0.20440285724E+02 -0.32357015652E+02  0.13697364534E+03  0.12500118418E+03 0.  0.
          2    1    1    2  501    0  0.17256226343E+02 -0.32657221703E+02 -0.48645835188E+03  0.48785858565E+03  0.00000000000E+00 0. -1.
          1    1    1    2  502    0  0.23630222875E+02  0.12216935979E+02  0.94559337180E+03  0.94596747605E+03  0.00000000000E+00 0. -1.
         22    1    3    3    0    0  0.25584384371E+02  0.75515520380E+01 -0.58577208390E+02  0.64365176956E+02  0.00000000000E+00 0. -1.
         22    1    3    3    0    0 -0.66470833589E+02  0.12888733686E+02  0.26220192738E+02  0.72608468385E+02  0.00000000000E+00 0. -1.
</event>
<event>
 7    1  0.5993218E-006  0.1351171E+03  0.7818608E-02  0.1275604E+00
          2   -1    0    0  502    0  0.00000000000E+00  0.00000000000E+00  0.66443163863E+03  0.66443163863E+03  0.00000000000E+00 0. -1.
          1   -1    0    0  501    0 -0.00000000000E+00 -0.00000000000E+00 -0.27400977459E+03  0.27400977459E+03  0.00000000000E+00 0. -1.
         25    2    1    2    0    0  0.33029501085E+02  0.13375880945E+03 -0.10041698735E+01  0.18603129703E+03  0.12499707225E+03 0.  0.
          2    1    1    2  501    0  0.66322950415E+02 -0.39900992811E+02 -0.16350289235E+03  0.18089781311E+03  0.00000000000E+00 0. -1.
          1    1    1    2  502    0 -0.99352451500E+02 -0.93857816639E+02  0.55492892626E+03  0.57151230307E+03  0.00000000000E+00 0. -1.
         22    1    3    3    0    0  0.46306822824E+02  0.15415765225E+03 -0.64446420679E+01  0.16109139331E+03  0.00000000000E+00 0.  1.
         22    1    3    3    0    0 -0.13277321739E+02 -0.20398842799E+02  0.54404721943E+01  0.24939903724E+02  0.00000000000E+00 0.  1.
</event>
<event>
 7    1  0.5993218E-006  0.1025549E+03  0.7818608E-02  0.1367950E+00
          2   -1    0    0  502    0  0.00000000000E+00  0.00000000000E+00  0.86441761901E+03  0.86441761901E+03  0.00000000000E+00 0. -1.
          1   -1    0    0  501    0 -0.00000000000E+00 -0.00000000000E+00 -0.96671644639E+03  0.96671644639E+03  0.00000000000E+00 0. -1.
         25    2    1    2    0    0  0.55112720416E+02  0.98426452732E+02 -0.20456814066E+01  0.16838854244E+03  0.12500135144E+03 0.  0.
          2    1    1    2  501    0 -0.81441736220E+02 -0.62248629985E+02 -0.87787399405E+03  0.88383844551E+03  0.00000000000E+00 0. -1.
          1    1    1    2  502    0  0.26329015804E+02 -0.36177822747E+02  0.77762084808E+03  0.77890707745E+03  0.00000000000E+00 0. -1.
         22    1    3    3    0    0  0.50256886630E+02  0.12606299151E+03  0.13377473687E+02  0.13636931211E+03  0.00000000000E+00 0. -1.
         22    1    3    3    0    0  0.48558337858E+01 -0.27636538782E+02 -0.15423155094E+02  0.32019230326E+02  0.00000000000E+00 0. -1.
</event>
<event>
 7    1  0.5993218E-006  0.1137913E+03  0.7818608E-02  0.1387258E+00
          2   -1    0    0  502    0  0.00000000000E+00  0.00000000000E+00  0.10733972960E+04  0.10733972960E+04  0.00000000000E+00 0. -1.
          1   -1    0    0  501    0 -0.00000000000E+00 -0.00000000000E+00 -0.42054644710E+03  0.42054644710E+03  0.00000000000E+00 0. -1.
         25    2    1    2    0    0  0.51953305899E+02  0.78638680084E+02  0.31065648319E+03  0.34787157181E+03  0.12499596764E+03 0.  0.
          2    1    1    2  501    0 -0.98307613263E+01  0.32998254142E+02 -0.39640471071E+03  0.39789725222E+03  0.00000000000E+00 0. -1.
          1    1    1    2  502    0 -0.42122544573E+02 -0.11163693423E+03  0.73859907641E+03  0.74817491907E+03  0.00000000000E+00 0. -1.
         22    1    3    3    0    0  0.51286440770E+02  0.10382499221E+03  0.29793161690E+03  0.31964539159E+03  0.00000000000E+00 0. -1.
         22    1    3    3    0    0  0.66686512888E+00 -0.25186312129E+02  0.12724866289E+02  0.28226180221E+02  0.00000000000E+00 0. -1.
</event>
<event>
 7    1  0.5993218E-006  0.1077756E+03  0.7818608E-02  0.1342944E+00
          2   -1    0    0  502    0  0.00000000000E+00  0.00000000000E+00  0.80586073122E+03  0.80586073122E+03  0.00000000000E+00 0. -1.
          1   -1    0    0  501    0 -0.00000000000E+00 -0.00000000000E+00 -0.79508824468E+03  0.79508824468E+03  0.00000000000E+00 0. -1.
         25    2    1    2    0    0 -0.16043261944E+02 -0.59421019979E+02 -0.38192734182E+02  0.14447606178E+03  0.12500561433E+03 0.  0.
          2    1    1    2  501    0  0.81229820112E+01  0.11143179169E+03 -0.69838882921E+03  0.70726938560E+03  0.00000000000E+00 0. -1.
          1    1    1    2  502    0  0.79202799328E+01 -0.52010771708E+02  0.74735404993E+03  0.74920352853E+03  0.00000000000E+00 0. -1.
         22    1    3    3    0    0 -0.20012952756E+02  0.31602842771E+02 -0.38060838779E+02  0.53365582520E+02  0.00000000000E+00 0. -1.
         22    1    3    3    0    0  0.39696908115E+01 -0.91023862749E+02 -0.13189540346E+00  0.91110479262E+02  0.00000000000E+00 0. -1.
</event>
<event>
 7    1  0.5993218E-006  0.2272822E+03  0.7818608E-02  0.1206491E+00
          2   -1    0    0  502    0  0.00000000000E+00  0.00000000000E+00  0.20167407706E+04  0.20167407706E+04  0.00000000000E+00 0. -1.
          1   -1    0    0  501    0 -0.00000000000E+00 -0.00000000000E+00 -0.66621081545E+03  0.66621081545E+03  0.00000000000E+00 0. -1.
         25    2    1    2    0    0  0.80673984933E+02 -0.29396985961E+03  0.23966679943E+03  0.40742121520E+03  0.12500120655E+03 0.  0.
          2    1    1    2  501    0 -0.55189904009E+02  0.74566795028E+02 -0.57137319607E+03  0.57885530283E+03  0.00000000000E+00 0. -1.
          1    1    1    2  502    0 -0.25484080924E+02  0.21940306458E+03  0.16822363518E+04  0.16966750680E+04  0.00000000000E+00 0. -1.
         22    1    3    3    0    0  0.49065338279E+02 -0.28481780355E+03  0.18356592404E+03  0.34238142051E+03  0.00000000000E+00 0.  1.
         22    1    3    3    0    0  0.31608646654E+02 -0.91520560575E+01  0.56100875397E+02  0.65039794693E+02  0.00000000000E+00 0.  1.
</event>
<event>
 7    1  0.5993218E-006  0.6292869E+02  0.7818608E-02  0.1408666E+00
          2   -1    0    0  502    0  0.00000000000E+00  0.00000000000E+00  0.78249179253E+03  0.78249179253E+03  0.00000000000E+00 0. -1.
          1   -1    0    0  501    0 -0.00000000000E+00 -0.00000000000E+00 -0.89815696876E+02  0.89815696876E+02  0.00000000000E+00 0. -1.
         25    2    1    2    0    0 -0.28362692006E+02  0.45420236289E+02  0.39453310074E+03  0.41731117310E+03  0.12499922983E+03 0.  0.
          2    1    1    2  501    0  0.47750625271E+02  0.21883228270E+02 -0.65902600729E+02  0.84274258681E+02  0.00000000000E+00 0. -1.
          1    1    1    2  502    0 -0.19387933265E+02 -0.67303464559E+02  0.36404559564E+03  0.37072205762E+03  0.00000000000E+00 0. -1.
         22    1    3    3    0    0  0.22694963988E+02 -0.51013518789E+01  0.28732521320E+03  0.28826526555E+03  0.00000000000E+00 0.  1.
         22    1    3    3    0    0 -0.51057655994E+02  0.50521588168E+02  0.10720788754E+03  0.12904590756E+03  0.00000000000E+00 0.  1.
</event>
<event>
 7    1  0.5993218E-006  0.1392128E+03  0.7818608E-02  0.1322853E+00
          2   -1    0    0  502    0  0.00000000000E+00  0.00000000000E+00  0.51243634575E+03  0.51243634575E+03  0.00000000000E+00 0. -1.
          1   -1    0    0  501    0 -0.00000000000E+00 -0.00000000000E+00 -0.21703310393E+04  0.21703310393E+04  0.00000000000E+00 0. -1.
         25    2    1    2    0    0  0.73301975420E+02  0.16610842977E+03 -0.44989020257E+02  0.22497044704E+03  0.12498999984E+03 0.  0.
          2    1    1    2  501    0 -0.57794674537E+01 -0.48220608879E+02 -0.20241298922E+04  0.20247124363E+04  0.00000000000E+00 0. -1.
          1    1    1    2  502    0 -0.67522507966E+02 -0.11788782089E+03  0.41122421889E+03  0.43308450169E+03  0.00000000000E+00 0. -1.
         22    1    3    3    0    0  0.73262318029E+02  0.11845770565E+03 -0.84637390002E+02  0.16298184886E+03  0.00000000000E+00 0.  1.
         22    1    3    3    0    0  0.39657390853E-01  0.47650724114E+02  0.39648369745E+02  0.61988598183E+02  0.00000000000E+00 0.  1.
</event>
<event>
 7    1  0.5993218E-006  0.8630260E+02  0.7818608E-02  0.1421809E+00
          2   -1    0    0  502    0  0.00000000000E+00  0.00000000000E+00  0.42511223571E+03  0.42511223571E+03  0.00000000000E+00 0. -1.
          1   -1    0    0  501    0 -0.00000000000E+00 -0.00000000000E+00 -0.71389700888E+03  0.71389700888E+03  0.00000000000E+00 0. -1.
         25    2    1    2    0    0 -0.53641594105E+02  0.10488557631E+03  0.18847925276E+03  0.25500318217E+03  0.12499515775E+03 0.  0.
          2    1    1    2  501    0  0.28583205990E+02 -0.81035860168E+02 -0.67642593973E+03  0.68186205514E+03  0.00000000000E+00 0. -1.
          1    1    1    2  502    0  0.25058388115E+02 -0.23849716141E+02  0.19916191380E+03  0.20214400729E+03  0.00000000000E+00 0. -1.
         22    1    3    3    0    0  0.79954413095E+00 -0.11113990161E+02 -0.12439717390E+02  0.16700497503E+02  0.00000000000E+00 0.  1.
         22    1    3    3    0    0 -0.54441138236E+02  0.11599956647E+03  0.20091897015E+03  0.23830268467E+03  0.00000000000E+00 0.  1.
</event>
<event>
 7    1  0.5993218E-006  0.1495213E+03  0.7818608E-02  0.1362606E+00
          2   -1    0    0  502    0  0.00000000000E+00  0.00000000000E+00  0.17978017377E+04  0.17978017377E+04  0.00000000000E+00 0. -1.
          1   -1    0    0  501    0 -0.00000000000E+00 -0.00000000000E+00 -0.14129510871E+03  0.14129510871E+03  0.00000000000E+00 0. -1.
         25    2    1    2    0    0  0.11775253398E+03 -0.17897920393E+02  0.82733634683E+03  0.84516045459E+03  0.12499907364E+03 0.  0.
          2    1    1    2  501    0 -0.14977792012E+03  0.19897429598E+02 -0.88899024278E+02  0.17530650181E+03  0.00000000000E+00 0. -1.
          1    1    1    2  502    0  0.32025386142E+02 -0.19995092054E+01  0.91806930645E+03  0.91862989002E+03  0.00000000000E+00 0. -1.
         22    1    3    3    0    0  0.84769607324E+02 -0.67341430023E+02  0.43083198392E+03  0.44422624066E+03  0.00000000000E+00 0.  1.
         22    1    3    3    0    0  0.32982926655E+02  0.49443509631E+02  0.39650436291E+03  0.40093421393E+03  0.00000000000E+00 0.  1.
</event>
<event>
 7    1  0.5993218E-006  0.2435103E+03  0.7818608E-02  0.1264681E+00
          2   -1    0    0  502    0  0.00000000000E+00  0.00000000000E+00  0.17448886806E+04  0.17448886806E+04  0.00000000000E+00 0. -1.
          1   -1    0    0  501    0 -0.00000000000E+00 -0.00000000000E+00 -0.17154245951E+04  0.17154245951E+04  0.00000000000E+00 0. -1.
         25    2    1    2    0    0  0.60091900949E+02 -0.20664080262E+03  0.29529434424E+03  0.38618008895E+03  0.12499941399E+03 0.  0.
          2    1    1    2  501    0 -0.28741530063E+02  0.24263163593E+03 -0.16606346702E+04  0.16785123456E+04  0.00000000000E+00 0. -1.
          1    1    1    2  502    0 -0.31350370886E+02 -0.35990833312E+02  0.13948044116E+04  0.13956208412E+04  0.00000000000E+00 0. -1.
         22    1    3    3    0    0  0.50972342332E+02 -0.21379246533E+03  0.22351603951E+03  0.31347219627E+03  0.00000000000E+00 0.  1.
         22    1    3    3    0    0  0.91195586164E+01  0.71516627127E+01  0.71778304726E+02  0.72707892682E+02  0.00000000000E+00 0.  1.
</event>
<event>
 7    1  0.5993218E-006  0.2487099E+03  0.7818608E-02  0.1267081E+00
          2   -1    0    0  502    0  0.00000000000E+00  0.00000000000E+00  0.21007940868E+04  0.21007940868E+04  0.00000000000E+00 0. -1.
          1   -1    0    0  501    0 -0.00000000000E+00 -0.00000000000E+00 -0.66745876397E+02  0.66745876397E+02  0.00000000000E+00 0. -1.
         25    2    1    2    0    0  0.20604403637E+03 -0.57705504493E+02  0.40577676540E+03  0.47546208893E+03  0.12500137799E+03 0.  0.
          2    1    1    2  501    0  0.45493385488E+02 -0.38223490631E+01  0.24031364231E+01  0.45716884629E+02  0.00000000000E+00 0. -1.
          1    1    1    2  502    0 -0.25153742185E+03  0.61527853556E+02  0.16258683085E+04  0.16463609896E+04  0.00000000000E+00 0. -1.
         22    1    3    3    0    0  0.14277944050E+03 -0.92086230598E+02  0.32852697650E+03  0.36985918508E+03  0.00000000000E+00 0.  1.
         22    1    3    3    0    0  0.63264595863E+02  0.34380726105E+02  0.77249788897E+02  0.10560290385E+03  0.00000000000E+00 0.  1.
</event>
<event>
 7    1  0.5993218E-006  0.3817589E+02  0.7818608E-02  0.1584201E+00
          2   -1    0    0  502    0  0.00000000000E+00  0.00000000000E+00  0.53548432899E+03  0.53548432899E+03  0.00000000000E+00 0. -1.
          1   -1    0    0  501    0 -0.00000000000E+00 -0.00000000000E+00 -0.70695486089E+03  0.70695486089E+03  0.00000000000E+00 0. -1.
         25    2    1    2    0    0 -0.32331192584E+01 -0.13173564936E+02  0.48500195387E+03  0.50103340064E+03  0.12499430954E+03 0.  0.
          2    1    1    2  501    0  0.14643561753E+02 -0.35255700123E+02 -0.68364778573E+03  0.68471285458E+03  0.00000000000E+00 0. -1.
          1    1    1    2  502    0 -0.11410442494E+02  0.48429265058E+02  0.27175299963E+02  0.56692934658E+02  0.00000000000E+00 0. -1.
         22    1    3    3    0    0 -0.52376841270E+02 -0.37868524748E+01  0.39132426381E+03  0.39483205696E+03  0.00000000000E+00 0.  1.
         22    1    3    3    0    0  0.49143722011E+02 -0.93867124607E+01  0.93677690064E+02  0.10620134368E+03  0.00000000000E+00 0.  1.
</event>
<event>
 7    1  0.5993218E-006  0.1745960E+03  0.7818608E-02  0.1332514E+00
          2   -1    0    0  502    0  0.00000000000E+00  0.00000000000E+00  0.50485575414E+03  0.50485575414E+03  0.00000000000E+00 0. -1.
          1   -1    0    0  501    0 -0.00000000000E+00 -0.00000000000E+00 -0.24718163617E+04  0.24718163617E+04  0.00000000000E+00 0. -1.
         25    2    1    2    0    0  0.19359436149E+02  0.14153608460E+03 -0.24769213787E+03  0.31206216331E+03  0.12499659034E+03 0.  0.
          2    1    1    2  501    0 -0.28689480936E+02 -0.17584797589E+03 -0.21876434838E+04  0.21948871518E+04  0.00000000000E+00 0. -1.
          1    1    1    2  502    0  0.93300447876E+01  0.34311891294E+02  0.46837501414E+03  0.46972280069E+03  0.00000000000E+00 0. -1.
         22    1    3    3    0    0 -0.32395868739E+02  0.44726883859E+02 -0.19027671787E+02  0.58412659114E+02  0.00000000000E+00 0. -1.
         22    1    3    3    0    0  0.51755304888E+02  0.96809200740E+02 -0.22866446608E+03  0.25364950420E+03  0.00000000000E+00 0. -1.
</event>
<event>
 7    1  0.5993218E-006  0.8239615E+02  0.7818608E-02  0.1437133E+00
          2   -1    0    0  502    0  0.00000000000E+00  0.00000000000E+00  0.80461240397E+03  0.80461240397E+03  0.00000000000E+00 0. -1.
          1   -1    0    0  501    0 -0.00000000000E+00 -0.00000000000E+00 -0.53479535649E+03  0.53479535649E+03  0.00000000000E+00 0. -1.
         25    2    1    2    0    0 -0.54824873472E+02 -0.10041292327E+03 -0.26593918029E+03  0.31533688352E+03  0.12500072232E+03 0.  0.
          2    1    1    2  501    0  0.14871609079E+02  0.28624342857E+02 -0.24091572423E+03  0.24306563711E+03  0.00000000000E+00 0. -1.
          1    1    1    2  502    0  0.39953264394E+02  0.71788580415E+02  0.77667195200E+03  0.78100523983E+03  0.00000000000E+00 0. -1.
         22    1    3    3    0    0 -0.43503418608E+02 -0.70872445920E+02 -0.49874840230E+02  0.96968813076E+02  0.00000000000E+00 0. -1.
         22    1    3    3    0    0 -0.11321454864E+02 -0.29540477351E+02 -0.21606434006E+03  0.21836807044E+03  0.00000000000E+00 0. -1.
</event>
<event>
 7    1  0.5993218E-006  0.1119921E+03  0.7818608E-02  0.1309595E+00
          2   -1    0    0  502    0  0.00000000000E+00  0.00000000000E+00  0.82442177873E+03  0.82442177873E+03  0.00000000000E+00 0. -1.
          1   -1    0    0  501    0 -0.00000000000E+00 -0.00000000000E+00 -0.93538653106E+02  0.93538653106E+02  0.00000000000E+00 0. -1.
         25    2    1    2    0    0 -0.34195388283E+02  0.13931391168E+03  0.37476773382E+03  0.42030130062E+03  0.12499855366E+03 0.  0.
          2    1    1    2  501    0  0.57616955969E+02 -0.36131650514E+02 -0.45837223877E+02  0.82013784675E+02  0.00000000000E+00 0. -1.
          1    1    1    2  502    0 -0.23421567685E+02 -0.10318226117E+03  0.40195261567E+03  0.41564534654E+03  0.00000000000E+00 0. -1.
         22    1    3    3    0    0 -0.50395839875E+02  0.11654669808E+03  0.16261617590E+03  0.20631745969E+03  0.00000000000E+00 0.  1.
         22    1    3    3    0    0  0.16200451592E+02  0.22767213601E+02  0.21215155793E+03  0.21398384093E+03  0.00000000000E+00 0.  1.
</event>
<event>
 7    1  0.5993218E-006  0.7378253E+02  0.7818608E-02  0.1437582E+00
          2   -1    0    0  502    0  0.00000000000E+00  0.00000000000E+00  0.56747396405E+03  0.56747396405E+03  0.00000000000E+00 0. -1.
          1   -1    0    0  501    0 -0.00000000000E+00 -0.00000000000E+00 -0.22018220260E+03  0.22018220260E+03  0.00000000000E+00 0. -1.
         25    2    1    2    0    0  0.48061569832E+02  0.18602578427E+02  0.17463594966E+03  0.22085926299E+03  0.12500051486E+03 0.  0.
          2    1    1    2  501    0  0.30322646228E+02 -0.19221746243E+02 -0.19122644667E+03  0.19456744926E+03  0.00000000000E+00 0. -1.
          1    1    1    2  502    0 -0.78384216060E+02  0.61916781593E+00  0.36388225847E+03  0.37222945440E+03  0.00000000000E+00 0. -1.
         22    1    3    3    0    0  0.74670172641E+02 -0.73439225790E+01  0.48449512658E+02  0.89313622465E+02  0.00000000000E+00 0.  1.
         22    1    3    3    0    0 -0.26608602809E+02  0.25946501006E+02  0.12618643700E+03  0.13154564052E+03  0.00000000000E+00 0.  1.
</event>
<event>
 7    1  0.5993218E-006  0.8135956E+02  0.7818608E-02  0.1390653E+00
          2   -1    0    0  502    0  0.00000000000E+00  0.00000000000E+00  0.69020876644E+03  0.69020876644E+03  0.00000000000E+00 0. -1.
          1   -1    0    0  501    0 -0.00000000000E+00 -0.00000000000E+00 -0.39107491767E+03  0.39107491767E+03  0.00000000000E+00 0. -1.
         25    2    1    2    0    0  0.38083820149E+02 -0.68695717981E+02  0.11874717466E+03  0.18945925255E+03  0.12499775142E+03 0.  0.
          2    1    1    2  501    0 -0.44795909359E+02 -0.13749934597E+02 -0.35096164815E+03  0.35407599843E+03  0.00000000000E+00 0. -1.
          1    1    1    2  502    0  0.67120892103E+01  0.82445652577E+02  0.53134832226E+03  0.53774843313E+03  0.00000000000E+00 0. -1.
         22    1    3    3    0    0  0.74618000469E+02 -0.30712242594E+02  0.29696974351E+02  0.85982545466E+02  0.00000000000E+00 0.  1.
         22    1    3    3    0    0 -0.36534180321E+02 -0.37983475386E+02  0.89050200306E+02  0.10347670708E+03  0.00000000000E+00 0.  1.
</event>
<event>
 7    1  0.5993218E-006  0.4539260E+02  0.7818608E-02  0.1549984E+00
          2   -1    0    0  502    0  0.00000000000E+00  0.00000000000E+00  0.67989910014E+03  0.67989910014E+03  0.00000000000E+00 0. -1.
          1   -1    0    0  501    0 -0.00000000000E+00 -0.00000000000E+00 -0.25202712469E+03  0.25202712469E+03  0.00000000000E+00 0. -1.
         25    2    1    2    0    0  0.44696943217E+02  0.19129645785E+01  0.11770425815E+03  0.17742915503E+03  0.12500134599E+03 0.  0.
          2    1    1    2  501    0 -0.59509105486E+01 -0.26077423826E+02 -0.22037526790E+03  0.22199257661E+03  0.00000000000E+00 0. -1.
          1    1    1    2  502    0 -0.38746032668E+02  0.24164459247E+02  0.53054298519E+03  0.53250449320E+03  0.00000000000E+00 0. -1.
         22    1    3    3    0    0 -0.66355841057E+01 -0.71792587382E+01 -0.24281454475E+02  0.26175594814E+02  0.00000000000E+00 0.  1.
         22    1    3    3    0    0  0.51332527322E+02  0.90922233166E+01  0.14198571263E+03  0.15125356021E+03  0.00000000000E+00 0.  1.
</event>
<event>
 7    1  0.5993218E-006  0.4784941E+02  0.7818608E-02  0.1573066E+00
          2   -1    0    0  502    0  0.00000000000E+00  0.00000000000E+00  0.37825292260E+03  0.37825292260E+03  0.00000000000E+00 0. -1.
          1   -1    0    0  501    0 -0.00000000000E+00 -0.00000000000E+00 -0.49980076302E+03  0.49980076302E+03  0.00000000000E+00 0. -1.
         25    2    1    2    0    0 -0.35235367222E+02  0.35502081954E+02 -0.87309486262E+01  0.13491992499E+03  0.12500091108E+03 0.  0.
          2    1    1    2  501    0 -0.99458651276E+01 -0.19541722714E+02 -0.42587026929E+03  0.42643438584E+03  0.00000000000E+00 0. -1.
          1    1    1    2  502    0  0.45181232350E+02 -0.15960359240E+02  0.31305337750E+03  0.31669937479E+03  0.00000000000E+00 0. -1.
         22    1    3    3    0    0  0.42918191879E+02  0.36655807130E+02 -0.51522817343E+01  0.56675968430E+02  0.00000000000E+00 0. -1.
         22    1    3    3    0    0 -0.78153559101E+02 -0.11537251757E+01 -0.35786668919E+01  0.78243956563E+02  0.00000000000E+00 0. -1.
</event>
<event>
 7    1  0.5993218E-006  0.6531550E+02  0.7818608E-02  0.1405071E+00
          2   -1    0    0  502    0  0.00000000000E+00  0.00000000000E+00  0.11166364700E+04  0.11166364700E+04  0.00000000000E+00 0. -1.
          1   -1    0    0  501    0 -0.00000000000E+00 -0.00000000000E+00 -0.13345047322E+03  0.13345047322E+03  0.00000000000E+00 0. -1.
         25    2    1    2    0    0 -0.47902629281E+01 -0.56502215268E+02  0.21570703102E+02  0.13890811640E+03  0.12495888372E+03 0.  0.
          2    1    1    2  501    0  0.55222398183E+02  0.43613327982E+02 -0.57415483321E+02  0.90819454764E+02  0.00000000000E+00 0. -1.
          1    1    1    2  502    0 -0.50432135255E+02  0.12888887286E+02  0.10190307770E+04  0.10203593721E+04  0.00000000000E+00 0. -1.
         22    1    3    3    0    0 -0.53065610658E+02 -0.12066893280E+02 -0.23530415332E+02  0.59289538652E+02  0.00000000000E+00 0. -1.
         22    1    3    3    0    0  0.48275347730E+02 -0.44435321988E+02  0.45101118434E+02  0.79618577748E+02  0.00000000000E+00 0. -1.
</event>
<event>
 7    1  0.5993218E-006  0.3372849E+02  0.7818608E-02  0.1561386E+00
          2   -1    0    0  502    0  0.00000000000E+00  0.00000000000E+00  0.78128159118E+02  0.78128159118E+02  0.00000000000E+00 0. -1.
          1   -1    0    0  501    0 -0.00000000000E+00 -0.00000000000E+00 -0.61129248905E+03  0.61129248905E+03  0.00000000000E+00 0. -1.
         25    2    1    2    0    0 -0.37524015419E+01  0.96628962733E+01 -0.42066827010E+03  0.43896672231E+03  0.12499015057E+03 0.  0.
          2    1    1    2  501    0 -0.17403765956E+02 -0.35931279324E+02 -0.17496438565E+03  0.17946165091E+03  0.00000000000E+00 0. -1.
          1    1    1    2  502    0  0.21156167498E+02  0.26268383051E+02  0.62468325821E+02  0.70992274947E+02  0.00000000000E+00 0. -1.
         22    1    3    3    0    0 -0.50421863974E+01  0.65277884165E+02 -0.16935885289E+03  0.18157380554E+03  0.00000000000E+00 0.  1.
         22    1    3    3    0    0  0.12897848556E+01 -0.55614987891E+02 -0.25130941721E+03  0.25739291677E+03  0.00000000000E+00 0.  1.
</event>
<event>
 7    1  0.5993218E-006  0.1218246E+03  0.7818608E-02  0.1346682E+00
          2   -1    0    0  502    0  0.00000000000E+00  0.00000000000E+00  0.20858419130E+04  0.20858419130E+04  0.00000000000E+00 0. -1.
          1   -1    0    0  501    0 -0.00000000000E+00 -0.00000000000E+00 -0.11502365274E+04  0.11502365274E+04  0.00000000000E+00 0. -1.
         25    2    1    2    0    0  0.42060128422E+02  0.70289670772E+02  0.12506887279E+03  0.19487585017E+03  0.12499872727E+03 0.  0.
          2    1    1    2  501    0  0.44119756158E+01  0.44854380539E+02 -0.11128750064E+04  0.11137873050E+04  0.00000000000E+00 0. -1.
          1    1    1    2  502    0 -0.46472104038E+02 -0.11514405131E+03  0.19234115193E+04  0.19274152852E+04  0.00000000000E+00 0. -1.
         22    1    3    3    0    0  0.87848583333E+01 -0.18806801163E+02 -0.14971211434E+02  0.25593098244E+02  0.00000000000E+00 0. -1.
         22    1    3    3    0    0  0.33275270089E+02  0.89096471935E+02  0.14004008422E+03  0.16928275193E+03  0.00000000000E+00 0. -1.
</event>
<event>
 7    1  0.5993218E-006  0.6182007E+02  0.7818608E-02  0.1397440E+00
          2   -1    0    0  502    0  0.00000000000E+00  0.00000000000E+00  0.13926390922E+04  0.13926390922E+04  0.00000000000E+00 0. -1.
          1   -1    0    0  501    0 -0.00000000000E+00 -0.00000000000E+00 -0.48578084027E+03  0.48578084027E+03  0.00000000000E+00 0. -1.
         25    2    1    2    0    0  0.34984878798E+02 -0.46429870318E+02  0.99082410101E+03  0.10003688490E+04  0.12500304108E+03 0.  0.
          2    1    1    2  501    0 -0.58547731638E+02 -0.19846502974E+02 -0.47587799123E+03  0.47987663321E+03  0.00000000000E+00 0. -1.
          1    1    1    2  502    0  0.23562852840E+02  0.66276373291E+02  0.39191214219E+03  0.39817445032E+03  0.00000000000E+00 0. -1.
         22    1    3    3    0    0  0.33990639087E+02 -0.66014918438E+02  0.29276112376E+03  0.30203047626E+03  0.00000000000E+00 0.  1.
         22    1    3    3    0    0  0.99423971075E+00  0.19585048120E+02  0.69806297725E+03  0.69833837273E+03  0.00000000000E+00 0.  1.
</event>
<event>
 7    1  0.5993218E-006  0.3385010E+03  0.7818608E-02  0.1153105E+00
          2   -1    0    0  502    0  0.00000000000E+00  0.00000000000E+00  0.73159272701E+03  0.73159272701E+03  0.00000000000E+00 0. -1.
          1   -1    0    0  501    0 -0.00000000000E+00 -0.00000000000E+00 -0.11660033547E+04  0.11660033547E+04  0.00000000000E+00 0. -1.
         25    2    1    2    0    0  0.48615225256E+02  0.25921225554E+03  0.25180216127E+00  0.29185807549E+03  0.12500655694E+03 0.  0.
          2    1    1    2  501    0 -0.29798676730E+02  0.10958017153E+03 -0.95829161734E+03  0.96499668341E+03  0.00000000000E+00 0. -1.
          1    1    1    2  502    0 -0.18816548526E+02 -0.36879242707E+03  0.52362918749E+03  0.64074132281E+03  0.00000000000E+00 0. -1.
         22    1    3    3    0    0  0.85243099548E+02  0.20090200311E+03 -0.22359392766E+02  0.21938081803E+03  0.00000000000E+00 0.  1.
         22    1    3    3    0    0 -0.36627874291E+02  0.58310252427E+02  0.22611194927E+02  0.72477257462E+02  0.00000000000E+00 0.  1.
</event>
<event>
 7    1  0.5993218E-006  0.9895625E+02  0.7818608E-02  0.1304440E+00
          2   -1    0    0  502    0  0.00000000000E+00  0.00000000000E+00  0.26539189085E+04  0.26539189085E+04  0.00000000000E+00 0. -1.
          1   -1    0    0  501    0 -0.00000000000E+00 -0.00000000000E+00 -0.50056269137E+03  0.50056269137E+03  0.00000000000E+00 0. -1.
         25    2    1    2    0    0 -0.86461539798E+02  0.35370948046E+02  0.27930664032E+03  0.31994398828E+03  0.12500101791E+03 0.  0.
          2    1    1    2  501    0  0.31555512631E+02 -0.94474419120E+02 -0.47437932200E+03  0.48472353706E+03  0.00000000000E+00 0. -1.
          1    1    1    2  502    0  0.54906027167E+02  0.59103471074E+02  0.23484288988E+04  0.23498140745E+04  0.00000000000E+00 0. -1.
         22    1    3    3    0    0 -0.28635397031E+02  0.46796783595E+02  0.24640529832E+03  0.25243909356E+03  0.00000000000E+00 0. -1.
         22    1    3    3    0    0 -0.57826142767E+02 -0.11425835549E+02  0.32901341999E+02  0.67504894716E+02  0.00000000000E+00 0. -1.
</event>
<event>
 7    1  0.5993218E-006  0.6141288E+02  0.7818608E-02  0.1395920E+00
          2   -1    0    0  502    0  0.00000000000E+00  0.00000000000E+00  0.45522170137E+04  0.45522170137E+04  0.00000000000E+00 0. -1.
          1   -1    0    0  501    0 -0.00000000000E+00 -0.00000000000E+00 -0.23179525510E+02  0.23179525510E+02  0.00000000000E+00 0. -1.
         25    2    1    2    0    0  0.46239333146E+02  0.24978006281E+02  0.22510689197E+04  0.22551493600E+04  0.12500151240E+03 0.  0.
          2    1    1    2  501    0 -0.44933674262E+02  0.41862950000E+02  0.25031316584E+02  0.66318236371E+02  0.00000000000E+00 0. -1.
          1    1    1    2  502    0 -0.13056588839E+01 -0.66840956281E+02  0.22529372519E+04  0.22539289428E+04  0.00000000000E+00 0. -1.
         22    1    3    3    0    0  0.27183791404E+02  0.76100896708E+02  0.12785355223E+04  0.12810867991E+04  0.00000000000E+00 0.  1.
         22    1    3    3    0    0  0.19055541742E+02 -0.51122890427E+02  0.97253339735E+03  0.97406256091E+03  0.00000000000E+00 0.  1.
</event>
<event>
 7    1  0.5993218E-006  0.4527040E+02  0.7818608E-02  0.1480728E+00
          2   -1    0    0  502    0  0.00000000000E+00  0.00000000000E+00  0.43084604433E+03  0.43084604433E+03  0.00000000000E+00 0. -1.
          1   -1    0    0  501    0 -0.00000000000E+00 -0.00000000000E+00 -0.21380692029E+03  0.21380692029E+03  0.00000000000E+00 0. -1.
         25    2    1    2    0    0 -0.74889245504E+01 -0.18233730403E+01  0.17530463701E+03  0.21544500626E+03  0.12500170513E+03 0.  0.
          2    1    1    2  501    0 -0.42624747075E+02 -0.32908853130E+01 -0.18862289372E+03  0.19340707077E+03  0.00000000000E+00 0. -1.
          1    1    1    2  502    0  0.50113671625E+02  0.51142583533E+01  0.23035738075E+03  0.23580088759E+03  0.00000000000E+00 0. -1.
         22    1    3    3    0    0  0.23925768057E+01 -0.35302004234E+02 -0.13165675324E+01  0.35407474872E+02  0.00000000000E+00 0. -1.
         22    1    3    3    0    0 -0.98815013562E+01  0.33478631194E+02  0.17662120454E+03  0.18003753139E+03  0.00000000000E+00 0. -1.
</event>
<event>
 7    1  0.5993218E-006  0.9601639E+02  0.7818608E-02  0.1390869E+00
          2   -1    0    0  502    0  0.00000000000E+00  0.00000000000E+00  0.14839354296E+04  0.14839354296E+04  0.00000000000E+00 0. -1.
          1   -1    0    0  501    0 -0.00000000000E+00 -0.00000000000E+00 -0.11671001747E+03  0.11671001747E+03  0.00000000000E+00 0. -1.
         25    2    1    2    0    0 -0.43375258171E+02  0.37757003082E+02  0.72058374619E+01  0.13778387749E+03  0.12500187398E+03 0.  0.
          2    1    1    2  501    0 -0.32530405969E+02  0.22646503704E+02 -0.41849088160E+02  0.57640590059E+02  0.00000000000E+00 0. -1.
          1    1    1    2  502    0  0.75905664139E+02 -0.60403506785E+02  0.14018686628E+04  0.14052209795E+04  0.00000000000E+00 0. -1.
         22    1    3    3    0    0 -0.71724048871E+02  0.23154553104E+02 -0.36451202321E+02  0.83720742153E+02  0.00000000000E+00 0.  1.
         22    1    3    3    0    0  0.28348790701E+02  0.14602449977E+02  0.43657039783E+02  0.54063135334E+02  0.00000000000E+00 0.  1.
</event>
<event>
 7    1  0.5993218E-006  0.1601462E+03  0.7818608E-02  0.1223123E+00
          2   -1    0    0  502    0  0.00000000000E+00  0.00000000000E+00  0.39101795171E+03  0.39101795171E+03  0.00000000000E+00 0. -1.
          1   -1    0    0  501    0 -0.00000000000E+00 -0.00000000000E+00 -0.79243543445E+03  0.79243543445E+03  0.00000000000E+00 0. -1.
         25    2    1    2    0    0  0.16451387452E+02 -0.88109193215E+02 -0.30631413677E+02  0.15683573586E+03  0.12500114584E+03 0.  0.
          2    1    1    2  501    0 -0.69435454235E+02 -0.85824496060E+02 -0.66861807192E+03  0.67767046013E+03  0.00000000000E+00 0. -1.
          1    1    1    2  502    0  0.52984066783E+02  0.17393368927E+03  0.29783200286E+03  0.34894719017E+03  0.00000000000E+00 0. -1.
         22    1    3    3    0    0  0.20110662846E+02 -0.91396442635E+02 -0.70185113904E+02  0.11697734268E+03  0.00000000000E+00 0. -1.
         22    1    3    3    0    0 -0.36592753945E+01  0.32872494200E+01  0.39553700227E+02  0.39858393179E+02  0.00000000000E+00 0. -1.
</event>
<event>
 7    1  0.5993218E-006  0.2667966E+03  0.7818608E-02  0.1168277E+00
          2   -1    0    0  502    0  0.00000000000E+00  0.00000000000E+00  0.55479786724E+03  0.55479786724E+03  0.00000000000E+00 0. -1.
          1   -1    0    0  501    0 -0.00000000000E+00 -0.00000000000E+00 -0.10085482049E+04  0.10085482049E+04  0.00000000000E+00 0. -1.
         25    2    1    2    0    0 -0.15231120577E+03  0.47897676560E+02 -0.27226719257E+03  0.33948135423E+03  0.12500109957E+03 0.  0.
          2    1    1    2  501    0 -0.11813727407E+03  0.25138000402E+02 -0.65914307443E+03  0.67011784573E+03  0.00000000000E+00 0. -1.
          1    1    1    2  502    0  0.27044847985E+03 -0.73035676962E+02  0.47765992934E+03  0.55374687219E+03  0.00000000000E+00 0. -1.
         22    1    3    3    0    0  0.59821556653E+01  0.40580148715E+02 -0.83412704948E+02  0.92952751454E+02  0.00000000000E+00 0.  1.
         22    1    3    3    0    0 -0.15829336144E+03  0.73175278456E+01 -0.18885448762E+03  0.24652860277E+03  0.00000000000E+00 0.  1.
</event>
<event>
 7    1  0.5993218E-006  0.6290341E+02  0.7818608E-02  0.1515528E+00
          2   -1    0    0  502    0  0.00000000000E+00  0.00000000000E+00  0.21241755760E+03  0.21241755760E+03  0.00000000000E+00 0. -1.
          1   -1    0    0  501    0 -0.00000000000E+00 -0.00000000000E+00 -0.27464444167E+03  0.27464444167E+03  0.00000000000E+00 0. -1.
         25    2    1    2    0    0 -0.28127117362E+02  0.73882606144E+02 -0.15379382097E+03  0.21337074343E+03  0.12499904225E+03 0.  0.
          2    1    1    2  501    0  0.21152234648E+02 -0.11773736673E+02 -0.83954218387E+02  0.87374760033E+02  0.00000000000E+00 0. -1.
          1    1    1    2  502    0  0.69748827133E+01 -0.62108869471E+02  0.17552115529E+03  0.18631649580E+03  0.00000000000E+00 0. -1.
         22    1    3    3    0    0 -0.38040135076E+02 -0.13250104003E+02 -0.49103152037E+01  0.40579900543E+02  0.00000000000E+00 0. -1.
         22    1    3    3    0    0  0.99130177145E+01  0.87132710147E+02 -0.14888350576E+03  0.17279084289E+03  0.00000000000E+00 0. -1.
</event>
<event>
 7    1  0.5993218E-006  0.5797336E+02  0.7818608E-02  0.1475512E+00
          2   -1    0    0  502    0  0.00000000000E+00  0.00000000000E+00  0.15733624490E+04  0.15733624490E+04  0.00000000000E+00 0. -1.
          1   -1    0    0  501    0 -0.00000000000E+00 -0.00000000000E+00 -0.61823935477E+02  0.61823935477E+02  0.00000000000E+00 0. -1.
         25    2    1    2    0    0  0.64756089481E+02 -0.14868879501E+02  0.63205929868E+03  0.64771824136E+03  0.12500211374E+03 0.  0.
          2    1    1    2  501    0 -0.97476197891E+01  0.33240561036E+02 -0.47437445642E+02  0.58738932904E+02  0.00000000000E+00 0. -1.
          1    1    1    2  502    0 -0.55008469691E+02 -0.18371681535E+02  0.92691666048E+03  0.92872921021E+03  0.00000000000E+00 0. -1.
         22    1    3    3    0    0  0.84126407171E+02  0.20792541298E+02  0.54270206586E+03  0.54957721427E+03  0.00000000000E+00 0.  1.
         22    1    3    3    0    0 -0.19370317690E+02 -0.35661420799E+02  0.89357232829E+02  0.98141027097E+02  0.00000000000E+00 0.  1.
</event>
<event>
 7    1  0.5993218E-006  0.3881183E+02  0.7818608E-02  0.1527673E+00
          2   -1    0    0  502    0  0.00000000000E+00  0.00000000000E+00  0.11671065234E+04  0.11671065234E+04  0.00000000000E+00 0. -1.
          1   -1    0    0  501    0 -0.00000000000E+00 -0.00000000000E+00 -0.40894394989E+02  0.40894394989E+02  0.00000000000E+00 0. -1.
         25    2    1    2    0    0 -0.11895897865E+02 -0.70200685753E+02  0.64474558227E+03  0.66060006794E+03  0.12500374093E+03 0.  0.
          2    1    1    2  501    0  0.16901070377E+02  0.34367612281E+02 -0.20969704172E+02  0.43663571164E+02  0.00000000000E+00 0. -1.
          1    1    1    2  502    0 -0.50051725117E+01  0.35833073472E+02  0.50243625027E+03  0.50373727924E+03  0.00000000000E+00 0. -1.
         22    1    3    3    0    0  0.34726686864E+02 -0.32546579907E+01  0.42105805301E+03  0.42250020069E+03  0.00000000000E+00 0. -1.
         22    1    3    3    0    0 -0.46622584729E+02 -0.66946027762E+02  0.22368752925E+03  0.23809986725E+03  0.00000000000E+00 0. -1.
</event>
<event>
 7    1  0.5993218E-006  0.5343362E+02  0.7818608E-02  0.1440435E+00
          2   -1    0    0  502    0  0.00000000000E+00  0.00000000000E+00  0.97724074969E+02  0.97724074969E+02  0.00000000000E+00 0. -1.
          1   -1    0    0  501    0 -0.00000000000E+00 -0.00000000000E+00 -0.12917804581E+04  0.12917804581E+04  0.00000000000E+00 0. -1.
         25    2    1    2    0    0 -0.26404547519E+02  0.66905526889E+02 -0.54056887858E+03  0.55947567362E+03  0.12499906891E+03 0.  0.
          2    1    1    2  501    0 -0.18991958620E+02 -0.49758633129E+02 -0.73405023737E+03  0.73597986864E+03  0.00000000000E+00 0. -1.
          1    1    1    2  502    0  0.45396506139E+02 -0.17146893760E+02  0.80562732867E+02  0.94048990756E+02  0.00000000000E+00 0. -1.
         22    1    3    3    0    0  0.12066520781E+02  0.28010335140E+01  0.13166028006E+01  0.12457132713E+02  0.00000000000E+00 0. -1.
         22    1    3    3    0    0 -0.38471068300E+02  0.64104493375E+02 -0.54188548138E+03  0.54701854091E+03  0.00000000000E+00 0. -1.
</event>
<event>
 7    1  0.5993218E-006  0.5005854E+02  0.7818608E-02  0.1457367E+00
          2   -1    0    0  502    0  0.00000000000E+00  0.00000000000E+00  0.22981885459E+03  0.22981885459E+03  0.00000000000E+00 0. -1.
          1   -1    0    0  501    0 -0.00000000000E+00 -0.00000000000E+00 -0.14019638841E+04  0.14019638841E+04  0.00000000000E+00 0. -1.
         25    2    1    2    0    0  0.21743538388E+02  0.49300572156E+01 -0.45878050120E+03  0.47602705683E+03  0.12500049454E+03 0.  0.
          2    1    1    2  501    0 -0.17575749671E+02 -0.50454878238E+02 -0.93142431120E+03  0.93295543796E+03  0.00000000000E+00 0. -1.
          1    1    1    2  502    0 -0.41677887172E+01  0.45524821022E+02  0.21805978286E+03  0.22280024392E+03  0.00000000000E+00 0. -1.
         22    1    3    3    0    0  0.24047381046E+02  0.63642148442E+02 -0.23341383351E+03  0.24312675144E+03  0.00000000000E+00 0.  1.
         22    1    3    3    0    0 -0.23038426576E+01 -0.58712091226E+02 -0.22536666769E+03  0.23290030539E+03  0.00000000000E+00 0.  1.
</event>
<event>
 7    1  0.5993218E-006  0.1067319E+03  0.7818608E-02  0.1379578E+00
          2   -1    0    0  502    0  0.00000000000E+00  0.00000000000E+00  0.13710351086E+04  0.13710351086E+04  0.00000000000E+00 0. -1.
          1   -1    0    0  501    0 -0.00000000000E+00 -0.00000000000E+00 -0.34470022331E+03  0.34470022331E+03  0.00000000000E+00 0. -1.
         25    2    1    2    0    0  0.79665528506E+02  0.44751181172E+02  0.40692554717E+03  0.43539253193E+03  0.12501596405E+03 0.  0.
          2    1    1    2  501    0 -0.10598717407E+03 -0.15879619005E+02 -0.32136180407E+03  0.33876075995E+03  0.00000000000E+00 0. -1.
          1    1    1    2  502    0  0.26321645563E+02 -0.28871562167E+02  0.94077114224E+03  0.94158204007E+03  0.00000000000E+00 0. -1.
         22    1    3    3    0    0 -0.22983887146E+02  0.24179607372E+02  0.20743411748E+03  0.21009956110E+03  0.00000000000E+00 0.  1.
         22    1    3    3    0    0  0.10264941565E+03  0.20571573800E+02  0.19949142970E+03  0.22529297083E+03  0.00000000000E+00 0.  1.
</event>
<event>
 7    1  0.5993218E-006  0.1637785E+03  0.7818608E-02  0.1352947E+00
          2   -1    0    0  502    0  0.00000000000E+00  0.00000000000E+00  0.21157412373E+04  0.21157412373E+04  0.00000000000E+00 0. -1.
          1   -1    0    0  501    0 -0.00000000000E+00 -0.00000000000E+00 -0.13343151460E+04  0.13343151460E+04  0.00000000000E+00 0. -1.
         25    2    1    2    0    0 -0.12666905498E+03  0.40780115965E+02  0.42148410983E+03  0.45932614990E+03  0.12499435905E+03 0.  0.
          2    1    1    2  501    0  0.15835961544E+03 -0.43165280730E+02 -0.13101220319E+04  0.13203638695E+04  0.00000000000E+00 0. -1.
          1    1    1    2  502    0 -0.31690560455E+02  0.23851647656E+01  0.16700640135E+04  0.16703663639E+04  0.00000000000E+00 0. -1.
         22    1    3    3    0    0  0.23217526514E+02  0.20492653371E+02  0.61490104688E+02  0.68847914669E+02  0.00000000000E+00 0. -1.
         22    1    3    3    0    0 -0.14988658150E+03  0.20287462594E+02  0.35999400514E+03  0.39047823523E+03  0.00000000000E+00 0. -1.
</event>
<event>
 7    1  0.5993218E-006  0.5654385E+02  0.7818608E-02  0.1493173E+00
          2   -1    0    0  502    0  0.00000000000E+00  0.00000000000E+00  0.10819838411E+03  0.10819838411E+03  0.00000000000E+00 0. -1.
          1   -1    0    0  501    0 -0.00000000000E+00 -0.00000000000E+00 -0.89745996945E+03  0.89745996945E+03  0.00000000000E+00 0. -1.
         25    2    1    2    0    0  0.27036744082E+02  0.59088893004E+02 -0.34121611211E+03  0.36915623638E+03  0.12500163554E+03 0.  0.
          2    1    1    2  501    0 -0.45324254141E+02 -0.33595781248E+02 -0.53814608499E+03  0.54109534587E+03  0.00000000000E+00 0. -1.
          1    1    1    2  502    0  0.18287510058E+02 -0.25493111756E+02  0.90100611762E+02  0.95406771306E+02  0.00000000000E+00 0. -1.
         22    1    3    3    0    0 -0.85438915859E+01 -0.83926554974E+01 -0.24981548342E+03  0.25010240004E+03  0.00000000000E+00 0.  1.
         22    1    3    3    0    0  0.35580635668E+02  0.67481548501E+02 -0.91400628693E+02  0.11905383634E+03  0.00000000000E+00 0.  1.
</event>
<event>
 7    1  0.5993218E-006  0.4174301E+02  0.7818608E-02  0.1538733E+00
          2   -1    0    0  502    0  0.00000000000E+00  0.00000000000E+00  0.45072902180E+03  0.45072902180E+03  0.00000000000E+00 0. -1.
          1   -1    0    0  501    0 -0.00000000000E+00 -0.00000000000E+00 -0.97765537186E+03  0.97765537186E+03  0.00000000000E+00 0. -1.
         25    2    1    2    0    0  0.57924066437E+02  0.29924887458E+01  0.59152192178E+02  0.14996040697E+03  0.12499995742E+03 0.  0.
          2    1    1    2  501    0 -0.23661561666E+02  0.20463731547E+02 -0.93074240378E+03  0.93126798292E+03  0.00000000000E+00 0. -1.
          1    1    1    2  502    0 -0.34262504771E+02 -0.23456220293E+02  0.34466386155E+03  0.34715600378E+03  0.00000000000E+00 0. -1.
         22    1    3    3    0    0  0.25712602351E+02 -0.56537367711E+02  0.32851940181E+01  0.62196498029E+02  0.00000000000E+00 0.  1.
         22    1    3    3    0    0  0.32211464085E+02  0.59529856457E+02  0.55866998160E+02  0.87763908936E+02  0.00000000000E+00 0.  1.
</event>
<event>
 7    1  0.7529873E-006  0.9304165E+02  0.7818608E-02  0.1342896E+00
          2   -1    0    0  502    0  0.00000000000E+00  0.00000000000E+00  0.14801511966E+04  0.14801511966E+04  0.00000000000E+00 0. -1.
          1   -1    0    0  501    0 -0.00000000000E+00 -0.00000000000E+00 -0.90335082073E+03  0.90335082073E+03  0.00000000000E+00 0. -1.
         25    2    1    2    0    0 -0.49884200678E+02 -0.59195151159E+02 -0.65889824165E+03  0.67510243434E+03  0.12499561833E+03 0.  0.
          2    1    1    2  501    0 -0.42014490667E+02  0.44178894112E+02 -0.23091756197E+03  0.23883030071E+03  0.00000000000E+00 0. -1.
          1    1    1    2  502    0  0.91898691345E+02  0.15016257046E+02  0.14666161795E+04  0.14695692823E+04  0.00000000000E+00 0. -1.
         22    1    3    3    0    0 -0.89932154424E+02 -0.38658391285E+02 -0.37049494000E+03  0.38320851267E+03  0.00000000000E+00 0. -1.
         22    1    3    3    0    0  0.40047953746E+02 -0.20536759873E+02 -0.28840330165E+03  0.29189392167E+03  0.00000000000E+00 0. -1.
</event>
<event>
 7    1  0.5993218E-006  0.7095437E+02  0.7818608E-02  0.1454740E+00
          2   -1    0    0  502    0  0.00000000000E+00  0.00000000000E+00  0.98393880976E+03  0.98393880976E+03  0.00000000000E+00 0. -1.
          1   -1    0    0  501    0 -0.00000000000E+00 -0.00000000000E+00 -0.24975143201E+03  0.24975143201E+03  0.00000000000E+00 0. -1.
         25    2    1    2    0    0  0.37672980144E+01  0.64499968858E+02 -0.30030524081E+02  0.14389110239E+03  0.12501351308E+03 0.  0.
          2    1    1    2  501    0  0.29035498309E+02 -0.66706382797E+02 -0.15435359017E+03  0.17063948097E+03  0.00000000000E+00 0. -1.
          1    1    1    2  502    0 -0.32802796324E+02  0.22064139386E+01  0.91857149201E+03  0.91915965841E+03  0.00000000000E+00 0. -1.
         22    1    3    3    0    0 -0.22783883430E+00 -0.37239087393E+02 -0.18011043315E+02  0.41366643829E+02  0.00000000000E+00 0. -1.
         22    1    3    3    0    0  0.39951368487E+01  0.10173905625E+03 -0.12019480766E+02  0.10252445856E+03  0.00000000000E+00 0. -1.
</event>
<event>
 7    1  0.5993218E-006  0.6498856E+02  0.7818608E-02  0.1481953E+00
          2   -1    0    0  502    0  0.00000000000E+00  0.00000000000E+00  0.51228530757E+03  0.51228530757E+03  0.00000000000E+00 0. -1.
          1   -1    0    0  501    0 -0.00000000000E+00 -0.00000000000E+00 -0.27351072117E+03  0.27351072117E+03  0.00000000000E+00 0. -1.
         25    2    1    2    0    0  0.54504994727E+02  0.43224258928E+01 -0.62770970948E+02  0.15018234191E+03  0.12500025285E+03 0.  0.
          2    1    1    2  501    0  0.60268475562E+01 -0.28902492616E+02 -0.16342764879E+03  0.16607309644E+03  0.00000000000E+00 0. -1.
          1    1    1    2  502    0 -0.60531842283E+02  0.24580066723E+02  0.46497320613E+03  0.46954059040E+03  0.00000000000E+00 0. -1.
         22    1    3    3    0    0 -0.29310431577E+02 -0.22609665781E+02  0.72188371308E+01  0.37714851127E+02  0.00000000000E+00 0. -1.
         22    1    3    3    0    0  0.83815426304E+02  0.26932091674E+02 -0.69989808079E+02  0.11246749078E+03  0.00000000000E+00 0. -1.
</event>
<event>
 7    1  0.5993218E-006  0.5972836E+02  0.7818608E-02  0.1413903E+00
          2   -1    0    0  502    0  0.00000000000E+00  0.00000000000E+00  0.25161789267E+04  0.25161789267E+04  0.00000000000E+00 0. -1.
          1   -1    0    0  501    0 -0.00000000000E+00 -0.00000000000E+00 -0.64776325708E+02  0.64776325708E+02  0.00000000000E+00 0. -1.
         25    2    1    2    0    0 -0.46406205508E+02  0.34983234004E+02  0.90930880160E+02  0.16513324546E+03  0.12499280467E+03 0.  0.
          2    1    1    2  501    0 -0.11128367573E+02 -0.51950163520E+02 -0.14404794978E+01  0.53148236431E+02  0.00000000000E+00 0. -1.
          1    1    1    2  502    0  0.57534573081E+02  0.16966929516E+02  0.23619122003E+04  0.23626737705E+04  0.00000000000E+00 0. -1.
         22    1    3    3    0    0 -0.89210407571E+02  0.14468474884E+02  0.59716799508E+02  0.10832326494E+03  0.00000000000E+00 0.  1.
         22    1    3    3    0    0  0.42804202062E+02  0.20514759120E+02  0.31214080652E+02  0.56809980522E+02  0.00000000000E+00 0.  1.
</event>
<event>
 7    1  0.8176987E-006  0.4607327E+02  0.7818608E-02  0.1477335E+00
          2   -1    0    0  502    0  0.00000000000E+00  0.00000000000E+00  0.17423462070E+04  0.17423462070E+04  0.00000000000E+00 0. -1.
          1   -1    0    0  501    0 -0.00000000000E+00 -0.00000000000E+00 -0.27752608028E+04  0.27752608028E+04  0.00000000000E+00 0. -1.
         25    2    1    2    0    0 -0.47283037528E+02 -0.62013704469E+02 -0.60689229367E+03  0.62451957088E+03  0.12500021247E+03 0.  0.
          2    1    1    2  501    0  0.39704162006E+02  0.16579587287E+02 -0.21590345080E+04  0.21594631994E+04  0.00000000000E+00 0. -1.
          1    1    1    2  502    0  0.75788755213E+01  0.45434117182E+02  0.17330122058E+04  0.17336242395E+04  0.00000000000E+00 0. -1.
         22    1    3    3    0    0  0.19663653528E+02 -0.75135433353E+02 -0.27917814776E+03  0.28977996963E+03  0.00000000000E+00 0.  1.
         22    1    3    3    0    0 -0.66946691056E+02  0.13121728884E+02 -0.32771414591E+03  0.33473960125E+03  0.00000000000E+00 0.  1.
</event>
<event>
 7    1  0.1172795E-005  0.1482310E+03  0.7818608E-02  0.1223669E+00
          2   -1    0    0  502    0  0.00000000000E+00  0.00000000000E+00  0.14126594744E+04  0.14126594744E+04  0.00000000000E+00 0. -1.
          1   -1    0    0  501    0 -0.00000000000E+00 -0.00000000000E+00 -0.17299996508E+04  0.17299996508E+04  0.00000000000E+00 0. -1.
         25    2    1    2    0    0  0.61203063528E+02  0.31972025694E+02 -0.35134918579E+03  0.37926094403E+03  0.12499835160E+03 0.  0.
          2    1    1    2  501    0 -0.13806552413E+03 -0.12228250994E+03 -0.13559267749E+04  0.13684124086E+04  0.00000000000E+00 0. -1.
          1    1    1    2  502    0  0.76862460599E+02  0.90310484244E+02  0.13899357842E+04  0.13949857726E+04  0.00000000000E+00 0. -1.
         22    1    3    3    0    0 -0.38539248313E+02  0.26104772590E+01 -0.10434123130E+03  0.11126176702E+03  0.00000000000E+00 0. -1.
         22    1    3    3    0    0  0.99742311841E+02  0.29361548435E+02 -0.24700795449E+03  0.26799917701E+03  0.00000000000E+00 0. -1.
</event>
<event>
 7    1  0.5993218E-006  0.1073665E+03  0.7818608E-02  0.1402064E+00
          2   -1    0    0  502    0  0.00000000000E+00  0.00000000000E+00  0.36533836177E+02  0.36533836177E+02  0.00000000000E+00 0. -1.
          1   -1    0    0  501    0 -0.00000000000E+00 -0.00000000000E+00 -0.18896943615E+04  0.18896943615E+04  0.00000000000E+00 0. -1.
         25    2    1    2    0    0 -0.64267428223E+02 -0.54831814794E+02 -0.50481589220E+03  0.52687882310E+03  0.12500151588E+03 0.  0.
          2    1    1    2  501    0  0.71973925227E+02  0.86327623524E+02 -0.13601920160E+04  0.13648278371E+04  0.00000000000E+00 0. -1.
          1    1    1    2  502    0 -0.77064970047E+01 -0.31495808730E+02  0.11847382941E+02  0.34521537425E+02  0.00000000000E+00 0. -1.
         22    1    3    3    0    0 -0.78595852327E+01 -0.77626891888E+02 -0.17654522013E+03  0.19301793226E+03  0.00000000000E+00 0. -1.
         22    1    3    3    0    0 -0.56407842990E+02  0.22795077094E+02 -0.32827067207E+03  0.33386089084E+03  0.00000000000E+00 0. -1.
</event>
<event>
 7    1  0.5993218E-006  0.1684568E+03  0.7818608E-02  0.1224848E+00
          2   -1    0    0  502    0  0.00000000000E+00  0.00000000000E+00  0.48397371237E+03  0.48397371237E+03  0.00000000000E+00 0. -1.
          1   -1    0    0  501    0 -0.00000000000E+00 -0.00000000000E+00 -0.13288946823E+04  0.13288946823E+04  0.00000000000E+00 0. -1.
         25    2    1    2    0    0  0.17986774654E+03  0.11966406029E+03 -0.36651988213E+03  0.44343476499E+03  0.12500269290E+03 0.  0.
          2    1    1    2  501    0 -0.99406517690E+02  0.27264011169E+02 -0.90514129335E+03  0.91099162620E+03  0.00000000000E+00 0. -1.
          1    1    1    2  502    0 -0.80461228848E+02 -0.14692807146E+03  0.42674020555E+03  0.45844200349E+03  0.00000000000E+00 0. -1.
         22    1    3    3    0    0  0.17379807553E+03  0.52623197578E+02 -0.25228963545E+03  0.31084567254E+03  0.00000000000E+00 0.  1.
         22    1    3    3    0    0  0.60696710082E+01  0.67040862713E+02 -0.11423024668E+03  0.13258909245E+03  0.00000000000E+00 0.  1.
</event>
<event>
 7    1  0.5993218E-006  0.8010653E+02  0.7818608E-02  0.1425979E+00
          2   -1    0    0  502    0  0.00000000000E+00  0.00000000000E+00  0.85393577203E+03  0.85393577203E+03  0.00000000000E+00 0. -1.
          1   -1    0    0  501    0 -0.00000000000E+00 -0.00000000000E+00 -0.10341514627E+03  0.10341514627E+03  0.00000000000E+00 0. -1.
         25    2    1    2    0    0 -0.35287046605E+02  0.81511865903E+02  0.22089303891E+03  0.26890254088E+03  0.12500192762E+03 0.  0.
          2    1    1    2  501    0 -0.77942805737E+00 -0.79963748550E+02 -0.58583614975E+02  0.99130462189E+02  0.00000000000E+00 0. -1.
          1    1    1    2  502    0  0.36066474662E+02 -0.15481173532E+01  0.58821120182E+03  0.58931791523E+03  0.00000000000E+00 0. -1.
         22    1    3    3    0    0 -0.30254355528E+02  0.10897910153E+03  0.21077301681E+03  0.23920082612E+03  0.00000000000E+00 0.  1.
         22    1    3    3    0    0 -0.50326910770E+01 -0.27467235624E+02  0.10120022099E+02  0.29701714759E+02  0.00000000000E+00 0.  1.
</event>
<event>
 7    1  0.5993218E-006  0.4367772E+02  0.7818608E-02  0.1486788E+00
          2   -1    0    0  502    0  0.00000000000E+00  0.00000000000E+00  0.39800183485E+03  0.39800183485E+03  0.00000000000E+00 0. -1.
          1   -1    0    0  501    0 -0.00000000000E+00 -0.00000000000E+00 -0.55863054417E+02  0.55863054417E+02  0.00000000000E+00 0. -1.
         25    2    1    2    0    0 -0.46062948518E+02 -0.47853449929E+02  0.74970979882E+02  0.16018078522E+03  0.12500195292E+03 0.  0.
          2    1    1    2  501    0  0.31465574919E+01  0.42346488718E+02  0.28534717420E+02  0.51160101926E+02  0.00000000000E+00 0. -1.
          1    1    1    2  502    0  0.42916391026E+02  0.55069612109E+01  0.23863308313E+03  0.24252400212E+03  0.00000000000E+00 0. -1.
         22    1    3    3    0    0  0.28662735687E+02 -0.59103123960E+02  0.40060936041E+02  0.76939003603E+02  0.00000000000E+00 0. -1.
         22    1    3    3    0    0 -0.74725684205E+02  0.11249674031E+02  0.34910043841E+02  0.83241781616E+02  0.00000000000E+00 0. -1.
</event>
<event>
 7    1  0.5993218E-006  0.1224749E+03  0.7818608E-02  0.1442476E+00
          2   -1    0    0  502    0  0.00000000000E+00  0.00000000000E+00  0.26387177939E+04  0.26387177939E+04  0.00000000000E+00 0. -1.
          1   -1    0    0  501    0 -0.00000000000E+00 -0.00000000000E+00 -0.11430833716E+04  0.11430833716E+04  0.00000000000E+00 0. -1.
         25    2    1    2    0    0 -0.74278482931E+02 -0.74119306976E+02 -0.87514179982E+03  0.89023004559E+03  0.12500159832E+03 0.  0.
          2    1    1    2  501    0 -0.20570988337E+02 -0.34102512462E+01 -0.25855157943E+03  0.25939104572E+03  0.00000000000E+00 0. -1.
          1    1    1    2  502    0  0.94849471268E+02  0.77529558223E+02  0.26293278016E+04  0.26321800742E+04  0.00000000000E+00 0. -1.
         22    1    3    3    0    0 -0.92551126297E+02 -0.27906307842E+02 -0.36189459951E+03  0.37458266665E+03  0.00000000000E+00 0. -1.
         22    1    3    3    0    0  0.18272643366E+02 -0.46212999134E+02 -0.51324720031E+03  0.51564737895E+03  0.00000000000E+00 0. -1.
</event>
<event>
 7    1  0.5993218E-006  0.4548000E+02  0.7818608E-02  0.1581745E+00
          2   -1    0    0  502    0  0.00000000000E+00  0.00000000000E+00  0.17294128630E+03  0.17294128630E+03  0.00000000000E+00 0. -1.
          1   -1    0    0  501    0 -0.00000000000E+00 -0.00000000000E+00 -0.21103542764E+03  0.21103542764E+03  0.00000000000E+00 0. -1.
         25    2    1    2    0    0 -0.27093764497E+02  0.25952693117E+01 -0.74492702564E+02  0.14803837016E+03  0.12500155522E+03 0.  0.
          2    1    1    2  501    0 -0.18036102928E+02 -0.12354776001E+02 -0.94572548887E+02  0.97066515863E+02  0.00000000000E+00 0. -1.
          1    1    1    2  502    0  0.45129867425E+02  0.97595066897E+01  0.13097111012E+03  0.13887182792E+03  0.00000000000E+00 0. -1.
         22    1    3    3    0    0  0.62609450573E+01  0.43652192833E+02  0.12843794409E+02  0.45931214081E+02  0.00000000000E+00 0.  1.
         22    1    3    3    0    0 -0.33354709554E+02 -0.41056923521E+02 -0.87336496973E+02  0.10210715608E+03  0.00000000000E+00 0.  1.
</event>
<event>
 7    1  0.5993218E-006  0.4699539E+02  0.7818608E-02  0.1500367E+00
          2   -1    0    0  502    0  0.00000000000E+00  0.00000000000E+00  0.39217967558E+03  0.39217967558E+03  0.00000000000E+00 0. -1.
          1   -1    0    0  501    0 -0.00000000000E+00 -0.00000000000E+00 -0.34964503893E+03  0.34964503893E+03  0.00000000000E+00 0. -1.
         25    2    1    2    0    0 -0.48823013494E+02  0.79161294780E+01  0.19790229513E+03  0.23924385220E+03  0.12500380252E+03 0.  0.
          2    1    1    2  501    0  0.28459406766E+02 -0.37506125868E+02 -0.32540377286E+03  0.32879212689E+03  0.00000000000E+00 0. -1.
          1    1    1    2  502    0  0.20363606728E+02  0.29589996390E+02  0.17003611438E+03  0.17378873542E+03  0.00000000000E+00 0. -1.
         22    1    3    3    0    0 -0.50999565774E+02  0.13890610582E+02  0.13264164080E+02  0.54496264278E+02  0.00000000000E+00 0.  1.
         22    1    3    3    0    0  0.21765522799E+01 -0.59744811043E+01  0.18463813105E+03  0.18474758792E+03  0.00000000000E+00 0.  1.
</event>
<event>
 7    1  0.5993218E-006  0.1036296E+03  0.7818608E-02  0.1413709E+00
          2   -1    0    0  502    0  0.00000000000E+00  0.00000000000E+00  0.10936983972E+04  0.10936983972E+04  0.00000000000E+00 0. -1.
          1   -1    0    0  501    0 -0.00000000000E+00 -0.00000000000E+00 -0.67778416527E+02  0.67778416527E+02  0.00000000000E+00 0. -1.
         25    2    1    2    0    0  0.57636170391E+02 -0.48501145300E+02  0.79758052331E+02  0.16631468416E+03  0.12499975210E+03 0.  0.
          2    1    1    2  501    0  0.18938961707E+02 -0.24120782640E+02 -0.10713094604E+02  0.32484870659E+02  0.00000000000E+00 0. -1.
          1    1    1    2  502    0 -0.76575132098E+02  0.72621927940E+02  0.95687502295E+03  0.96267725891E+03  0.00000000000E+00 0. -1.
         22    1    3    3    0    0  0.17822500695E+02 -0.86564725448E+02  0.63687878169E+02  0.10893685808E+03  0.00000000000E+00 0.  1.
         22    1    3    3    0    0  0.39813669696E+02  0.38063580148E+02  0.16070174162E+02  0.57377826083E+02  0.00000000000E+00 0.  1.
</event>
<event>
 7    1  0.5993218E-006  0.5959700E+02  0.7818608E-02  0.1474793E+00
          2   -1    0    0  502    0  0.00000000000E+00  0.00000000000E+00  0.23408921391E+02  0.23408921391E+02  0.00000000000E+00 0. -1.
          1   -1    0    0  501    0 -0.00000000000E+00 -0.00000000000E+00 -0.12930354723E+04  0.12930354723E+04  0.00000000000E+00 0. -1.
         25    2    1    2    0    0 -0.27309554483E+02 -0.11567333768E+02 -0.50647928595E+03  0.52251837243E+03  0.12499826982E+03 0.  0.
          2    1    1    2  501    0 -0.31709284710E+02 -0.11901415354E+02 -0.71083794406E+03  0.71164436704E+03  0.00000000000E+00 0. -1.
          1    1    1    2  502    0  0.59018839193E+02  0.23468749122E+02 -0.52309320850E+02  0.82281654169E+02  0.00000000000E+00 0. -1.
         22    1    3    3    0    0  0.29883464014E+02 -0.16997576335E+02 -0.40996705533E+02  0.53503914691E+02  0.00000000000E+00 0. -1.
         22    1    3    3    0    0 -0.57193018497E+02  0.54302425665E+01 -0.46548258042E+03  0.46901445774E+03  0.00000000000E+00 0. -1.
</event>
<event>
 7    1  0.5993218E-006  0.3604093E+02  0.7818608E-02  0.1573360E+00
          2   -1    0    0  502    0  0.00000000000E+00  0.00000000000E+00  0.33247369589E+03  0.33247369589E+03  0.00000000000E+00 0. -1.
          1   -1    0    0  501    0 -0.00000000000E+00 -0.00000000000E+00 -0.95869826697E+03  0.95869826697E+03  0.00000000000E+00 0. -1.
         25    2    1    2    0    0  0.47198758496E+02 -0.11234374132E+01  0.10272597099E+03  0.16854771708E+03  0.12500689142E+03 0.  0.
          2    1    1    2  501    0 -0.28937161194E+02 -0.21479333625E+02 -0.92436193773E+03  0.92506416696E+03  0.00000000000E+00 0. -1.
          1    1    1    2  502    0 -0.18261597302E+02  0.22602771038E+02  0.19541139565E+03  0.19756007882E+03  0.00000000000E+00 0. -1.
         22    1    3    3    0    0 -0.30887784255E+02 -0.24818111830E+02  0.30662121990E+01  0.39741609785E+02  0.00000000000E+00 0. -1.
         22    1    3    3    0    0  0.78086542752E+02  0.23694674417E+02  0.99659758795E+02  0.12880610730E+03  0.00000000000E+00 0. -1.
</event>
<event>
 7    1  0.5993218E-006  0.2760667E+03  0.7818608E-02  0.1118953E+00
          2   -1    0    0  502    0  0.00000000000E+00  0.00000000000E+00  0.13998142623E+03  0.13998142623E+03  0.00000000000E+00 0. -1.
          1   -1    0    0  501    0 -0.00000000000E+00 -0.00000000000E+00 -0.14486094664E+04  0.14486094664E+04  0.00000000000E+00 0. -1.
         25    2    1    2    0    0 -0.11408256724E+03  0.13225079171E+02 -0.10924508897E+03  0.20188093231E+03  0.12502674314E+03 0.  0.
          2    1    1    2  501    0  0.41193295665E+02 -0.27949556333E+03 -0.10177908779E+04  0.10562731317E+04  0.00000000000E+00 0. -1.
          1    1    1    2  502    0  0.72889271571E+02  0.26627048416E+03 -0.18159207329E+03  0.33043682865E+03  0.00000000000E+00 0. -1.
         22    1    3    3    0    0 -0.46245631174E+02 -0.50733610115E+01 -0.12191148696E+03  0.13048681178E+03  0.00000000000E+00 0.  1.
         22    1    3    3    0    0 -0.67836936062E+02  0.18298440182E+02  0.12666397998E+02  0.71394120526E+02  0.00000000000E+00 0.  1.
</event>
<event>
 7    1  0.5993218E-006  0.1482966E+03  0.7818608E-02  0.1321428E+00
          2   -1    0    0  502    0  0.00000000000E+00  0.00000000000E+00  0.12540261414E+04  0.12540261414E+04  0.00000000000E+00 0. -1.
          1   -1    0    0  501    0 -0.00000000000E+00 -0.00000000000E+00 -0.59209394694E+02  0.59209394694E+02  0.00000000000E+00 0. -1.
         25    2    1    2    0    0 -0.12690417011E+03  0.11635561337E+03  0.24190122052E+03  0.32215516579E+03  0.12499781279E+03 0.  0.
          2    1    1    2  501    0  0.45947767132E+02  0.45555610288E+01  0.26358203610E+02  0.53166769116E+02  0.00000000000E+00 0. -1.
          1    1    1    2  502    0  0.80956402973E+02 -0.12091117440E+03  0.92655732258E+03  0.93791360119E+03  0.00000000000E+00 0. -1.
         22    1    3    3    0    0  0.56607844428E+00  0.40642920545E+02  0.13056377935E+03  0.13674453522E+03  0.00000000000E+00 0. -1.
         22    1    3    3    0    0 -0.12747024855E+03  0.75712692826E+02  0.11133744117E+03  0.18541063057E+03  0.00000000000E+00 0. -1.
</event>
<event>
 7    1  0.5993218E-006  0.9943897E+02  0.7818608E-02  0.1290203E+00
          2   -1    0    0  502    0  0.00000000000E+00  0.00000000000E+00  0.30452908184E+03  0.30452908184E+03  0.00000000000E+00 0. -1.
          1   -1    0    0  501    0 -0.00000000000E+00 -0.00000000000E+00 -0.17816779162E+04  0.17816779162E+04  0.00000000000E+00 0. -1.
         25    2    1    2    0    0 -0.34460166145E+01  0.65554133579E+02 -0.60417521479E+03  0.62045309506E+03  0.12500053416E+03 0.  0.
          2    1    1    2  501    0  0.94735760588E+02 -0.72949106530E+02 -0.11591387602E+04  0.11652892782E+04  0.00000000000E+00 0. -1.
          1    1    1    2  502    0 -0.91289743974E+02  0.73949729508E+01  0.28616514068E+03  0.30046462474E+03  0.00000000000E+00 0. -1.
         22    1    3    3    0    0  0.35248060975E+02 -0.16228445145E+02 -0.84803599391E+02  0.93260059532E+02  0.00000000000E+00 0. -1.
         22    1    3    3    0    0 -0.38694077590E+02  0.81782578724E+02 -0.51937161540E+03  0.52719303553E+03  0.00000000000E+00 0. -1.
</event>
<event>
 7    1  0.5993218E-006  0.4121506E+03  0.7818608E-02  0.1203038E+00
          2   -1    0    0  502    0  0.00000000000E+00  0.00000000000E+00  0.14291512667E+04  0.14291512667E+04  0.00000000000E+00 0. -1.
          1   -1    0    0  501    0 -0.00000000000E+00 -0.00000000000E+00 -0.43839450320E+03  0.43839450320E+03  0.00000000000E+00 0. -1.
         25    2    1    2    0    0 -0.20768515536E+03 -0.30235577035E+03  0.68249053178E+03  0.78483864234E+03  0.12500493159E+03 0.  0.
          2    1    1    2  501    0  0.22963839993E+03  0.35070114347E+03 -0.27219977328E+03  0.49981777012E+03  0.00000000000E+00 0. -1.
          1    1    1    2  502    0 -0.21953244575E+02 -0.48345373118E+02  0.58046600501E+03  0.58288935744E+03  0.00000000000E+00 0. -1.
         22    1    3    3    0    0 -0.69655050914E+02 -0.14935832249E+03  0.41967747356E+03  0.45087572171E+03  0.00000000000E+00 0. -1.
         22    1    3    3    0    0 -0.13803010444E+03 -0.15299744786E+03  0.26281305822E+03  0.33396292063E+03  0.00000000000E+00 0. -1.
</event>
<event>
 7    1  0.5993218E-006  0.1311239E+03  0.7818608E-02  0.1386051E+00
          2   -1    0    0  502    0  0.00000000000E+00  0.00000000000E+00  0.28888714254E+03  0.28888714254E+03  0.00000000000E+00 0. -1.
          1   -1    0    0  501    0 -0.00000000000E+00 -0.00000000000E+00 -0.19337630278E+03  0.19337630278E+03  0.00000000000E+00 0. -1.
         25    2    1    2    0    0 -0.92444999779E+02  0.86045737913E+02  0.19082657387E+03  0.26074684038E+03  0.12499674586E+03 0.  0.
          2    1    1    2  501    0  0.11466188543E+03 -0.65629969595E+02 -0.12304294744E+03  0.18053866011E+03  0.00000000000E+00 0. -1.
          1    1    1    2  502    0 -0.22216885650E+02 -0.20415768318E+02  0.27727213331E+02  0.40977944838E+02  0.00000000000E+00 0. -1.
         22    1    3    3    0    0 -0.22367808188E+02  0.96575741123E+02  0.72467333636E+02  0.12279538697E+03  0.00000000000E+00 0. -1.
         22    1    3    3    0    0 -0.70077191591E+02 -0.10530003210E+02  0.11835924023E+03  0.13795145341E+03  0.00000000000E+00 0. -1.
</event>
<event>
 7    1  0.5993218E-006  0.7503264E+02  0.7818608E-02  0.1368787E+00
          2   -1    0    0  502    0  0.00000000000E+00  0.00000000000E+00  0.32049642678E+04  0.32049642678E+04  0.00000000000E+00 0. -1.
          1   -1    0    0  501    0 -0.00000000000E+00 -0.00000000000E+00 -0.24581761334E+04  0.24581761334E+04  0.00000000000E+00 0. -1.
         25    2    1    2    0    0 -0.92839863939E+00 -0.92017386201E+02  0.95123312161E+02  0.18204910552E+03  0.12500148405E+03 0.  0.
          2    1    1    2  501    0  0.49886809981E+02  0.56077779771E+02 -0.24138291409E+04  0.24149957624E+04  0.00000000000E+00 0. -1.
          1    1    1    2  502    0 -0.48958411342E+02  0.35939606429E+02  0.30654939631E+04  0.30660955333E+04  0.00000000000E+00 0. -1.
         22    1    3    3    0    0 -0.29491159880E+02  0.15677944972E+02 -0.30647422013E+01  0.33539813869E+02  0.00000000000E+00 0.  1.
         22    1    3    3    0    0  0.28562761240E+02 -0.10769533117E+03  0.98188054362E+02  0.14850929165E+03  0.00000000000E+00 0.  1.
</event>
<event>
 7    1  0.5993218E-006  0.1359100E+03  0.7818608E-02  0.1281988E+00
          2   -1    0    0  502    0  0.00000000000E+00  0.00000000000E+00  0.17954874452E+04  0.17954874452E+04  0.00000000000E+00 0. -1.
          1   -1    0    0  501    0 -0.00000000000E+00 -0.00000000000E+00 -0.50213530299E+03  0.50213530299E+03  0.00000000000E+00 0. -1.
         25    2    1    2    0    0 -0.45357437524E+02  0.17568136592E+03  0.61878086651E+03  0.65683811047E+03  0.12500121253E+03 0.  0.
          2    1    1    2  501    0  0.77687516617E+02 -0.11089522931E+03 -0.47245563685E+03  0.49147475104E+03  0.00000000000E+00 0. -1.
          1    1    1    2  502    0 -0.32330079093E+02 -0.64786136604E+02  0.11470269125E+04  0.11493098866E+04  0.00000000000E+00 0. -1.
         22    1    3    3    0    0 -0.63865483622E+01 -0.34183340907E+01 -0.35570988806E+01  0.80700656989E+01  0.00000000000E+00 0. -1.
         22    1    3    3    0    0 -0.38970889162E+02  0.17909970001E+03  0.62233796539E+03  0.64876804477E+03  0.00000000000E+00 0. -1.
</event>
<event>
 7    1  0.5993218E-006  0.1122026E+03  0.7818608E-02  0.1441404E+00
          2   -1    0    0  502    0  0.00000000000E+00  0.00000000000E+00  0.90817499191E+03  0.90817499191E+03  0.00000000000E+00 0. -1.
          1   -1    0    0  501    0 -0.00000000000E+00 -0.00000000000E+00 -0.10296141119E+04  0.10296141119E+04  0.00000000000E+00 0. -1.
         25    2    1    2    0    0  0.67595645402E+02 -0.10117265336E+03  0.46220795376E+02  0.18046050375E+03  0.12499821768E+03 0.  0.
          2    1    1    2  501    0  0.99300584494E+01  0.20682912907E+02 -0.95842816904E+03  0.95870274024E+03  0.00000000000E+00 0. -1.
          1    1    1    2  502    0 -0.77525703851E+02  0.80489740456E+02  0.79076825363E+03  0.79862585985E+03  0.00000000000E+00 0. -1.
         22    1    3    3    0    0  0.49497220721E+02  0.45259947593E+01  0.53439251342E+02  0.72980908953E+02  0.00000000000E+00 0.  1.
         22    1    3    3    0    0  0.18098424681E+02 -0.10569864812E+03 -0.72184559661E+01  0.10747959480E+03  0.00000000000E+00 0.  1.
</event>
<event>
 7    1  0.5993218E-006  0.5270266E+02  0.7818608E-02  0.1505443E+00
          2   -1    0    0  502    0  0.00000000000E+00  0.00000000000E+00  0.41168365719E+03  0.41168365719E+03  0.00000000000E+00 0. -1.
          1   -1    0    0  501    0 -0.00000000000E+00 -0.00000000000E+00 -0.28973414933E+03  0.28973414933E+03  0.00000000000E+00 0. -1.
         25    2    1    2    0    0  0.40319294423E+02  0.49105445652E+01  0.11255226019E+03  0.17304128554E+03  0.12500206509E+03 0.  0.
          2    1    1    2  501    0 -0.39160374315E+02 -0.35825357596E+02 -0.25586728102E+03  0.26131409579E+03  0.00000000000E+00 0. -1.
          1    1    1    2  502    0 -0.11589201086E+01  0.30914813030E+02  0.26526452870E+03  0.26706242518E+03  0.00000000000E+00 0. -1.
         22    1    3    3    0    0  0.73585177102E+02  0.39440130520E+02  0.71370953074E+02  0.10983676583E+03  0.00000000000E+00 0. -1.
         22    1    3    3    0    0 -0.33265882679E+02 -0.34529585954E+02  0.41181307118E+02  0.63204519716E+02  0.00000000000E+00 0. -1.
</event>
<event>
 7    1  0.5993218E-006  0.1463053E+03  0.7818608E-02  0.1351953E+00
          2   -1    0    0  502    0  0.00000000000E+00  0.00000000000E+00  0.22303809812E+03  0.22303809812E+03  0.00000000000E+00 0. -1.
          1   -1    0    0  501    0 -0.00000000000E+00 -0.00000000000E+00 -0.26666277058E+03  0.26666277058E+03  0.00000000000E+00 0. -1.
         25    2    1    2    0    0 -0.12260897565E+03 -0.10443671018E+03 -0.53902396415E+02  0.21087983173E+03  0.12499939099E+03 0.  0.
          2    1    1    2  501    0 -0.27982870698E+01  0.35768162136E+02 -0.94814888950E+02  0.10137581072E+03  0.00000000000E+00 0. -1.
          1    1    1    2  502    0  0.12540726272E+03  0.68668548046E+02  0.10509261291E+03  0.17744522626E+03  0.00000000000E+00 0. -1.
         22    1    3    3    0    0 -0.82270247997E+02 -0.82044718722E+02 -0.94234775722E+02  0.14959920632E+03  0.00000000000E+00 0. -1.
         22    1    3    3    0    0 -0.40338727653E+02 -0.22391991460E+02  0.40332379307E+02  0.61280625411E+02  0.00000000000E+00 0. -1.
</event>
<event>
 7    1  0.5993218E-006  0.7914173E+02  0.7818608E-02  0.1434586E+00
          2   -1    0    0  502    0  0.00000000000E+00  0.00000000000E+00  0.10109445381E+04  0.10109445381E+04  0.00000000000E+00 0. -1.
          1   -1    0    0  501    0 -0.00000000000E+00 -0.00000000000E+00 -0.16027345464E+03  0.16027345464E+03  0.00000000000E+00 0. -1.
         25    2    1    2    0    0  0.99130092878E+02  0.43655066528E+00  0.50662074717E+02  0.16738745669E+03  0.12499979581E+03 0.  0.
          2    1    1    2  501    0 -0.73638986371E+02  0.22412855908E+02 -0.86998485557E+02  0.11616270018E+03  0.00000000000E+00 0. -1.
          1    1    1    2  502    0 -0.25491106506E+02 -0.22849406574E+02  0.88700749428E+03  0.88766783585E+03  0.00000000000E+00 0. -1.
         22    1    3    3    0    0  0.11638616283E+03  0.14764736394E+02  0.70983216055E+02  0.13712167334E+03  0.00000000000E+00 0.  1.
         22    1    3    3    0    0 -0.17256069949E+02 -0.14328185729E+02 -0.20321141337E+02  0.30265783348E+02  0.00000000000E+00 0.  1.
</event>
<event>
 7    1  0.5993218E-006  0.5342615E+02  0.7818608E-02  0.1529268E+00
          2   -1    0    0  502    0  0.00000000000E+00  0.00000000000E+00  0.41412522235E+03  0.41412522235E+03  0.00000000000E+00 0. -1.
          1   -1    0    0  501    0 -0.00000000000E+00 -0.00000000000E+00 -0.51867116284E+03  0.51867116284E+03  0.00000000000E+00 0. -1.
         25    2    1    2    0    0 -0.68942175038E+02  0.36775727004E+02 -0.97874641080E+02  0.17695399579E+03  0.12501117415E+03 0.  0.
          2    1    1    2  501    0  0.44929905917E+02 -0.26783523318E+02 -0.37900697622E+03  0.38259945320E+03  0.00000000000E+00 0. -1.
          1    1    1    2  502    0  0.24012269121E+02 -0.99922036861E+01  0.37233567681E+03  0.37324293620E+03  0.00000000000E+00 0. -1.
         22    1    3    3    0    0 -0.44424314079E+02  0.79127566181E+02 -0.34956792194E+02  0.97245404681E+02  0.00000000000E+00 0.  1.
         22    1    3    3    0    0 -0.24517860959E+02 -0.42351839177E+02 -0.62917848886E+02  0.79708591106E+02  0.00000000000E+00 0.  1.
</event>
<event>
 7    1  0.5993218E-006  0.5430246E+02  0.7818608E-02  0.1442084E+00
          2   -1    0    0  502    0  0.00000000000E+00  0.00000000000E+00  0.11664430608E+04  0.11664430608E+04  0.00000000000E+00 0. -1.
          1   -1    0    0  501    0 -0.00000000000E+00 -0.00000000000E+00 -0.15976129501E+03  0.15976129501E+03  0.00000000000E+00 0. -1.
         25    2    1    2    0    0  0.43288563185E+02 -0.57855387760E+02  0.17568079190E+03  0.22739813969E+03  0.12500011078E+03 0.  0.
          2    1    1    2  501    0 -0.47020648875E+02  0.37119020717E+01 -0.12895863058E+03  0.13731368482E+03  0.00000000000E+00 0. -1.
          1    1    1    2  502    0  0.37320856901E+01  0.54143485689E+02  0.95995960444E+03  0.96149253125E+03  0.00000000000E+00 0. -1.
         22    1    3    3    0    0  0.75921693502E+02 -0.44535258888E+02  0.60147213452E+02  0.10660759877E+03  0.00000000000E+00 0. -1.
         22    1    3    3    0    0 -0.32633130317E+02 -0.13320128873E+02  0.11553357845E+03  0.12079054093E+03  0.00000000000E+00 0. -1.
</event>
<event>
 7    1  0.5993218E-006  0.1769434E+03  0.7818608E-02  0.1389958E+00
          2   -1    0    0  502    0  0.00000000000E+00  0.00000000000E+00  0.44355452008E+03  0.44355452008E+03  0.00000000000E+00 0. -1.
          1   -1    0    0  501    0 -0.00000000000E+00 -0.00000000000E+00 -0.10435672993E+04  0.10435672993E+04  0.00000000000E+00 0. -1.
         25    2    1    2    0    0  0.10315391099E+03  0.16511304901E+03 -0.13011169065E+03  0.26543619915E+03  0.12499710184E+03 0.  0.
          2    1    1    2  501    0 -0.17985705105E+02 -0.12080914303E+02 -0.82524368244E+03  0.82552805493E+03  0.00000000000E+00 0. -1.
          1    1    1    2  502    0 -0.85168205880E+02 -0.15303213471E+03  0.35534259385E+03  0.39615756531E+03  0.00000000000E+00 0. -1.
         22    1    3    3    0    0  0.13199248454E+03  0.12423433518E+03 -0.99264831094E+02  0.20666323501E+03  0.00000000000E+00 0. -1.
         22    1    3    3    0    0 -0.28838573554E+02  0.40878713837E+02 -0.30846859554E+02  0.58772964141E+02  0.00000000000E+00 0. -1.
</event>
<event>
 7    1  0.5993218E-006  0.9616794E+02  0.7818608E-02  0.1327087E+00
          2   -1    0    0  502    0  0.00000000000E+00  0.00000000000E+00  0.14753972092E+04  0.14753972092E+04  0.00000000000E+00 0. -1.
          1   -1    0    0  501    0 -0.00000000000E+00 -0.00000000000E+00 -0.25053657685E+03  0.25053657685E+03  0.00000000000E+00 0. -1.
         25    2    1    2    0    0 -0.13755962942E+03 -0.74203933542E+02  0.94211945936E+03  0.96314245387E+03  0.12500174137E+03 0.  0.
          2    1    1    2  501    0  0.92673806568E+02  0.23505057478E+02 -0.22818106218E+03  0.24740153453E+03  0.00000000000E+00 0. -1.
          1    1    1    2  502    0  0.44885822853E+02  0.50698876064E+02  0.51092223516E+03  0.51538979764E+03  0.00000000000E+00 0. -1.
         22    1    3    3    0    0 -0.70809974419E+02 -0.90780216317E+02  0.38652371775E+03  0.40330594409E+03  0.00000000000E+00 0. -1.
         22    1    3    3    0    0 -0.66749655002E+02  0.16576282775E+02  0.55559574161E+03  0.55983650978E+03  0.00000000000E+00 0. -1.
</event>
<event>
 7    1  0.5993218E-006  0.1187840E+03  0.7818608E-02  0.1416326E+00
          2   -1    0    0  502    0  0.00000000000E+00  0.00000000000E+00  0.12849498550E+04  0.12849498550E+04  0.00000000000E+00 0. -1.
          1   -1    0    0  501    0 -0.00000000000E+00 -0.00000000000E+00 -0.33482845015E+03  0.33482845015E+03  0.00000000000E+00 0. -1.
         25    2    1    2    0    0  0.29062249956E+02  0.91730978476E+02  0.41545923982E+03  0.44439872477E+03  0.12499863935E+03 0.  0.
          2    1    1    2  501    0 -0.22791726249E+02 -0.11718824873E+03 -0.30902565988E+03  0.33128448030E+03  0.00000000000E+00 0. -1.
          1    1    1    2  502    0 -0.62705237077E+01  0.25457270253E+02  0.84368782496E+03  0.84409510013E+03  0.00000000000E+00 0. -1.
         22    1    3    3    0    0  0.28083949996E+01 -0.31552793882E+02  0.86335935684E+02  0.91963904195E+02  0.00000000000E+00 0.  1.
         22    1    3    3    0    0  0.26253854957E+02  0.12328377236E+03  0.32912330413E+03  0.35243482057E+03  0.00000000000E+00 0.  1.
</event>
<event>
 7    1  0.5993218E-006  0.5707082E+02  0.7818608E-02  0.1497001E+00
          2   -1    0    0  502    0  0.00000000000E+00  0.00000000000E+00  0.94534921424E+02  0.94534921424E+02  0.00000000000E+00 0. -1.
          1   -1    0    0  501    0 -0.00000000000E+00 -0.00000000000E+00 -0.51514685568E+03  0.51514685568E+03  0.00000000000E+00 0. -1.
         25    2    1    2    0    0  0.15621378110E+02  0.42841405180E+02 -0.18764510325E+03  0.23003391618E+03  0.12500201744E+03 0.  0.
          2    1    1    2  501    0  0.10277619674E+02 -0.58514278442E+02 -0.30014278183E+03  0.30596607612E+03  0.00000000000E+00 0. -1.
          1    1    1    2  502    0 -0.25898997784E+02  0.15672873262E+02  0.67175950832E+02  0.73681784809E+02  0.00000000000E+00 0. -1.
         22    1    3    3    0    0  0.10985785771E+02  0.38779827094E+02  0.19363123378E+01  0.40352345458E+02  0.00000000000E+00 0. -1.
         22    1    3    3    0    0  0.46355923384E+01  0.40615780859E+01 -0.18958141559E+03  0.18968157072E+03  0.00000000000E+00 0. -1.
</event>
<event>
 7    1  0.5993218E-006  0.1152812E+03  0.7818608E-02  0.1337950E+00
          2   -1    0    0  502    0  0.00000000000E+00  0.00000000000E+00  0.11208417802E+03  0.11208417802E+03  0.00000000000E+00 0. -1.
          1   -1    0    0  501    0 -0.00000000000E+00 -0.00000000000E+00 -0.51045828248E+03  0.51045828248E+03  0.00000000000E+00 0. -1.
         25    2    1    2    0    0 -0.78359875190E+02  0.77631972297E+01 -0.12358873970E+03  0.19262003831E+03  0.12501106073E+03 0.  0.
          2    1    1    2  501    0 -0.49605117440E+02 -0.13302963970E+02 -0.29571256772E+03  0.30013923308E+03  0.00000000000E+00 0. -1.
          1    1    1    2  502    0  0.12796499263E+03  0.55397667407E+01  0.20927202967E+02  0.12978318912E+03  0.00000000000E+00 0. -1.
         22    1    3    3    0    0  0.27051148261E+02  0.84338947522E+01  0.22961212748E+01  0.28428284786E+02  0.00000000000E+00 0. -1.
         22    1    3    3    0    0 -0.10541102345E+03 -0.67069752245E+00 -0.12588486098E+03  0.16419175352E+03  0.00000000000E+00 0. -1.
</event>
<event>
 7    1  0.5993218E-006  0.7403329E+02  0.7818608E-02  0.1351142E+00
          2   -1    0    0  502    0  0.00000000000E+00  0.00000000000E+00  0.76300856553E+03  0.76300856553E+03  0.00000000000E+00 0. -1.
          1   -1    0    0  501    0 -0.00000000000E+00 -0.00000000000E+00 -0.53155448365E+03  0.53155448365E+03  0.00000000000E+00 0. -1.
         25    2    1    2    0    0 -0.10954405319E+03  0.43587628560E+02  0.39113534394E+02  0.17622541100E+03  0.12500298378E+03 0.  0.
          2    1    1    2  501    0  0.40381387359E+02 -0.61290219543E+02 -0.45812432292E+03  0.46396663965E+03  0.00000000000E+00 0. -1.
          1    1    1    2  502    0  0.69162665836E+02  0.17702590984E+02  0.65046487041E+03  0.65437099853E+03  0.00000000000E+00 0. -1.
         22    1    3    3    0    0  0.22621545819E+01 -0.34444778943E+02  0.15551864614E+02  0.37860541897E+02  0.00000000000E+00 0. -1.
         22    1    3    3    0    0 -0.11180620778E+03  0.78032407503E+02  0.23561669780E+02  0.13836486910E+03  0.00000000000E+00 0. -1.
</event>
<event>
 7    1  0.5993218E-006  0.3041638E+02  0.7818608E-02  0.1659182E+00
          2   -1    0    0  502    0  0.00000000000E+00  0.00000000000E+00  0.14765647758E+04  0.14765647758E+04  0.00000000000E+00 0. -1.
          1   -1    0    0  501    0 -0.00000000000E+00 -0.00000000000E+00 -0.12340995113E+02  0.12340995113E+02  0.00000000000E+00 0. -1.
         25    2    1    2    0    0  0.40924148852E+02 -0.26802218072E+02  0.70348082702E+03  0.71617162852E+03  0.12499353048E+03 0.  0.
          2    1    1    2  501    0 -0.13429221285E+02  0.15828457643E+02  0.13187109799E+02  0.24592354920E+02  0.00000000000E+00 0. -1.
          1    1    1    2  502    0 -0.27494927567E+02  0.10973760430E+02  0.74755584388E+03  0.74814178749E+03  0.00000000000E+00 0. -1.
         22    1    3    3    0    0 -0.26388419386E+02 -0.54868867576E+02  0.29236989353E+03  0.29864208671E+03  0.00000000000E+00 0. -1.
         22    1    3    3    0    0  0.67312568239E+02  0.28066649503E+02  0.41111093348E+03  0.41752954181E+03  0.00000000000E+00 0. -1.
</event>
<event>
 7    1  0.5993218E-006  0.9691775E+02  0.7818608E-02  0.1326966E+00
          2   -1    0    0  502    0  0.00000000000E+00  0.00000000000E+00  0.31131978384E+03  0.31131978384E+03  0.00000000000E+00 0. -1.
          1   -1    0    0  501    0 -0.00000000000E+00 -0.00000000000E+00 -0.62605743055E+03  0.62605743055E+03  0.00000000000E+00 0. -1.
         25    2    1    2    0    0  0.23328699211E+02  0.40569103913E+02  0.54369975601E+02  0.14412364109E+03  0.12500179709E+03 0.  0.
          2    1    1    2  501    0 -0.90588443679E+02 -0.41063721899E+02 -0.57144155234E+03  0.58003270867E+03  0.00000000000E+00 0. -1.
          1    1    1    2  502    0  0.67259744468E+02  0.49461798608E+00  0.20233393003E+03  0.21322086464E+03  0.00000000000E+00 0. -1.
         22    1    3    3    0    0  0.56134318532E+02  0.66403632991E+02  0.54020022085E+02  0.10236536024E+03  0.00000000000E+00 0. -1.
         22    1    3    3    0    0 -0.32805619321E+02 -0.25834529079E+02  0.34995351593E+00  0.41758280846E+02  0.00000000000E+00 0. -1.
</event>
<event>
 7    1  0.5993218E-006  0.6353301E+02  0.7818608E-02  0.1487233E+00
          2   -1    0    0  502    0  0.00000000000E+00  0.00000000000E+00  0.86589787550E+02  0.86589787550E+02  0.00000000000E+00 0. -1.
          1   -1    0    0  501    0 -0.00000000000E+00 -0.00000000000E+00 -0.67147999601E+03  0.67147999601E+03  0.00000000000E+00 0. -1.
         25    2    1    2    0    0 -0.50918371011E+02 -0.66227392382E+02 -0.11531159375E+03  0.18947527749E+03  0.12500147648E+03 0.  0.
          2    1    1    2  501    0  0.50477520880E+02  0.37128821897E+02 -0.51273107288E+03  0.51654591531E+03  0.00000000000E+00 0. -1.
          1    1    1    2  502    0  0.44085013010E+00  0.29098570485E+02  0.43152458168E+02  0.52048590750E+02  0.00000000000E+00 0. -1.
         22    1    3    3    0    0 -0.13317123181E+02 -0.98870219551E+02 -0.85865148329E+02  0.13162632632E+03  0.00000000000E+00 0.  1.
         22    1    3    3    0    0 -0.37601247830E+02  0.32642827169E+02 -0.29446445417E+02  0.57848951171E+02  0.00000000000E+00 0.  1.
</event>
<event>
 7    1  0.5993218E-006  0.6254132E+02  0.7818608E-02  0.1460585E+00
          2   -1    0    0  502    0  0.00000000000E+00  0.00000000000E+00  0.95223846138E+03  0.95223846138E+03  0.00000000000E+00 0. -1.
          1   -1    0    0  501    0 -0.00000000000E+00 -0.00000000000E+00 -0.10737057875E+03  0.10737057875E+03  0.00000000000E+00 0. -1.
         25    2    1    2    0    0  0.82853007626E+02 -0.45438834571E+02  0.31945313742E+01  0.15673134915E+03  0.12500080886E+03 0.  0.
          2    1    1    2  501    0 -0.23600098935E+02  0.26845507882E+02 -0.18649161180E+02  0.40316710876E+02  0.00000000000E+00 0. -1.
          1    1    1    2  502    0 -0.59252908692E+02  0.18593326689E+02  0.86032251243E+03  0.86256098010E+03  0.00000000000E+00 0. -1.
         22    1    3    3    0    0  0.90751488598E+02  0.66088423776E+01  0.32328024178E+02  0.96564023464E+02  0.00000000000E+00 0. -1.
         22    1    3    3    0    0 -0.78984809721E+01 -0.52047676949E+02 -0.29133492804E+02  0.60167325688E+02  0.00000000000E+00 0. -1.
</event>
<event>
 7    1  0.5993218E-006  0.4273577E+02  0.7818608E-02  0.1520555E+00
          2   -1    0    0  502    0  0.00000000000E+00  0.00000000000E+00  0.41047418992E+02  0.41047418992E+02  0.00000000000E+00 0. -1.
          1   -1    0    0  501    0 -0.00000000000E+00 -0.00000000000E+00 -0.27284136849E+04  0.27284136849E+04  0.00000000000E+00 0. -1.
         25    2    1    2    0    0  0.31004631597E+02 -0.63885614651E+02 -0.20935497855E+04  0.20984799556E+04  0.12499904338E+03 0.  0.
          2    1    1    2  501    0 -0.15000441963E+02  0.33376901834E+02 -0.62406372195E+03  0.62513563319E+03  0.00000000000E+00 0. -1.
          1    1    1    2  502    0 -0.16004189635E+02  0.30508712816E+02  0.30247241463E+02  0.45845515154E+02  0.00000000000E+00 0. -1.
         22    1    3    3    0    0  0.77951078453E+02 -0.23279614235E+02 -0.11156262551E+04  0.11185885088E+04  0.00000000000E+00 0.  1.
         22    1    3    3    0    0 -0.46946446855E+02 -0.40606000415E+02 -0.97792353041E+03  0.97989144678E+03  0.00000000000E+00 0.  1.
</event>
<event>
 7    1  0.5993218E-006  0.1247053E+03  0.7818608E-02  0.1355768E+00
          2   -1    0    0  502    0  0.00000000000E+00  0.00000000000E+00  0.33457844533E+03  0.33457844533E+03  0.00000000000E+00 0. -1.
          1   -1    0    0  501    0 -0.00000000000E+00 -0.00000000000E+00 -0.40823725218E+03  0.40823725218E+03  0.00000000000E+00 0. -1.
         25    2    1    2    0    0  0.10314839964E+03  0.57131336905E+02 -0.27148182354E+02  0.17396727590E+03  0.12499602904E+03 0.  0.
          2    1    1    2  501    0 -0.12484616607E+03 -0.22636355553E+02 -0.29285302933E+03  0.31915805890E+03  0.00000000000E+00 0. -1.
          1    1    1    2  502    0  0.21697766431E+02 -0.34494981352E+02  0.24634240483E+03  0.24969036270E+03  0.00000000000E+00 0. -1.
         22    1    3    3    0    0  0.12712555401E+03  0.27989808928E+02 -0.51203575776E+01  0.13027107871E+03  0.00000000000E+00 0. -1.
         22    1    3    3    0    0 -0.23977154373E+02  0.29141527977E+02 -0.22027824776E+02  0.43696197192E+02  0.00000000000E+00 0. -1.
</event>
<event>
 7    1  0.5993218E-006  0.1598445E+03  0.7818608E-02  0.1278160E+00
          2   -1    0    0  502    0  0.00000000000E+00  0.00000000000E+00  0.11563980521E+04  0.11563980521E+04  0.00000000000E+00 0. -1.
          1   -1    0    0  501    0 -0.00000000000E+00 -0.00000000000E+00 -0.83220523103E+03  0.83220523103E+03  0.00000000000E+00 0. -1.
         25    2    1    2    0    0 -0.16717259765E+02  0.18652534562E+03 -0.93125690807E+02  0.24365777268E+03  0.12500217824E+03 0.  0.
          2    1    1    2  501    0 -0.37607210608E+02 -0.15297983081E+03 -0.65350280088E+03  0.67222246442E+03  0.00000000000E+00 0. -1.
          1    1    1    2  502    0  0.54324470373E+02 -0.33545514813E+02  0.10708213127E+04  0.10727230460E+04  0.00000000000E+00 0. -1.
         22    1    3    3    0    0  0.26169951104E+01 -0.21710855202E+01  0.21674059597E+02  0.21939168972E+02  0.00000000000E+00 0. -1.
         22    1    3    3    0    0 -0.19334254875E+02  0.18869643114E+03 -0.11479975040E+03  0.22171860371E+03  0.00000000000E+00 0. -1.
</event>
<event>
 7    1  0.5993218E-006  0.1065954E+03  0.7818608E-02  0.1351670E+00
          2   -1    0    0  502    0  0.00000000000E+00  0.00000000000E+00  0.23609762965E+03  0.23609762965E+03  0.00000000000E+00 0. -1.
          1   -1    0    0  501    0 -0.00000000000E+00 -0.00000000000E+00 -0.96347929310E+03  0.96347929310E+03  0.00000000000E+00 0. -1.
         25    2    1    2    0    0  0.15254473369E+02  0.65277326657E+02 -0.41339411794E+02  0.14774315753E+03  0.12500106119E+03 0.  0.
          2    1    1    2  501    0  0.28655320056E+02  0.40192369098E+02 -0.85031148203E+03  0.85174301898E+03  0.00000000000E+00 0. -1.
          1    1    1    2  502    0 -0.43909793425E+02 -0.10546969575E+03  0.16426923038E+03  0.20009074624E+03  0.00000000000E+00 0. -1.
         22    1    3    3    0    0  0.64418624229E+02  0.49966629528E+02  0.29188349284E+00  0.81526121028E+02  0.00000000000E+00 0.  1.
         22    1    3    3    0    0 -0.49164150860E+02  0.15310697129E+02 -0.41631295286E+02  0.66217036506E+02  0.00000000000E+00 0.  1.
</event>
<event>
 7    1  0.6035656E-006  0.5820926E+02  0.7818608E-02  0.1514018E+00
          2   -1    0    0  502    0  0.00000000000E+00  0.00000000000E+00  0.19770652282E+04  0.19770652282E+04  0.00000000000E+00 0. -1.
          1   -1    0    0  501    0 -0.00000000000E+00 -0.00000000000E+00 -0.82343868911E+03  0.82343868911E+03  0.00000000000E+00 0. -1.
         25    2    1    2    0    0 -0.48811634022E+02  0.44406938103E+02  0.39909337911E+02  0.14687958977E+03  0.12500522737E+03 0.  0.
          2    1    1    2  501    0  0.24964610306E+02  0.86716604415E+01 -0.76927720918E+03  0.76973102706E+03  0.00000000000E+00 0. -1.
          1    1    1    2  502    0  0.23847023716E+02 -0.53078598544E+02  0.18829944104E+04  0.18838933005E+04  0.00000000000E+00 0. -1.
         22    1    3    3    0    0 -0.38834138097E+02  0.88031602367E+02  0.32250581263E+02  0.10147784630E+03  0.00000000000E+00 0.  1.
         22    1    3    3    0    0 -0.99774959248E+01 -0.43624664264E+02  0.76587566477E+01  0.45401743474E+02  0.00000000000E+00 0.  1.
</event>
<event>
 7    1  0.5993218E-006  0.5486517E+02  0.7818608E-02  0.1430878E+00
          2   -1    0    0  502    0  0.00000000000E+00  0.00000000000E+00  0.24595582099E+03  0.24595582099E+03  0.00000000000E+00 0. -1.
          1   -1    0    0  501    0 -0.00000000000E+00 -0.00000000000E+00 -0.29197221157E+03  0.29197221157E+03  0.00000000000E+00 0. -1.
         25    2    1    2    0    0 -0.51985003121E+02 -0.12961522640E+02 -0.93872686497E+02  0.16524920231E+03  0.12499910389E+03 0.  0.
          2    1    1    2  501    0  0.10327386817E+02  0.49721020092E+02 -0.15460585574E+03  0.16273231206E+03  0.00000000000E+00 0. -1.
          1    1    1    2  502    0  0.41657616304E+02 -0.36759497452E+02  0.20246215166E+03  0.20994651819E+03  0.00000000000E+00 0. -1.
         22    1    3    3    0    0  0.23589916639E+02  0.30315234448E+02 -0.61154148528E+02  0.72217224323E+02  0.00000000000E+00 0.  1.
         22    1    3    3    0    0 -0.75574919760E+02 -0.43276757088E+02 -0.32718537969E+02  0.93031977984E+02  0.00000000000E+00 0.  1.
</event>
<event>
 7    1  0.5993218E-006  0.2194336E+03  0.7818608E-02  0.1289594E+00
          2   -1    0    0  502    0  0.00000000000E+00  0.00000000000E+00  0.22920391064E+03  0.22920391064E+03  0.00000000000E+00 0. -1.
          1   -1    0    0  501    0 -0.00000000000E+00 -0.00000000000E+00 -0.20654288544E+04  0.20654288544E+04  0.00000000000E+00 0. -1.
         25    2    1    2    0    0 -0.56174422133E+02 -0.23657161717E+03 -0.14462409290E+04  0.14718561326E+04  0.12500381896E+03 0.  0.
          2    1    1    2  501    0 -0.24874029496E+02  0.33521624345E+02 -0.55016657927E+03  0.55174784240E+03  0.00000000000E+00 0. -1.
          1    1    1    2  502    0  0.81048451630E+02  0.20304999282E+03  0.16018256444E+03  0.27102879007E+03  0.00000000000E+00 0. -1.
         22    1    3    3    0    0  0.16266115428E+02 -0.13442280064E+03 -0.52665245239E+03  0.54378017751E+03  0.00000000000E+00 0.  1.
         22    1    3    3    0    0 -0.72440537561E+02 -0.10214881653E+03 -0.91958847657E+03  0.92807595510E+03  0.00000000000E+00 0.  1.
</event>
<event>
 7    1  0.5993218E-006  0.4300750E+02  0.7818608E-02  0.1554744E+00
          2   -1    0    0  502    0  0.00000000000E+00  0.00000000000E+00  0.71996336626E+03  0.71996336626E+03  0.00000000000E+00 0. -1.
          1   -1    0    0  501    0 -0.00000000000E+00 -0.00000000000E+00 -0.43072525393E+03  0.43072525393E+03  0.00000000000E+00 0. -1.
         25    2    1    2    0    0 -0.54651674984E+01  0.58638808788E+02  0.23186158107E+03  0.26991265218E+03  0.12499867631E+03 0.  0.
          2    1    1    2  501    0 -0.14875167489E+02 -0.40304767882E+02 -0.41017721029E+03  0.41242100912E+03  0.00000000000E+00 0. -1.
          1    1    1    2  502    0  0.20340334988E+02 -0.18334040906E+02  0.46755374155E+03  0.46835495889E+03  0.00000000000E+00 0. -1.
         22    1    3    3    0    0  0.14199214120E+02  0.52711213946E+02  0.24123630919E+03  0.24733589838E+03  0.00000000000E+00 0.  1.
         22    1    3    3    0    0 -0.19664381619E+02  0.59275948416E+01 -0.93747281151E+01  0.22576753803E+02  0.00000000000E+00 0.  1.
</event>
<event>
 7    1  0.5993218E-006  0.1350644E+03  0.7818608E-02  0.1338792E+00
          2   -1    0    0  502    0  0.00000000000E+00  0.00000000000E+00  0.69944611675E+03  0.69944611675E+03  0.00000000000E+00 0. -1.
          1   -1    0    0  501    0 -0.00000000000E+00 -0.00000000000E+00 -0.39547637220E+03  0.39547637220E+03  0.00000000000E+00 0. -1.
         25    2    1    2    0    0  0.11405167017E+03 -0.98872132541E+02 -0.95756643307E+02  0.21812163072E+03  0.12499691592E+03 0.  0.
          2    1    1    2  501    0 -0.41113862315E+02 -0.14258967399E+02 -0.22937186932E+03  0.23346332102E+03  0.00000000000E+00 0. -1.
          1    1    1    2  502    0 -0.72937807854E+02  0.11313109994E+03  0.62909825718E+03  0.64333753720E+03  0.00000000000E+00 0. -1.
         22    1    3    3    0    0  0.93732326549E+02 -0.12788591421E+03 -0.65564457116E+02  0.17157871118E+03  0.00000000000E+00 0.  1.
         22    1    3    3    0    0  0.20319343620E+02  0.29013781672E+02 -0.30192186191E+02  0.46542919538E+02  0.00000000000E+00 0.  1.
</event>
<event>
 7    1  0.5993218E-006  0.3796594E+03  0.7818608E-02  0.1207094E+00
          2   -1    0    0  502    0  0.00000000000E+00  0.00000000000E+00  0.11641497148E+04  0.11641497148E+04  0.00000000000E+00 0. -1.
          1   -1    0    0  501    0 -0.00000000000E+00 -0.00000000000E+00 -0.19240918358E+04  0.19240918358E+04  0.00000000000E+00 0. -1.
         25    2    1    2    0    0 -0.18851203499E+03 -0.27047468320E+03  0.35887338402E+03  0.50309855121E+03  0.12499881949E+03 0.  0.
          2    1    1    2  501    0  0.20254420567E+03  0.32383789666E+03 -0.18312065886E+04  0.18706182691E+04  0.00000000000E+00 0. -1.
          1    1    1    2  502    0 -0.14032170673E+02 -0.53363213458E+02  0.71239108351E+03  0.71452473031E+03  0.00000000000E+00 0. -1.
         22    1    3    3    0    0  0.10786211443E+01 -0.23682456205E+01  0.56992101787E+02  0.57051482688E+02  0.00000000000E+00 0.  1.
         22    1    3    3    0    0 -0.18959065614E+03 -0.26810643758E+03  0.30188128224E+03  0.44604706852E+03  0.00000000000E+00 0.  1.
</event>
<event>
 7    1  0.5993218E-006  0.2928272E+03  0.7818608E-02  0.1140913E+00
          2   -1    0    0  502    0  0.00000000000E+00  0.00000000000E+00  0.59254422565E+03  0.59254422565E+03  0.00000000000E+00 0. -1.
          1   -1    0    0  501    0 -0.00000000000E+00 -0.00000000000E+00 -0.15906783377E+04  0.15906783377E+04  0.00000000000E+00 0. -1.
         25    2    1    2    0    0 -0.19933982381E+03  0.17505637340E+03 -0.83241201386E+03  0.88256238975E+03  0.12500204704E+03 0.  0.
          2    1    1    2  501    0  0.10833548128E+03  0.10631783949E+03 -0.68579295047E+03  0.70239022659E+03  0.00000000000E+00 0. -1.
          1    1    1    2  502    0  0.91004342530E+02 -0.28137421289E+03  0.52007085231E+03  0.59826994698E+03  0.00000000000E+00 0. -1.
         22    1    3    3    0    0 -0.65284648857E+02  0.13869150167E+03 -0.39875660727E+03  0.42720516131E+03  0.00000000000E+00 0. -1.
         22    1    3    3    0    0 -0.13405517495E+03  0.36364871733E+02 -0.43365540659E+03  0.45535722844E+03  0.00000000000E+00 0. -1.
</event>
<event>
 7    1  0.5993218E-006  0.9927959E+02  0.7818608E-02  0.1308503E+00
          2   -1    0    0  502    0  0.00000000000E+00  0.00000000000E+00  0.96782692628E+03  0.96782692628E+03  0.00000000000E+00 0. -1.
          1   -1    0    0  501    0 -0.00000000000E+00 -0.00000000000E+00 -0.10781271806E+03  0.10781271806E+03  0.00000000000E+00 0. -1.
         25    2    1    2    0    0  0.12588015830E+03 -0.41979242111E+02  0.11863904753E+03  0.21750993321E+03  0.12500910536E+03 0.  0.
          2    1    1    2  501    0 -0.67722608553E+02 -0.37645031554E+02 -0.28056808403E+02  0.82405610293E+02  0.00000000000E+00 0. -1.
          1    1    1    2  502    0 -0.58157549752E+02  0.79624273664E+02  0.76943196910E+03  0.77572410084E+03  0.00000000000E+00 0. -1.
         22    1    3    3    0    0  0.38394434756E+01 -0.52428831875E+02  0.65515222867E+02  0.83998620021E+02  0.00000000000E+00 0. -1.
         22    1    3    3    0    0  0.12204071483E+03  0.10449589765E+02  0.53123824658E+02  0.13351131319E+03  0.00000000000E+00 0. -1.
</event>
<event>
 7    1  0.8251312E-006  0.4571880E+02  0.7818608E-02  0.1541108E+00
          2   -1    0    0  502    0  0.00000000000E+00  0.00000000000E+00  0.84894004876E+03  0.84894004876E+03  0.00000000000E+00 0. -1.
          1   -1    0    0  501    0 -0.00000000000E+00 -0.00000000000E+00 -0.16489964869E+04  0.16489964869E+04  0.00000000000E+00 0. -1.
         25    2    1    2    0    0  0.45273807285E+02 -0.38909206711E+02 -0.10537014360E+04  0.10627682477E+04  0.12500395193E+03 0.  0.
          2    1    1    2  501    0 -0.85286527312E+00  0.28111555390E+02 -0.58980759528E+03  0.59047776112E+03  0.00000000000E+00 0. -1.
          1    1    1    2  502    0 -0.44420942012E+02  0.10797651320E+02  0.84345259314E+03  0.84469052690E+03  0.00000000000E+00 0. -1.
         22    1    3    3    0    0 -0.30291526110E+02 -0.13135767495E+02 -0.91762522823E+02  0.97521718282E+02  0.00000000000E+00 0.  1.
         22    1    3    3    0    0  0.75565333395E+02 -0.25773439216E+02 -0.96193891319E+03  0.96524652938E+03  0.00000000000E+00 0.  1.
</event>
<event>
 7    1  0.5993218E-006  0.5210918E+02  0.7818608E-02  0.1448220E+00
          2   -1    0    0  502    0  0.00000000000E+00  0.00000000000E+00  0.42562797633E+03  0.42562797633E+03  0.00000000000E+00 0. -1.
          1   -1    0    0  501    0 -0.00000000000E+00 -0.00000000000E+00 -0.43389759656E+03  0.43389759656E+03  0.00000000000E+00 0. -1.
         25    2    1    2    0    0 -0.18807653754E+01  0.36259738054E+02 -0.19611998778E+03  0.23538512753E+03  0.12499921110E+03 0.  0.
          2    1    1    2  501    0  0.48602448263E+02 -0.31486519659E+02 -0.21290614595E+03  0.22064139658E+03  0.00000000000E+00 0. -1.
          1    1    1    2  502    0 -0.46721682887E+02 -0.47732183956E+01  0.40075651349E+03  0.40349904879E+03  0.00000000000E+00 0. -1.
         22    1    3    3    0    0  0.11648678566E+02 -0.10774121807E+02 -0.18437232533E+03  0.18505385097E+03  0.00000000000E+00 0.  1.
         22    1    3    3    0    0 -0.13529443942E+02  0.47033859861E+02 -0.11747662448E+02  0.50331276556E+02  0.00000000000E+00 0.  1.
</event>
<event>
 7    1  0.5993218E-006  0.1519276E+03  0.7818608E-02  0.1364102E+00
          2   -1    0    0  502    0  0.00000000000E+00  0.00000000000E+00  0.20572400371E+04  0.20572400371E+04  0.00000000000E+00 0. -1.
          1   -1    0    0  501    0 -0.00000000000E+00 -0.00000000000E+00 -0.20390285568E+04  0.20390285568E+04  0.00000000000E+00 0. -1.
         25    2    1    2    0    0 -0.74591311552E+02 -0.12090308002E+03 -0.17515835171E+03  0.25785187240E+03  0.12500288560E+03 0.  0.
          2    1    1    2  501    0 -0.29529054098E+02  0.10033272208E+02 -0.18195207781E+04  0.18197880353E+04  0.00000000000E+00 0. -1.
          1    1    1    2  502    0  0.10412036565E+03  0.11086980781E+03  0.20128906101E+04  0.20186286863E+04  0.00000000000E+00 0. -1.
         22    1    3    3    0    0 -0.31633768446E+02 -0.64172464508E+02 -0.17238010281E+03  0.18663788563E+03  0.00000000000E+00 0. -1.
         22    1    3    3    0    0 -0.42957543106E+02 -0.56730615508E+02 -0.27782489075E+01  0.71213986776E+02  0.00000000000E+00 0. -1.
</event>
<event>
 7    1  0.5993218E-006  0.3231655E+03  0.7818608E-02  0.1181488E+00
          2   -1    0    0  502    0  0.00000000000E+00  0.00000000000E+00  0.63467577677E+03  0.63467577677E+03  0.00000000000E+00 0. -1.
          1   -1    0    0  501    0 -0.00000000000E+00 -0.00000000000E+00 -0.20575499134E+04  0.20575499134E+04  0.00000000000E+00 0. -1.
         25    2    1    2    0    0 -0.11168440518E+03 -0.30358981714E+03  0.10512734698E+03  0.36237520285E+03  0.12499538040E+03 0.  0.
          2    1    1    2  501    0  0.27966722414E+02  0.32256412022E+03 -0.19105494721E+04  0.19377897292E+04  0.00000000000E+00 0. -1.
          1    1    1    2  502    0  0.83717682768E+02 -0.18974303081E+02  0.38254798847E+03  0.39206075814E+03  0.00000000000E+00 0. -1.
         22    1    3    3    0    0 -0.30017463365E+02 -0.24085608071E+03  0.86820993243E+02  0.25778010899E+03  0.00000000000E+00 0.  1.
         22    1    3    3    0    0 -0.81666941817E+02 -0.62733736435E+02  0.18306353740E+02  0.10459509386E+03  0.00000000000E+00 0.  1.
</event>
<event>
 7    1  0.7891791E-006  0.5844968E+02  0.7818608E-02  0.1428114E+00
          2   -1    0    0  502    0  0.00000000000E+00  0.00000000000E+00  0.13290634414E+04  0.13290634414E+04  0.00000000000E+00 0. -1.
          1   -1    0    0  501    0 -0.00000000000E+00 -0.00000000000E+00 -0.20772734243E+04  0.20772734243E+04  0.00000000000E+00 0. -1.
         25    2    1    2    0    0 -0.34710488261E+02  0.17730971986E+02 -0.70701788321E+02  0.14880525734E+03  0.12500022550E+03 0.  0.
          2    1    1    2  501    0 -0.16889157647E+02 -0.45653972065E+02 -0.19665514725E+04  0.19671538381E+04  0.00000000000E+00 0. -1.
          1    1    1    2  502    0  0.51599645907E+02  0.27923000080E+02  0.12890432780E+04  0.12903777702E+04  0.00000000000E+00 0. -1.
         22    1    3    3    0    0 -0.24476806208E+02  0.56406674412E+02  0.65223506657E+01  0.61833389189E+02  0.00000000000E+00 0.  1.
         22    1    3    3    0    0 -0.10233682052E+02 -0.38675702427E+02 -0.77224138987E+02  0.86971868146E+02  0.00000000000E+00 0.  1.
</event>
<event>
 7    1  0.5993218E-006  0.4908749E+02  0.7818608E-02  0.1553447E+00
          2   -1    0    0  502    0  0.00000000000E+00  0.00000000000E+00  0.54448222396E+02  0.54448222396E+02  0.00000000000E+00 0. -1.
          1   -1    0    0  501    0 -0.00000000000E+00 -0.00000000000E+00 -0.32972470367E+03  0.32972470367E+03  0.00000000000E+00 0. -1.
         25    2    1    2    0    0 -0.30703852950E+02  0.76703487764E+01 -0.67766580115E+02  0.14566330579E+03  0.12499571367E+03 0.  0.
          2    1    1    2  501    0  0.41120481241E+02 -0.29504402498E+02 -0.20824513269E+03  0.21430688051E+03  0.00000000000E+00 0. -1.
          1    1    1    2  502    0 -0.10416628291E+02  0.21834053722E+02  0.73523153487E+00  0.24202739768E+02  0.00000000000E+00 0. -1.
         22    1    3    3    0    0  0.13311860438E+02  0.32490931915E+02  0.22862066861E+02  0.41899169278E+02  0.00000000000E+00 0. -1.
         22    1    3    3    0    0 -0.44015713388E+02 -0.24820583139E+02 -0.90628646977E+02  0.10376413651E+03  0.00000000000E+00 0. -1.
</event>
<event>
 7    1  0.5993218E-006  0.7177296E+02  0.7818608E-02  0.1378063E+00
          2   -1    0    0  502    0  0.00000000000E+00  0.00000000000E+00  0.86936583598E+03  0.86936583598E+03  0.00000000000E+00 0. -1.
          1   -1    0    0  501    0 -0.00000000000E+00 -0.00000000000E+00 -0.18623172734E+03  0.18623172734E+03  0.00000000000E+00 0. -1.
         25    2    1    2    0    0  0.22311168949E+02 -0.30513811160E+02  0.32583549180E+03  0.35102790290E+03  0.12499175958E+03 0.  0.
          2    1    1    2  501    0 -0.72892273031E+02  0.48730748453E+00 -0.16425830985E+03  0.17970618601E+03  0.00000000000E+00 0. -1.
          1    1    1    2  502    0  0.50581104082E+02  0.30026503675E+02  0.52155692667E+03  0.52486347442E+03  0.00000000000E+00 0. -1.
         22    1    3    3    0    0 -0.27647312927E+02  0.19388536378E+02  0.24997121938E+02  0.42013633028E+02  0.00000000000E+00 0.  1.
         22    1    3    3    0    0  0.49958481877E+02 -0.49902347538E+02  0.30083836986E+03  0.30901426987E+03  0.00000000000E+00 0.  1.
</event>
<event>
 7    1  0.5993218E-006  0.5840022E+02  0.7818608E-02  0.1499603E+00
          2   -1    0    0  502    0  0.00000000000E+00  0.00000000000E+00  0.15689410200E+04  0.15689410200E+04  0.00000000000E+00 0. -1.
          1   -1    0    0  501    0 -0.00000000000E+00 -0.00000000000E+00 -0.93749157235E+02  0.93749157235E+02  0.00000000000E+00 0. -1.
         25    2    1    2    0    0  0.50626984625E+02 -0.54389729652E+02  0.66656903783E+03  0.68224685864E+03  0.12500063865E+03 0.  0.
          2    1    1    2  501    0  0.47243105999E+00  0.29053632109E+02 -0.82515177976E+02  0.87481948574E+02  0.00000000000E+00 0. -1.
          1    1    1    2  502    0 -0.51099415685E+02  0.25336097543E+02  0.89113800293E+03  0.89296137004E+03  0.00000000000E+00 0. -1.
         22    1    3    3    0    0 -0.38156800191E+02  0.32033397529E+01  0.13958265014E+03  0.14473948668E+03  0.00000000000E+00 0. -1.
         22    1    3    3    0    0  0.88783784816E+02 -0.57593069405E+02  0.52698638769E+03  0.53750737195E+03  0.00000000000E+00 0. -1.
</event>
<event>
 7    1  0.5993218E-006  0.6217326E+02  0.7818608E-02  0.1446548E+00
          2   -1    0    0  502    0  0.00000000000E+00  0.00000000000E+00  0.49005057104E+03  0.49005057104E+03  0.00000000000E+00 0. -1.
          1   -1    0    0  501    0 -0.00000000000E+00 -0.00000000000E+00 -0.20590716858E+03  0.20590716858E+03  0.00000000000E+00 0. -1.
         25    2    1    2    0    0 -0.43314883243E+02 -0.68124131556E+02  0.15863764046E+03  0.21750434134E+03  0.12500064448E+03 0.  0.
          2    1    1    2  501    0 -0.10174268382E+02  0.38531882196E+02 -0.17106619943E+03  0.17564699335E+03  0.00000000000E+00 0. -1.
          1    1    1    2  502    0  0.53489151626E+02  0.29592249360E+02  0.29657196143E+03  0.30280640493E+03  0.00000000000E+00 0. -1.
         22    1    3    3    0    0 -0.61371959690E+02 -0.96878131982E+02  0.12663362546E+03  0.17084485649E+03  0.00000000000E+00 0.  1.
         22    1    3    3    0    0  0.18057076447E+02  0.28754000426E+02  0.32004015002E+02  0.46659484851E+02  0.00000000000E+00 0.  1.
</event>
<event>
 7    1  0.5993218E-006  0.6095990E+02  0.7818608E-02  0.1496192E+00
          2   -1    0    0  502    0  0.00000000000E+00  0.00000000000E+00  0.92862505003E+03  0.92862505003E+03  0.00000000000E+00 0. -1.
          1   -1    0    0  501    0 -0.00000000000E+00 -0.00000000000E+00 -0.76538788009E+02  0.76538788009E+02  0.00000000000E+00 0. -1.
         25    2    1    2    0    0  0.78711968089E+02  0.13057739962E+02  0.70582026351E+02  0.16423362428E+03  0.12499912962E+03 0.  0.
          2    1    1    2  501    0 -0.24652394209E+02  0.14299336802E+02 -0.21464932784E+02  0.35678493699E+02  0.00000000000E+00 0. -1.
          1    1    1    2  502    0 -0.54059573880E+02 -0.27357076764E+02  0.80296916846E+03  0.80525172007E+03  0.00000000000E+00 0. -1.
         22    1    3    3    0    0  0.64668329351E+02 -0.12165331215E+02  0.10211568096E+03  0.12148086435E+03  0.00000000000E+00 0. -1.
         22    1    3    3    0    0  0.14043638738E+02  0.25223071177E+02 -0.31533654609E+02  0.42752759929E+02  0.00000000000E+00 0. -1.
</event>
<event>
 7    1  0.5993218E-006  0.6476250E+02  0.7818608E-02  0.1486918E+00
          2   -1    0    0  502    0  0.00000000000E+00  0.00000000000E+00  0.58830165419E+03  0.58830165419E+03  0.00000000000E+00 0. -1.
          1   -1    0    0  501    0 -0.00000000000E+00 -0.00000000000E+00 -0.16985900470E+04  0.16985900470E+04  0.00000000000E+00 0. -1.
         25    2    1    2    0    0  0.34893722075E+02  0.51155758692E+02 -0.17852807515E+03  0.22658720641E+03  0.12504001362E+03 0.  0.
          2    1    1    2  501    0 -0.25486691412E+02  0.13003894375E+02 -0.14940319769E+04  0.14943059328E+04  0.00000000000E+00 0. -1.
          1    1    1    2  502    0 -0.94070306623E+01 -0.64159653067E+02  0.56227165928E+03  0.56599856196E+03  0.00000000000E+00 0. -1.
         22    1    3    3    0    0  0.44587517053E+01  0.82332864387E+02 -0.15843791592E+03  0.17860894218E+03  0.00000000000E+00 0.  1.
         22    1    3    3    0    0  0.30434970369E+02 -0.31177105695E+02 -0.20090159222E+02  0.47978264229E+02  0.00000000000E+00 0.  1.
</event>
<event>
 7    1  0.5993218E-006  0.8160593E+02  0.7818608E-02  0.1481218E+00
          2   -1    0    0  502    0  0.00000000000E+00  0.00000000000E+00  0.80599503292E+03  0.80599503292E+03  0.00000000000E+00 0. -1.
          1   -1    0    0  501    0 -0.00000000000E+00 -0.00000000000E+00 -0.99272310995E+03  0.99272310995E+03  0.00000000000E+00 0. -1.
         25    2    1    2    0    0  0.28706644617E+02 -0.89634785821E+02 -0.67174987010E+03  0.68973158642E+03  0.12499322801E+03 0.  0.
          2    1    1    2  501    0  0.13166878155E+02  0.19626942422E+02 -0.30944323115E+03  0.31034448094E+03  0.00000000000E+00 0. -1.
          1    1    1    2  502    0 -0.41873522771E+02  0.70007843399E+02  0.79446502423E+03  0.79864207551E+03  0.00000000000E+00 0. -1.
         22    1    3    3    0    0 -0.31414685815E+02 -0.63541888670E+02 -0.17709873304E+03  0.19075747782E+03  0.00000000000E+00 0.  1.
         22    1    3    3    0    0  0.60121330431E+02 -0.26092897152E+02 -0.49465113706E+03  0.49897410859E+03  0.00000000000E+00 0.  1.
</event>
<event>
 7    1  0.5993218E-006  0.2390333E+03  0.7818608E-02  0.1209006E+00
          2   -1    0    0  502    0  0.00000000000E+00  0.00000000000E+00  0.27445896679E+04  0.27445896679E+04  0.00000000000E+00 0. -1.
          1   -1    0    0  501    0 -0.00000000000E+00 -0.00000000000E+00 -0.48047394574E+02  0.48047394574E+02  0.00000000000E+00 0. -1.
         25    2    1    2    0    0 -0.21082916630E+03 -0.80098173703E+02  0.69749183186E+03  0.74362913412E+03  0.12499911522E+03 0.  0.
          2    1    1    2  501    0  0.19923936134E+03  0.16517492905E+03  0.68667519742E+03  0.73382689174E+03  0.00000000000E+00 0. -1.
          1    1    1    2  502    0  0.11589804961E+02 -0.85076755345E+02  0.13123752440E+04  0.13151810366E+04  0.00000000000E+00 0. -1.
         22    1    3    3    0    0 -0.13636072160E+03 -0.96614745569E+02  0.57960347059E+03  0.60321541640E+03  0.00000000000E+00 0.  1.
         22    1    3    3    0    0 -0.74468444700E+02  0.16516571865E+02  0.11788836127E+03  0.14041371772E+03  0.00000000000E+00 0.  1.
</event>
<event>
 7    1  0.5993218E-006  0.1507416E+03  0.7818608E-02  0.1206914E+00
          2   -1    0    0  502    0  0.00000000000E+00  0.00000000000E+00  0.87841936263E+03  0.87841936263E+03  0.00000000000E+00 0. -1.
          1   -1    0    0  501    0 -0.00000000000E+00 -0.00000000000E+00 -0.94112881740E+02  0.94112881740E+02  0.00000000000E+00 0. -1.
         25    2    1    2    0    0  0.54616980456E+02 -0.14498858420E+03  0.54090742721E+03  0.57637683115E+03  0.12499881030E+03 0.  0.
          2    1    1    2  501    0  0.84418555671E+02  0.13746055326E+03  0.75716457009E+02  0.17819898459E+03  0.00000000000E+00 0. -1.
          1    1    1    2  502    0 -0.13903553613E+03  0.75280309305E+01  0.16768259667E+03  0.21795642863E+03  0.00000000000E+00 0. -1.
         22    1    3    3    0    0  0.47385813734E+02 -0.95470858175E+00  0.75555732545E+02  0.89190781655E+02  0.00000000000E+00 0. -1.
         22    1    3    3    0    0  0.72311667215E+01 -0.14403387561E+03  0.46535169467E+03  0.48718604950E+03  0.00000000000E+00 0. -1.
</event>
<event>
 7    1  0.5993218E-006  0.1526000E+03  0.7818608E-02  0.1338791E+00
          2   -1    0    0  502    0  0.00000000000E+00  0.00000000000E+00  0.25401874490E+03  0.25401874490E+03  0.00000000000E+00 0. -1.
          1   -1    0    0  501    0 -0.00000000000E+00 -0.00000000000E+00 -0.30035399729E+03  0.30035399729E+03  0.00000000000E+00 0. -1.
         25    2    1    2    0    0 -0.51962306146E+02 -0.12827146043E+03 -0.87760140514E+02  0.20610695331E+03  0.12499834046E+03 0.  0.
          2    1    1    2  501    0  0.32166751049E+02  0.16131087950E+03 -0.10613879898E+03  0.19575838262E+03  0.00000000000E+00 0. -1.
          1    1    1    2  502    0  0.19795555097E+02 -0.33039419067E+02  0.14756368710E+03  0.15250740626E+03  0.00000000000E+00 0. -1.
         22    1    3    3    0    0 -0.31091410411E+02 -0.69127310064E+02 -0.11499657029E+03  0.13772970623E+03  0.00000000000E+00 0.  1.
         22    1    3    3    0    0 -0.20870895735E+02 -0.59144150369E+02  0.27236429779E+02  0.68377247084E+02  0.00000000000E+00 0.  1.
</event>
<event>
 7    1  0.5993218E-006  0.6673328E+02  0.7818608E-02  0.1528594E+00
          2   -1    0    0  502    0  0.00000000000E+00  0.00000000000E+00  0.86763440156E+03  0.86763440156E+03  0.00000000000E+00 0. -1.
          1   -1    0    0  501    0 -0.00000000000E+00 -0.00000000000E+00 -0.11486212795E+04  0.11486212795E+04  0.00000000000E+00 0. -1.
         25    2    1    2    0    0 -0.39987994555E+02 -0.50995855055E+02 -0.19378621219E+03  0.23953636411E+03  0.12499982703E+03 0.  0.
          2    1    1    2  501    0  0.22847341835E+02  0.62980651848E+02 -0.93062611735E+03  0.93303458340E+03  0.00000000000E+00 0. -1.
          1    1    1    2  502    0  0.17140652720E+02 -0.11984796793E+02  0.84342545157E+03  0.84368473358E+03  0.00000000000E+00 0. -1.
         22    1    3    3    0    0 -0.74441957937E+02 -0.38605395185E+01 -0.14661677552E+03  0.16447792475E+03  0.00000000000E+00 0. -1.
         22    1    3    3    0    0  0.34453963383E+02 -0.47135315537E+02 -0.47169436666E+02  0.75058439358E+02  0.00000000000E+00 0. -1.
</event>
<event>
 7    1  0.5993218E-006  0.1194462E+03  0.7818608E-02  0.1288309E+00
          2   -1    0    0  502    0  0.00000000000E+00  0.00000000000E+00  0.30059193473E+04  0.30059193473E+04  0.00000000000E+00 0. -1.
          1   -1    0    0  501    0 -0.00000000000E+00 -0.00000000000E+00 -0.70644501064E+03  0.70644501064E+03  0.00000000000E+00 0. -1.
         25    2    1    2    0    0 -0.66477140605E+02  0.18469763915E+03  0.15571958938E+04  0.15744898517E+04  0.12500725214E+03 0.  0.
          2    1    1    2  501    0  0.33762192967E+02 -0.11431561979E+03 -0.69165061052E+03  0.70184650290E+03  0.00000000000E+00 0. -1.
          1    1    1    2  502    0  0.32714947638E+02 -0.70382019365E+02  0.14339290533E+04  0.14360280033E+04  0.00000000000E+00 0. -1.
         22    1    3    3    0    0 -0.37383796237E+02  0.24761065469E+02  0.11955475920E+03  0.12768711381E+03  0.00000000000E+00 0. -1.
         22    1    3    3    0    0 -0.29093344368E+02  0.15993657368E+03  0.14376411346E+04  0.14468027379E+04  0.00000000000E+00 0. -1.
</event>
<event>
 7    1  0.5993218E-006  0.1812743E+03  0.7818608E-02  0.1208924E+00
          2   -1    0    0  502    0  0.00000000000E+00  0.00000000000E+00  0.27169340898E+04  0.27169340898E+04  0.00000000000E+00 0. -1.
          1   -1    0    0  501    0 -0.00000000000E+00 -0.00000000000E+00 -0.44603962127E+02  0.44603962127E+02  0.00000000000E+00 0. -1.
         25    2    1    2    0    0 -0.21383738134E+03 -0.12084383274E+03  0.96400309949E+03  0.10026230044E+04  0.12498502171E+03 0.  0.
          2    1    1    2  501    0  0.11229451555E+03 -0.15213889408E+02  0.13413755245E+03  0.17559727683E+03  0.00000000000E+00 0. -1.
          1    1    1    2  502    0  0.10154286579E+03  0.13605772215E+03  0.15741894757E+04  0.15833177706E+04  0.00000000000E+00 0. -1.
         22    1    3    3    0    0 -0.12395220028E+03 -0.75832797754E+02  0.77544531411E+03  0.78894245439E+03  0.00000000000E+00 0.  1.
         22    1    3    3    0    0 -0.89885181053E+02 -0.45011034990E+02  0.18855778538E+03  0.21368055005E+03  0.00000000000E+00 0.  1.
</event>
<event>
 7    1  0.5993218E-006  0.1107372E+03  0.7818608E-02  0.1412724E+00
          2   -1    0    0  502    0  0.00000000000E+00  0.00000000000E+00  0.70000860916E+02  0.70000860916E+02  0.00000000000E+00 0. -1.
          1   -1    0    0  501    0 -0.00000000000E+00 -0.00000000000E+00 -0.19762575790E+04  0.19762575790E+04  0.00000000000E+00 0. -1.
         25    2    1    2    0    0  0.85225650659E+02 -0.30511803665E+02 -0.58471371011E+03  0.60473961786E+03  0.12500200370E+03 0.  0.
          2    1    1    2  501    0 -0.11335390278E+03  0.23793251717E+02 -0.13754640688E+04  0.13803320726E+04  0.00000000000E+00 0. -1.
          1    1    1    2  502    0  0.28128252120E+02  0.67185519476E+01  0.53921060825E+02  0.61186749449E+02  0.00000000000E+00 0. -1.
         22    1    3    3    0    0 -0.16969614398E+02  0.29398317572E+02 -0.17415852652E+03  0.17743568200E+03  0.00000000000E+00 0.  1.
         22    1    3    3    0    0  0.10219526506E+03 -0.59910121236E+02 -0.41055518359E+03  0.42730393586E+03  0.00000000000E+00 0.  1.
</event>
<event>
 7    1  0.5993218E-006  0.6362658E+02  0.7818608E-02  0.1435616E+00
          2   -1    0    0  502    0  0.00000000000E+00  0.00000000000E+00  0.48840639330E+03  0.48840639330E+03  0.00000000000E+00 0. -1.
          1   -1    0    0  501    0 -0.00000000000E+00 -0.00000000000E+00 -0.29352753203E+04  0.29352753203E+04  0.00000000000E+00 0. -1.
         25    2    1    2    0    0 -0.21910387679E+02 -0.91778200133E+01 -0.52096770241E+03  0.53628054855E+03  0.12500072934E+03 0.  0.
          2    1    1    2  501    0  0.61718720414E+02  0.23337395256E+02 -0.24052695350E+04  0.24061744264E+04  0.00000000000E+00 0. -1.
          1    1    1    2  502    0 -0.39808332735E+02 -0.14159575243E+02  0.47936831040E+03  0.48122673860E+03  0.00000000000E+00 0. -1.
         22    1    3    3    0    0  0.95537320456E+01  0.42464707592E+02 -0.38523479637E+03  0.38768592123E+03  0.00000000000E+00 0. -1.
         22    1    3    3    0    0 -0.31464119724E+02 -0.51642527605E+02 -0.13573290604E+03  0.14859462732E+03  0.00000000000E+00 0. -1.
</event>
<event>
 7    1  0.5993218E-006  0.1390135E+03  0.7818608E-02  0.1393797E+00
          2   -1    0    0  502    0  0.00000000000E+00  0.00000000000E+00  0.14375562626E+04  0.14375562626E+04  0.00000000000E+00 0. -1.
          1   -1    0    0  501    0 -0.00000000000E+00 -0.00000000000E+00 -0.69285532302E+02  0.69285532302E+02  0.00000000000E+00 0. -1.
         25    2    1    2    0    0  0.13104789970E+03  0.63051374080E+02  0.28579807288E+03  0.34417383017E+03  0.12500423644E+03 0.  0.
          2    1    1    2  501    0 -0.13234724303E+03 -0.36340188806E+02  0.78044707493E+02  0.15788406642E+03  0.00000000000E+00 0. -1.
          1    1    1    2  502    0  0.12993433331E+01 -0.26711185274E+02  0.10044279499E+04  0.10047838983E+04  0.00000000000E+00 0. -1.
         22    1    3    3    0    0  0.87835833429E+02  0.81118754361E+02  0.26907101439E+03  0.29443946190E+03  0.00000000000E+00 0.  1.
         22    1    3    3    0    0  0.43212066268E+02 -0.18067380281E+02  0.16727058489E+02  0.49734368269E+02  0.00000000000E+00 0.  1.
</event>
<event>
 7    1  0.5993218E-006  0.2952627E+02  0.7818608E-02  0.1664897E+00
          2   -1    0    0  502    0  0.00000000000E+00  0.00000000000E+00  0.10930136367E+04  0.10930136367E+04  0.00000000000E+00 0. -1.
          1   -1    0    0  501    0 -0.00000000000E+00 -0.00000000000E+00 -0.59193696393E+02  0.59193696393E+02  0.00000000000E+00 0. -1.
         25    2    1    2    0    0  0.85016255573E+01 -0.47154464692E+02  0.28518847862E+03  0.31504308127E+03  0.12499541408E+03 0.  0.
          2    1    1    2  501    0  0.18193603851E+01  0.29194375990E+02 -0.39283136328E+02  0.48977407664E+02  0.00000000000E+00 0. -1.
          1    1    1    2  502    0 -0.10320985942E+02  0.17960088701E+02  0.78791459804E+03  0.78818684418E+03  0.00000000000E+00 0. -1.
         22    1    3    3    0    0 -0.45610411168E+00 -0.83162568873E+02  0.12172999008E+03  0.14742595218E+03  0.00000000000E+00 0. -1.
         22    1    3    3    0    0  0.89577296689E+01  0.36008104181E+02  0.16345848854E+03  0.16761712909E+03  0.00000000000E+00 0. -1.
</event>
<event>
 7    1  0.5993218E-006  0.1077028E+03  0.7818608E-02  0.1322992E+00
          2   -1    0    0  502    0  0.00000000000E+00  0.00000000000E+00  0.10908081202E+03  0.10908081202E+03  0.00000000000E+00 0. -1.
          1   -1    0    0  501    0 -0.00000000000E+00 -0.00000000000E+00 -0.31016593546E+03  0.31016593546E+03  0.00000000000E+00 0. -1.
         25    2    1    2    0    0 -0.84804082057E+02 -0.18635428218E+02 -0.11904619453E+03  0.19322933524E+03  0.12500627203E+03 0.  0.
          2    1    1    2  501    0  0.12794709735E+03 -0.26856579687E+02 -0.95488794178E+02  0.16189455027E+03  0.00000000000E+00 0. -1.
          1    1    1    2  502    0 -0.43143015292E+02  0.45492007905E+02  0.13449865264E+02  0.64122861971E+02  0.00000000000E+00 0. -1.
         22    1    3    3    0    0 -0.10015631414E+03  0.12208774837E+02 -0.12238519406E+03  0.15861424012E+03  0.00000000000E+00 0. -1.
         22    1    3    3    0    0  0.15352232082E+02 -0.30844203056E+02  0.33389995315E+01  0.34615095117E+02  0.00000000000E+00 0. -1.
</event>
<event>
 7    1  0.5993218E-006  0.1635736E+03  0.7818608E-02  0.1295046E+00
          2   -1    0    0  502    0  0.00000000000E+00  0.00000000000E+00  0.10198624985E+04  0.10198624985E+04  0.00000000000E+00 0. -1.
          1   -1    0    0  501    0 -0.00000000000E+00 -0.00000000000E+00 -0.14629646568E+04  0.14629646568E+04  0.00000000000E+00 0. -1.
         25    2    1    2    0    0  0.10109530060E+03 -0.14510871298E+03  0.32900698184E+03  0.39387023647E+03  0.12494547088E+03 0.  0.
          2    1    1    2  501    0 -0.49000003720E+02  0.15599046274E+03 -0.14247743377E+04  0.14341254959E+04  0.00000000000E+00 0. -1.
          1    1    1    2  502    0 -0.52095296881E+02 -0.10881749761E+02  0.65266519752E+03  0.65483142295E+03  0.00000000000E+00 0. -1.
         22    1    3    3    0    0 -0.10046839960E+02 -0.91434621503E+02  0.12088260300E+03  0.15190073308E+03  0.00000000000E+00 0. -1.
         22    1    3    3    0    0  0.11114214056E+03 -0.53674091478E+02  0.20812437883E+03  0.24196950339E+03  0.00000000000E+00 0. -1.
</event>
<event>
 7    1  0.5993218E-006  0.6123483E+02  0.7818608E-02  0.1522550E+00
          2   -1    0    0  502    0  0.00000000000E+00  0.00000000000E+00  0.18211792293E+04  0.18211792293E+04  0.00000000000E+00 0. -1.
          1   -1    0    0  501    0 -0.00000000000E+00 -0.00000000000E+00 -0.38745050786E+02  0.38745050786E+02  0.00000000000E+00 0. -1.
         25    2    1    2    0    0 -0.42108284181E+02 -0.41045898059E+01  0.50441198151E+03  0.52137954453E+03  0.12496090232E+03 0.  0.
          2    1    1    2  501    0 -0.20406320245E+02  0.12103704117E+02 -0.24728896304E+02  0.34270043357E+02  0.00000000000E+00 0. -1.
          1    1    1    2  502    0  0.62514604426E+02 -0.79991143111E+01  0.13027510933E+04  0.13042746922E+04  0.00000000000E+00 0. -1.
         22    1    3    3    0    0 -0.21519355367E+02 -0.21369167819E+02  0.48990725200E+03  0.49084502600E+03  0.00000000000E+00 0.  1.
         22    1    3    3    0    0 -0.20588928814E+02  0.17264578013E+02  0.14504729512E+02  0.30534518531E+02  0.00000000000E+00 0.  1.
</event>
<event>
 7    1  0.5993218E-006  0.1756194E+03  0.7818608E-02  0.1172509E+00
          2   -1    0    0  502    0  0.00000000000E+00  0.00000000000E+00  0.12762940790E+03  0.12762940790E+03  0.00000000000E+00 0. -1.
          1   -1    0    0  501    0 -0.00000000000E+00 -0.00000000000E+00 -0.76066103331E+03  0.76066103331E+03  0.00000000000E+00 0. -1.
         25    2    1    2    0    0  0.59430360694E+02  0.94094312587E+01 -0.37919658228E+02  0.14382071153E+03  0.12500396560E+03 0.  0.
          2    1    1    2  501    0 -0.21623693389E+03 -0.88490772301E+02 -0.48181465003E+03  0.53547584945E+03  0.00000000000E+00 0. -1.
          1    1    1    2  502    0  0.15680657320E+03  0.79081341042E+02 -0.11329731715E+03  0.20899388023E+03  0.00000000000E+00 0. -1.
         22    1    3    3    0    0 -0.64323508723E+01  0.38822422695E+02 -0.56947554337E+02  0.69221236529E+02  0.00000000000E+00 0.  1.
         22    1    3    3    0    0  0.65862711566E+02 -0.29412991436E+02  0.19027896109E+02  0.74599475001E+02  0.00000000000E+00 0.  1.
</event>
<event>
 7    1  0.5993218E-006  0.2980948E+02  0.7818608E-02  0.1602014E+00
          2   -1    0    0  502    0  0.00000000000E+00  0.00000000000E+00  0.13222230991E+04  0.13222230991E+04  0.00000000000E+00 0. -1.
          1   -1    0    0  501    0 -0.00000000000E+00 -0.00000000000E+00 -0.23165360325E+03  0.23165360325E+03  0.00000000000E+00 0. -1.
         25    2    1    2    0    0 -0.15479702677E+02  0.22519596436E+01 -0.88068782540E+01  0.12628037604E+03  0.12499791899E+03 0.  0.
          2    1    1    2  501    0  0.13632147065E+02  0.27177261820E+02 -0.16252800065E+03  0.16534748256E+03  0.00000000000E+00 0. -1.
          1    1    1    2  502    0  0.18475556112E+01 -0.29429221464E+02  0.12619043748E+04  0.12622488438E+04  0.00000000000E+00 0. -1.
         22    1    3    3    0    0 -0.79835842699E+01 -0.13230054889E+02  0.56588634701E+02  0.58660425735E+02  0.00000000000E+00 0.  1.
         22    1    3    3    0    0 -0.74961184067E+01  0.15482014533E+02 -0.65395512955E+02  0.67619950309E+02  0.00000000000E+00 0.  1.
</event>
<event>
 7    1  0.5993218E-006  0.1326111E+03  0.7818608E-02  0.1334326E+00
          2   -1    0    0  502    0  0.00000000000E+00  0.00000000000E+00  0.83278851593E+02  0.83278851593E+02  0.00000000000E+00 0. -1.
          1   -1    0    0  501    0 -0.00000000000E+00 -0.00000000000E+00 -0.15705263190E+04  0.15705263190E+04  0.00000000000E+00 0. -1.
         25    2    1    2    0    0  0.42860366218E+02 -0.87220588670E+02 -0.31774718647E+03  0.35501088259E+03  0.12500004067E+03 0.  0.
          2    1    1    2  501    0 -0.78476618763E+02  0.11645691778E+03 -0.12213679256E+04  0.12294146587E+04  0.00000000000E+00 0. -1.
          1    1    1    2  502    0  0.35616252545E+02 -0.29236329112E+02  0.51867644710E+02  0.69379629237E+02  0.00000000000E+00 0. -1.
         22    1    3    3    0    0  0.68541354641E+02 -0.68694244343E+02 -0.11803606767E+03  0.15280487483E+03  0.00000000000E+00 0.  1.
         22    1    3    3    0    0 -0.25680988423E+02 -0.18526344327E+02 -0.19971111880E+03  0.20220600776E+03  0.00000000000E+00 0.  1.
</event>
<event>
 7    1  0.5993218E-006  0.4535882E+02  0.7818608E-02  0.1481887E+00
          2   -1    0    0  502    0  0.00000000000E+00  0.00000000000E+00  0.12073061517E+04  0.12073061517E+04  0.00000000000E+00 0. -1.
          1   -1    0    0  501    0 -0.00000000000E+00 -0.00000000000E+00 -0.30629169843E+04  0.30629169843E+04  0.00000000000E+00 0. -1.
         25    2    1    2    0    0 -0.39109970128E+02 -0.64494508638E+02 -0.11221317506E+03  0.18414541439E+03  0.12501442147E+03 0.  0.
          2    1    1    2  501    0  0.39454482683E+02  0.22175012101E+02 -0.29141796499E+04  0.29145310805E+04  0.00000000000E+00 0. -1.
          1    1    1    2  502    0 -0.34451255498E+00  0.42319496537E+02  0.11707819924E+04  0.11715466410E+04  0.00000000000E+00 0. -1.
         22    1    3    3    0    0 -0.59073925383E+02 -0.84085523339E+02 -0.46630914211E+02  0.11284744594E+03  0.00000000000E+00 0.  1.
         22    1    3    3    0    0  0.19963955255E+02  0.19591014701E+02 -0.65582260853E+02  0.71297968450E+02  0.00000000000E+00 0.  1.
</event>
<event>
 7    1  0.5993218E-006  0.6580529E+02  0.7818608E-02  0.1385235E+00
          2   -1    0    0  502    0  0.00000000000E+00  0.00000000000E+00  0.28156619487E+04  0.28156619487E+04  0.00000000000E+00 0. -1.
          1   -1    0    0  501    0 -0.00000000000E+00 -0.00000000000E+00 -0.17875502239E+03  0.17875502239E+03  0.00000000000E+00 0. -1.
         25    2    1    2    0    0  0.51550566192E+02 -0.21098560287E+02  0.71134782357E+03  0.72439122481E+03  0.12499724144E+03 0.  0.
          2    1    1    2  501    0 -0.53112320615E+02 -0.39401624188E+02 -0.16543123505E+03  0.17815976010E+03  0.00000000000E+00 0. -1.
          1    1    1    2  502    0  0.15617544233E+01  0.60500184476E+02  0.20909903378E+04  0.20918659861E+04  0.00000000000E+00 0. -1.
         22    1    3    3    0    0  0.74405967896E+02  0.71832202323E+00  0.22431340905E+03  0.23633296326E+03  0.00000000000E+00 0. -1.
         22    1    3    3    0    0 -0.22855401704E+02 -0.21816882310E+02  0.48703441452E+03  0.48805826155E+03  0.00000000000E+00 0. -1.
</event>
<event>
 7    1  0.5993218E-006  0.1542909E+03  0.7818608E-02  0.1216946E+00
          2   -1    0    0  502    0  0.00000000000E+00  0.00000000000E+00  0.15017200789E+04  0.15017200789E+04  0.00000000000E+00 0. -1.
          1   -1    0    0  501    0 -0.00000000000E+00 -0.00000000000E+00 -0.62943567295E+02  0.62943567295E+02  0.00000000000E+00 0. -1.
         25    2    1    2    0    0  0.21462186647E+00  0.40894412781E+02  0.25389065479E+03  0.28593323500E+03  0.12499980492E+03 0.  0.
          2    1    1    2  501    0  0.67927272490E+02 -0.17932260209E+03  0.18310658990E+03  0.26513908281E+03  0.00000000000E+00 0. -1.
          1    1    1    2  502    0 -0.68141894357E+02  0.13842818931E+03  0.10017792669E+04  0.10135913284E+04  0.00000000000E+00 0. -1.
         22    1    3    3    0    0 -0.18522647698E+02 -0.41424065198E+02  0.67749985554E+02  0.81542027188E+02  0.00000000000E+00 0. -1.
         22    1    3    3    0    0  0.18737269564E+02  0.82318477979E+02  0.18614066924E+03  0.20439120781E+03  0.00000000000E+00 0. -1.
</event>
<event>
 7    1  0.5993218E-006  0.6406912E+02  0.7818608E-02  0.1425457E+00
          2   -1    0    0  502    0  0.00000000000E+00  0.00000000000E+00  0.26254127170E+04  0.26254127170E+04  0.00000000000E+00 0. -1.
          1   -1    0    0  501    0 -0.00000000000E+00 -0.00000000000E+00 -0.90512834212E+02  0.90512834212E+02  0.00000000000E+00 0. -1.
         25    2    1    2    0    0 -0.91857597065E+02 -0.25540943788E+01  0.13556351079E+04  0.13644838011E+04  0.12500062364E+03 0.  0.
          2    1    1    2  501    0  0.56172404216E+02  0.30484818123E+02 -0.73760380491E+02  0.97597422413E+02  0.00000000000E+00 0. -1.
          1    1    1    2  502    0  0.35685192848E+02 -0.27930723745E+02  0.12530251553E+04  0.12538443277E+04  0.00000000000E+00 0. -1.
         22    1    3    3    0    0  0.24590644794E+02 -0.77031357964E+01  0.53404498385E+03  0.53466632855E+03  0.00000000000E+00 0.  1.
         22    1    3    3    0    0 -0.11644824186E+03  0.51490414176E+01  0.82159012409E+03  0.82981747250E+03  0.00000000000E+00 0.  1.
</event>
<event>
 7    1  0.5993218E-006  0.6325732E+02  0.7818608E-02  0.1399746E+00
          2   -1    0    0  502    0  0.00000000000E+00  0.00000000000E+00  0.43650458594E+03  0.43650458594E+03  0.00000000000E+00 0. -1.
          1   -1    0    0  501    0 -0.00000000000E+00 -0.00000000000E+00 -0.17139608589E+04  0.17139608589E+04  0.00000000000E+00 0. -1.
         25    2    1    2    0    0  0.58413049333E+02 -0.24642249091E+01 -0.11694678810E+04  0.11775839481E+04  0.12502269159E+03 0.  0.
          2    1    1    2  501    0 -0.47892441432E+02  0.57520784869E+02 -0.53600722517E+03  0.54120797488E+03  0.00000000000E+00 0. -1.
          1    1    1    2  502    0 -0.10520607902E+02 -0.55056559960E+02  0.42801883316E+03  0.43167352192E+03  0.00000000000E+00 0. -1.
         22    1    3    3    0    0  0.28916952338E+02 -0.25893628628E+02 -0.97330095687E+02  0.10478462512E+03  0.00000000000E+00 0. -1.
         22    1    3    3    0    0  0.29496096996E+02  0.23429403719E+02 -0.10721377853E+04  0.10727993230E+04  0.00000000000E+00 0. -1.
</event>
<event>
 7    1  0.5993218E-006  0.1307220E+03  0.7818608E-02  0.1269992E+00
          2   -1    0    0  502    0  0.00000000000E+00  0.00000000000E+00  0.23695083809E+04  0.23695083809E+04  0.00000000000E+00 0. -1.
          1   -1    0    0  501    0 -0.00000000000E+00 -0.00000000000E+00 -0.27226820443E+03  0.27226820443E+03  0.00000000000E+00 0. -1.
         25    2    1    2    0    0  0.29851981685E+02  0.78975142303E+02  0.19947982125E+03  0.25009080570E+03  0.12499999239E+03 0.  0.
          2    1    1    2  501    0 -0.66527105665E+02  0.52008313021E+02 -0.23751647883E+03  0.25208093567E+03  0.00000000000E+00 0. -1.
          1    1    1    2  502    0  0.36675123981E+02 -0.13098345532E+03  0.21352768340E+04  0.21396048439E+04  0.00000000000E+00 0. -1.
         22    1    3    3    0    0  0.17915056703E+02  0.10895593238E+03  0.18330764746E+03  0.21399541601E+03  0.00000000000E+00 0. -1.
         22    1    3    3    0    0  0.11936924981E+02 -0.29980790075E+02  0.16172173791E+02  0.36095389687E+02  0.00000000000E+00 0. -1.
</event>
<event>
 7    1  0.5993218E-006  0.5205630E+02  0.7818608E-02  0.1451968E+00
          2   -1    0    0  502    0  0.00000000000E+00  0.00000000000E+00  0.10889238444E+04  0.10889238444E+04  0.00000000000E+00 0. -1.
          1   -1    0    0  501    0 -0.00000000000E+00 -0.00000000000E+00 -0.13742821583E+02  0.13742821583E+02  0.00000000000E+00 0. -1.
         25    2    1    2    0    0  0.25207696585E+02  0.17278507273E+02  0.56248733822E+03  0.57701938940E+03  0.12500158121E+03 0.  0.
          2    1    1    2  501    0 -0.12115021127E+02 -0.61096731054E+02  0.19573587941E+03  0.20540720233E+03  0.00000000000E+00 0. -1.
          1    1    1    2  502    0 -0.13092675458E+02  0.43818223781E+02  0.31695780523E+03  0.32024007429E+03  0.00000000000E+00 0. -1.
         22    1    3    3    0    0  0.16177260180E+02  0.68387594324E+02  0.40902848865E+03  0.41502153117E+03  0.00000000000E+00 0. -1.
         22    1    3    3    0    0  0.90304364053E+01 -0.51109087051E+02  0.15345884957E+03  0.16199785823E+03  0.00000000000E+00 0. -1.
</event>
<event>
 7    1  0.5993218E-006  0.8892787E+02  0.7818608E-02  0.1333146E+00
          2   -1    0    0  502    0  0.00000000000E+00  0.00000000000E+00  0.33545891513E+03  0.33545891513E+03  0.00000000000E+00 0. -1.
          1   -1    0    0  501    0 -0.00000000000E+00 -0.00000000000E+00 -0.13178050900E+04  0.13178050900E+04  0.00000000000E+00 0. -1.
         25    2    1    2    0    0  0.50360199663E+02 -0.46143257751E+02 -0.19100322338E+02  0.14372131323E+03  0.12500257444E+03 0.  0.
          2    1    1    2  501    0 -0.89392312928E+02 -0.11272400765E+02 -0.12303085336E+04  0.12336033157E+04  0.00000000000E+00 0. -1.
          1    1    1    2  502    0  0.39032113265E+02  0.57415658516E+02  0.26706268109E+03  0.27593937620E+03  0.00000000000E+00 0. -1.
         22    1    3    3    0    0  0.46875288303E+02 -0.47855081964E+02  0.44229650437E+02  0.80272433008E+02  0.00000000000E+00 0.  1.
         22    1    3    3    0    0  0.34849113597E+01  0.17118242125E+01 -0.63329972775E+02  0.63448880219E+02  0.00000000000E+00 0.  1.
</event>
<event>
 7    1  0.5993218E-006  0.9529246E+02  0.7818608E-02  0.1293476E+00
          2   -1    0    0  502    0  0.00000000000E+00  0.00000000000E+00  0.78009733375E+03  0.78009733375E+03  0.00000000000E+00 0. -1.
          1   -1    0    0  501    0 -0.00000000000E+00 -0.00000000000E+00 -0.23017669754E+03  0.23017669754E+03  0.00000000000E+00 0. -1.
         25    2    1    2    0    0 -0.10995863516E+03 -0.24775670875E+02  0.41859931114E+02  0.17344488735E+03  0.12500455912E+03 0.  0.
          2    1    1    2  501    0  0.42544263233E+02  0.88400916071E+02 -0.14618263327E+03  0.17605140888E+03  0.00000000000E+00 0. -1.
          1    1    1    2  502    0  0.67414371925E+02 -0.63625245196E+02  0.65424333837E+03  0.66077773507E+03  0.00000000000E+00 0. -1.
         22    1    3    3    0    0 -0.83056211106E+02 -0.69470750771E+02  0.52291397089E+02  0.12024520625E+03  0.00000000000E+00 0.  1.
         22    1    3    3    0    0 -0.26902424052E+02  0.44695079897E+02 -0.10431465975E+02  0.53199681101E+02  0.00000000000E+00 0.  1.
</event>
<event>
 7    1  0.5993218E-006  0.2125158E+03  0.7818608E-02  0.1318733E+00
          2   -1    0    0  502    0  0.00000000000E+00  0.00000000000E+00  0.85578860517E+02  0.85578860517E+02  0.00000000000E+00 0. -1.
          1   -1    0    0  501    0 -0.00000000000E+00 -0.00000000000E+00 -0.71563839628E+03  0.71563839628E+03  0.00000000000E+00 0. -1.
         25    2    1    2    0    0 -0.73556771110E+02  0.19303662657E+03 -0.32921681857E+03  0.40826493606E+03  0.12499122614E+03 0.  0.
          2    1    1    2  501    0  0.26335697650E+02  0.19894197289E+02 -0.56442378382E+02  0.65384173420E+02  0.00000000000E+00 0. -1.
          1    1    1    2  502    0  0.47221073460E+02 -0.21293082386E+03 -0.24440033881E+03  0.32756814732E+03  0.00000000000E+00 0. -1.
         22    1    3    3    0    0 -0.71292905876E+02  0.99087376438E+02 -0.27226639924E+03  0.29837891808E+03  0.00000000000E+00 0.  1.
         22    1    3    3    0    0 -0.22638652341E+01  0.93949250130E+02 -0.56950419328E+02  0.10988601798E+03  0.00000000000E+00 0.  1.
</event>
<event>
 7    1  0.5993218E-006  0.1204365E+03  0.7818608E-02  0.1325590E+00
          2   -1    0    0  502    0  0.00000000000E+00  0.00000000000E+00  0.16383215754E+04  0.16383215754E+04  0.00000000000E+00 0. -1.
          1   -1    0    0  501    0 -0.00000000000E+00 -0.00000000000E+00 -0.80509113773E+03  0.80509113773E+03  0.00000000000E+00 0. -1.
         25    2    1    2    0    0  0.48181878791E+02 -0.59455188125E+02  0.20756089271E+03  0.25410281282E+03  0.12502120804E+03 0.  0.
          2    1    1    2  501    0 -0.10271621720E+03  0.64739355894E+02 -0.77656801534E+03  0.78600234600E+03  0.00000000000E+00 0. -1.
          1    1    1    2  502    0  0.54534338407E+02 -0.52841677688E+01  0.14022375603E+04  0.14033075543E+04  0.00000000000E+00 0. -1.
         22    1    3    3    0    0 -0.19981771103E+02  0.44215857191E+01  0.13303858258E+03  0.13460343997E+03  0.00000000000E+00 0. -1.
         22    1    3    3    0    0  0.68163649893E+02 -0.63876773844E+02  0.74522310129E+02  0.11949937285E+03  0.00000000000E+00 0. -1.
</event>
<event>
 7    1  0.5993218E-006  0.4510035E+02  0.7818608E-02  0.1590331E+00
          2   -1    0    0  502    0  0.00000000000E+00  0.00000000000E+00  0.25807014195E+03  0.25807014195E+03  0.00000000000E+00 0. -1.
          1   -1    0    0  501    0 -0.00000000000E+00 -0.00000000000E+00 -0.24830067540E+03  0.24830067540E+03  0.00000000000E+00 0. -1.
         25    2    1    2    0    0  0.41353701912E+02 -0.15185694793E+01 -0.25222910690E+01  0.13169800703E+03  0.12500227353E+03 0.  0.
          2    1    1    2  501    0 -0.18085817079E+01 -0.20837927374E+02 -0.17790294624E+03  0.17912830169E+03  0.00000000000E+00 0. -1.
          1    1    1    2  502    0 -0.39545120204E+02  0.22356496853E+02  0.19019470386E+03  0.19554450864E+03  0.00000000000E+00 0. -1.
         22    1    3    3    0    0  0.15894777526E+02  0.42967455742E+02  0.43232267569E+02  0.62991072103E+02  0.00000000000E+00 0.  1.
         22    1    3    3    0    0  0.25458924386E+02 -0.44486025221E+02 -0.45754558638E+02  0.68706934927E+02  0.00000000000E+00 0.  1.
</event>
<event>
 7    1  0.5993218E-006  0.1123875E+03  0.7818608E-02  0.1263704E+00
          2   -1    0    0  502    0  0.00000000000E+00  0.00000000000E+00  0.23502534452E+04  0.23502534452E+04  0.00000000000E+00 0. -1.
          1   -1    0    0  501    0 -0.00000000000E+00 -0.00000000000E+00 -0.24626115270E+04  0.24626115270E+04  0.00000000000E+00 0. -1.
         25    2    1    2    0    0  0.55573950703E+01 -0.11750168706E+03  0.95119705016E+03  0.96656072035E+03  0.12500506709E+03 0.  0.
          2    1    1    2  501    0 -0.99193697470E+02  0.52835188265E+02 -0.24513132833E+04  0.24538882940E+04  0.00000000000E+00 0. -1.
          1    1    1    2  502    0  0.93636302399E+02  0.64666498798E+02  0.13877581513E+04  0.13924159579E+04  0.00000000000E+00 0. -1.
         22    1    3    3    0    0 -0.23709987414E+02 -0.10969751141E+03  0.42743393459E+03  0.44192247731E+03  0.00000000000E+00 0.  1.
         22    1    3    3    0    0  0.29267382485E+02 -0.78041756574E+01  0.52376311557E+03  0.52463824304E+03  0.00000000000E+00 0.  1.
</event>
<event>
 7    1  0.5993218E-006  0.1118031E+03  0.7818608E-02  0.1349244E+00
          2   -1    0    0  502    0  0.00000000000E+00  0.00000000000E+00  0.17572170564E+04  0.17572170564E+04  0.00000000000E+00 0. -1.
          1   -1    0    0  501    0 -0.00000000000E+00 -0.00000000000E+00 -0.22394028954E+03  0.22394028954E+03  0.00000000000E+00 0. -1.
         25    2    1    2    0    0  0.12327120353E+03 -0.76526693539E+02  0.90233657535E+03  0.92243622904E+03  0.12500070801E+03 0.  0.
          2    1    1    2  501    0 -0.47306523207E+02  0.83962164669E+01 -0.20806155775E+03  0.21353691813E+03  0.00000000000E+00 0. -1.
          1    1    1    2  502    0 -0.75964680319E+02  0.68130477072E+02  0.83900174928E+03  0.84518419878E+03  0.00000000000E+00 0. -1.
         22    1    3    3    0    0  0.52232365586E+02  0.96670066835E+01  0.10877312248E+03  0.12105066380E+03  0.00000000000E+00 0.  1.
         22    1    3    3    0    0  0.71038837940E+02 -0.86193700223E+02  0.79356345287E+03  0.80138556524E+03  0.00000000000E+00 0.  1.
</event>
<event>
 7    1  0.5993218E-006  0.3451288E+02  0.7818608E-02  0.1564200E+00
          2   -1    0    0  502    0  0.00000000000E+00  0.00000000000E+00  0.48852730218E+02  0.48852730218E+02  0.00000000000E+00 0. -1.
          1   -1    0    0  501    0 -0.00000000000E+00 -0.00000000000E+00 -0.11800435736E+04  0.11800435736E+04  0.00000000000E+00 0. -1.
         25    2    1    2    0    0  0.62447395067E+01  0.49725336068E+02 -0.27050734458E+03  0.30217670339E+03  0.12499972312E+03 0.  0.
          2    1    1    2  501    0 -0.24604681335E+02 -0.20673778189E+02 -0.88438725401E+03  0.88497096591E+03  0.00000000000E+00 0. -1.
          1    1    1    2  502    0  0.18359941828E+02 -0.29051557878E+02  0.23703755165E+02  0.41748634565E+02  0.00000000000E+00 0. -1.
         22    1    3    3    0    0 -0.58822563781E+02  0.25120062177E+02 -0.11002344433E+03  0.12726456630E+03  0.00000000000E+00 0.  1.
         22    1    3    3    0    0  0.65067303288E+02  0.24605273891E+02 -0.16048390025E+03  0.17491213709E+03  0.00000000000E+00 0.  1.
</event>
<event>
 7    1  0.5993218E-006  0.2530057E+02  0.7818608E-02  0.1682533E+00
          2   -1    0    0  502    0  0.00000000000E+00  0.00000000000E+00  0.52783424643E+03  0.52783424643E+03  0.00000000000E+00 0. -1.
          1   -1    0    0  501    0 -0.00000000000E+00 -0.00000000000E+00 -0.19481957475E+03  0.19481957475E+03  0.00000000000E+00 0. -1.
         25    2    1    2    0    0 -0.43623496950E+02  0.14070505628E+02  0.17237845450E+03  0.21782532483E+03  0.12503020414E+03 0.  0.
          2    1    1    2  501    0  0.18898687226E+02 -0.11156368479E+02 -0.17092791210E+03  0.17233100728E+03  0.00000000000E+00 0. -1.
          1    1    1    2  502    0  0.24724809724E+02 -0.29141371486E+01  0.33156412928E+03  0.33249748907E+03  0.00000000000E+00 0. -1.
         22    1    3    3    0    0 -0.54468825685E+02  0.54162176010E+02  0.58333334597E+02  0.96452953334E+02  0.00000000000E+00 0.  1.
         22    1    3    3    0    0  0.10845328735E+02 -0.40091670383E+02  0.11404511990E+03  0.12137237150E+03  0.00000000000E+00 0.  1.
</event>
<event>
 7    1  0.5993218E-006  0.2100016E+03  0.7818608E-02  0.1206973E+00
          2   -1    0    0  502    0  0.00000000000E+00  0.00000000000E+00  0.16368098787E+04  0.16368098787E+04  0.00000000000E+00 0. -1.
          1   -1    0    0  501    0 -0.00000000000E+00 -0.00000000000E+00 -0.63173183180E+03  0.63173183180E+03  0.00000000000E+00 0. -1.
         25    2    1    2    0    0  0.15745679947E+03  0.77529718584E+02  0.83888328558E+03  0.86611450873E+03  0.12500269781E+03 0.  0.
          2    1    1    2  501    0  0.67120778448E+02  0.73970748636E+02 -0.59040329928E+03  0.59879289104E+03  0.00000000000E+00 0. -1.
          1    1    1    2  502    0 -0.22457757792E+03 -0.15150046722E+03  0.75659806056E+03  0.80363431069E+03  0.00000000000E+00 0. -1.
         22    1    3    3    0    0  0.98782869259E+02  0.93554861731E+02  0.38832068649E+03  0.41146509326E+03  0.00000000000E+00 0.  1.
         22    1    3    3    0    0  0.58673930210E+02 -0.16025143148E+02  0.45056259908E+03  0.45464941548E+03  0.00000000000E+00 0.  1.
</event>
<event>
 7    1  0.5993218E-006  0.9594597E+02  0.7818608E-02  0.1301475E+00
          2   -1    0    0  502    0  0.00000000000E+00  0.00000000000E+00  0.35750740719E+04  0.35750740719E+04  0.00000000000E+00 0. -1.
          1   -1    0    0  501    0 -0.00000000000E+00 -0.00000000000E+00 -0.10895440999E+02  0.10895440999E+02  0.00000000000E+00 0. -1.
         25    2    1    2    0    0 -0.84579380737E+01  0.68015220148E+02  0.92164065517E+03  0.93260044955E+03  0.12499797742E+03 0.  0.
          2    1    1    2  501    0 -0.84572878180E+02 -0.12537563667E+02  0.44354505871E+03  0.45171006335E+03  0.00000000000E+00 0. -1.
          1    1    1    2  502    0  0.93030816254E+02 -0.55477656481E+02  0.21989929170E+04  0.22016590000E+04  0.00000000000E+00 0. -1.
         22    1    3    3    0    0  0.20660362121E+02 -0.12265023164E+02  0.57829681072E+03  0.57879571754E+03  0.00000000000E+00 0.  1.
         22    1    3    3    0    0 -0.29118300194E+02  0.80280243312E+02  0.34334384444E+03  0.35380473201E+03  0.00000000000E+00 0.  1.
</event>
<event>
 7    1  0.5993218E-006  0.1026292E+03  0.7818608E-02  0.1327008E+00
          2   -1    0    0  502    0  0.00000000000E+00  0.00000000000E+00  0.10469997711E+04  0.10469997711E+04  0.00000000000E+00 0. -1.
          1   -1    0    0  501    0 -0.00000000000E+00 -0.00000000000E+00 -0.10930860053E+04  0.10930860053E+04  0.00000000000E+00 0. -1.
         25    2    1    2    0    0 -0.81276019217E+02 -0.10856800682E+02  0.11972915230E+02  0.14997336642E+03  0.12499999406E+03 0.  0.
          2    1    1    2  501    0  0.78605290192E+01 -0.63006282556E+02 -0.10202892597E+04  0.10222630547E+04  0.00000000000E+00 0. -1.
          1    1    1    2  502    0  0.73415490198E+02  0.73863083238E+02  0.96223011031E+03  0.96784935524E+03  0.00000000000E+00 0. -1.
         22    1    3    3    0    0 -0.63901612818E-01 -0.47655512417E+02  0.33498857626E+02  0.58251398347E+02  0.00000000000E+00 0.  1.
         22    1    3    3    0    0 -0.81212117604E+02  0.36798711735E+02 -0.21525942396E+02  0.91721968073E+02  0.00000000000E+00 0.  1.
</event>
<event>
 7    1  0.5993218E-006  0.7237341E+02  0.7818608E-02  0.1391605E+00
          2   -1    0    0  502    0  0.00000000000E+00  0.00000000000E+00  0.13635921361E+04  0.13635921361E+04  0.00000000000E+00 0. -1.
          1   -1    0    0  501    0 -0.00000000000E+00 -0.00000000000E+00 -0.29178848010E+02  0.29178848010E+02  0.00000000000E+00 0. -1.
         25    2    1    2    0    0  0.25556871339E+02  0.35297284223E+02  0.17307628172E+03  0.21789997951E+03  0.12500379927E+03 0.  0.
          2    1    1    2  501    0  0.47852723842E+02 -0.21045392817E+02  0.12049648975E+03  0.13134761430E+03  0.00000000000E+00 0. -1.
          1    1    1    2  502    0 -0.73409595181E+02 -0.14251891406E+02  0.10408405167E+04  0.10435233903E+04  0.00000000000E+00 0. -1.
         22    1    3    3    0    0 -0.16651634263E+02  0.60716983539E+02  0.15159518122E+03  0.16414910290E+03  0.00000000000E+00 0.  1.
         22    1    3    3    0    0  0.42208505602E+02 -0.25419699315E+02  0.21481100502E+02  0.53750876618E+02  0.00000000000E+00 0.  1.
</event>
<event>
 7    1  0.5993218E-006  0.8273238E+02  0.7818608E-02  0.1333914E+00
          2   -1    0    0  502    0  0.00000000000E+00  0.00000000000E+00  0.28015798405E+03  0.28015798405E+03  0.00000000000E+00 0. -1.
          1   -1    0    0  501    0 -0.00000000000E+00 -0.00000000000E+00 -0.36927484809E+03  0.36927484809E+03  0.00000000000E+00 0. -1.
         25    2    1    2    0    0  0.44340047659E+02  0.11187352140E+03 -0.65653396367E+02  0.18551953054E+03  0.12500161254E+03 0.  0.
          2    1    1    2  501    0  0.21545392952E+02 -0.77905757860E+02 -0.23036485054E+03  0.24413413409E+03  0.00000000000E+00 0. -1.
          1    1    1    2  502    0 -0.65885440611E+02 -0.33967763542E+02  0.20690138286E+03  0.21977916752E+03  0.00000000000E+00 0. -1.
         22    1    3    3    0    0  0.15351374862E+02  0.54455712003E+02 -0.98276180286E+02  0.11339883990E+03  0.00000000000E+00 0. -1.
         22    1    3    3    0    0  0.28988672798E+02  0.57417809399E+02  0.32622783919E+02  0.72120690633E+02  0.00000000000E+00 0. -1.
</event>
<event>
 7    1  0.5993218E-006  0.1099945E+03  0.7818608E-02  0.1316660E+00
          2   -1    0    0  502    0  0.00000000000E+00  0.00000000000E+00  0.89550214497E+02  0.89550214497E+02  0.00000000000E+00 0. -1.
          1   -1    0    0  501    0 -0.00000000000E+00 -0.00000000000E+00 -0.24193486928E+04  0.24193486928E+04  0.00000000000E+00 0. -1.
         25    2    1    2    0    0 -0.14804798009E+03  0.63243184734E+02 -0.12089035184E+04  0.12259651773E+04  0.12499997702E+03 0.  0.
          2    1    1    2  501    0  0.84458890222E+02 -0.49946339613E+02 -0.11865326145E+04  0.11905828767E+04  0.00000000000E+00 0. -1.
          1    1    1    2  502    0  0.63589089866E+02 -0.13296845121E+02  0.65637654510E+02  0.92350853432E+02  0.00000000000E+00 0. -1.
         22    1    3    3    0    0 -0.41585624528E+02 -0.38211647984E+02 -0.36509956267E+03  0.36944172054E+03  0.00000000000E+00 0. -1.
         22    1    3    3    0    0 -0.10646235556E+03  0.10145483272E+03 -0.84380395571E+03  0.85652345672E+03  0.00000000000E+00 0. -1.
</event>
<event>
 7    1  0.5993218E-006  0.3724909E+02  0.7818608E-02  0.1567721E+00
          2   -1    0    0  502    0  0.00000000000E+00  0.00000000000E+00  0.14106611760E+04  0.14106611760E+04  0.00000000000E+00 0. -1.
          1   -1    0    0  501    0 -0.00000000000E+00 -0.00000000000E+00 -0.26890640317E+02  0.26890640317E+02  0.00000000000E+00 0. -1.
         25    2    1    2    0    0  0.14808734925E+02  0.89629101901E+01  0.86813241992E+03  0.87725616006E+03  0.12499935787E+03 0.  0.
          2    1    1    2  501    0 -0.36120200889E+02  0.10887815918E+02 -0.56921410455E+01  0.38152508664E+02  0.00000000000E+00 0. -1.
          1    1    1    2  502    0  0.21311465964E+02 -0.19850726108E+02  0.52133025682E+03  0.52214314759E+03  0.00000000000E+00 0. -1.
         22    1    3    3    0    0 -0.23171817261E+02  0.55803242500E+02  0.30676879281E+03  0.31266280116E+03  0.00000000000E+00 0.  1.
         22    1    3    3    0    0  0.37980552186E+02 -0.46840332310E+02  0.56136362711E+03  0.56459335890E+03  0.00000000000E+00 0.  1.
</event>
<event>
 7    1  0.5993218E-006  0.4276129E+02  0.7818608E-02  0.1494798E+00
          2   -1    0    0  502    0  0.00000000000E+00  0.00000000000E+00  0.22771538863E+04  0.22771538863E+04  0.00000000000E+00 0. -1.
          1   -1    0    0  501    0 -0.00000000000E+00 -0.00000000000E+00 -0.64242532457E+02  0.64242532457E+02  0.00000000000E+00 0. -1.
         25    2    1    2    0    0  0.75182090147E+02  0.63216297507E+01  0.29179992454E+03  0.32629069216E+03  0.12500444052E+03 0.  0.
          2    1    1    2  501    0 -0.36657653275E+02 -0.20416495502E+02 -0.37373813643E+02  0.56190913665E+02  0.00000000000E+00 0. -1.
          1    1    1    2  502    0 -0.38524436872E+02  0.14094865751E+02  0.19584852429E+04  0.19589148129E+04  0.00000000000E+00 0. -1.
         22    1    3    3    0    0  0.66493315237E+02 -0.18641437020E+02  0.29179853275E+03  0.29985871316E+03  0.00000000000E+00 0. -1.
         22    1    3    3    0    0  0.86887749105E+01  0.24963066770E+02  0.13917939654E-02  0.26431979002E+02  0.00000000000E+00 0. -1.
</event>
<event>
 7    1  0.5993218E-006  0.1217124E+03  0.7818608E-02  0.1439847E+00
          2   -1    0    0  502    0  0.00000000000E+00  0.00000000000E+00  0.63281877636E+03  0.63281877636E+03  0.00000000000E+00 0. -1.
          1   -1    0    0  501    0 -0.00000000000E+00 -0.00000000000E+00 -0.46842931455E+03  0.46842931455E+03  0.00000000000E+00 0. -1.
         25    2    1    2    0    0 -0.77559408694E+02  0.88960536609E+02 -0.82161007832E+02  0.19056520554E+03  0.12504090292E+03 0.  0.
          2    1    1    2  501    0 -0.17414283011E+02 -0.12434407508E+02 -0.32528327139E+03  0.32598631626E+03  0.00000000000E+00 0. -1.
          1    1    1    2  502    0  0.94973691705E+02 -0.76526129101E+02  0.57183374103E+03  0.58469656911E+03  0.00000000000E+00 0. -1.
         22    1    3    3    0    0 -0.11001425223E+03  0.81111253031E+02 -0.76695699373E+02  0.15673034603E+03  0.00000000000E+00 0.  1.
         22    1    3    3    0    0  0.32454843540E+02  0.78492835779E+01 -0.54653084589E+01  0.33834859516E+02  0.00000000000E+00 0.  1.
</event>
<event>
 7    1  0.5993218E-006  0.6813146E+02  0.7818608E-02  0.1441692E+00
          2   -1    0    0  502    0  0.00000000000E+00  0.00000000000E+00  0.33840831357E+03  0.33840831357E+03  0.00000000000E+00 0. -1.
          1   -1    0    0  501    0 -0.00000000000E+00 -0.00000000000E+00 -0.24512629099E+03  0.24512629099E+03  0.00000000000E+00 0. -1.
         25    2    1    2    0    0  0.80838278201E+02  0.35398711880E+02  0.18482604466E+02  0.15412474925E+03  0.12499974256E+03 0.  0.
          2    1    1    2  501    0 -0.13599992967E+02 -0.35164801723E+02 -0.17072826244E+03  0.17484182190E+03  0.00000000000E+00 0. -1.
          1    1    1    2  502    0 -0.67238285234E+02 -0.23391015625E+00  0.24552768056E+03  0.25456803341E+03  0.00000000000E+00 0. -1.
         22    1    3    3    0    0  0.13949089222E+02  0.71615316496E+02 -0.84144797091E+01  0.73444769152E+02  0.00000000000E+00 0.  1.
         22    1    3    3    0    0  0.66889188978E+02 -0.36216604616E+02  0.26897084176E+02  0.80679980102E+02  0.00000000000E+00 0.  1.
</event>
<event>
 7    1  0.1152722E-005  0.5108898E+02  0.7818608E-02  0.1504556E+00
          2   -1    0    0  502    0  0.00000000000E+00  0.00000000000E+00  0.25407862859E+04  0.25407862859E+04  0.00000000000E+00 0. -1.
          1   -1    0    0  501    0 -0.00000000000E+00 -0.00000000000E+00 -0.17709436676E+04  0.17709436676E+04  0.00000000000E+00 0. -1.
         25    2    1    2    0    0  0.63725088977E+02  0.51733713066E+02 -0.23625200172E+03  0.27960183723E+03  0.12499966013E+03 0.  0.
          2    1    1    2  501    0 -0.28514625823E+02 -0.14758042196E+02 -0.15125876458E+04  0.15129283757E+04  0.00000000000E+00 0. -1.
          1    1    1    2  502    0 -0.35210463154E+02 -0.36975670871E+02  0.25186822658E+04  0.25191997406E+04  0.00000000000E+00 0. -1.
         22    1    3    3    0    0  0.54934443613E+02  0.22345104716E+02 -0.24132921783E+03  0.24850933218E+03  0.00000000000E+00 0. -1.
         22    1    3    3    0    0  0.87906453637E+01  0.29388608350E+02  0.50772161143E+01  0.31092505048E+02  0.00000000000E+00 0. -1.
</event>
<event>
 7    1  0.5993218E-006  0.1039778E+03  0.7818608E-02  0.1373423E+00
          2   -1    0    0  502    0  0.00000000000E+00  0.00000000000E+00  0.81593174815E+03  0.81593174815E+03  0.00000000000E+00 0. -1.
          1   -1    0    0  501    0 -0.00000000000E+00 -0.00000000000E+00 -0.57944044428E+03  0.57944044428E+03  0.00000000000E+00 0. -1.
         25    2    1    2    0    0 -0.81344559455E+02  0.90646029303E+02  0.19860640072E+03  0.26439209967E+03  0.12500015992E+03 0.  0.
          2    1    1    2  501    0  0.42003824936E+02  0.38447591739E+01 -0.54123940837E+03  0.54288046627E+03  0.00000000000E+00 0. -1.
          1    1    1    2  502    0  0.39340734520E+02 -0.94490788477E+02  0.57912431152E+03  0.58809962650E+03  0.00000000000E+00 0. -1.
         22    1    3    3    0    0  0.18971807707E+02  0.29982377151E+02  0.20622196869E+01  0.35540472385E+02  0.00000000000E+00 0.  1.
         22    1    3    3    0    0 -0.10031636716E+03  0.60663652152E+02  0.19654418103E+03  0.22885162728E+03  0.00000000000E+00 0.  1.
</event>
<event>
 7    1  0.5993218E-006  0.7308887E+02  0.7818608E-02  0.1437368E+00
          2   -1    0    0  502    0  0.00000000000E+00  0.00000000000E+00  0.20536829803E+04  0.20536829803E+04  0.00000000000E+00 0. -1.
          1   -1    0    0  501    0 -0.00000000000E+00 -0.00000000000E+00 -0.28863214458E+03  0.28863214458E+03  0.00000000000E+00 0. -1.
         25    2    1    2    0    0  0.89750400893E+02  0.42773834776E+02  0.35168912121E+02  0.16354263323E+03  0.12499842039E+03 0.  0.
          2    1    1    2  501    0 -0.17748223283E+02 -0.31666052131E+02 -0.22229357566E+03  0.22523803423E+03  0.00000000000E+00 0. -1.
          1    1    1    2  502    0 -0.72002177610E+02 -0.11107782645E+02  0.19521754992E+04  0.19535344574E+04  0.00000000000E+00 0. -1.
         22    1    3    3    0    0  0.27725485174E+02  0.56241909323E+02 -0.32616905925E+02  0.70680389391E+02  0.00000000000E+00 0. -1.
         22    1    3    3    0    0  0.62024915719E+02 -0.13468074547E+02  0.67785818045E+02  0.92862243835E+02  0.00000000000E+00 0. -1.
</event>
<event>
 7    1  0.5993218E-006  0.1266481E+03  0.7818608E-02  0.1425011E+00
          2   -1    0    0  502    0  0.00000000000E+00  0.00000000000E+00  0.55480049117E+03  0.55480049117E+03  0.00000000000E+00 0. -1.
          1   -1    0    0  501    0 -0.00000000000E+00 -0.00000000000E+00 -0.14804599759E+03  0.14804599759E+03  0.00000000000E+00 0. -1.
         25    2    1    2    0    0  0.14390531560E+03  0.35564719426E+01  0.14624352575E+03  0.24027947672E+03  0.12500267901E+03 0.  0.
          2    1    1    2  501    0 -0.12316616438E+03  0.63943232127E+01 -0.62826540935E+02  0.13841230315E+03  0.00000000000E+00 0. -1.
          1    1    1    2  502    0 -0.20739151218E+02 -0.99507951553E+01  0.32333750876E+03  0.32415470888E+03  0.00000000000E+00 0. -1.
         22    1    3    3    0    0  0.15138226286E+03  0.59428705233E+01  0.75806280877E+02  0.16940631464E+03  0.00000000000E+00 0.  1.
         22    1    3    3    0    0 -0.74769472595E+01 -0.23863985806E+01  0.70437244873E+02  0.70873162084E+02  0.00000000000E+00 0.  1.
</event>
<event>
 7    1  0.5993218E-006  0.5164767E+02  0.7818608E-02  0.1444602E+00
          2   -1    0    0  502    0  0.00000000000E+00  0.00000000000E+00  0.26273820657E+03  0.26273820657E+03  0.00000000000E+00 0. -1.
          1   -1    0    0  501    0 -0.00000000000E+00 -0.00000000000E+00 -0.16636146771E+03  0.16636146771E+03  0.00000000000E+00 0. -1.
         25    2    1    2    0    0  0.81633424644E+01 -0.15369869937E+02 -0.11065564959E+03  0.16784937289E+03  0.12500346447E+03 0.  0.
          2    1    1    2  501    0 -0.41452285054E+02 -0.25506480814E+02  0.11062909269E+01  0.48683635642E+02  0.00000000000E+00 0. -1.
          1    1    1    2  502    0  0.33288942589E+02  0.40876350750E+02  0.20592609753E+03  0.21256666576E+03  0.00000000000E+00 0. -1.
         22    1    3    3    0    0 -0.52606303282E+02 -0.33918393134E+02 -0.57878493074E+02  0.85251395873E+02  0.00000000000E+00 0. -1.
         22    1    3    3    0    0  0.60769645746E+02  0.18548523197E+02 -0.52777156518E+02  0.82597977016E+02  0.00000000000E+00 0. -1.
</event>
<event>
 7    1  0.5993218E-006  0.4990917E+02  0.7818608E-02  0.1519112E+00
          2   -1    0    0  502    0  0.00000000000E+00  0.00000000000E+00  0.19020975555E+04  0.19020975555E+04  0.00000000000E+00 0. -1.
          1   -1    0    0  501    0 -0.00000000000E+00 -0.00000000000E+00 -0.24369442132E+03  0.24369442132E+03  0.00000000000E+00 0. -1.
         25    2    1    2    0    0  0.68999579007E+02 -0.12054265591E+02  0.18830937867E+03  0.23662791788E+03  0.12500440873E+03 0.  0.
          2    1    1    2  501    0 -0.48733786593E+02 -0.97745948363E+01 -0.21658861606E+03  0.22221870593E+03  0.00000000000E+00 0. -1.
          1    1    1    2  502    0 -0.20265792413E+02  0.21828860428E+02  0.16866823715E+04  0.16869453530E+04  0.00000000000E+00 0. -1.
         22    1    3    3    0    0 -0.22384302845E+02  0.13333191951E+02  0.11172700458E+03  0.11472469034E+03  0.00000000000E+00 0.  1.
         22    1    3    3    0    0  0.91383881852E+02 -0.25387457542E+02  0.76582374094E+02  0.12190322754E+03  0.00000000000E+00 0.  1.
</event>
<event>
 7    1  0.5993218E-006  0.2013975E+03  0.7818608E-02  0.1267719E+00
          2   -1    0    0  502    0  0.00000000000E+00  0.00000000000E+00  0.20848398628E+04  0.20848398628E+04  0.00000000000E+00 0. -1.
          1   -1    0    0  501    0 -0.00000000000E+00 -0.00000000000E+00 -0.47322647316E+03  0.47322647316E+03  0.00000000000E+00 0. -1.
         25    2    1    2    0    0  0.23023523435E+03  0.10554619981E+03  0.98577452004E+02  0.29915142664E+03  0.12500319431E+03 0.  0.
          2    1    1    2  501    0 -0.54586820589E+02 -0.12637287553E+02 -0.36556509998E+03  0.36983410381E+03  0.00000000000E+00 0. -1.
          1    1    1    2  502    0 -0.17564841376E+03 -0.92908912261E+02  0.18786010376E+04  0.18890808055E+04  0.00000000000E+00 0. -1.
         22    1    3    3    0    0  0.10175228605E+03  0.10934402271E+03  0.79502028513E+02  0.16920465584E+03  0.00000000000E+00 0.  1.
         22    1    3    3    0    0  0.12848294829E+03 -0.37978228957E+01  0.19075423491E+02  0.12994677080E+03  0.00000000000E+00 0.  1.
</event>
<event>
 7    1  0.5993218E-006  0.7558098E+02  0.7818608E-02  0.1392008E+00
          2   -1    0    0  502    0  0.00000000000E+00  0.00000000000E+00  0.94148843092E+03  0.94148843092E+03  0.00000000000E+00 0. -1.
          1   -1    0    0  501    0 -0.00000000000E+00 -0.00000000000E+00 -0.11635033515E+04  0.11635033515E+04  0.00000000000E+00 0. -1.
         25    2    1    2    0    0 -0.76380256190E+01 -0.68313908669E+02  0.19945724874E+03  0.24521892047E+03  0.12499598125E+03 0.  0.
          2    1    1    2  501    0  0.54854616576E+02  0.52182739231E+02 -0.11384982249E+04  0.11410128287E+04  0.00000000000E+00 0. -1.
          1    1    1    2  502    0 -0.47216590957E+02  0.16131169438E+02  0.71702605554E+03  0.71876003326E+03  0.00000000000E+00 0. -1.
         22    1    3    3    0    0  0.85306632963E+01 -0.32401636533E+01 -0.16629096620E+02  0.18968334960E+02  0.00000000000E+00 0. -1.
         22    1    3    3    0    0 -0.16168688915E+02 -0.65073745016E+02  0.21608634536E+03  0.22625058551E+03  0.00000000000E+00 0. -1.
</event>
<event>
 7    1  0.5993218E-006  0.1200527E+03  0.7818608E-02  0.1323806E+00
          2   -1    0    0  502    0  0.00000000000E+00  0.00000000000E+00  0.87930163379E+03  0.87930163379E+03  0.00000000000E+00 0. -1.
          1   -1    0    0  501    0 -0.00000000000E+00 -0.00000000000E+00 -0.12703470349E+03  0.12703470349E+03  0.00000000000E+00 0. -1.
         25    2    1    2    0    0  0.40032383155E+02  0.62403307323E+02  0.49257780519E+03  0.51357020120E+03  0.12499877169E+03 0.  0.
          2    1    1    2  501    0 -0.92525133586E+02 -0.81450901564E+02 -0.81020327290E+02  0.14751082382E+03  0.00000000000E+00 0. -1.
          1    1    1    2  502    0  0.52492750431E+02  0.19047594241E+02  0.34070945240E+03  0.34525531226E+03  0.00000000000E+00 0. -1.
         22    1    3    3    0    0  0.51985010934E+02  0.54403807559E+02  0.12634680694E+03  0.14705689805E+03  0.00000000000E+00 0. -1.
         22    1    3    3    0    0 -0.11952627779E+02  0.79994997645E+01  0.36623099825E+03  0.36651330315E+03  0.00000000000E+00 0. -1.
</event>
<event>
 7    1  0.5993218E-006  0.5723294E+02  0.7818608E-02  0.1475906E+00
          2   -1    0    0  502    0  0.00000000000E+00  0.00000000000E+00  0.20458746184E+04  0.20458746184E+04  0.00000000000E+00 0. -1.
          1   -1    0    0  501    0 -0.00000000000E+00 -0.00000000000E+00 -0.13540873088E+03  0.13540873088E+03  0.00000000000E+00 0. -1.
         25    2    1    2    0    0  0.84427647636E+02  0.18123416832E+02  0.10416291290E+04  0.10526522824E+04  0.12501639689E+03 0.  0.
          2    1    1    2  501    0 -0.30874154865E+02 -0.16465103903E+02 -0.12680740246E+03  0.13154630517E+03  0.00000000000E+00 0. -1.
          1    1    1    2  502    0 -0.53553492771E+02 -0.16583129288E+01  0.99564416104E+03  0.99708476170E+03  0.00000000000E+00 0. -1.
         22    1    3    3    0    0  0.51387773166E+02  0.68798816892E+02  0.46535835956E+03  0.47321494402E+03  0.00000000000E+00 0. -1.
         22    1    3    3    0    0  0.33039874470E+02 -0.50675400060E+02  0.57627076941E+03  0.57943733842E+03  0.00000000000E+00 0. -1.
</event>
<event>
 7    1  0.5993218E-006  0.1364003E+03  0.7818608E-02  0.1337878E+00
          2   -1    0    0  502    0  0.00000000000E+00  0.00000000000E+00  0.37363038071E+03  0.37363038071E+03  0.00000000000E+00 0. -1.
          1   -1    0    0  501    0 -0.00000000000E+00 -0.00000000000E+00 -0.32494849429E+04  0.32494849429E+04  0.00000000000E+00 0. -1.
         25    2    1    2    0    0 -0.97773233597E+02 -0.14661438081E+03 -0.64380901354E+03  0.67909446197E+03  0.12499544191E+03 0.  0.
          2    1    1    2  501    0  0.34169001977E+02  0.26812969805E+02 -0.25749231062E+04  0.25752893932E+04  0.00000000000E+00 0. -1.
          1    1    1    2  502    0  0.63604231620E+02  0.11980141100E+03  0.34287755753E+03  0.36873146844E+03  0.00000000000E+00 0. -1.
         22    1    3    3    0    0 -0.27828614917E+02 -0.12351816913E+03 -0.27154293343E+03  0.29961097211E+03  0.00000000000E+00 0. -1.
         22    1    3    3    0    0 -0.69944618680E+02 -0.23096211675E+02 -0.37226608011E+03  0.37948348986E+03  0.00000000000E+00 0. -1.
</event>
<event>
 7    1  0.5993218E-006  0.2588408E+03  0.7818608E-02  0.1196674E+00
          2   -1    0    0  502    0  0.00000000000E+00  0.00000000000E+00  0.29037324543E+04  0.29037324543E+04  0.00000000000E+00 0. -1.
          1   -1    0    0  501    0 -0.00000000000E+00 -0.00000000000E+00 -0.22955795498E+03  0.22955795498E+03  0.00000000000E+00 0. -1.
         25    2    1    2    0    0 -0.97621967808E+02  0.15082606143E+03  0.13728604569E+04  0.13901966989E+04  0.12498991229E+03 0.  0.
          2    1    1    2  501    0  0.10658479223E+03 -0.24097784832E+03 -0.14037824306E+03  0.29855768696E+03  0.00000000000E+00 0. -1.
          1    1    1    2  502    0 -0.89628244169E+01  0.90151786894E+02  0.14416922855E+04  0.14445360234E+04  0.00000000000E+00 0. -1.
         22    1    3    3    0    0 -0.20678427425E+02  0.13931435916E+03  0.91395144792E+03  0.92473960507E+03  0.00000000000E+00 0. -1.
         22    1    3    3    0    0 -0.76943540383E+02  0.11511702264E+02  0.45890900900E+03  0.46545709387E+03  0.00000000000E+00 0. -1.
</event>
<event>
 7    1  0.5993218E-006  0.9713033E+02  0.7818608E-02  0.1333355E+00
          2   -1    0    0  502    0  0.00000000000E+00  0.00000000000E+00  0.17171828976E+04  0.17171828976E+04  0.00000000000E+00 0. -1.
          1   -1    0    0  501    0 -0.00000000000E+00 -0.00000000000E+00 -0.75312114846E+03  0.75312114846E+03  0.00000000000E+00 0. -1.
         25    2    1    2    0    0 -0.28032845711E+02 -0.67227737325E+02  0.35750491470E+03  0.38566913834E+03  0.12500204451E+03 0.  0.
          2    1    1    2  501    0  0.87041431706E+02  0.43913769118E+02 -0.73507086670E+03  0.74150779431E+03  0.00000000000E+00 0. -1.
          1    1    1    2  502    0 -0.59008585994E+02  0.23313968206E+02  0.13416277011E+04  0.13431271134E+04  0.00000000000E+00 0. -1.
         22    1    3    3    0    0 -0.12286531753E+02  0.36681059337E+02  0.78169748398E+02  0.87217937038E+02  0.00000000000E+00 0. -1.
         22    1    3    3    0    0 -0.15746313958E+02 -0.10390879666E+03  0.27933516630E+03  0.29845120130E+03  0.00000000000E+00 0. -1.
</event>
<event>
 7    1  0.5993218E-006  0.5465304E+02  0.7818608E-02  0.1454573E+00
          2   -1    0    0  502    0  0.00000000000E+00  0.00000000000E+00  0.16936596126E+04  0.16936596126E+04  0.00000000000E+00 0. -1.
          1   -1    0    0  501    0 -0.00000000000E+00 -0.00000000000E+00 -0.48572727286E+02  0.48572727286E+02  0.00000000000E+00 0. -1.
         25    2    1    2    0    0  0.76849855397E+02 -0.54405505990E+02  0.39432236993E+03  0.42424054516E+03  0.12499619744E+03 0.  0.
          2    1    1    2  501    0 -0.46984626348E+02  0.23837804932E+02 -0.12383066705E+02  0.54121496635E+02  0.00000000000E+00 0. -1.
          1    1    1    2  502    0 -0.29865229050E+02  0.30567701058E+02  0.12631475820E+04  0.12638702980E+04  0.00000000000E+00 0. -1.
         22    1    3    3    0    0  0.83849085770E+02 -0.85077843150E+02  0.25764710024E+03  0.28399108585E+03  0.00000000000E+00 0.  1.
         22    1    3    3    0    0 -0.69992303725E+01  0.30672337160E+02  0.13667526968E+03  0.14024945930E+03  0.00000000000E+00 0.  1.
</event>
<event>
 7    1  0.5993218E-006  0.6560930E+03  0.7818608E-02  0.1169565E+00
          2   -1    0    0  502    0  0.00000000000E+00  0.00000000000E+00  0.64427136859E+03  0.64427136859E+03  0.00000000000E+00 0. -1.
          1   -1    0    0  501    0 -0.00000000000E+00 -0.00000000000E+00 -0.99706751353E+03  0.99706751353E+03  0.00000000000E+00 0. -1.
         25    2    1    2    0    0  0.64933726478E+03  0.10334968586E+03 -0.34808886881E+03  0.75439452175E+03  0.12500077141E+03 0.  0.
          2    1    1    2  501    0  0.43513950041E+01 -0.48199706182E+02 -0.19737821908E+03  0.20322477132E+03  0.00000000000E+00 0. -1.
          1    1    1    2  502    0 -0.65368865979E+03 -0.55149979680E+02  0.19267094294E+03  0.68371958905E+03  0.00000000000E+00 0. -1.
         22    1    3    3    0    0  0.53262688705E+02  0.55458640223E+01  0.65314520841E+01  0.53947478923E+02  0.00000000000E+00 0.  1.
         22    1    3    3    0    0  0.59607457608E+03  0.97803821839E+02 -0.35462032089E+03  0.70044704282E+03  0.00000000000E+00 0.  1.
</event>
<event>
 7    1  0.5993218E-006  0.4435080E+02  0.7818608E-02  0.1565941E+00
          2   -1    0    0  502    0  0.00000000000E+00  0.00000000000E+00  0.10532148952E+04  0.10532148952E+04  0.00000000000E+00 0. -1.
          1   -1    0    0  501    0 -0.00000000000E+00 -0.00000000000E+00 -0.76102994672E+03  0.76102994672E+03  0.00000000000E+00 0. -1.
         25    2    1    2    0    0 -0.31190700085E+02  0.63741552607E+00 -0.60065829841E+03  0.61431987960E+03  0.12500102779E+03 0.  0.
          2    1    1    2  501    0  0.52106923800E+02 -0.13842560231E+02 -0.14865661906E+03  0.15813139590E+03  0.00000000000E+00 0. -1.
          1    1    1    2  502    0 -0.20916223715E+02  0.13205144705E+02  0.10414998660E+04  0.10417935664E+04  0.00000000000E+00 0. -1.
         22    1    3    3    0    0 -0.74069543831E+02  0.12113471128E+02 -0.25477336596E+03  0.26559838386E+03  0.00000000000E+00 0.  1.
         22    1    3    3    0    0  0.42878843746E+02 -0.11476055601E+02 -0.34588493246E+03  0.34872149574E+03  0.00000000000E+00 0.  1.
</event>
<event>
 7    1  0.5993218E-006  0.3557583E+03  0.7818608E-02  0.1268395E+00
          2   -1    0    0  502    0  0.00000000000E+00  0.00000000000E+00  0.73004625464E+03  0.73004625464E+03  0.00000000000E+00 0. -1.
          1   -1    0    0  501    0 -0.00000000000E+00 -0.00000000000E+00 -0.66567857091E+03  0.66567857091E+03  0.00000000000E+00 0. -1.
         25    2    1    2    0    0  0.17234747327E+02  0.32987646390E+03 -0.11677374351E+03  0.37198816568E+03  0.12499428099E+03 0.  0.
          2    1    1    2  501    0 -0.37747604779E+01  0.31285111946E+02 -0.36635613691E+03  0.36770888770E+03  0.00000000000E+00 0. -1.
          1    1    1    2  502    0 -0.13459986849E+02 -0.36116157584E+03  0.54749756415E+03  0.65602777217E+03  0.00000000000E+00 0. -1.
         22    1    3    3    0    0 -0.48782520988E+02  0.73921752559E+02 -0.22867947058E+02  0.91471869216E+02  0.00000000000E+00 0. -1.
         22    1    3    3    0    0  0.66017268315E+02  0.25595471134E+03 -0.93905796450E+02  0.28051629646E+03  0.00000000000E+00 0. -1.
</event>
<event>
 7    1  0.5993218E-006  0.4502141E+02  0.7818608E-02  0.1546785E+00
          2   -1    0    0  502    0  0.00000000000E+00  0.00000000000E+00  0.15401067127E+04  0.15401067127E+04  0.00000000000E+00 0. -1.
          1   -1    0    0  501    0 -0.00000000000E+00 -0.00000000000E+00 -0.10107060533E+02  0.10107060533E+02  0.00000000000E+00 0. -1.
         25    2    1    2    0    0  0.20533603171E+02  0.97199898414E+01  0.84491612419E+03  0.85441469028E+03  0.12500039593E+03 0.  0.
          2    1    1    2  501    0  0.19589729157E+02  0.19342008855E+02  0.38552443238E+02  0.47372583576E+02  0.00000000000E+00 0. -1.
          1    1    1    2  502    0 -0.40123332328E+02 -0.29061998697E+02  0.64653108473E+03  0.64842649937E+03  0.00000000000E+00 0. -1.
         22    1    3    3    0    0  0.37430114449E+02  0.22448929955E+02  0.98946510067E+02  0.10814517917E+03  0.00000000000E+00 0. -1.
         22    1    3    3    0    0 -0.16896511277E+02 -0.12728940113E+02  0.74596961412E+03  0.74626951111E+03  0.00000000000E+00 0. -1.
</event>
<event>
 7    1  0.5993218E-006  0.1208255E+03  0.7818608E-02  0.1275631E+00
          2   -1    0    0  502    0  0.00000000000E+00  0.00000000000E+00  0.44122004697E+03  0.44122004697E+03  0.00000000000E+00 0. -1.
          1   -1    0    0  501    0 -0.00000000000E+00 -0.00000000000E+00 -0.69870833474E+03  0.69870833474E+03  0.00000000000E+00 0. -1.
         25    2    1    2    0    0  0.18281014075E+03 -0.23497928329E+02 -0.20806996147E+02  0.22367410871E+03  0.12500190247E+03 0.  0.
          2    1    1    2  501    0 -0.80392040252E+02 -0.32016976065E+02 -0.56307931928E+03  0.56968964067E+03  0.00000000000E+00 0. -1.
          1    1    1    2  502    0 -0.10241810050E+03  0.55514904395E+02  0.32639802765E+03  0.34656463232E+03  0.00000000000E+00 0. -1.
         22    1    3    3    0    0  0.17370902686E+03 -0.37161169387E+02 -0.54820412526E+02  0.18590604119E+03  0.00000000000E+00 0. -1.
         22    1    3    3    0    0  0.91011138935E+01  0.13663241058E+02  0.34013416379E+02  0.37768067518E+02  0.00000000000E+00 0. -1.
</event>
<event>
 7    1  0.5993218E-006  0.8353320E+02  0.7818608E-02  0.1465294E+00
          2   -1    0    0  502    0  0.00000000000E+00  0.00000000000E+00  0.90351971102E+03  0.90351971102E+03  0.00000000000E+00 0. -1.
          1   -1    0    0  501    0 -0.00000000000E+00 -0.00000000000E+00 -0.94070843579E+02  0.94070843579E+02  0.00000000000E+00 0. -1.
         25    2    1    2    0    0  0.86214384635E+02  0.61420099955E+02  0.35242559999E+02  0.16755087330E+03  0.12500363319E+03 0.  0.
          2    1    1    2  501    0 -0.25324025779E+02 -0.52640349378E+01 -0.19268225625E+02  0.32253385314E+02  0.00000000000E+00 0. -1.
          1    1    1    2  502    0 -0.60890358857E+02 -0.56156065017E+02  0.79347453306E+03  0.79778629598E+03  0.00000000000E+00 0. -1.
         22    1    3    3    0    0  0.46115435179E+01  0.32637814535E+02  0.67568558896E+02  0.75179807279E+02  0.00000000000E+00 0.  1.
         22    1    3    3    0    0  0.81602841118E+02  0.28782285420E+02 -0.32325998897E+02  0.92371066017E+02  0.00000000000E+00 0.  1.
</event>
<event>
 7    1  0.5993218E-006  0.1379485E+03  0.7818608E-02  0.1311961E+00
          2   -1    0    0  502    0  0.00000000000E+00  0.00000000000E+00  0.10991449006E+04  0.10991449006E+04  0.00000000000E+00 0. -1.
          1   -1    0    0  501    0 -0.00000000000E+00 -0.00000000000E+00 -0.87009063077E+02  0.87009063077E+02  0.00000000000E+00 0. -1.
         25    2    1    2    0    0  0.47901379912E+02  0.11031829534E+03  0.12419030683E+03  0.21333896421E+03  0.12500245140E+03 0.  0.
          2    1    1    2  501    0  0.52805128024E+02 -0.11491454332E+02 -0.17220005610E+02  0.56718283309E+02  0.00000000000E+00 0. -1.
          1    1    1    2  502    0 -0.10070650794E+03 -0.98826841008E+02  0.90516553633E+03  0.91609671618E+03  0.00000000000E+00 0. -1.
         22    1    3    3    0    0  0.54105238588E+02  0.51607976358E+02  0.13404124708E+03  0.15348555627E+03  0.00000000000E+00 0. -1.
         22    1    3    3    0    0 -0.62038586765E+01  0.58710318982E+02 -0.98509402503E+01  0.59853407934E+02  0.00000000000E+00 0. -1.
</event>
<event>
 7    1  0.5993218E-006  0.5009320E+02  0.7818608E-02  0.1518109E+00
          2   -1    0    0  502    0  0.00000000000E+00  0.00000000000E+00  0.35726044542E+02  0.35726044542E+02  0.00000000000E+00 0. -1.
          1   -1    0    0  501    0 -0.00000000000E+00 -0.00000000000E+00 -0.21777340322E+04  0.21777340322E+04  0.00000000000E+00 0. -1.
         25    2    1    2    0    0 -0.66189917856E+02 -0.36091633385E+02 -0.66593666399E+03  0.68174748458E+03  0.12499712420E+03 0.  0.
          2    1    1    2  501    0  0.29740879935E+02  0.28439228803E+01 -0.14817506043E+04  0.14820517741E+04  0.00000000000E+00 0. -1.
          1    1    1    2  502    0  0.36449037921E+02  0.33247710505E+02  0.56792806392E+01  0.49660818034E+02  0.00000000000E+00 0. -1.
         22    1    3    3    0    0 -0.11863556908E+02 -0.28717723842E+02 -0.29149222178E+02  0.42604328404E+02  0.00000000000E+00 0. -1.
         22    1    3    3    0    0 -0.54326360948E+02 -0.73739095429E+01 -0.63678744182E+03  0.63914315618E+03  0.00000000000E+00 0. -1.
</event>
<event>
 7    1  0.5993218E-006  0.3559968E+02  0.7818608E-02  0.1551557E+00
          2   -1    0    0  502    0  0.00000000000E+00  0.00000000000E+00  0.27612154066E+03  0.27612154066E+03  0.00000000000E+00 0. -1.
          1   -1    0    0  501    0 -0.00000000000E+00 -0.00000000000E+00 -0.29693009454E+03  0.29693009454E+03  0.00000000000E+00 0. -1.
         25    2    1    2    0    0 -0.54564296467E+02 -0.11017124924E+02  0.11171480826E+03  0.17668378468E+03  0.12505327623E+03 0.  0.
          2    1    1    2  501    0  0.24272670683E+02  0.25929340341E+02 -0.26106295568E+03  0.26346794883E+03  0.00000000000E+00 0. -1.
          1    1    1    2  502    0  0.30291625785E+02 -0.14912215417E+02  0.12853959354E+03  0.13289990169E+03  0.00000000000E+00 0. -1.
         22    1    3    3    0    0  0.10581854252E+02  0.15146841103E+02 -0.20123007338E+02  0.27319184819E+02  0.00000000000E+00 0. -1.
         22    1    3    3    0    0 -0.65146150720E+02 -0.26163966028E+02  0.13183781559E+03  0.14936459986E+03  0.00000000000E+00 0. -1.
</event>
<event>
 7    1  0.5993218E-006  0.3427693E+02  0.7818608E-02  0.1601675E+00
          2   -1    0    0  502    0  0.00000000000E+00  0.00000000000E+00  0.71096138775E+02  0.71096138775E+02  0.00000000000E+00 0. -1.
          1   -1    0    0  501    0 -0.00000000000E+00 -0.00000000000E+00 -0.10078371568E+04  0.10078371568E+04  0.00000000000E+00 0. -1.
         25    2    1    2    0    0 -0.21910847391E+02 -0.66544322541E+01 -0.23753023307E+03  0.26939529673E+03  0.12501538937E+03 0.  0.
          2    1    1    2  501    0  0.29855077367E+02 -0.17782836203E+02 -0.75095822594E+03  0.75176180537E+03  0.00000000000E+00 0. -1.
          1    1    1    2  502    0 -0.79442299758E+01  0.24437268457E+02  0.51747441001E+02  0.57776193451E+02  0.00000000000E+00 0. -1.
         22    1    3    3    0    0 -0.38654336121E+02 -0.52657858028E+02 -0.19097439976E+03  0.20183713503E+03  0.00000000000E+00 0. -1.
         22    1    3    3    0    0  0.16743488731E+02  0.46003425774E+02 -0.46555833305E+02  0.67558161702E+02  0.00000000000E+00 0. -1.
</event>
<event>
 7    1  0.5993218E-006  0.5538323E+02  0.7818608E-02  0.1422401E+00
          2   -1    0    0  502    0  0.00000000000E+00  0.00000000000E+00  0.98153335788E+03  0.98153335788E+03  0.00000000000E+00 0. -1.
          1   -1    0    0  501    0 -0.00000000000E+00 -0.00000000000E+00 -0.10843175535E+04  0.10843175535E+04  0.00000000000E+00 0. -1.
         25    2    1    2    0    0 -0.53747455091E+02 -0.63779860895E+02 -0.28312726094E+02  0.15291828948E+03  0.12500293282E+03 0.  0.
          2    1    1    2  501    0 -0.61573035063E+00  0.53658982327E+02 -0.99214468657E+03  0.99359485939E+03  0.00000000000E+00 0. -1.
          1    1    1    2  502    0  0.54363185442E+02  0.10120878568E+02  0.91767321710E+03  0.91933776247E+03  0.00000000000E+00 0. -1.
         22    1    3    3    0    0 -0.71745462960E+02  0.95981747753E+01 -0.43452882861E+00  0.72385946355E+02  0.00000000000E+00 0.  1.
         22    1    3    3    0    0  0.17998007868E+02 -0.73378035670E+02 -0.27878197265E+02  0.80532343123E+02  0.00000000000E+00 0.  1.
</event>
<event>
 7    1  0.5993218E-006  0.7597359E+02  0.7818608E-02  0.1376115E+00
          2   -1    0    0  502    0  0.00000000000E+00  0.00000000000E+00  0.32626105929E+04  0.32626105929E+04  0.00000000000E+00 0. -1.
          1   -1    0    0  501    0 -0.00000000000E+00 -0.00000000000E+00 -0.11348698539E+02  0.11348698539E+02  0.00000000000E+00 0. -1.
         25    2    1    2    0    0  0.32577021871E+02 -0.49084613577E+02  0.92873324174E+03  0.93895743865E+03  0.12500030255E+03 0.  0.
          2    1    1    2  501    0 -0.47715187891E+02 -0.30189708689E+02  0.13966651788E+03  0.15064824554E+03  0.00000000000E+00 0. -1.
          1    1    1    2  502    0  0.15138166020E+02  0.79274322266E+02  0.21828621348E+04  0.21843536073E+04  0.00000000000E+00 0. -1.
         22    1    3    3    0    0 -0.22694959144E+02  0.24501490456E+02  0.46392741756E+03  0.46512797483E+03  0.00000000000E+00 0. -1.
         22    1    3    3    0    0  0.55271981015E+02 -0.73586104033E+02  0.46480582418E+03  0.47382946382E+03  0.00000000000E+00 0. -1.
</event>
<event>
 7    1  0.5993218E-006  0.1010556E+03  0.7818608E-02  0.1467927E+00
          2   -1    0    0  502    0  0.00000000000E+00  0.00000000000E+00  0.18307268555E+04  0.18307268555E+04  0.00000000000E+00 0. -1.
          1   -1    0    0  501    0 -0.00000000000E+00 -0.00000000000E+00 -0.58222766150E+03  0.58222766150E+03  0.00000000000E+00 0. -1.
         25    2    1    2    0    0  0.10692095544E+03  0.57512701395E+02 -0.17782545557E+03  0.24897142920E+03  0.12500031349E+03 0.  0.
          2    1    1    2  501    0 -0.16164715826E+02 -0.13372517552E+02 -0.36711109750E+03  0.36771004905E+03  0.00000000000E+00 0. -1.
          1    1    1    2  502    0 -0.90756239618E+02 -0.44140183843E+02  0.17934357471E+04  0.17962730388E+04  0.00000000000E+00 0. -1.
         22    1    3    3    0    0  0.25322242520E+02 -0.15425697414E+02 -0.12307265924E+03  0.12659402656E+03  0.00000000000E+00 0. -1.
         22    1    3    3    0    0  0.81598712925E+02  0.72938398809E+02 -0.54752796333E+02  0.12237740265E+03  0.00000000000E+00 0. -1.
</event>
<event>
 7    1  0.5993218E-006  0.1217491E+03  0.7818608E-02  0.1321501E+00
          2   -1    0    0  502    0  0.00000000000E+00  0.00000000000E+00  0.30381097434E+03  0.30381097434E+03  0.00000000000E+00 0. -1.
          1   -1    0    0  501    0 -0.00000000000E+00 -0.00000000000E+00 -0.13794727566E+04  0.13794727566E+04  0.00000000000E+00 0. -1.
         25    2    1    2    0    0 -0.55408631437E+02  0.13229788362E+03 -0.29911043457E+03  0.35449368132E+03  0.12500348628E+03 0.  0.
          2    1    1    2  501    0  0.55116327558E+02 -0.11005723262E+02 -0.10385538679E+04  0.10400735897E+04  0.00000000000E+00 0. -1.
          1    1    1    2  502    0  0.29230387935E+00 -0.12129216036E+03  0.26200252022E+03  0.28871645988E+03  0.00000000000E+00 0. -1.
         22    1    3    3    0    0 -0.29700539014E+02 -0.15075643633E+02 -0.23053487752E+02  0.40507534437E+02  0.00000000000E+00 0. -1.
         22    1    3    3    0    0 -0.25708092424E+02  0.14737352725E+03 -0.27605694682E+03  0.31398614689E+03  0.00000000000E+00 0. -1.
</event>
<event>
 7    1  0.5993218E-006  0.1365359E+03  0.7818608E-02  0.1372798E+00
          2   -1    0    0  502    0  0.00000000000E+00  0.00000000000E+00  0.28476480602E+03  0.28476480602E+03  0.00000000000E+00 0. -1.
          1   -1    0    0  501    0 -0.00000000000E+00 -0.00000000000E+00 -0.85626773614E+03  0.85626773614E+03  0.00000000000E+00 0. -1.
         25    2    1    2    0    0 -0.15342191014E+03  0.52924120762E+02 -0.16614003856E+03  0.26374507284E+03  0.12497882208E+03 0.  0.
          2    1    1    2  501    0  0.12915996133E+03 -0.31621253355E+02 -0.63328232703E+03  0.64709250112E+03  0.00000000000E+00 0. -1.
          1    1    1    2  502    0  0.24261948806E+02 -0.21302867407E+02  0.22791943547E+03  0.23019496820E+03  0.00000000000E+00 0. -1.
         22    1    3    3    0    0 -0.10744030751E+03  0.71143880919E+02 -0.51279696577E+02  0.13868842328E+03  0.00000000000E+00 0.  1.
         22    1    3    3    0    0 -0.45981602627E+02 -0.18219760156E+02 -0.11486034198E+03  0.12505664957E+03  0.00000000000E+00 0.  1.
</event>
<event>
 7    1  0.5993218E-006  0.1102043E+03  0.7818608E-02  0.1428510E+00
          2   -1    0    0  502    0  0.00000000000E+00  0.00000000000E+00  0.10161459710E+04  0.10161459710E+04  0.00000000000E+00 0. -1.
          1   -1    0    0  501    0 -0.00000000000E+00 -0.00000000000E+00 -0.63192149677E+02  0.63192149677E+02  0.00000000000E+00 0. -1.
         25    2    1    2    0    0 -0.88273323654E+02 -0.40691655277E+02  0.43252477274E+03  0.46059848565E+03  0.12500118185E+03 0.  0.
          2    1    1    2  501    0 -0.23727687238E+02  0.99770452243E+01 -0.39360638236E+02  0.47029824744E+02  0.00000000000E+00 0. -1.
          1    1    1    2  502    0  0.11200101089E+03  0.30714610052E+02  0.55978968681E+03  0.57170981028E+03  0.00000000000E+00 0. -1.
         22    1    3    3    0    0 -0.82097121491E+02 -0.57502865147E+02  0.16916104630E+03  0.19662648968E+03  0.00000000000E+00 0.  1.
         22    1    3    3    0    0 -0.61762021632E+01  0.16811209870E+02  0.26336372644E+03  0.26397199597E+03  0.00000000000E+00 0.  1.
</event>
<event>
 7    1  0.5993218E-006  0.2271572E+02  0.7818608E-02  0.1711032E+00
          2   -1    0    0  502    0  0.00000000000E+00  0.00000000000E+00  0.58936397487E+03  0.58936397487E+03  0.00000000000E+00 0. -1.
          1   -1    0    0  501    0 -0.00000000000E+00 -0.00000000000E+00 -0.13045372636E+02  0.13045372636E+02  0.00000000000E+00 0. -1.
         25    2    1    2    0    0 -0.13129156884E+02 -0.83545673406E+01  0.40008064475E+03  0.41944079752E+03  0.12499554699E+03 0.  0.
          2    1    1    2  501    0 -0.87821272357E+01  0.19073579324E+02  0.47416047271E+02  0.51857581180E+02  0.00000000000E+00 0. -1.
          1    1    1    2  502    0  0.21911284120E+02 -0.10719011984E+02  0.12882191022E+03  0.13111096881E+03  0.00000000000E+00 0. -1.
         22    1    3    3    0    0 -0.62847654162E+01 -0.57908452780E+02  0.10432754591E+03  0.11948691985E+03  0.00000000000E+00 0.  1.
         22    1    3    3    0    0 -0.68443914681E+01  0.49553885440E+02  0.29575309884E+03  0.29995387768E+03  0.00000000000E+00 0.  1.
</event>
<event>
 7    1  0.5993218E-006  0.4936060E+02  0.7818608E-02  0.1568071E+00
          2   -1    0    0  502    0  0.00000000000E+00  0.00000000000E+00  0.57261781414E+02  0.57261781414E+02  0.00000000000E+00 0. -1.
          1   -1    0    0  501    0 -0.00000000000E+00 -0.00000000000E+00 -0.96737124418E+03  0.96737124418E+03  0.00000000000E+00 0. -1.
         25    2    1    2    0    0  0.35389382946E+02 -0.15460482686E+02 -0.52016204065E+03  0.53636284710E+03  0.12500048107E+03 0.  0.
          2    1    1    2  501    0 -0.35998582368E+02  0.37382077993E+02 -0.43504166646E+03  0.43812620241E+03  0.00000000000E+00 0. -1.
          1    1    1    2  502    0  0.60919942146E+00 -0.21921595307E+02  0.45094244338E+02  0.50143976080E+02  0.00000000000E+00 0. -1.
         22    1    3    3    0    0  0.16292992110E+02  0.47642518738E+02 -0.11052065432E+03  0.12144993296E+03  0.00000000000E+00 0. -1.
         22    1    3    3    0    0  0.19096390836E+02 -0.63103001424E+02 -0.40964138633E+03  0.41491291414E+03  0.00000000000E+00 0. -1.
</event>
<event>
 7    1  0.5993218E-006  0.5477188E+02  0.7818608E-02  0.1500869E+00
          2   -1    0    0  502    0  0.00000000000E+00  0.00000000000E+00  0.97874421626E+03  0.97874421626E+03  0.00000000000E+00 0. -1.
          1   -1    0    0  501    0 -0.00000000000E+00 -0.00000000000E+00 -0.31373809314E+02  0.31373809314E+02  0.00000000000E+00 0. -1.
         25    2    1    2    0    0 -0.21090772317E+02  0.38065145600E+02  0.33221023450E+03  0.35760525412E+03  0.12499640747E+03 0.  0.
          2    1    1    2  501    0 -0.28634704401E+02 -0.11108917394E+02 -0.38226412963E+01  0.30951040827E+02  0.00000000000E+00 0. -1.
          1    1    1    2  502    0  0.49725476718E+02 -0.26956228206E+02  0.61898281374E+03  0.62156173063E+03  0.00000000000E+00 0. -1.
         22    1    3    3    0    0 -0.20369904231E+02 -0.19411420658E+02  0.27524211685E+03  0.27667663280E+03  0.00000000000E+00 0.  1.
         22    1    3    3    0    0 -0.72086808605E+00  0.57476566258E+02  0.56968117650E+02  0.80928621317E+02  0.00000000000E+00 0.  1.
</event>
<event>
 7    1  0.5993218E-006  0.6583963E+02  0.7818608E-02  0.1382470E+00
          2   -1    0    0  502    0  0.00000000000E+00  0.00000000000E+00  0.14886787712E+04  0.14886787712E+04  0.00000000000E+00 0. -1.
          1   -1    0    0  501    0 -0.00000000000E+00 -0.00000000000E+00 -0.66026810903E+02  0.66026810903E+02  0.00000000000E+00 0. -1.
         25    2    1    2    0    0 -0.47402789279E+02  0.30527729435E+02  0.78465039729E+03  0.79654194425E+03  0.12499542507E+03 0.  0.
          2    1    1    2  501    0 -0.15386065798E+02 -0.64016608239E+02 -0.39603018375E+02  0.76832650713E+02  0.00000000000E+00 0. -1.
          1    1    1    2  502    0  0.62788855078E+02  0.33488878805E+02  0.67760458140E+03  0.68133098716E+03  0.00000000000E+00 0. -1.
         22    1    3    3    0    0 -0.56607125813E+02  0.73151319045E+02  0.48582921589E+03  0.49455587064E+03  0.00000000000E+00 0.  1.
         22    1    3    3    0    0  0.92043365336E+01 -0.42623589611E+02  0.29882118140E+03  0.30198607361E+03  0.00000000000E+00 0.  1.
</event>
<event>
 7    1  0.5993218E-006  0.1085770E+03  0.7818608E-02  0.1267233E+00
          2   -1    0    0  502    0  0.00000000000E+00  0.00000000000E+00  0.31652333677E+03  0.31652333677E+03  0.00000000000E+00 0. -1.
          1   -1    0    0  501    0 -0.00000000000E+00 -0.00000000000E+00 -0.65385169772E+03  0.65385169772E+03  0.00000000000E+00 0. -1.
         25    2    1    2    0    0 -0.18984102517E+02 -0.51693082378E+02 -0.15664522110E+03  0.20783414772E+03  0.12499894700E+03 0.  0.
          2    1    1    2  501    0 -0.75347765221E+02  0.10545606240E+03 -0.45204757303E+03  0.47026085856E+03  0.00000000000E+00 0. -1.
          1    1    1    2  502    0  0.94331867738E+02 -0.53762980017E+02  0.27136443318E+03  0.29228002820E+03  0.00000000000E+00 0. -1.
         22    1    3    3    0    0 -0.54046563539E+02 -0.50734037214E+02 -0.15604086710E+03  0.17275336688E+03  0.00000000000E+00 0.  1.
         22    1    3    3    0    0  0.35062461022E+02 -0.95904516343E+00 -0.60435400088E+00  0.35080780840E+02  0.00000000000E+00 0.  1.
</event>
<event>
 7    1  0.5993218E-006  0.1053981E+03  0.7818608E-02  0.1294300E+00
          2   -1    0    0  502    0  0.00000000000E+00  0.00000000000E+00  0.18512392080E+03  0.18512392080E+03  0.00000000000E+00 0. -1.
          1   -1    0    0  501    0 -0.00000000000E+00 -0.00000000000E+00 -0.10534001845E+04  0.10534001845E+04  0.00000000000E+00 0. -1.
         25    2    1    2    0    0  0.10778917475E+03  0.41394685943E+00 -0.68220345519E+02  0.17859888615E+03  0.12499947618E+03 0.  0.
          2    1    1    2  501    0 -0.74629474680E+02 -0.76687002399E+02 -0.91322990184E+03  0.91947773679E+03  0.00000000000E+00 0. -1.
          1    1    1    2  502    0 -0.33159700072E+02  0.76273055539E+02  0.11317398369E+03  0.14044748233E+03  0.00000000000E+00 0. -1.
         22    1    3    3    0    0  0.32821568166E+02  0.47839260406E+02  0.11716235838E+02  0.59187163771E+02  0.00000000000E+00 0. -1.
         22    1    3    3    0    0  0.74967606585E+02 -0.47425313546E+02 -0.79936581357E+02  0.11941172238E+03  0.00000000000E+00 0. -1.
</event>
<event>
 7    1  0.5993218E-006  0.7014044E+02  0.7818608E-02  0.1467024E+00
          2   -1    0    0  502    0  0.00000000000E+00  0.00000000000E+00  0.20514553238E+04  0.20514553238E+04  0.00000000000E+00 0. -1.
          1   -1    0    0  501    0 -0.00000000000E+00 -0.00000000000E+00 -0.61215367336E+02  0.61215367336E+02  0.00000000000E+00 0. -1.
         25    2    1    2    0    0  0.71621949732E+02 -0.17605249519E+01  0.13915849061E+03  0.20030728612E+03  0.12500048094E+03 0.  0.
          2    1    1    2  501    0 -0.85625146821E+01 -0.29192799976E+02 -0.22265414556E+02  0.37699932539E+02  0.00000000000E+00 0. -1.
          1    1    1    2  502    0 -0.63059435050E+02  0.30953324928E+02  0.18733468804E+04  0.18746634725E+04  0.00000000000E+00 0. -1.
         22    1    3    3    0    0  0.14135253117E+02  0.58498489997E+02  0.67574539922E+02  0.90488657622E+02  0.00000000000E+00 0.  1.
         22    1    3    3    0    0  0.57486696615E+02 -0.60259014949E+02  0.71583950687E+02  0.10981862850E+03  0.00000000000E+00 0.  1.
</event>
<event>
 7    1  0.5993218E-006  0.1261506E+03  0.7818608E-02  0.1299610E+00
          2   -1    0    0  502    0  0.00000000000E+00  0.00000000000E+00  0.15420345653E+04  0.15420345653E+04  0.00000000000E+00 0. -1.
          1   -1    0    0  501    0 -0.00000000000E+00 -0.00000000000E+00 -0.28221389471E+03  0.28221389471E+03  0.00000000000E+00 0. -1.
         25    2    1    2    0    0 -0.80490358887E+02  0.23883286242E+02  0.43851933919E+03  0.46365154281E+03  0.12499773226E+03 0.  0.
          2    1    1    2  501    0  0.91778379551E+02 -0.89065614113E+02 -0.25340917623E+03  0.28385236509E+03  0.00000000000E+00 0. -1.
          1    1    1    2  502    0 -0.11288020664E+02  0.65182327871E+02  0.10747105077E+04  0.10767445521E+04  0.00000000000E+00 0. -1.
         22    1    3    3    0    0 -0.15026854827E+02  0.68785062505E+02  0.18262702729E+03  0.19572895107E+03  0.00000000000E+00 0.  1.
         22    1    3    3    0    0 -0.65463504060E+02 -0.44901776263E+02  0.25589231190E+03  0.26792259174E+03  0.00000000000E+00 0.  1.
</event>
<event>
 7    1  0.5993218E-006  0.1086197E+03  0.7818608E-02  0.1434026E+00
          2   -1    0    0  502    0  0.00000000000E+00  0.00000000000E+00  0.96976273101E+03  0.96976273101E+03  0.00000000000E+00 0. -1.
          1   -1    0    0  501    0 -0.00000000000E+00 -0.00000000000E+00 -0.23814747255E+02  0.23814747255E+02  0.00000000000E+00 0. -1.
         25    2    1    2    0    0  0.11020955547E+03  0.33616802111E+01  0.58229923766E+03  0.60568571406E+03  0.12500134007E+03 0.  0.
          2    1    1    2  501    0 -0.10510196376E+03 -0.27883292713E+02  0.31375911513E+03  0.33206728705E+03  0.00000000000E+00 0. -1.
          1    1    1    2  502    0 -0.51075917150E+01  0.24521612502E+02  0.49889630958E+02  0.55824477158E+02  0.00000000000E+00 0. -1.
         22    1    3    3    0    0  0.29006304665E+02  0.40804246659E+02  0.39473141072E+03  0.39789350191E+03  0.00000000000E+00 0.  1.
         22    1    3    3    0    0  0.81203250808E+02 -0.37442566448E+02  0.18756782695E+03  0.20779221215E+03  0.00000000000E+00 0.  1.
</event>
<event>
 7    1  0.5993218E-006  0.1583508E+03  0.7818608E-02  0.1254111E+00
          2   -1    0    0  502    0  0.00000000000E+00  0.00000000000E+00  0.24083155124E+04  0.24083155124E+04  0.00000000000E+00 0. -1.
          1   -1    0    0  501    0 -0.00000000000E+00 -0.00000000000E+00 -0.26975037304E+03  0.26975037304E+03  0.00000000000E+00 0. -1.
         25    2    1    2    0    0 -0.79767103853E+02  0.15237485931E+03  0.87394473071E+02  0.22987745864E+03  0.12499985384E+03 0.  0.
          2    1    1    2  501    0 -0.14063561699E+01 -0.15898874449E+03 -0.16580418798E+03  0.22971814787E+03  0.00000000000E+00 0. -1.
          1    1    1    2  502    0  0.81173460023E+02  0.66138851813E+01  0.22169748543E+04  0.22184702789E+04  0.00000000000E+00 0. -1.
         22    1    3    3    0    0 -0.47568224927E+02 -0.36831174676E+01 -0.87216998834E+00  0.47718571410E+02  0.00000000000E+00 0.  1.
         22    1    3    3    0    0 -0.32198878926E+02  0.15605797677E+03  0.88266643059E+02  0.18215888723E+03  0.00000000000E+00 0.  1.
</event>
<event>
 7    1  0.5993218E-006  0.6462177E+02  0.7818608E-02  0.1412348E+00
          2   -1    0    0  502    0  0.00000000000E+00  0.00000000000E+00  0.13021145085E+04  0.13021145085E+04  0.00000000000E+00 0. -1.
          1   -1    0    0  501    0 -0.00000000000E+00 -0.00000000000E+00 -0.93717961539E+03  0.93717961539E+03  0.00000000000E+00 0. -1.
         25    2    1    2    0    0 -0.61373227276E+02 -0.85211081187E+02  0.64776212057E+02  0.17563757272E+03  0.12499999168E+03 0.  0.
          2    1    1    2  501    0  0.85249657804E+01  0.48965583731E+02 -0.88017867570E+03  0.88158085539E+03  0.00000000000E+00 0. -1.
          1    1    1    2  502    0  0.52848261495E+02  0.36245497456E+02  0.11803373567E+04  0.11820756958E+04  0.00000000000E+00 0. -1.
         22    1    3    3    0    0 -0.11066849600E+02  0.30558721700E+02  0.31126508345E+02  0.45001890558E+02  0.00000000000E+00 0. -1.
         22    1    3    3    0    0 -0.50306377675E+02 -0.11576980289E+03  0.33649703712E+02  0.13063568217E+03  0.00000000000E+00 0. -1.
</event>
<event>
 7    1  0.5993218E-006  0.5912933E+02  0.7818608E-02  0.1503612E+00
          2   -1    0    0  502    0  0.00000000000E+00  0.00000000000E+00  0.39661531750E+03  0.39661531750E+03  0.00000000000E+00 0. -1.
          1   -1    0    0  501    0 -0.00000000000E+00 -0.00000000000E+00 -0.73184917123E+03  0.73184917123E+03  0.00000000000E+00 0. -1.
         25    2    1    2    0    0 -0.39421128607E+02  0.41310150493E+02 -0.13690834629E+02  0.13810999285E+03  0.12500550891E+03 0.  0.
          2    1    1    2  501    0  0.23019750279E+02  0.15801141438E+02 -0.65300854130E+03  0.65360518662E+03  0.00000000000E+00 0. -1.
          1    1    1    2  502    0  0.16401378328E+02 -0.57111291931E+02  0.33146552220E+03  0.33674930926E+03  0.00000000000E+00 0. -1.
         22    1    3    3    0    0  0.91800527098E+01  0.40023333560E+02  0.45646686544E+02  0.61398376114E+02  0.00000000000E+00 0. -1.
         22    1    3    3    0    0 -0.48601181317E+02  0.12868169329E+01 -0.59337521173E+02  0.76711616735E+02  0.00000000000E+00 0. -1.
</event>
<event>
 7    1  0.5993218E-006  0.1117201E+03  0.7818608E-02  0.1416241E+00
          2   -1    0    0  502    0  0.00000000000E+00  0.00000000000E+00  0.33551539750E+03  0.33551539750E+03  0.00000000000E+00 0. -1.
          1   -1    0    0  501    0 -0.00000000000E+00 -0.00000000000E+00 -0.39140675535E+03  0.39140675535E+03  0.00000000000E+00 0. -1.
         25    2    1    2    0    0  0.51905912724E+02 -0.97745309152E+02  0.19555855041E+03  0.25713132526E+03  0.12500001023E+03 0.  0.
          2    1    1    2  501    0 -0.75383853617E+02  0.82683267704E+02 -0.34995795629E+03  0.36740960700E+03  0.00000000000E+00 0. -1.
          1    1    1    2  502    0  0.23477940893E+02  0.15062041448E+02  0.98508048040E+02  0.10238122059E+03  0.00000000000E+00 0. -1.
         22    1    3    3    0    0  0.57525491352E+02  0.63998694756E+00  0.11957267298E+03  0.13269218463E+03  0.00000000000E+00 0.  1.
         22    1    3    3    0    0 -0.56195786278E+01 -0.98385296099E+02  0.75985877427E+02  0.12443914063E+03  0.00000000000E+00 0.  1.
</event>
<event>
 7    1  0.5993218E-006  0.1762011E+03  0.7818608E-02  0.1388861E+00
          2   -1    0    0  502    0  0.00000000000E+00  0.00000000000E+00  0.54702535447E+02  0.54702535447E+02  0.00000000000E+00 0. -1.
          1   -1    0    0  501    0 -0.00000000000E+00 -0.00000000000E+00 -0.15034866232E+04  0.15034866232E+04  0.00000000000E+00 0. -1.
         25    2    1    2    0    0 -0.50814038376E+02 -0.15482018970E+03 -0.63741593227E+03  0.66968254425E+03  0.12499712683E+03 0.  0.
          2    1    1    2  501    0  0.61780808802E+02  0.17383481009E+03 -0.83565086758E+03  0.85577320712E+03  0.00000000000E+00 0. -1.
          1    1    1    2  502    0 -0.10966770426E+02 -0.19014620394E+02  0.24282712128E+02  0.32733407256E+02  0.00000000000E+00 0. -1.
         22    1    3    3    0    0 -0.29830116028E+02  0.11631040904E+02 -0.55585061425E+02  0.64146831476E+02  0.00000000000E+00 0. -1.
         22    1    3    3    0    0 -0.20983922348E+02 -0.16645123060E+03 -0.58183087085E+03  0.60553571277E+03  0.00000000000E+00 0. -1.
</event>
<event>
 7    1  0.5993218E-006  0.8759433E+02  0.7818608E-02  0.1352589E+00
          2   -1    0    0  502    0  0.00000000000E+00  0.00000000000E+00  0.10556084417E+04  0.10556084417E+04  0.00000000000E+00 0. -1.
          1   -1    0    0  501    0 -0.00000000000E+00 -0.00000000000E+00 -0.76852092975E+03  0.76852092975E+03  0.00000000000E+00 0. -1.
         25    2    1    2    0    0 -0.13874046334E+00 -0.88379420254E+02 -0.95906582184E+02  0.18065088593E+03  0.12500291560E+03 0.  0.
          2    1    1    2  501    0 -0.55890073347E+02  0.20703992250E+02 -0.62692154654E+03  0.62974834745E+03  0.00000000000E+00 0. -1.
          1    1    1    2  502    0  0.56028813810E+02  0.67675428004E+02  0.10099156407E+04  0.10137301381E+04  0.00000000000E+00 0. -1.
         22    1    3    3    0    0  0.51772468513E+02 -0.56141214898E+02 -0.12702558685E+02  0.77418211703E+02  0.00000000000E+00 0. -1.
         22    1    3    3    0    0 -0.51911208976E+02 -0.32238205356E+02 -0.83204023499E+02  0.10323267423E+03  0.00000000000E+00 0. -1.
</event>
<event>
 7    1  0.5993218E-006  0.5019364E+02  0.7818608E-02  0.1450400E+00
          2   -1    0    0  502    0  0.00000000000E+00  0.00000000000E+00  0.74411386644E+03  0.74411386644E+03  0.00000000000E+00 0. -1.
          1   -1    0    0  501    0 -0.00000000000E+00 -0.00000000000E+00 -0.64794341985E+02  0.64794341985E+02  0.00000000000E+00 0. -1.
         25    2    1    2    0    0  0.33293476271E+01 -0.36511255008E+02  0.15133426067E+03  0.19967884988E+03  0.12500171334E+03 0.  0.
          2    1    1    2  501    0  0.44790503073E+02  0.17201126980E+02 -0.24805138372E+02  0.54012617272E+02  0.00000000000E+00 0. -1.
          1    1    1    2  502    0 -0.48119850700E+02  0.19310128028E+02  0.55279040216E+03  0.55521674128E+03  0.00000000000E+00 0. -1.
         22    1    3    3    0    0 -0.30214757953E+01  0.27786955444E+02 -0.68758518958E+01  0.28784050238E+02  0.00000000000E+00 0. -1.
         22    1    3    3    0    0  0.63508234224E+01 -0.64298210452E+02  0.15821011257E+03  0.17089479964E+03  0.00000000000E+00 0. -1.
</event>
<event>
 7    1  0.5993218E-006  0.2643822E+03  0.7818608E-02  0.1222836E+00
          2   -1    0    0  502    0  0.00000000000E+00  0.00000000000E+00  0.53159307864E+03  0.53159307864E+03  0.00000000000E+00 0. -1.
          1   -1    0    0  501    0 -0.00000000000E+00 -0.00000000000E+00 -0.53401121086E+03  0.53401121086E+03  0.00000000000E+00 0. -1.
         25    2    1    2    0    0 -0.17388470128E+03  0.14286215132E+03 -0.90288214675E+02  0.27280538348E+03  0.12500132769E+03 0.  0.
          2    1    1    2  501    0  0.21382951812E+03 -0.19674157319E+03 -0.28911147816E+03  0.40989725084E+03  0.00000000000E+00 0. -1.
          1    1    1    2  502    0 -0.39944816842E+02  0.53879421875E+02  0.37698156062E+03  0.38290165518E+03  0.00000000000E+00 0. -1.
         22    1    3    3    0    0 -0.12136672248E+03  0.13472513560E+03 -0.11444755266E+03  0.21442711068E+03  0.00000000000E+00 0. -1.
         22    1    3    3    0    0 -0.52517978804E+02  0.81370157211E+01  0.24159337983E+02  0.58378272793E+02  0.00000000000E+00 0. -1.
</event>
<event>
 7    1  0.5993218E-006  0.7414834E+02  0.7818608E-02  0.1440794E+00
          2   -1    0    0  502    0  0.00000000000E+00  0.00000000000E+00  0.19483615965E+04  0.19483615965E+04  0.00000000000E+00 0. -1.
          1   -1    0    0  501    0 -0.00000000000E+00 -0.00000000000E+00 -0.10864015551E+03  0.10864015551E+03  0.00000000000E+00 0. -1.
         25    2    1    2    0    0 -0.62671875642E+02  0.37732066286E+02  0.11359599179E+04  0.11451553446E+04  0.12499742119E+03 0.  0.
          2    1    1    2  501    0  0.21727462428E+02  0.27281500251E+02 -0.99233565068E+02  0.10518394989E+03  0.00000000000E+00 0. -1.
          1    1    1    2  502    0  0.40944413214E+02 -0.65013566537E+02  0.80299508821E+03  0.80666245760E+03  0.00000000000E+00 0. -1.
         22    1    3    3    0    0 -0.44548893939E+02 -0.24102375235E+02  0.87105349617E+03  0.87252491175E+03  0.00000000000E+00 0.  1.
         22    1    3    3    0    0 -0.18122981703E+02  0.61834441521E+02  0.26490642172E+03  0.27263043280E+03  0.00000000000E+00 0.  1.
</event>
<event>
 7    1  0.5993218E-006  0.5609524E+02  0.7818608E-02  0.1457403E+00
          2   -1    0    0  502    0  0.00000000000E+00  0.00000000000E+00  0.12807508174E+03  0.12807508174E+03  0.00000000000E+00 0. -1.
          1   -1    0    0  501    0 -0.00000000000E+00 -0.00000000000E+00 -0.60538405272E+03  0.60538405272E+03  0.00000000000E+00 0. -1.
         25    2    1    2    0    0  0.14314755195E+02  0.54238712391E+02 -0.26364464371E+03  0.29712026912E+03  0.12500082412E+03 0.  0.
          2    1    1    2  501    0 -0.40563542852E+02 -0.42429796893E+01 -0.31644801384E+03  0.31906543114E+03  0.00000000000E+00 0. -1.
          1    1    1    2  502    0  0.26248787657E+02 -0.49995732702E+02  0.10278368658E+03  0.11727343419E+03  0.00000000000E+00 0. -1.
         22    1    3    3    0    0  0.41377576713E+02  0.61099407631E+02 -0.70795445263E+02  0.10226063044E+03  0.00000000000E+00 0. -1.
         22    1    3    3    0    0 -0.27062821518E+02 -0.68606952404E+01 -0.19284919845E+03  0.19485963869E+03  0.00000000000E+00 0. -1.
</event>
<event>
 7    1  0.5993218E-006  0.5015100E+02  0.7818608E-02  0.1465986E+00
          2   -1    0    0  502    0  0.00000000000E+00  0.00000000000E+00  0.59115875694E+03  0.59115875694E+03  0.00000000000E+00 0. -1.
          1   -1    0    0  501    0 -0.00000000000E+00 -0.00000000000E+00 -0.53258028759E+03  0.53258028759E+03  0.00000000000E+00 0. -1.
         25    2    1    2    0    0 -0.63040214249E+02  0.24789055794E+02 -0.16151113343E+03  0.21517871536E+03  0.12500986929E+03 0.  0.
          2    1    1    2  501    0  0.15283131778E+02 -0.40050843537E+02 -0.34178021926E+03  0.34445807069E+03  0.00000000000E+00 0. -1.
          1    1    1    2  502    0  0.47757082471E+02  0.15261787742E+02  0.56186982204E+03  0.56410225847E+03  0.00000000000E+00 0. -1.
         22    1    3    3    0    0 -0.45585274313E+01  0.32222567036E+02  0.98169495842E+01  0.33991859288E+02  0.00000000000E+00 0. -1.
         22    1    3    3    0    0 -0.58481686818E+02 -0.74335112419E+01 -0.17132808301E+03  0.18118685607E+03  0.00000000000E+00 0. -1.
</event>
<event>
 7    1  0.5993218E-006  0.4081022E+03  0.7818608E-02  0.1267635E+00
          2   -1    0    0  502    0  0.00000000000E+00  0.00000000000E+00  0.96940682076E+03  0.96940682076E+03  0.00000000000E+00 0. -1.
          1   -1    0    0  501    0 -0.00000000000E+00 -0.00000000000E+00 -0.11607511480E+04  0.11607511480E+04  0.00000000000E+00 0. -1.
         25    2    1    2    0    0  0.33656628315E+03 -0.19534926082E+03 -0.26829617215E+02  0.40961306990E+03  0.12499936807E+03 0.  0.
          2    1    1    2  501    0  0.12991145077E+02 -0.24434705843E+02 -0.88751357124E+03  0.88794491036E+03  0.00000000000E+00 0. -1.
          1    1    1    2  502    0 -0.34955742822E+03  0.21978396666E+03  0.72299886118E+03  0.83259998853E+03  0.00000000000E+00 0. -1.
         22    1    3    3    0    0  0.20658973457E+03 -0.11908616857E+03 -0.77326378425E+02  0.25067948215E+03  0.00000000000E+00 0.  1.
         22    1    3    3    0    0  0.12997654858E+03 -0.76263092248E+02  0.50496761210E+02  0.15893358774E+03  0.00000000000E+00 0.  1.
</event>
<event>
 7    1  0.5993218E-006  0.9494132E+02  0.7818608E-02  0.1291586E+00
          2   -1    0    0  502    0  0.00000000000E+00  0.00000000000E+00  0.19922302496E+04  0.19922302496E+04  0.00000000000E+00 0. -1.
          1   -1    0    0  501    0 -0.00000000000E+00 -0.00000000000E+00 -0.22152139453E+03  0.22152139453E+03  0.00000000000E+00 0. -1.
         25    2    1    2    0    0  0.49518840756E+01  0.81877153194E-01  0.20683279769E+03  0.24171464778E+03  0.12498654684E+03 0.  0.
          2    1    1    2  501    0 -0.93504035253E+02 -0.34321768800E+02 -0.19056677825E+03  0.21502717362E+03  0.00000000000E+00 0. -1.
          1    1    1    2  502    0  0.88552151177E+02  0.34239891647E+02  0.17544428356E+04  0.17570098227E+04  0.00000000000E+00 0. -1.
         22    1    3    3    0    0  0.33613633373E+02  0.28896340836E+02  0.16830989900E+02  0.47414734875E+02  0.00000000000E+00 0.  1.
         22    1    3    3    0    0 -0.28661749298E+02 -0.28814463683E+02  0.19000180779E+03  0.19429991290E+03  0.00000000000E+00 0.  1.
</event>
<event>
 7    1  0.5993218E-006  0.7089190E+02  0.7818608E-02  0.1495106E+00
          2   -1    0    0  502    0  0.00000000000E+00  0.00000000000E+00  0.89887629962E+03  0.89887629962E+03  0.00000000000E+00 0. -1.
          1   -1    0    0  501    0 -0.00000000000E+00 -0.00000000000E+00 -0.12920273483E+04  0.12920273483E+04  0.00000000000E+00 0. -1.
         25    2    1    2    0    0  0.73053202785E+02 -0.55700370189E+02 -0.61779925113E+03  0.63697732864E+03  0.12499960328E+03 0.  0.
          2    1    1    2  501    0 -0.53647084027E+02  0.40433983883E+02 -0.66276939527E+03  0.66616528579E+03  0.00000000000E+00 0. -1.
          1    1    1    2  502    0 -0.19406118759E+02  0.15266386305E+02  0.88741759768E+03  0.88776103354E+03  0.00000000000E+00 0. -1.
         22    1    3    3    0    0  0.18020275862E+02  0.38669624086E+02 -0.12076374158E+03  0.12807791164E+03  0.00000000000E+00 0.  1.
         22    1    3    3    0    0  0.55032926923E+02 -0.94369994275E+02 -0.49703550955E+03  0.50889941700E+03  0.00000000000E+00 0.  1.
</event>
<event>
 7    1  0.5993218E-006  0.4431583E+02  0.7818608E-02  0.1544324E+00
          2   -1    0    0  502    0  0.00000000000E+00  0.00000000000E+00  0.37457000232E+02  0.37457000232E+02  0.00000000000E+00 0. -1.
          1   -1    0    0  501    0 -0.00000000000E+00 -0.00000000000E+00 -0.27661354401E+04  0.27661354401E+04  0.00000000000E+00 0. -1.
         25    2    1    2    0    0 -0.22505737364E+02 -0.57296180060E+01 -0.18436594167E+04  0.18480377695E+04  0.12499686374E+03 0.  0.
          2    1    1    2  501    0  0.47717988115E+02  0.18837182889E+02 -0.91372430506E+03  0.91516334689E+03  0.00000000000E+00 0. -1.
          1    1    1    2  502    0 -0.25212250752E+02 -0.13107564883E+02  0.28705281864E+02  0.40391323969E+02  0.00000000000E+00 0. -1.
         22    1    3    3    0    0 -0.46454836730E+01  0.24194300152E+02 -0.73184481813E+02  0.77219900652E+02  0.00000000000E+00 0.  1.
         22    1    3    3    0    0 -0.17860253691E+02 -0.29923918158E+02 -0.17704749349E+04  0.17708178688E+04  0.00000000000E+00 0.  1.
</event>
<event>
 7    1  0.5993218E-006  0.8142335E+02  0.7818608E-02  0.1374020E+00
          2   -1    0    0  502    0  0.00000000000E+00  0.00000000000E+00  0.99014674405E+02  0.99014674405E+02  0.00000000000E+00 0. -1.
          1   -1    0    0  501    0 -0.00000000000E+00 -0.00000000000E+00 -0.13934728773E+04  0.13934728773E+04  0.00000000000E+00 0. -1.
         25    2    1    2    0    0 -0.80213921240E+02  0.95076378663E+02 -0.70292560207E+03  0.72470907540E+03  0.12500020393E+03 0.  0.
          2    1    1    2  501    0  0.12136496730E+02 -0.52206686925E+02 -0.65997819972E+03  0.66215108307E+03  0.00000000000E+00 0. -1.
          1    1    1    2  502    0  0.68077424510E+02 -0.42869691738E+02  0.68445598879E+02  0.10562739324E+03  0.00000000000E+00 0. -1.
         22    1    3    3    0    0 -0.87416943342E+02  0.20514651622E+02 -0.25011986505E+03  0.26574897894E+03  0.00000000000E+00 0. -1.
         22    1    3    3    0    0  0.72030221015E+01  0.74561727041E+02 -0.45280573702E+03  0.45896009647E+03  0.00000000000E+00 0. -1.
</event>
<event>
 7    1  0.5993218E-006  0.6324509E+02  0.7818608E-02  0.1444890E+00
          2   -1    0    0  502    0  0.00000000000E+00  0.00000000000E+00  0.97706241910E+03  0.97706241910E+03  0.00000000000E+00 0. -1.
          1   -1    0    0  501    0 -0.00000000000E+00 -0.00000000000E+00 -0.79626124123E+03  0.79626124123E+03  0.00000000000E+00 0. -1.
         25    2    1    2    0    0 -0.81212545259E+02 -0.57639090583E+01 -0.49739508021E+03  0.51928325384E+03  0.12499812693E+03 0.  0.
          2    1    1    2  501    0  0.54981124266E+02 -0.23983932488E+02 -0.28438502534E+03  0.29064238452E+03  0.00000000000E+00 0. -1.
          1    1    1    2  502    0  0.26231420994E+02  0.29747841546E+02  0.96258128343E+03  0.96339802197E+03  0.00000000000E+00 0. -1.
         22    1    3    3    0    0 -0.27209608020E+02 -0.43389029639E+02 -0.38982580297E+03  0.39317569524E+03  0.00000000000E+00 0. -1.
         22    1    3    3    0    0 -0.54002937240E+02  0.37625120581E+02 -0.10756927724E+03  0.12610755860E+03  0.00000000000E+00 0. -1.
</event>
<event>
 7    1  0.5993218E-006  0.1108848E+03  0.7818608E-02  0.1265224E+00
          2   -1    0    0  502    0  0.00000000000E+00  0.00000000000E+00  0.26323955374E+04  0.26323955374E+04  0.00000000000E+00 0. -1.
          1   -1    0    0  501    0 -0.00000000000E+00 -0.00000000000E+00 -0.47518776369E+02  0.47518776369E+02  0.00000000000E+00 0. -1.
         25    2    1    2    0    0 -0.91631590723E+02 -0.29892585702E+02  0.97358223044E+03  0.98629477537E+03  0.12500043753E+03 0.  0.
          2    1    1    2  501    0  0.27944646807E+02  0.11244783754E+03  0.45696777016E+02  0.12455366266E+03  0.00000000000E+00 0. -1.
          1    1    1    2  502    0  0.63686943917E+02 -0.82555251835E+02  0.15655977536E+04  0.15690658757E+04  0.00000000000E+00 0. -1.
         22    1    3    3    0    0 -0.91562008073E+02  0.29698022338E+02  0.52239509603E+03  0.53118942969E+03  0.00000000000E+00 0.  1.
         22    1    3    3    0    0 -0.69582650076E-01 -0.59590608041E+02  0.45118713441E+03  0.45510534568E+03  0.00000000000E+00 0.  1.
</event>
<event>
 7    1  0.5993218E-006  0.8325974E+02  0.7818608E-02  0.1440417E+00
          2   -1    0    0  502    0  0.00000000000E+00  0.00000000000E+00  0.36228265778E+03  0.36228265778E+03  0.00000000000E+00 0. -1.
          1   -1    0    0  501    0 -0.00000000000E+00 -0.00000000000E+00 -0.10963278691E+04  0.10963278691E+04  0.00000000000E+00 0. -1.
         25    2    1    2    0    0 -0.43432824829E+02 -0.45462216063E+02 -0.21668792837E+03  0.25793624730E+03  0.12499690400E+03 0.  0.
          2    1    1    2  501    0  0.74423439477E+02  0.42341700023E+02 -0.85616591252E+03  0.86043694578E+03  0.00000000000E+00 0. -1.
          1    1    1    2  502    0 -0.30990614649E+02  0.31205160394E+01  0.33880862958E+03  0.34023733378E+03  0.00000000000E+00 0. -1.
         22    1    3    3    0    0  0.60722199835E+01  0.43237858104E+01 -0.17725324054E+03  0.17740991590E+03  0.00000000000E+00 0.  1.
         22    1    3    3    0    0 -0.49505044812E+02 -0.49786001873E+02 -0.39434687829E+02  0.80526331398E+02  0.00000000000E+00 0.  1.
</event>
<event>
 7    1  0.5993218E-006  0.1858199E+03  0.7818608E-02  0.1308878E+00
          2   -1    0    0  502    0  0.00000000000E+00  0.00000000000E+00  0.80895794180E+03  0.80895794180E+03  0.00000000000E+00 0. -1.
          1   -1    0    0  501    0 -0.00000000000E+00 -0.00000000000E+00 -0.55631654527E+03  0.55631654527E+03  0.00000000000E+00 0. -1.
         25    2    1    2    0    0  0.77563953986E+02  0.13714488421E+03  0.19661127207E+03  0.28125717653E+03  0.12499888328E+03 0.  0.
          2    1    1    2  501    0  0.30061148890E+02  0.28256276607E+02 -0.49603297716E+03  0.49774572250E+03  0.00000000000E+00 0. -1.
          1    1    1    2  502    0 -0.10762510288E+03 -0.16540116082E+03  0.55206310162E+03  0.58627158804E+03  0.00000000000E+00 0. -1.
         22    1    3    3    0    0  0.37607137387E+02  0.12341442735E+03  0.20093200463E+03  0.23878670010E+03  0.00000000000E+00 0. -1.
         22    1    3    3    0    0  0.39956816599E+02  0.13730456857E+02 -0.43207325563E+01  0.42470476428E+02  0.00000000000E+00 0. -1.
</event>
<event>
 7    1  0.5993218E-006  0.4857205E+02  0.7818608E-02  0.1507806E+00
          2   -1    0    0  502    0  0.00000000000E+00  0.00000000000E+00  0.88002454575E+02  0.88002454575E+02  0.00000000000E+00 0. -1.
          1   -1    0    0  501    0 -0.00000000000E+00 -0.00000000000E+00 -0.31202224694E+03  0.31202224694E+03  0.00000000000E+00 0. -1.
         25    2    1    2    0    0  0.14909234414E+02 -0.32288053437E+02 -0.12127488794E+03  0.17775734195E+03  0.12500108202E+03 0.  0.
          2    1    1    2  501    0  0.12995829972E+02  0.49962688145E+02 -0.15336639949E+03  0.16182216874E+03  0.00000000000E+00 0. -1.
          1    1    1    2  502    0 -0.27905064385E+02 -0.17674634708E+02  0.50621495070E+02  0.60445190822E+02  0.00000000000E+00 0. -1.
         22    1    3    3    0    0 -0.37085652898E+02  0.12361464691E+02 -0.97783743384E+02  0.10530817599E+03  0.00000000000E+00 0.  1.
         22    1    3    3    0    0  0.51994887311E+02 -0.44649518128E+02 -0.23491144558E+02  0.72449165960E+02  0.00000000000E+00 0.  1.
</event>
<event>
 7    1  0.5993218E-006  0.8287990E+02  0.7818608E-02  0.1321605E+00
          2   -1    0    0  502    0  0.00000000000E+00  0.00000000000E+00  0.56427302382E+03  0.56427302382E+03  0.00000000000E+00 0. -1.
          1   -1    0    0  501    0 -0.00000000000E+00 -0.00000000000E+00 -0.11288983192E+04  0.11288983192E+04  0.00000000000E+00 0. -1.
         25    2    1    2    0    0  0.26654069983E+02  0.83201375478E+02 -0.81916146525E+02  0.17311399976E+03  0.12500117408E+03 0.  0.
          2    1    1    2  501    0 -0.81206563039E+02 -0.20806641138E+02 -0.99630081962E+03  0.99982135673E+03  0.00000000000E+00 0. -1.
          1    1    1    2  502    0  0.54552493057E+02 -0.62394734340E+02  0.51359167078E+03  0.52023598651E+03  0.00000000000E+00 0. -1.
         22    1    3    3    0    0  0.69674849942E+02  0.15137361874E+02 -0.30307498160E+02  0.77474311121E+02  0.00000000000E+00 0. -1.
         22    1    3    3    0    0 -0.43020779959E+02  0.68064013604E+02 -0.51608648365E+02  0.95639688635E+02  0.00000000000E+00 0. -1.
</event>
<event>
 7    1  0.5993218E-006  0.1530175E+03  0.7818608E-02  0.1292511E+00
          2   -1    0    0  502    0  0.00000000000E+00  0.00000000000E+00  0.52069714796E+02  0.52069714796E+02  0.00000000000E+00 0. -1.
          1   -1    0    0  501    0 -0.00000000000E+00 -0.00000000000E+00 -0.24214178673E+04  0.24214178673E+04  0.00000000000E+00 0. -1.
         25    2    1    2    0    0  0.17933451098E+03  0.65174948059E+02 -0.11265859586E+04  0.11494474509E+04  0.12499951858E+03 0.  0.
          2    1    1    2  501    0 -0.55506577723E+02  0.17665009322E+02 -0.11435803173E+04  0.11450628694E+04  0.00000000000E+00 0. -1.
          1    1    1    2  502    0 -0.12382793326E+03 -0.82839957381E+02 -0.99181876627E+02  0.17897726181E+03  0.00000000000E+00 0. -1.
         22    1    3    3    0    0  0.15269838689E+03  0.16615448022E+02 -0.99339849731E+03  0.10052031859E+04  0.00000000000E+00 0. -1.
         22    1    3    3    0    0  0.26636124094E+02  0.48559500038E+02 -0.13318746130E+03  0.14424426504E+03  0.00000000000E+00 0. -1.
</event>
<event>
 7    1  0.5993218E-006  0.1381791E+03  0.7818608E-02  0.1337482E+00
          2   -1    0    0  502    0  0.00000000000E+00  0.00000000000E+00  0.16699232000E+04  0.16699232000E+04  0.00000000000E+00 0. -1.
          1   -1    0    0  501    0 -0.00000000000E+00 -0.00000000000E+00 -0.19326639850E+04  0.19326639850E+04  0.00000000000E+00 0. -1.
         25    2    1    2    0    0  0.17599253313E+03 -0.38262733680E+02 -0.15230167081E+02  0.21975918442E+03  0.12499893057E+03 0.  0.
          2    1    1    2  501    0 -0.13365324901E+03  0.30627544143E+02 -0.18122837671E+04  0.18174635320E+04  0.00000000000E+00 0. -1.
          1    1    1    2  502    0 -0.42339284116E+02  0.76351895374E+01  0.15647731492E+04  0.15653644686E+04  0.00000000000E+00 0. -1.
         22    1    3    3    0    0  0.17152402358E+03 -0.50276153282E+02 -0.47578015899E+02  0.18496445564E+03  0.00000000000E+00 0.  1.
         22    1    3    3    0    0  0.44685095548E+01  0.12013419602E+02  0.32347848817E+02  0.34794728786E+02  0.00000000000E+00 0.  1.
</event>
<event>
 7    1  0.5993218E-006  0.1707918E+03  0.7818608E-02  0.1368452E+00
          2   -1    0    0  502    0  0.00000000000E+00  0.00000000000E+00  0.42925104141E+03  0.42925104141E+03  0.00000000000E+00 0. -1.
          1   -1    0    0  501    0 -0.00000000000E+00 -0.00000000000E+00 -0.22080218418E+04  0.22080218418E+04  0.00000000000E+00 0. -1.
         25    2    1    2    0    0  0.57145609113E+02  0.13654123054E+03 -0.16077152005E+03  0.25175797530E+03  0.12500187275E+03 0.  0.
          2    1    1    2  501    0 -0.56197038567E+02 -0.16328019720E+03 -0.19975612456E+04  0.20050110872E+04  0.00000000000E+00 0. -1.
          1    1    1    2  502    0 -0.94857054551E+00  0.26738966657E+02  0.37956196524E+03  0.38050382072E+03  0.00000000000E+00 0. -1.
         22    1    3    3    0    0  0.50679010994E+02  0.13420541012E+03 -0.68042079044E+02  0.15877398648E+03  0.00000000000E+00 0. -1.
         22    1    3    3    0    0  0.64665981192E+01  0.23358204175E+01 -0.92729441009E+02  0.92983988826E+02  0.00000000000E+00 0. -1.
</event>
<event>
 7    1  0.5993218E-006  0.5055756E+02  0.7818608E-02  0.1462507E+00
          2   -1    0    0  502    0  0.00000000000E+00  0.00000000000E+00  0.12577038189E+04  0.12577038189E+04  0.00000000000E+00 0. -1.
          1   -1    0    0  501    0 -0.00000000000E+00 -0.00000000000E+00 -0.12948762049E+03  0.12948762049E+03  0.00000000000E+00 0. -1.
         25    2    1    2    0    0 -0.27135554857E+02 -0.46156290877E+02  0.21765734747E+03  0.25664252165E+03  0.12499568587E+03 0.  0.
          2    1    1    2  501    0  0.43550044637E+02 -0.21858860229E+01 -0.10500696186E+03  0.11370068832E+03  0.00000000000E+00 0. -1.
          1    1    1    2  502    0 -0.16414489781E+02  0.48342176900E+02  0.10155658128E+04  0.10168482294E+04  0.00000000000E+00 0. -1.
         22    1    3    3    0    0  0.34514736741E+02 -0.18591420788E+02  0.16879346719E+03  0.17328630225E+03  0.00000000000E+00 0. -1.
         22    1    3    3    0    0 -0.61650291598E+02 -0.27564870089E+02  0.48863880278E+02  0.83356219402E+02  0.00000000000E+00 0. -1.
</event>
<event>
 7    1  0.6227257E-006  0.6789796E+02  0.7818608E-02  0.1377637E+00
          2   -1    0    0  502    0  0.00000000000E+00  0.00000000000E+00  0.11881105952E+04  0.11881105952E+04  0.00000000000E+00 0. -1.
          1   -1    0    0  501    0 -0.00000000000E+00 -0.00000000000E+00 -0.45004772777E+03  0.45004772777E+03  0.00000000000E+00 0. -1.
         25    2    1    2    0    0  0.34451208899E+02  0.94680606041E+02 -0.13750062778E+03  0.21138462408E+03  0.12500293478E+03 0.  0.
          2    1    1    2  501    0  0.19497127430E+02 -0.63329993077E+02 -0.27076145497E+03  0.27875184573E+03  0.00000000000E+00 0. -1.
          1    1    1    2  502    0 -0.53948336329E+02 -0.31350612963E+02  0.11463249502E+04  0.11480218532E+04  0.00000000000E+00 0. -1.
         22    1    3    3    0    0 -0.44164307866E+02  0.29501598249E+02 -0.22765377411E+02  0.57784883812E+02  0.00000000000E+00 0. -1.
         22    1    3    3    0    0  0.78615516765E+02  0.65179007792E+02 -0.11473525037E+03  0.15359974027E+03  0.00000000000E+00 0. -1.
</event>
<event>
 7    1  0.5993218E-006  0.1106277E+03  0.7818608E-02  0.1292396E+00
          2   -1    0    0  502    0  0.00000000000E+00  0.00000000000E+00  0.12409108622E+03  0.12409108622E+03  0.00000000000E+00 0. -1.
          1   -1    0    0  501    0 -0.00000000000E+00 -0.00000000000E+00 -0.10118864408E+04  0.10118864408E+04  0.00000000000E+00 0. -1.
         25    2    1    2    0    0 -0.14394543096E+03 -0.98569610370E+02 -0.35848001409E+03  0.41781555710E+03  0.12500265625E+03 0.  0.
          2    1    1    2  501    0  0.79383225552E+02  0.14270962511E+02 -0.59025203785E+03  0.59573721141E+03  0.00000000000E+00 0. -1.
          1    1    1    2  502    0  0.64562205409E+02  0.84298647859E+02  0.60936697395E+02  0.12242475847E+03  0.00000000000E+00 0. -1.
         22    1    3    3    0    0 -0.65254095086E+02  0.53510705432E+01 -0.21129334509E+03  0.22120490176E+03  0.00000000000E+00 0.  1.
         22    1    3    3    0    0 -0.78691335875E+02 -0.10392068091E+03 -0.14718666900E+03  0.19661065534E+03  0.00000000000E+00 0.  1.
</event>
<event>
 7    1  0.5993218E-006  0.6204839E+02  0.7818608E-02  0.1445428E+00
          2   -1    0    0  502    0  0.00000000000E+00  0.00000000000E+00  0.18007419414E+04  0.18007419414E+04  0.00000000000E+00 0. -1.
          1   -1    0    0  501    0 -0.00000000000E+00 -0.00000000000E+00 -0.36891566491E+03  0.36891566491E+03  0.00000000000E+00 0. -1.
         25    2    1    2    0    0  0.30577745264E+02  0.35684331446E+02  0.53678104035E+02  0.14392663618E+03  0.12500067092E+03 0.  0.
          2    1    1    2  501    0 -0.30145864958E+02  0.26692899749E+02 -0.32196539610E+03  0.32447342011E+03  0.00000000000E+00 0. -1.
          1    1    1    2  502    0 -0.43188030532E+00 -0.62377231195E+02  0.17001135686E+04  0.17012575501E+04  0.00000000000E+00 0. -1.
         22    1    3    3    0    0 -0.20218349422E+02  0.62685721633E+02  0.55853120969E+02  0.86358858677E+02  0.00000000000E+00 0.  1.
         22    1    3    3    0    0  0.50796094686E+02 -0.27001390188E+02 -0.21750169334E+01  0.57567777498E+02  0.00000000000E+00 0.  1.
</event>
<event>
 7    1  0.5993218E-006  0.6977026E+02  0.7818608E-02  0.1511207E+00
          2   -1    0    0  502    0  0.00000000000E+00  0.00000000000E+00  0.60914353609E+03  0.60914353609E+03  0.00000000000E+00 0. -1.
          1   -1    0    0  501    0 -0.00000000000E+00 -0.00000000000E+00 -0.13894686267E+04  0.13894686267E+04  0.00000000000E+00 0. -1.
         25    2    1    2    0    0  0.76832902806E+02 -0.10255967133E+02 -0.31162158056E+02  0.15035365855E+03  0.12500665074E+03 0.  0.
          2    1    1    2  501    0 -0.68863137113E+02 -0.10754513593E+02 -0.12975453280E+04  0.12994158955E+04  0.00000000000E+00 0. -1.
          1    1    1    2  502    0 -0.79697656933E+01  0.21010480726E+02  0.54838239548E+03  0.54884260871E+03  0.00000000000E+00 0. -1.
         22    1    3    3    0    0 -0.33976461956E+02 -0.61992338879E+00  0.26907954268E+01  0.34088482690E+02  0.00000000000E+00 0. -1.
         22    1    3    3    0    0  0.11080936476E+03 -0.96360437438E+01 -0.33852953483E+02  0.11626517586E+03  0.00000000000E+00 0. -1.
</event>
<event>
 7    1  0.5993218E-006  0.1154148E+03  0.7818608E-02  0.1340201E+00
          2   -1    0    0  502    0  0.00000000000E+00  0.00000000000E+00  0.30917697379E+04  0.30917697379E+04  0.00000000000E+00 0. -1.
          1   -1    0    0  501    0 -0.00000000000E+00 -0.00000000000E+00 -0.18020704328E+04  0.18020704328E+04  0.00000000000E+00 0. -1.
         25    2    1    2    0    0 -0.16416903801E+03 -0.11184063276E+02  0.19929458109E+03  0.28708819113E+03  0.12499897249E+03 0.  0.
          2    1    1    2  501    0  0.11503655692E+03  0.37913310337E+00 -0.17560694181E+04  0.17598333314E+04  0.00000000000E+00 0. -1.
          1    1    1    2  502    0  0.49132481095E+02  0.10804930172E+02  0.28464741421E+04  0.28469186481E+04  0.00000000000E+00 0. -1.
         22    1    3    3    0    0 -0.15235690995E+03 -0.36857378892E+02  0.20519635473E+03  0.25821819917E+03  0.00000000000E+00 0. -1.
         22    1    3    3    0    0 -0.11812128067E+02  0.25673315616E+02 -0.59017736392E+01  0.28869991969E+02  0.00000000000E+00 0. -1.
</event>
<event>
 7    1  0.5993218E-006  0.4842033E+02  0.7818608E-02  0.1552473E+00
          2   -1    0    0  502    0  0.00000000000E+00  0.00000000000E+00  0.28077372362E+03  0.28077372362E+03  0.00000000000E+00 0. -1.
          1   -1    0    0  501    0 -0.00000000000E+00 -0.00000000000E+00 -0.21583645803E+03  0.21583645803E+03  0.00000000000E+00 0. -1.
         25    2    1    2    0    0 -0.31260812642E+02 -0.31868016254E+02 -0.12309897496E+03  0.18102894741E+03  0.12500125318E+03 0.  0.
          2    1    1    2  501    0 -0.15608150235E+02  0.19115373698E+02 -0.58927406284E+02  0.63886235424E+02  0.00000000000E+00 0. -1.
          1    1    1    2  502    0  0.46868962877E+02  0.12752642555E+02  0.24696364684E+03  0.25169499882E+03  0.00000000000E+00 0. -1.
         22    1    3    3    0    0 -0.47881344110E+02 -0.73000039764E+02 -0.70456185364E+02  0.11218601952E+03  0.00000000000E+00 0. -1.
         22    1    3    3    0    0  0.16620531468E+02  0.41132023510E+02 -0.52642789599E+02  0.68842927894E+02  0.00000000000E+00 0. -1.
</event>
<event>
 7    1  0.5993218E-006  0.1375119E+03  0.7818608E-02  0.1379989E+00
          2   -1    0    0  502    0  0.00000000000E+00  0.00000000000E+00  0.38165095373E+03  0.38165095373E+03  0.00000000000E+00 0. -1.
          1   -1    0    0  501    0 -0.00000000000E+00 -0.00000000000E+00 -0.59275644479E+03  0.59275644479E+03  0.00000000000E+00 0. -1.
         25    2    1    2    0    0 -0.10992403949E+03  0.10530653415E+03  0.22807796119E+03  0.30136885033E+03  0.12502346571E+03 0.  0.
          2    1    1    2  501    0  0.27806475169E+02 -0.11840710991E+02 -0.52245461107E+03  0.52332802631E+03  0.00000000000E+00 0. -1.
          1    1    1    2  502    0  0.82117564319E+02 -0.93465823157E+02  0.83271158823E+02  0.14971052187E+03  0.00000000000E+00 0. -1.
         22    1    3    3    0    0 -0.84831916547E+02  0.13416687065E+03  0.18278666302E+03  0.24209123781E+03  0.00000000000E+00 0.  1.
         22    1    3    3    0    0 -0.25092122941E+02 -0.28860336503E+02  0.45291298172E+02  0.59277612526E+02  0.00000000000E+00 0.  1.
</event>
<event>
 7    1  0.5993218E-006  0.6379402E+02  0.7818608E-02  0.1388475E+00
          2   -1    0    0  502    0  0.00000000000E+00  0.00000000000E+00  0.75342147712E+02  0.75342147712E+02  0.00000000000E+00 0. -1.
          1   -1    0    0  501    0 -0.00000000000E+00 -0.00000000000E+00 -0.71671777007E+03  0.71671777007E+03  0.00000000000E+00 0. -1.
         25    2    1    2    0    0 -0.12808678871E+02  0.39062956844E+02 -0.12583148477E+03  0.18207304884E+03  0.12500822253E+03 0.  0.
          2    1    1    2  501    0 -0.56448553472E+02 -0.22632831460E+02 -0.53319448245E+03  0.53665169372E+03  0.00000000000E+00 0. -1.
          1    1    1    2  502    0  0.69257232343E+02 -0.16430125384E+02  0.17650344868E+02  0.73335175229E+02  0.00000000000E+00 0. -1.
         22    1    3    3    0    0  0.55033517808E+01 -0.29629864459E+02 -0.10313247902E+03  0.10744544652E+03  0.00000000000E+00 0. -1.
         22    1    3    3    0    0 -0.18312030652E+02  0.68692821303E+02 -0.22699005747E+02  0.74627602314E+02  0.00000000000E+00 0. -1.
</event>
<event>
 7    1  0.5993218E-006  0.3241329E+02  0.7818608E-02  0.1645245E+00
          2   -1    0    0  502    0  0.00000000000E+00  0.00000000000E+00  0.70305351407E+03  0.70305351407E+03  0.00000000000E+00 0. -1.
          1   -1    0    0  501    0 -0.00000000000E+00 -0.00000000000E+00 -0.83169179529E+03  0.83169179529E+03  0.00000000000E+00 0. -1.
         25    2    1    2    0    0 -0.24105046027E+02  0.43227835449E+02 -0.16160694472E+03  0.21022301073E+03  0.12500884232E+03 0.  0.
          2    1    1    2  501    0  0.66150173596E+01 -0.31480146985E+02 -0.64521252931E+03  0.64601390549E+03  0.00000000000E+00 0. -1.
          1    1    1    2  502    0  0.17490028667E+02 -0.11747688464E+02  0.67818119281E+03  0.67850839314E+03  0.00000000000E+00 0. -1.
         22    1    3    3    0    0  0.29028721083E+02 -0.31444799144E+02 -0.52507326054E+02  0.67738182218E+02  0.00000000000E+00 0. -1.
         22    1    3    3    0    0 -0.53133767110E+02  0.74672634593E+02 -0.10909961866E+03  0.14248482852E+03  0.00000000000E+00 0. -1.
</event>
<event>
 7    1  0.5993218E-006  0.9849509E+02  0.7818608E-02  0.1322364E+00
          2   -1    0    0  502    0  0.00000000000E+00  0.00000000000E+00  0.25683279152E+04  0.25683279152E+04  0.00000000000E+00 0. -1.
          1   -1    0    0  501    0 -0.00000000000E+00 -0.00000000000E+00 -0.21773971976E+02  0.21773971976E+02  0.00000000000E+00 0. -1.
         25    2    1    2    0    0 -0.92059490736E+02 -0.11846937626E+03  0.97762907277E+03  0.99694198861E+03  0.12499912712E+03 0.  0.
          2    1    1    2  501    0  0.16092984329E+02  0.67037449851E+02  0.10051046476E+03  0.12188255557E+03  0.00000000000E+00 0. -1.
          1    1    1    2  502    0  0.75966506407E+02  0.51431926410E+02  0.14684144057E+04  0.14712773430E+04  0.00000000000E+00 0. -1.
         22    1    3    3    0    0 -0.12099839064E+03 -0.10002038907E+03  0.71175342192E+03  0.72886049583E+03  0.00000000000E+00 0. -1.
         22    1    3    3    0    0  0.28938899903E+02 -0.18448987192E+02  0.26587565085E+03  0.26808149278E+03  0.00000000000E+00 0. -1.
</event>
<event>
 7    1  0.5993218E-006  0.7336792E+02  0.7818608E-02  0.1447580E+00
          2   -1    0    0  502    0  0.00000000000E+00  0.00000000000E+00  0.55597719804E+03  0.55597719804E+03  0.00000000000E+00 0. -1.
          1   -1    0    0  501    0 -0.00000000000E+00 -0.00000000000E+00 -0.46876835264E+02  0.46876835264E+02  0.00000000000E+00 0. -1.
         25    2    1    2    0    0  0.78323875314E+02  0.78501865768E+01  0.28757737535E+03  0.32329803213E+03  0.12499846355E+03 0.  0.
          2    1    1    2  501    0 -0.63125297228E+02 -0.37720528011E+02  0.21316808099E+02  0.76564010416E+02  0.00000000000E+00 0. -1.
          1    1    1    2  502    0 -0.15198578086E+02  0.29870341434E+02  0.20020617933E+03  0.20299199077E+03  0.00000000000E+00 0. -1.
         22    1    3    3    0    0  0.87750106567E+02 -0.41515485037E+02  0.17816538343E+03  0.20289534384E+03  0.00000000000E+00 0.  1.
         22    1    3    3    0    0 -0.94262312534E+01  0.49365671614E+02  0.10941199192E+03  0.12040268829E+03  0.00000000000E+00 0.  1.
</event>
<event>
 7    1  0.5993218E-006  0.1774241E+03  0.7818608E-02  0.1304450E+00
          2   -1    0    0  502    0  0.00000000000E+00  0.00000000000E+00  0.22841937946E+03  0.22841937946E+03  0.00000000000E+00 0. -1.
          1   -1    0    0  501    0 -0.00000000000E+00 -0.00000000000E+00 -0.81071116765E+03  0.81071116765E+03  0.00000000000E+00 0. -1.
         25    2    1    2    0    0 -0.15785459874E+03  0.94271759548E+02 -0.17918245636E+03  0.28554630019E+03  0.12500039156E+03 0.  0.
          2    1    1    2  501    0  0.16945680896E+03 -0.50804165821E+02 -0.56161408461E+03  0.58881835349E+03  0.00000000000E+00 0. -1.
          1    1    1    2  502    0 -0.11602210220E+02 -0.43467593727E+02  0.15850475278E+03  0.16476589344E+03  0.00000000000E+00 0. -1.
         22    1    3    3    0    0 -0.64478901485E+02  0.84339367674E+02 -0.31858052223E+02  0.11084039502E+03  0.00000000000E+00 0.  1.
         22    1    3    3    0    0 -0.93375697257E+02  0.99323918742E+01 -0.14732440414E+03  0.17470590517E+03  0.00000000000E+00 0.  1.
</event>
<event>
 7    1  0.5993218E-006  0.3957812E+02  0.7818608E-02  0.1523675E+00
          2   -1    0    0  502    0  0.00000000000E+00  0.00000000000E+00  0.13929782773E+04  0.13929782773E+04  0.00000000000E+00 0. -1.
          1   -1    0    0  501    0 -0.00000000000E+00 -0.00000000000E+00 -0.39029499785E+02  0.39029499785E+02  0.00000000000E+00 0. -1.
         25    2    1    2    0    0 -0.19395208013E+01  0.40507314596E+01  0.96036807915E+03  0.96847838054E+03  0.12499342367E+03 0.  0.
          2    1    1    2  501    0 -0.66574059831E+01 -0.39456444352E+02 -0.22466558081E+02  0.45889849502E+02  0.00000000000E+00 0. -1.
          1    1    1    2  502    0  0.85969267844E+01  0.35405712892E+02  0.41604725643E+03  0.41763954702E+03  0.00000000000E+00 0. -1.
         22    1    3    3    0    0 -0.45082543864E+02  0.45512725614E+02  0.43003401346E+03  0.43477936552E+03  0.00000000000E+00 0.  1.
         22    1    3    3    0    0  0.43143023063E+02 -0.41461994155E+02  0.53033406569E+03  0.53369901502E+03  0.00000000000E+00 0.  1.
</event>
<event>
 7    1  0.5993218E-006  0.5129464E+02  0.7818608E-02  0.1494954E+00
          2   -1    0    0  502    0  0.00000000000E+00  0.00000000000E+00  0.24408104559E+03  0.24408104559E+03  0.00000000000E+00 0. -1.
          1   -1    0    0  501    0 -0.00000000000E+00 -0.00000000000E+00 -0.78725758025E+03  0.78725758025E+03  0.00000000000E+00 0. -1.
         25    2    1    2    0    0  0.17599413094E+02  0.24712863884E+02 -0.55305714487E+03  0.56781956237E+03  0.12500553961E+03 0.  0.
          2    1    1    2  501    0 -0.40844581342E+02 -0.49744997752E+02 -0.22097064312E+03  0.23015401310E+03  0.00000000000E+00 0. -1.
          1    1    1    2  502    0  0.23245168248E+02  0.25032133867E+02  0.23085125333E+03  0.23336505037E+03  0.00000000000E+00 0. -1.
         22    1    3    3    0    0  0.41565377233E+01  0.39522619446E+02 -0.47781012691E+02  0.62147722625E+02  0.00000000000E+00 0. -1.
         22    1    3    3    0    0  0.13442875370E+02 -0.14809755562E+02 -0.50527613218E+03  0.50567183974E+03  0.00000000000E+00 0. -1.
</event>
<event>
 7    1  0.5993218E-006  0.7655320E+02  0.7818608E-02  0.1360544E+00
          2   -1    0    0  502    0  0.00000000000E+00  0.00000000000E+00  0.24281111262E+04  0.24281111262E+04  0.00000000000E+00 0. -1.
          1   -1    0    0  501    0 -0.00000000000E+00 -0.00000000000E+00 -0.89476816007E+02  0.89476816007E+02  0.00000000000E+00 0. -1.
         25    2    1    2    0    0 -0.45021365336E+02  0.22497385884E+01  0.13055145805E+04  0.13122594400E+04  0.12499813316E+03 0.  0.
          2    1    1    2  501    0 -0.46454947205E+02 -0.43680539624E+02 -0.71700870131E+02  0.95953459756E+02  0.00000000000E+00 0. -1.
          1    1    1    2  502    0  0.91476312540E+02  0.41430801035E+02  0.11048205998E+04  0.11093750424E+04  0.00000000000E+00 0. -1.
         22    1    3    3    0    0 -0.77910503565E+02  0.19688649715E+02  0.11293033989E+04  0.11321589359E+04  0.00000000000E+00 0.  1.
         22    1    3    3    0    0  0.32889138229E+02 -0.17438911127E+02  0.17621118163E+03  0.18010050407E+03  0.00000000000E+00 0.  1.
</event>
<event>
 7    1  0.5993218E-006  0.8985603E+02  0.7818608E-02  0.1321190E+00
          2   -1    0    0  502    0  0.00000000000E+00  0.00000000000E+00  0.55093298533E+03  0.55093298533E+03  0.00000000000E+00 0. -1.
          1   -1    0    0  501    0 -0.00000000000E+00 -0.00000000000E+00 -0.32630498919E+03  0.32630498919E+03  0.00000000000E+00 0. -1.
         25    2    1    2    0    0 -0.27509283364E+02  0.41221881959E+01  0.17408359546E+03  0.21611058626E+03  0.12499973672E+03 0.  0.
          2    1    1    2  501    0 -0.23337315489E+02 -0.86772554758E+02 -0.29178646843E+03  0.30530877766E+03  0.00000000000E+00 0. -1.
          1    1    1    2  502    0  0.50846598852E+02  0.82650366562E+02  0.34233086911E+03  0.35581861061E+03  0.00000000000E+00 0. -1.
         22    1    3    3    0    0  0.38242461100E+02 -0.29778533710E+02  0.10146661682E+03  0.11244874935E+03  0.00000000000E+00 0.  1.
         22    1    3    3    0    0 -0.65751744463E+02  0.33900721906E+02  0.72616978632E+02  0.10366183691E+03  0.00000000000E+00 0.  1.
</event>
<event>
 7    1  0.5993218E-006  0.8625230E+02  0.7818608E-02  0.1403596E+00
          2   -1    0    0  502    0  0.00000000000E+00  0.00000000000E+00  0.65391302078E+03  0.65391302078E+03  0.00000000000E+00 0. -1.
          1   -1    0    0  501    0 -0.00000000000E+00 -0.00000000000E+00 -0.84483273495E+03  0.84483273495E+03  0.00000000000E+00 0. -1.
         25    2    1    2    0    0  0.82903787031E+02 -0.47725742485E+02  0.38615201570E+03  0.41700058908E+03  0.12500131066E+03 0.  0.
          2    1    1    2  501    0  0.13045255639E+01  0.39856567293E+02 -0.82182464834E+03  0.82279158987E+03  0.00000000000E+00 0. -1.
          1    1    1    2  502    0 -0.84208312595E+02  0.78691751918E+01  0.24475291847E+03  0.25895357678E+03  0.00000000000E+00 0. -1.
         22    1    3    3    0    0  0.59821691489E+01  0.37328826451E+02  0.14686460696E+03  0.15165236698E+03  0.00000000000E+00 0.  1.
         22    1    3    3    0    0  0.76921617882E+02 -0.85054568935E+02  0.23928740873E+03  0.26534822210E+03  0.00000000000E+00 0.  1.
</event>
<event>
 7    1  0.5993218E-006  0.1375629E+03  0.7818608E-02  0.1264143E+00
          2   -1    0    0  502    0  0.00000000000E+00  0.00000000000E+00  0.19809056421E+04  0.19809056421E+04  0.00000000000E+00 0. -1.
          1   -1    0    0  501    0 -0.00000000000E+00 -0.00000000000E+00 -0.96391788235E+02  0.96391788235E+02  0.00000000000E+00 0. -1.
         25    2    1    2    0    0 -0.90101270115E+01  0.71264720735E+02  0.27459544598E+03  0.31013917977E+03  0.12499523618E+03 0.  0.
          2    1    1    2  501    0  0.42599401889E+02 -0.14927725921E+03  0.23627846291E+00  0.15523680293E+03  0.00000000000E+00 0. -1.
          1    1    1    2  502    0 -0.33589274877E+02  0.78012538470E+02  0.16096821294E+04  0.16119214476E+04  0.00000000000E+00 0. -1.
         22    1    3    3    0    0  0.42399784239E+02  0.49736524039E+02  0.22895662056E+03  0.23810207396E+03  0.00000000000E+00 0.  1.
         22    1    3    3    0    0 -0.51409911251E+02  0.21528196696E+02  0.45638825417E+02  0.72037105809E+02  0.00000000000E+00 0.  1.
</event>
<event>
 7    1  0.5993218E-006  0.1741283E+03  0.7818608E-02  0.1257487E+00
          2   -1    0    0  502    0  0.00000000000E+00  0.00000000000E+00  0.72432121092E+03  0.72432121092E+03  0.00000000000E+00 0. -1.
          1   -1    0    0  501    0 -0.00000000000E+00 -0.00000000000E+00 -0.68692113928E+03  0.68692113928E+03  0.00000000000E+00 0. -1.
         25    2    1    2    0    0  0.12120369893E+03  0.76561620766E+02 -0.25880891159E+03  0.32118378298E+03  0.12499980529E+03 0.  0.
          2    1    1    2  501    0 -0.21654924453E+02  0.68277953149E+02 -0.38240482126E+03  0.38905560266E+03  0.00000000000E+00 0. -1.
          1    1    1    2  502    0 -0.99548774477E+02 -0.14483957392E+03  0.67861380449E+03  0.70100296456E+03  0.00000000000E+00 0. -1.
         22    1    3    3    0    0  0.89554302397E+02  0.97187285269E+02 -0.12414354570E+03  0.18132005249E+03  0.00000000000E+00 0.  1.
         22    1    3    3    0    0  0.31649396533E+02 -0.20625664503E+02 -0.13466536589E+03  0.13986373049E+03  0.00000000000E+00 0.  1.
</event>
<event>
 7    1  0.5993218E-006  0.1171587E+03  0.7818608E-02  0.1307276E+00
          2   -1    0    0  502    0  0.00000000000E+00  0.00000000000E+00  0.12161517693E+04  0.12161517693E+04  0.00000000000E+00 0. -1.
          1   -1    0    0  501    0 -0.00000000000E+00 -0.00000000000E+00 -0.13446117313E+04  0.13446117313E+04  0.00000000000E+00 0. -1.
         25    2    1    2    0    0 -0.42024145128E+02  0.98030319625E+02  0.18158738043E+03  0.24489638900E+03  0.12499716907E+03 0.  0.
          2    1    1    2  501    0  0.98803556115E+02 -0.63614158985E+02 -0.13092238805E+04  0.13144870001E+04  0.00000000000E+00 0. -1.
          1    1    1    2  502    0 -0.56779410986E+02 -0.34416160640E+02  0.99917653811E+03  0.10013801116E+04  0.00000000000E+00 0. -1.
         22    1    3    3    0    0 -0.10149987347E+02  0.11517389099E+03  0.90325197793E+02  0.14671976269E+03  0.00000000000E+00 0. -1.
         22    1    3    3    0    0 -0.31874157781E+02 -0.17143571364E+02  0.91262182641E+02  0.98176626310E+02  0.00000000000E+00 0. -1.
</event>
<event>
 7    1  0.5993218E-006  0.1033139E+03  0.7818608E-02  0.1438680E+00
          2   -1    0    0  502    0  0.00000000000E+00  0.00000000000E+00  0.17310250827E+04  0.17310250827E+04  0.00000000000E+00 0. -1.
          1   -1    0    0  501    0 -0.00000000000E+00 -0.00000000000E+00 -0.10767541487E+03  0.10767541487E+03  0.00000000000E+00 0. -1.
         25    2    1    2    0    0 -0.38044431286E+02 -0.91024903385E+02  0.19275658011E+03  0.25002631378E+03  0.12500058649E+03 0.  0.
          2    1    1    2  501    0  0.62409141001E+02  0.83743531955E+02 -0.44382146899E+02  0.11347975585E+03  0.00000000000E+00 0. -1.
          1    1    1    2  502    0 -0.24364709716E+02  0.72813714306E+01  0.14749752346E+04  0.14751944279E+04  0.00000000000E+00 0. -1.
         22    1    3    3    0    0 -0.69259825131E+02 -0.18490049651E+02  0.51746931499E+02  0.88411256257E+02  0.00000000000E+00 0.  1.
         22    1    3    3    0    0  0.31215393846E+02 -0.72534853734E+02  0.14100964861E+03  0.16161505753E+03  0.00000000000E+00 0.  1.
</event>
<event>
 7    1  0.5993218E-006  0.8635182E+02  0.7818608E-02  0.1342556E+00
          2   -1    0    0  502    0  0.00000000000E+00  0.00000000000E+00  0.44604963801E+03  0.44604963801E+03  0.00000000000E+00 0. -1.
          1   -1    0    0  501    0 -0.00000000000E+00 -0.00000000000E+00 -0.42902978732E+03  0.42902978732E+03  0.00000000000E+00 0. -1.
         25    2    1    2    0    0 -0.12122351807E+03  0.88011160303E+02  0.28197584111E+03  0.34290381147E+03  0.12502617037E+03 0.  0.
          2    1    1    2  501    0  0.62408872766E+02 -0.58322677931E+02 -0.38547418158E+03  0.39482495720E+03  0.00000000000E+00 0. -1.
          1    1    1    2  502    0  0.58814645300E+02 -0.29688482372E+02  0.12051819115E+03  0.13735065666E+03  0.00000000000E+00 0. -1.
         22    1    3    3    0    0 -0.26045019834E+02 -0.21643103318E+02  0.11225037844E+02  0.35675880564E+02  0.00000000000E+00 0. -1.
         22    1    3    3    0    0 -0.95178498231E+02  0.10965426362E+03  0.27075080327E+03  0.30722793090E+03  0.00000000000E+00 0. -1.
</event>
<event>
 7    1  0.5993218E-006  0.7947829E+02  0.7818608E-02  0.1408484E+00
          2   -1    0    0  502    0  0.00000000000E+00  0.00000000000E+00  0.33556035150E+03  0.33556035150E+03  0.00000000000E+00 0. -1.
          1   -1    0    0  501    0 -0.00000000000E+00 -0.00000000000E+00 -0.87333868532E+03  0.87333868532E+03  0.00000000000E+00 0. -1.
         25    2    1    2    0    0  0.40231145469E+02  0.21874079555E+02 -0.29428590025E+03  0.32299437205E+03  0.12499661143E+03 0.  0.
          2    1    1    2  501    0 -0.76789487043E+02 -0.41824710305E+02 -0.55994095428E+03  0.56672727479E+03  0.00000000000E+00 0. -1.
          1    1    1    2  502    0  0.36558341574E+02  0.19950630750E+02  0.31644852072E+03  0.31917738997E+03  0.00000000000E+00 0. -1.
         22    1    3    3    0    0  0.55083951051E+02  0.11291697478E+02 -0.42335838158E+02  0.70385135418E+02  0.00000000000E+00 0. -1.
         22    1    3    3    0    0 -0.14852805582E+02  0.10582382077E+02 -0.25195006209E+03  0.25260923663E+03  0.00000000000E+00 0. -1.
</event>
<event>
 7    1  0.5993218E-006  0.1353854E+03  0.7818608E-02  0.1384886E+00
          2   -1    0    0  502    0  0.00000000000E+00  0.00000000000E+00  0.16863044444E+04  0.16863044444E+04  0.00000000000E+00 0. -1.
          1   -1    0    0  501    0 -0.00000000000E+00 -0.00000000000E+00 -0.13876294400E+04  0.13876294400E+04  0.00000000000E+00 0. -1.
         25    2    1    2    0    0  0.13169650279E+03  0.85528482073E+02  0.18179851753E+02  0.20153269519E+03  0.12500332048E+03 0.  0.
          2    1    1    2  501    0 -0.29417624979E+02  0.21978868540E+01 -0.12929050654E+04  0.12932415612E+04  0.00000000000E+00 0. -1.
          1    1    1    2  502    0 -0.10227887781E+03 -0.87726368926E+02  0.15734002180E+04  0.15791596280E+04  0.00000000000E+00 0. -1.
         22    1    3    3    0    0  0.96226587608E+02  0.73423345500E+02 -0.44118794356E+02  0.12882939045E+03  0.00000000000E+00 0.  1.
         22    1    3    3    0    0  0.35469915182E+02  0.12105136572E+02  0.62298646109E+02  0.72703304749E+02  0.00000000000E+00 0.  1.
</event>
<event>
 7    1  0.5993218E-006  0.1026364E+03  0.7818608E-02  0.1443454E+00
          2   -1    0    0  502    0  0.00000000000E+00  0.00000000000E+00  0.49294529359E+02  0.49294529359E+02  0.00000000000E+00 0. -1.
          1   -1    0    0  501    0 -0.00000000000E+00 -0.00000000000E+00 -0.25922618184E+04  0.25922618184E+04  0.00000000000E+00 0. -1.
         25    2    1    2    0    0 -0.71981293072E+02 -0.36874231562E+02 -0.20713129400E+03  0.25508636630E+03  0.12499866325E+03 0.  0.
          2    1    1    2  501    0  0.86913445144E+02  0.56551777637E+02 -0.23537016597E+04  0.23559846251E+04  0.00000000000E+00 0. -1.
          1    1    1    2  502    0 -0.14932152072E+02 -0.19677546074E+02  0.17865664633E+02  0.30485356449E+02  0.00000000000E+00 0. -1.
         22    1    3    3    0    0 -0.84583398704E+02 -0.37313194743E+02 -0.66475970475E+02  0.11386694204E+03  0.00000000000E+00 0.  1.
         22    1    3    3    0    0  0.12602105632E+02  0.43896318050E+00 -0.14065532352E+03  0.14121942427E+03  0.00000000000E+00 0.  1.
</event>
<event>
 7    1  0.5993218E-006  0.7682169E+02  0.7818608E-02  0.1377788E+00
          2   -1    0    0  502    0  0.00000000000E+00  0.00000000000E+00  0.50685117037E+03  0.50685117037E+03  0.00000000000E+00 0. -1.
          1   -1    0    0  501    0 -0.00000000000E+00 -0.00000000000E+00 -0.12784052978E+03  0.12784052978E+03  0.00000000000E+00 0. -1.
         25    2    1    2    0    0  0.11912399693E+03  0.92729784890E+00  0.50303890615E+02  0.17985042288E+03  0.12499722666E+03 0.  0.
          2    1    1    2  501    0 -0.48622992846E+02 -0.25877422740E+02 -0.46604623244E+02  0.72151419589E+02  0.00000000000E+00 0. -1.
          1    1    1    2  502    0 -0.70501004086E+02  0.24950124891E+02  0.37531137322E+03  0.38268985769E+03  0.00000000000E+00 0. -1.
         22    1    3    3    0    0  0.10773682093E+03  0.40446515343E+01  0.88743394457E+02  0.13963871902E+03  0.00000000000E+00 0.  1.
         22    1    3    3    0    0  0.11387175999E+02 -0.31173536854E+01 -0.38439503842E+02  0.40211703854E+02  0.00000000000E+00 0.  1.
</event>
<event>
 7    1  0.5993218E-006  0.1121400E+03  0.7818608E-02  0.1314373E+00
          2   -1    0    0  502    0  0.00000000000E+00  0.00000000000E+00  0.63913132466E+03  0.63913132466E+03  0.00000000000E+00 0. -1.
          1   -1    0    0  501    0 -0.00000000000E+00 -0.00000000000E+00 -0.54404577556E+03  0.54404577556E+03  0.00000000000E+00 0. -1.
         25    2    1    2    0    0  0.15417340016E+02 -0.16654047439E+03 -0.47442340332E+01  0.20885321252E+03  0.12499493045E+03 0.  0.
          2    1    1    2  501    0  0.18303394094E+02  0.62417740228E+02 -0.42919514985E+03  0.43409614740E+03  0.00000000000E+00 0. -1.
          1    1    1    2  502    0 -0.33720734110E+02  0.10412273417E+03  0.52902493298E+03  0.54022774030E+03  0.00000000000E+00 0. -1.
         22    1    3    3    0    0 -0.39404367297E+02 -0.13157700191E+03  0.20948689721E+02  0.13893904849E+03  0.00000000000E+00 0.  1.
         22    1    3    3    0    0  0.54821707314E+02 -0.34963472482E+02 -0.25692923754E+02  0.69914164028E+02  0.00000000000E+00 0.  1.
</event>
<event>
 7    1  0.5993218E-006  0.8394423E+02  0.7818608E-02  0.1477013E+00
          2   -1    0    0  502    0  0.00000000000E+00  0.00000000000E+00  0.43746406055E+03  0.43746406055E+03  0.00000000000E+00 0. -1.
          1   -1    0    0  501    0 -0.00000000000E+00 -0.00000000000E+00 -0.90692460633E+03  0.90692460633E+03  0.00000000000E+00 0. -1.
         25    2    1    2    0    0  0.52179482154E+02  0.88189508122E+02  0.29021874112E+03  0.33219301400E+03  0.12500077260E+03 0.  0.
          2    1    1    2  501    0 -0.53485324911E+02 -0.64555944300E+02 -0.88282462991E+03  0.88679618690E+03  0.00000000000E+00 0. -1.
          1    1    1    2  502    0  0.13058427570E+01 -0.23633563822E+02  0.12314534301E+03  0.12539946598E+03  0.00000000000E+00 0. -1.
         22    1    3    3    0    0  0.60604962931E+01  0.51340296776E+02  0.19724050048E+02  0.55331671208E+02  0.00000000000E+00 0.  1.
         22    1    3    3    0    0  0.46118985860E+02  0.36849211346E+02  0.27049469107E+03  0.27686134279E+03  0.00000000000E+00 0.  1.
</event>
<event>
 7    1  0.5993218E-006  0.6514486E+02  0.7818608E-02  0.1387526E+00
          2   -1    0    0  502    0  0.00000000000E+00  0.00000000000E+00  0.73662474894E+03  0.73662474894E+03  0.00000000000E+00 0. -1.
          1   -1    0    0  501    0 -0.00000000000E+00 -0.00000000000E+00 -0.10148427943E+04  0.10148427943E+04  0.00000000000E+00 0. -1.
         25    2    1    2    0    0  0.17203510169E+02 -0.73220737558E+02 -0.87485203969E+02  0.17010248560E+03  0.12499583003E+03 0.  0.
          2    1    1    2  501    0  0.39170106227E+02  0.52639930554E+02 -0.88353522959E+03  0.88596826210E+03  0.00000000000E+00 0. -1.
          1    1    1    2  502    0 -0.56373616396E+02  0.20580807004E+02  0.69280238817E+03  0.69539679557E+03  0.00000000000E+00 0. -1.
         22    1    3    3    0    0  0.60420347060E+02 -0.63387213864E+00 -0.46280450106E+02  0.76111104280E+02  0.00000000000E+00 0.  1.
         22    1    3    3    0    0 -0.43216836891E+02 -0.72586865420E+02 -0.41204753863E+02  0.93991381324E+02  0.00000000000E+00 0.  1.
</event>
<event>
 7    1  0.5993218E-006  0.1059126E+03  0.7818608E-02  0.1375887E+00
          2   -1    0    0  502    0  0.00000000000E+00  0.00000000000E+00  0.24525841577E+03  0.24525841577E+03  0.00000000000E+00 0. -1.
          1   -1    0    0  501    0 -0.00000000000E+00 -0.00000000000E+00 -0.12133394803E+04  0.12133394803E+04  0.00000000000E+00 0. -1.
         25    2    1    2    0    0  0.56549846189E+02  0.11100606548E+03 -0.28676147443E+03  0.33671760797E+03  0.12500549037E+03 0.  0.
          2    1    1    2  501    0 -0.16784797681E+02 -0.10292193053E+03 -0.89668345165E+03  0.90272690537E+03  0.00000000000E+00 0. -1.
          1    1    1    2  502    0 -0.39765048507E+02 -0.80841349540E+01  0.21536386153E+03  0.21915338275E+03  0.00000000000E+00 0. -1.
         22    1    3    3    0    0  0.83919130422E+02  0.97987472354E+02 -0.15573201707E+03  0.20222864864E+03  0.00000000000E+00 0.  1.
         22    1    3    3    0    0 -0.27369284233E+02  0.13018593126E+02 -0.13102945736E+03  0.13448895933E+03  0.00000000000E+00 0.  1.
</event>
<event>
 7    1  0.5993218E-006  0.1806711E+03  0.7818608E-02  0.1174397E+00
          2   -1    0    0  502    0  0.00000000000E+00  0.00000000000E+00  0.37416428220E+03  0.37416428220E+03  0.00000000000E+00 0. -1.
          1   -1    0    0  501    0 -0.00000000000E+00 -0.00000000000E+00 -0.59368675364E+03  0.59368675364E+03  0.00000000000E+00 0. -1.
         25    2    1    2    0    0  0.69386899153E+02  0.18435289567E+02 -0.63410862785E+01  0.14429042253E+03  0.12500045993E+03 0.  0.
          2    1    1    2  501    0 -0.21583470156E+03  0.60419980467E+02 -0.46820702154E+03  0.51908863160E+03  0.00000000000E+00 0. -1.
          1    1    1    2  502    0  0.14644780240E+03 -0.78855270033E+02  0.25502563637E+03  0.30447198171E+03  0.00000000000E+00 0. -1.
         22    1    3    3    0    0 -0.24579162450E+02 -0.28481888194E+02 -0.10885418463E+02  0.39164339863E+02  0.00000000000E+00 0.  1.
         22    1    3    3    0    0  0.93966061603E+02  0.46917177761E+02  0.45443321847E+01  0.10512608267E+03  0.00000000000E+00 0.  1.
</event>
<event>
 7    1  0.5993218E-006  0.5712441E+02  0.7818608E-02  0.1431620E+00
          2   -1    0    0  502    0  0.00000000000E+00  0.00000000000E+00  0.59178178231E+03  0.59178178231E+03  0.00000000000E+00 0. -1.
          1   -1    0    0  501    0 -0.00000000000E+00 -0.00000000000E+00 -0.48670801596E+03  0.48670801596E+03  0.00000000000E+00 0. -1.
         25    2    1    2    0    0 -0.20994919615E+02  0.30824050017E+02 -0.13541815021E+03  0.18802695016E+03  0.12500059949E+03 0.  0.
          2    1    1    2  501    0  0.43120637123E+02  0.22201497807E+02 -0.32170353049E+03  0.32533898842E+03  0.00000000000E+00 0. -1.
          1    1    1    2  502    0 -0.22125717509E+02 -0.53025547823E+02  0.56219544706E+03  0.56512385969E+03  0.00000000000E+00 0. -1.
         22    1    3    3    0    0 -0.18295695784E+02  0.10270242150E+02 -0.15682814154E+03  0.15822539725E+03  0.00000000000E+00 0. -1.
         22    1    3    3    0    0 -0.26992238309E+01  0.20553807866E+02  0.21409991328E+02  0.29801552909E+02  0.00000000000E+00 0. -1.
</event>
<event>
 7    1  0.5993218E-006  0.4103867E+02  0.7818608E-02  0.1594916E+00
          2   -1    0    0  502    0  0.00000000000E+00  0.00000000000E+00  0.82967769241E+03  0.82967769241E+03  0.00000000000E+00 0. -1.
          1   -1    0    0  501    0 -0.00000000000E+00 -0.00000000000E+00 -0.19041972855E+04  0.19041972855E+04  0.00000000000E+00 0. -1.
         25    2    1    2    0    0  0.42011580273E+01 -0.62708220700E+02  0.20329003569E+03  0.24678691788E+03  0.12500789396E+03 0.  0.
          2    1    1    2  501    0  0.11433871552E+01  0.41001355131E+02 -0.18820186763E+04  0.18824655950E+04  0.00000000000E+00 0. -1.
          1    1    1    2  502    0 -0.53445451825E+01  0.21706865568E+02  0.60420904749E+03  0.60462246505E+03  0.00000000000E+00 0. -1.
         22    1    3    3    0    0  0.19931046649E+02 -0.12291526825E+01  0.17695803674E+03  0.17808117307E+03  0.00000000000E+00 0.  1.
         22    1    3    3    0    0 -0.15729888621E+02 -0.61479068017E+02  0.26331998950E+02  0.68705744803E+02  0.00000000000E+00 0.  1.
</event>
<event>
 7    1  0.5993218E-006  0.8777602E+02  0.7818608E-02  0.1322657E+00
          2   -1    0    0  502    0  0.00000000000E+00  0.00000000000E+00  0.29688159685E+03  0.29688159685E+03  0.00000000000E+00 0. -1.
          1   -1    0    0  501    0 -0.00000000000E+00 -0.00000000000E+00 -0.57431171001E+03  0.57431171001E+03  0.00000000000E+00 0. -1.
         25    2    1    2    0    0  0.12191491511E+03 -0.14921516628E+02 -0.69581568114E+02  0.18855479768E+03  0.12500167568E+03 0.  0.
          2    1    1    2  501    0 -0.47727655441E+02  0.60627295669E+02 -0.43372632514E+03  0.44053617695E+03  0.00000000000E+00 0. -1.
          1    1    1    2  502    0 -0.74187259664E+02 -0.45705779041E+02  0.22587778010E+03  0.24210233224E+03  0.00000000000E+00 0. -1.
         22    1    3    3    0    0  0.10666511563E+03  0.10976901343E+02 -0.99403308186E+02  0.14621544697E+03  0.00000000000E+00 0.  1.
         22    1    3    3    0    0  0.15249799480E+02 -0.25898417972E+02  0.29821740072E+02  0.42339350710E+02  0.00000000000E+00 0.  1.
</event>
<event>
 7    1  0.6217562E-006  0.7079900E+02  0.7818608E-02  0.1473443E+00
          2   -1    0    0  502    0  0.00000000000E+00  0.00000000000E+00  0.18268898877E+04  0.18268898877E+04  0.00000000000E+00 0. -1.
          1   -1    0    0  501    0 -0.00000000000E+00 -0.00000000000E+00 -0.85065583081E+03  0.85065583081E+03  0.00000000000E+00 0. -1.
         25    2    1    2    0    0  0.52138560846E+02 -0.38790237893E+01 -0.15558609073E+03  0.20630948164E+03  0.12499237670E+03 0.  0.
          2    1    1    2  501    0  0.12079895936E+02 -0.26128512915E+02 -0.66870102978E+03  0.66932031965E+03  0.00000000000E+00 0. -1.
          1    1    1    2  502    0 -0.64218456781E+02  0.30007536704E+02  0.18005211774E+04  0.18019159172E+04  0.00000000000E+00 0. -1.
         22    1    3    3    0    0 -0.14276073841E+02  0.46881748923E+02 -0.37876923411E+02  0.61938404834E+02  0.00000000000E+00 0. -1.
         22    1    3    3    0    0  0.66414634687E+02 -0.50760772712E+02 -0.11770916732E+03  0.14437107681E+03  0.00000000000E+00 0. -1.
</event>
<event>
 7    1  0.5993218E-006  0.4901181E+02  0.7818608E-02  0.1575895E+00
          2   -1    0    0  502    0  0.00000000000E+00  0.00000000000E+00  0.73729614151E+03  0.73729614151E+03  0.00000000000E+00 0. -1.
          1   -1    0    0  501    0 -0.00000000000E+00 -0.00000000000E+00 -0.68872189338E+03  0.68872189338E+03  0.00000000000E+00 0. -1.
         25    2    1    2    0    0 -0.33475030188E+02 -0.12401249170E+02  0.61067787285E+03  0.62436128615E+03  0.12500073051E+03 0.  0.
          2    1    1    2  501    0  0.36010203453E+02  0.33281628515E+02 -0.68006717046E+03  0.68183264654E+03  0.00000000000E+00 0. -1.
          1    1    1    2  502    0 -0.25351732650E+01 -0.20880379344E+02  0.11796354574E+03  0.11982410220E+03  0.00000000000E+00 0. -1.
         22    1    3    3    0    0  0.98156923288E+00  0.54082639817E+02  0.21828040686E+03  0.22488270593E+03  0.00000000000E+00 0. -1.
         22    1    3    3    0    0 -0.34456599421E+02 -0.66483888987E+02  0.39239746599E+03  0.39947858022E+03  0.00000000000E+00 0. -1.
</event>
<event>
 7    1  0.5993218E-006  0.1377860E+03  0.7818608E-02  0.1330407E+00
          2   -1    0    0  502    0  0.00000000000E+00  0.00000000000E+00  0.44093802133E+03  0.44093802133E+03  0.00000000000E+00 0. -1.
          1   -1    0    0  501    0 -0.00000000000E+00 -0.00000000000E+00 -0.15123469121E+03  0.15123469121E+03  0.00000000000E+00 0. -1.
         25    2    1    2    0    0 -0.84676873057E+02  0.82387655489E+02  0.17050753325E+03  0.24219226660E+03  0.12500550586E+03 0.  0.
          2    1    1    2  501    0  0.97794663013E+00  0.45887757636E+02 -0.83881400318E+02  0.95617634356E+02  0.00000000000E+00 0. -1.
          1    1    1    2  502    0  0.83698926427E+02 -0.12827541312E+03  0.20307719719E+03  0.25436281158E+03  0.00000000000E+00 0. -1.
         22    1    3    3    0    0  0.10124188561E+02 -0.25878139207E+02  0.33141342664E+02  0.43249576603E+02  0.00000000000E+00 0. -1.
         22    1    3    3    0    0 -0.94801061618E+02  0.10826579470E+03  0.13736619059E+03  0.19894268999E+03  0.00000000000E+00 0. -1.
</event>
<event>
 7    1  0.5993218E-006  0.2343356E+03  0.7818608E-02  0.1365121E+00
          2   -1    0    0  502    0  0.00000000000E+00  0.00000000000E+00  0.11041854714E+04  0.11041854714E+04  0.00000000000E+00 0. -1.
          1   -1    0    0  501    0 -0.00000000000E+00 -0.00000000000E+00 -0.79501694502E+03  0.79501694502E+03  0.00000000000E+00 0. -1.
         25    2    1    2    0    0  0.20824745123E+03  0.14001102342E+03 -0.32084832798E+02  0.28217857471E+03  0.12500089563E+03 0.  0.
          2    1    1    2  501    0 -0.19485742777E+03 -0.12508970233E+03 -0.61676339157E+03  0.65879733755E+03  0.00000000000E+00 0. -1.
          1    1    1    2  502    0 -0.13390023463E+02 -0.14921321087E+02  0.95801675076E+03  0.95822650417E+03  0.00000000000E+00 0. -1.
         22    1    3    3    0    0  0.19452555275E+03  0.96743207830E+02 -0.64238607653E+02  0.22655250528E+03  0.00000000000E+00 0. -1.
         22    1    3    3    0    0  0.13721898481E+02  0.43267815590E+02  0.32153774854E+02  0.55626069439E+02  0.00000000000E+00 0. -1.
</event>
<event>
 7    1  0.5993218E-006  0.1091794E+03  0.7818608E-02  0.1351975E+00
          2   -1    0    0  502    0  0.00000000000E+00  0.00000000000E+00  0.19756537189E+04  0.19756537189E+04  0.00000000000E+00 0. -1.
          1   -1    0    0  501    0 -0.00000000000E+00 -0.00000000000E+00 -0.49381691661E+03  0.49381691661E+03  0.00000000000E+00 0. -1.
         25    2    1    2    0    0 -0.59067399251E+02  0.68329649589E+02  0.13963830827E+03  0.20804211702E+03  0.12499906659E+03 0.  0.
          2    1    1    2  501    0  0.29469375125E+02 -0.10620484838E+03 -0.45268095494E+03  0.46590552782E+03  0.00000000000E+00 0. -1.
          1    1    1    2  502    0  0.29598024126E+02  0.37875198787E+02  0.17948794489E+04  0.17955229906E+04  0.00000000000E+00 0. -1.
         22    1    3    3    0    0  0.13234573644E+02  0.14006050780E+02  0.11175680048E+03  0.11340593393E+03  0.00000000000E+00 0.  1.
         22    1    3    3    0    0 -0.72301972895E+02  0.54323598809E+02  0.27881507792E+02  0.94636183085E+02  0.00000000000E+00 0.  1.
</event>
<event>
 7    1  0.5993218E-006  0.1354331E+03  0.7818608E-02  0.1321893E+00
          2   -1    0    0  502    0  0.00000000000E+00  0.00000000000E+00  0.27793383534E+03  0.27793383534E+03  0.00000000000E+00 0. -1.
          1   -1    0    0  501    0 -0.00000000000E+00 -0.00000000000E+00 -0.26452401801E+03  0.26452401801E+03  0.00000000000E+00 0. -1.
         25    2    1    2    0    0  0.46419301588E+01  0.11098673292E+03  0.33703346716E+02  0.17059625808E+03  0.12501026073E+03 0.  0.
          2    1    1    2  501    0  0.40305117457E+02  0.30175359780E+02 -0.16030313282E+03  0.16802425189E+03  0.00000000000E+00 0. -1.
          1    1    1    2  502    0 -0.44947047615E+02 -0.14116209270E+03  0.14000960344E+03  0.20383734339E+03  0.00000000000E+00 0. -1.
         22    1    3    3    0    0 -0.45714515058E+02  0.68413392306E+02 -0.20999362075E+02  0.84918680756E+02  0.00000000000E+00 0.  1.
         22    1    3    3    0    0  0.50356445217E+02  0.42573340619E+02  0.54702708791E+02  0.85677577320E+02  0.00000000000E+00 0.  1.
</event>
<event>
 7    1  0.5993218E-006  0.1172301E+03  0.7818608E-02  0.1417609E+00
          2   -1    0    0  502    0  0.00000000000E+00  0.00000000000E+00  0.24331030797E+04  0.24331030797E+04  0.00000000000E+00 0. -1.
          1   -1    0    0  501    0 -0.00000000000E+00 -0.00000000000E+00 -0.41148411259E+02  0.41148411259E+02  0.00000000000E+00 0. -1.
         25    2    1    2    0    0 -0.89038115425E+02  0.98535256758E+02  0.67837883023E+03  0.70246616476E+03  0.12499556999E+03 0.  0.
          2    1    1    2  501    0 -0.42639188209E+00 -0.26300206768E+02 -0.20842061762E+02  0.33560009305E+02  0.00000000000E+00 0. -1.
          1    1    1    2  502    0  0.89464507307E+02 -0.72235049990E+02  0.17344179000E+04  0.17382253169E+04  0.00000000000E+00 0. -1.
         22    1    3    3    0    0 -0.63158957603E+02  0.78060833124E+02  0.20838691838E+03  0.23131721801E+03  0.00000000000E+00 0. -1.
         22    1    3    3    0    0 -0.25879157822E+02  0.20474423634E+02  0.46999191184E+03  0.47114894676E+03  0.00000000000E+00 0. -1.
</event>
<event>
 7    1  0.5993218E-006  0.5656582E+02  0.7818608E-02  0.1540255E+00
          2   -1    0    0  502    0  0.00000000000E+00  0.00000000000E+00  0.96903392198E+03  0.96903392198E+03  0.00000000000E+00 0. -1.
          1   -1    0    0  501    0 -0.00000000000E+00 -0.00000000000E+00 -0.23896473688E+03  0.23896473688E+03  0.00000000000E+00 0. -1.
         25    2    1    2    0    0  0.52741843393E+02  0.59042836155E+02  0.61872469232E+03  0.63617117698E+03  0.12500305193E+03 0.  0.
          2    1    1    2  501    0 -0.39108054617E+02 -0.40696178750E+02 -0.22639037250E+03  0.23331999413E+03  0.00000000000E+00 0. -1.
          1    1    1    2  502    0 -0.13633788776E+02 -0.18346657405E+02  0.33773486528E+03  0.33850748774E+03  0.00000000000E+00 0. -1.
         22    1    3    3    0    0  0.19235981787E+02 -0.43440500909E+01  0.80470086756E+01  0.21299016764E+02  0.00000000000E+00 0.  1.
         22    1    3    3    0    0  0.33505861606E+02  0.63386886246E+02  0.61067768365E+03  0.61487216022E+03  0.00000000000E+00 0.  1.
</event>
<event>
 7    1  0.5993218E-006  0.6512691E+02  0.7818608E-02  0.1518749E+00
          2   -1    0    0  502    0  0.00000000000E+00  0.00000000000E+00  0.10814504422E+04  0.10814504422E+04  0.00000000000E+00 0. -1.
          1   -1    0    0  501    0 -0.00000000000E+00 -0.00000000000E+00 -0.98357248893E+03  0.98357248893E+03  0.00000000000E+00 0. -1.
         25    2    1    2    0    0 -0.62971282007E+02 -0.58369359524E+02  0.92360004185E+03  0.93596746661E+03  0.12500278701E+03 0.  0.
          2    1    1    2  501    0  0.53036621608E+02  0.37756956336E+02 -0.97543443613E+03  0.97760462876E+03  0.00000000000E+00 0. -1.
          1    1    1    2  502    0  0.99346603988E+01  0.20612403188E+02  0.14971234756E+03  0.15145083576E+03  0.00000000000E+00 0. -1.
         22    1    3    3    0    0 -0.82479440470E+02 -0.84299574010E+02  0.67014370799E+03  0.68044240435E+03  0.00000000000E+00 0.  1.
         22    1    3    3    0    0  0.19508158462E+02  0.25930214486E+02  0.25345633385E+03  0.25552506225E+03  0.00000000000E+00 0.  1.
</event>
<event>
 7    1  0.5993218E-006  0.7832745E+02  0.7818608E-02  0.1384754E+00
          2   -1    0    0  502    0  0.00000000000E+00  0.00000000000E+00  0.44141561138E+02  0.44141561138E+02  0.00000000000E+00 0. -1.
          1   -1    0    0  501    0 -0.00000000000E+00 -0.00000000000E+00 -0.52767236349E+03  0.52767236349E+03  0.00000000000E+00 0. -1.
         25    2    1    2    0    0  0.55893516857E+01  0.18144830942E+02 -0.15459100109E+03  0.19971345691E+03  0.12500644588E+03 0.  0.
          2    1    1    2  501    0  0.66456035720E+02  0.41458233635E+02 -0.12148234136E+03  0.14454462661E+03  0.00000000000E+00 0. -1.
          1    1    1    2  502    0 -0.72045387405E+02 -0.59603064576E+02 -0.20745745991E+03  0.22755584111E+03  0.00000000000E+00 0. -1.
         22    1    3    3    0    0 -0.45149142803E+02  0.49035475245E+02 -0.73966887673E+02  0.99569189011E+02  0.00000000000E+00 0.  1.
         22    1    3    3    0    0  0.50738494489E+02 -0.30890644304E+02 -0.80624113419E+02  0.10014426790E+03  0.00000000000E+00 0.  1.
</event>
<event>
 7    1  0.5993218E-006  0.2266813E+03  0.7818608E-02  0.1243032E+00
          2   -1    0    0  502    0  0.00000000000E+00  0.00000000000E+00  0.77875833718E+03  0.77875833718E+03  0.00000000000E+00 0. -1.
          1   -1    0    0  501    0 -0.00000000000E+00 -0.00000000000E+00 -0.31523259345E+03  0.31523259345E+03  0.00000000000E+00 0. -1.
         25    2    1    2    0    0  0.26015810328E+03  0.68703874645E+02  0.14617340888E+03  0.33074810478E+03  0.12500072903E+03 0.  0.
          2    1    1    2  501    0 -0.61013508233E+02  0.17836084022E+02 -0.19589697947E+03  0.20595242326E+03  0.00000000000E+00 0. -1.
          1    1    1    2  502    0 -0.19914459505E+03 -0.86539958667E+02  0.51324931431E+03  0.55729040260E+03  0.00000000000E+00 0. -1.
         22    1    3    3    0    0  0.22823219653E+03  0.55409981415E+02  0.16896889645E+03  0.28932799647E+03  0.00000000000E+00 0.  1.
         22    1    3    3    0    0  0.31925906746E+02  0.13293893230E+02 -0.22795487567E+02  0.41420108307E+02  0.00000000000E+00 0.  1.
</event>
<event>
 7    1  0.5993218E-006  0.5609136E+02  0.7818608E-02  0.1451536E+00
          2   -1    0    0  502    0  0.00000000000E+00  0.00000000000E+00  0.13179782928E+04  0.13179782928E+04  0.00000000000E+00 0. -1.
          1   -1    0    0  501    0 -0.00000000000E+00 -0.00000000000E+00 -0.45232577212E+02  0.45232577212E+02  0.00000000000E+00 0. -1.
         25    2    1    2    0    0  0.33579633171E+02  0.76982269506E+02  0.49050679814E+03  0.51310097812E+03  0.12498733193E+03 0.  0.
          2    1    1    2  501    0  0.29583410671E+01 -0.55123305273E+02 -0.10530398578E+02  0.56198041427E+02  0.00000000000E+00 0. -1.
          1    1    1    2  502    0 -0.36537974238E+02 -0.21858964233E+02  0.79276931606E+03  0.79391185050E+03  0.00000000000E+00 0. -1.
         22    1    3    3    0    0  0.75366309416E+02  0.31104292529E+02  0.19885990335E+03  0.21492514690E+03  0.00000000000E+00 0. -1.
         22    1    3    3    0    0 -0.41786676245E+02  0.45877976977E+02  0.29164689479E+03  0.29817583122E+03  0.00000000000E+00 0. -1.
</event>
<event>
 7    1  0.5993218E-006  0.2172371E+03  0.7818608E-02  0.1286444E+00
          2   -1    0    0  502    0  0.00000000000E+00  0.00000000000E+00  0.99497830092E+02  0.99497830092E+02  0.00000000000E+00 0. -1.
          1   -1    0    0  501    0 -0.00000000000E+00 -0.00000000000E+00 -0.86422372157E+03  0.86422372157E+03  0.00000000000E+00 0. -1.
         25    2    1    2    0    0  0.17163375177E+03  0.10250028582E+03 -0.57740403357E+03  0.62368477243E+03  0.12499129588E+03 0.  0.
          2    1    1    2  501    0 -0.29425316833E+01  0.43330749745E+02 -0.83381710275E+02  0.94014477473E+02  0.00000000000E+00 0. -1.
          1    1    1    2  502    0 -0.16869122009E+03 -0.14583103557E+03 -0.10394014764E+03  0.24602230176E+03  0.00000000000E+00 0. -1.
         22    1    3    3    0    0  0.17449963179E+03  0.81028185797E+02 -0.56865869699E+03  0.60032358112E+03  0.00000000000E+00 0. -1.
         22    1    3    3    0    0 -0.28658800122E+01  0.21472100027E+02 -0.87453365798E+01  0.23361191316E+02  0.00000000000E+00 0. -1.
</event>
<event>
 7    1  0.5993218E-006  0.2148553E+03  0.7818608E-02  0.1309037E+00
          2   -1    0    0  502    0  0.00000000000E+00  0.00000000000E+00  0.24735003484E+04  0.24735003484E+04  0.00000000000E+00 0. -1.
          1   -1    0    0  501    0 -0.00000000000E+00 -0.00000000000E+00 -0.57542990000E+03  0.57542990000E+03  0.00000000000E+00 0. -1.
         25    2    1    2    0    0  0.17990466367E+03  0.19631394907E+02  0.45862573441E+03  0.50863846895E+03  0.12499779261E+03 0.  0.
          2    1    1    2  501    0 -0.21552509280E+03 -0.18839050139E+02 -0.52899702067E+03  0.57152762253E+03  0.00000000000E+00 0. -1.
          1    1    1    2  502    0  0.35620429127E+02 -0.79234476771E+00  0.19684417347E+04  0.19687641569E+04  0.00000000000E+00 0. -1.
         22    1    3    3    0    0  0.12366814480E+03 -0.45966910226E+02  0.24642834868E+03  0.27952405605E+03  0.00000000000E+00 0. -1.
         22    1    3    3    0    0  0.56236518866E+02  0.65598305133E+02  0.21219738573E+03  0.22911441291E+03  0.00000000000E+00 0. -1.
</event>
<event>
 7    1  0.5993218E-006  0.1306743E+03  0.7818608E-02  0.1400414E+00
          2   -1    0    0  502    0  0.00000000000E+00  0.00000000000E+00  0.19324033607E+04  0.19324033607E+04  0.00000000000E+00 0. -1.
          1   -1    0    0  501    0 -0.00000000000E+00 -0.00000000000E+00 -0.18732495990E+03  0.18732495990E+03  0.00000000000E+00 0. -1.
         25    2    1    2    0    0 -0.12614178993E+03 -0.20592835648E+02 -0.59196624164E+02  0.18829274488E+03  0.12495639806E+03 0.  0.
          2    1    1    2  501    0 -0.44970026933E+01  0.26613934289E+02 -0.58315790490E+02  0.64259286893E+02  0.00000000000E+00 0. -1.
          1    1    1    2  502    0  0.13063879262E+03 -0.60210986414E+01  0.18625908155E+04  0.18671762888E+04  0.00000000000E+00 0. -1.
         22    1    3    3    0    0 -0.10383443600E+03  0.35586220903E+02 -0.97439085920E+01  0.11019488632E+03  0.00000000000E+00 0.  1.
         22    1    3    3    0    0 -0.22307353930E+02 -0.56179056551E+02 -0.49452715573E+02  0.78097858561E+02  0.00000000000E+00 0.  1.
</event>
<event>
 7    1  0.5993218E-006  0.7048982E+02  0.7818608E-02  0.1370873E+00
          2   -1    0    0  502    0  0.00000000000E+00  0.00000000000E+00  0.13107675925E+04  0.13107675925E+04  0.00000000000E+00 0. -1.
          1   -1    0    0  501    0 -0.00000000000E+00 -0.00000000000E+00 -0.24731055627E+03  0.24731055627E+03  0.00000000000E+00 0. -1.
         25    2    1    2    0    0  0.89151023090E+02 -0.76581604928E+02  0.22689190063E+03  0.28445911988E+03  0.12499763669E+03 0.  0.
          2    1    1    2  501    0 -0.62203780026E+02  0.12966163893E+02 -0.21274793201E+03  0.22203403845E+03  0.00000000000E+00 0. -1.
          1    1    1    2  502    0 -0.26947243064E+02  0.63615441035E+02  0.10493130676E+04  0.10515849904E+04  0.00000000000E+00 0. -1.
         22    1    3    3    0    0  0.37616095016E+02  0.14292625618E+02  0.67713978105E+01  0.40805656221E+02  0.00000000000E+00 0. -1.
         22    1    3    3    0    0  0.51534928074E+02 -0.90874230547E+02  0.22012050282E+03  0.24365346365E+03  0.00000000000E+00 0. -1.
</event>
<event>
 7    1  0.5993218E-006  0.7696208E+02  0.7818608E-02  0.1379644E+00
          2   -1    0    0  502    0  0.00000000000E+00  0.00000000000E+00  0.80313500111E+03  0.80313500111E+03  0.00000000000E+00 0. -1.
          1   -1    0    0  501    0 -0.00000000000E+00 -0.00000000000E+00 -0.84057867563E+02  0.84057867563E+02  0.00000000000E+00 0. -1.
         25    2    1    2    0    0  0.19349750519E+01 -0.47959230870E+02  0.22888703554E+03  0.26517502743E+03  0.12499875271E+03 0.  0.
          2    1    1    2  501    0  0.51616984692E+02 -0.16374877719E+02 -0.51003245385E+02  0.74389386130E+02  0.00000000000E+00 0. -1.
          1    1    1    2  502    0 -0.53551959744E+02  0.64334108589E+02  0.54119334339E+03  0.54762845511E+03  0.00000000000E+00 0. -1.
         22    1    3    3    0    0  0.62693621865E+02 -0.15076480370E+02  0.11982019934E+03  0.13606862479E+03  0.00000000000E+00 0.  1.
         22    1    3    3    0    0 -0.60758646813E+02 -0.32882750501E+02  0.10906683620E+03  0.12910640264E+03  0.00000000000E+00 0.  1.
</event>
<event>
 7    1  0.5993218E-006  0.9173899E+02  0.7818608E-02  0.1460695E+00
          2   -1    0    0  502    0  0.00000000000E+00  0.00000000000E+00  0.95403886632E+03  0.95403886632E+03  0.00000000000E+00 0. -1.
          1   -1    0    0  501    0 -0.00000000000E+00 -0.00000000000E+00 -0.12389185547E+04  0.12389185547E+04  0.00000000000E+00 0. -1.
         25    2    1    2    0    0 -0.23150977516E+02 -0.10670716582E+03  0.17825946996E+03  0.24356420039E+03  0.12499877633E+03 0.  0.
          2    1    1    2  501    0  0.41235703898E+01  0.91514854873E+02 -0.12043267438E+04  0.12078058115E+04  0.00000000000E+00 0. -1.
          1    1    1    2  502    0  0.19027407126E+02  0.15192310951E+02  0.74118758546E+03  0.74158740912E+03  0.00000000000E+00 0. -1.
         22    1    3    3    0    0 -0.15714591716E+02 -0.13482326247E+03  0.15699100455E+03  0.20753418033E+03  0.00000000000E+00 0.  1.
         22    1    3    3    0    0 -0.74363858000E+01  0.28116096648E+02  0.21268465404E+02  0.36030020054E+02  0.00000000000E+00 0.  1.
</event>
<event>
 7    1  0.5993218E-006  0.1604053E+03  0.7818608E-02  0.1339041E+00
          2   -1    0    0  502    0  0.00000000000E+00  0.00000000000E+00  0.77356614128E+02  0.77356614128E+02  0.00000000000E+00 0. -1.
          1   -1    0    0  501    0 -0.00000000000E+00 -0.00000000000E+00 -0.15567346991E+04  0.15567346991E+04  0.00000000000E+00 0. -1.
         25    2    1    2    0    0  0.14746133547E+03  0.21615735256E+02 -0.47501624408E+03  0.51330603799E+03  0.12502228214E+03 0.  0.
          2    1    1    2  501    0  0.15879373647E+02 -0.32934037761E+02 -0.94638540605E+03  0.94709141171E+03  0.00000000000E+00 0. -1.
          1    1    1    2  502    0 -0.16334070912E+03  0.11318302505E+02 -0.57976434829E+02  0.17369386351E+03  0.00000000000E+00 0. -1.
         22    1    3    3    0    0  0.10017200167E+03  0.16694694269E+02 -0.44641754873E+03  0.45782285936E+03  0.00000000000E+00 0. -1.
         22    1    3    3    0    0  0.47289333802E+02  0.49210409860E+01 -0.28598695349E+02  0.55483178636E+02  0.00000000000E+00 0. -1.
</event>
<event>
 7    1  0.5993218E-006  0.8182930E+02  0.7818608E-02  0.1352646E+00
          2   -1    0    0  502    0  0.00000000000E+00  0.00000000000E+00  0.29433923908E+04  0.29433923908E+04  0.00000000000E+00 0. -1.
          1   -1    0    0  501    0 -0.00000000000E+00 -0.00000000000E+00 -0.17283968676E+03  0.17283968676E+03  0.00000000000E+00 0. -1.
         25    2    1    2    0    0 -0.57385208185E+02 -0.19814657495E+02  0.19631011491E+03  0.24051778863E+03  0.12500185063E+03 0.  0.
          2    1    1    2  501    0  0.31307352741E+02  0.78008711138E+02 -0.13861358400E+03  0.16210871358E+03  0.00000000000E+00 0. -1.
          1    1    1    2  502    0  0.26077855443E+02 -0.58194053643E+02  0.27128561731E+04  0.27136055753E+04  0.00000000000E+00 0. -1.
         22    1    3    3    0    0  0.21653033618E+02 -0.12887801197E+02  0.14235734438E+03  0.14457026936E+03  0.00000000000E+00 0. -1.
         22    1    3    3    0    0 -0.79038241803E+02 -0.69268562978E+01  0.53952770525E+02  0.95947519263E+02  0.00000000000E+00 0. -1.
</event>
<event>
 7    1  0.5993218E-006  0.6794966E+02  0.7818608E-02  0.1465856E+00
          2   -1    0    0  502    0  0.00000000000E+00  0.00000000000E+00  0.13465959943E+04  0.13465959943E+04  0.00000000000E+00 0. -1.
          1   -1    0    0  501    0 -0.00000000000E+00 -0.00000000000E+00 -0.47312651526E+03  0.47312651526E+03  0.00000000000E+00 0. -1.
         25    2    1    2    0    0  0.18457356096E+02 -0.45914630179E+02 -0.25293604193E+03  0.28644533728E+03  0.12500185072E+03 0.  0.
          2    1    1    2  501    0 -0.46416164519E+02  0.60788070179E+02 -0.19605098617E+03  0.21044153340E+03  0.00000000000E+00 0. -1.
          1    1    1    2  502    0  0.27958808424E+02 -0.14873440001E+02  0.13224565072E+04  0.13228356389E+04  0.00000000000E+00 0. -1.
         22    1    3    3    0    0  0.26521996337E+02 -0.87800426839E+02 -0.17680166440E+03  0.19917620284E+03  0.00000000000E+00 0. -1.
         22    1    3    3    0    0 -0.80646402411E+01  0.41885796660E+02 -0.76134377538E+02  0.87269134447E+02  0.00000000000E+00 0. -1.
</event>
<event>
 7    1  0.5993218E-006  0.1357323E+03  0.7818608E-02  0.1281855E+00
          2   -1    0    0  502    0  0.00000000000E+00  0.00000000000E+00  0.98555850383E+03  0.98555850383E+03  0.00000000000E+00 0. -1.
          1   -1    0    0  501    0 -0.00000000000E+00 -0.00000000000E+00 -0.14956677949E+04  0.14956677949E+04  0.00000000000E+00 0. -1.
         25    2    1    2    0    0 -0.39225151525E+02  0.19519653145E+03 -0.27722601285E+03  0.36347888220E+03  0.12498934834E+03 0.  0.
          2    1    1    2  501    0  0.40324120712E+02 -0.60361527560E+02 -0.11693610006E+04  0.11716120085E+04  0.00000000000E+00 0. -1.
          1    1    1    2  502    0 -0.10989691869E+01 -0.13483500389E+03  0.93647772234E+03  0.94613540809E+03  0.00000000000E+00 0. -1.
         22    1    3    3    0    0  0.38739933730E+02  0.41067197561E+02 -0.36616645367E+02  0.67290979328E+02  0.00000000000E+00 0.  1.
         22    1    3    3    0    0 -0.77965085255E+02  0.15412933389E+03 -0.24060936749E+03  0.29618790287E+03  0.00000000000E+00 0.  1.
</event>
<event>
 7    1  0.5993218E-006  0.3957814E+02  0.7818608E-02  0.1550473E+00
          2   -1    0    0  502    0  0.00000000000E+00  0.00000000000E+00  0.21443938621E+03  0.21443938621E+03  0.00000000000E+00 0. -1.
          1   -1    0    0  501    0 -0.00000000000E+00 -0.00000000000E+00 -0.70902398076E+02  0.70902398076E+02  0.00000000000E+00 0. -1.
         25    2    1    2    0    0 -0.18214373265E+02 -0.60111317794E+01  0.71819152716E+02  0.14543226475E+03  0.12499862333E+03 0.  0.
          2    1    1    2  501    0  0.39981134962E+02 -0.15469532653E+02 -0.16963207336E+02  0.46103665759E+02  0.00000000000E+00 0. -1.
          1    1    1    2  502    0 -0.21766761697E+02  0.21480664433E+02  0.88681042755E+02  0.93805853780E+02  0.00000000000E+00 0. -1.
         22    1    3    3    0    0  0.38721479699E+02  0.37921625421E+02  0.25548897985E+02  0.59917850870E+02  0.00000000000E+00 0.  1.
         22    1    3    3    0    0 -0.56935852964E+02 -0.43932757200E+02  0.46270254731E+02  0.85514413877E+02  0.00000000000E+00 0.  1.
</event>
<event>
 7    1  0.5993218E-006  0.2375832E+03  0.7818608E-02  0.1351092E+00
          2   -1    0    0  502    0  0.00000000000E+00  0.00000000000E+00  0.74924102596E+03  0.74924102596E+03  0.00000000000E+00 0. -1.
          1   -1    0    0  501    0 -0.00000000000E+00 -0.00000000000E+00 -0.67481771882E+03  0.67481771882E+03  0.00000000000E+00 0. -1.
         25    2    1    2    0    0 -0.21676494244E+03  0.10956363873E+03 -0.14259783466E+03  0.30813872021E+03  0.12499638890E+03 0.  0.
          2    1    1    2  501    0  0.21905555230E+03 -0.87425778487E+02 -0.41829853013E+03  0.48021064341E+03  0.00000000000E+00 0. -1.
          1    1    1    2  502    0 -0.22906098571E+01 -0.22137860243E+02  0.63531967194E+03  0.63570938116E+03  0.00000000000E+00 0. -1.
         22    1    3    3    0    0 -0.10357558229E+03  0.48012352360E+02 -0.13815418860E+03  0.17921960566E+03  0.00000000000E+00 0.  1.
         22    1    3    3    0    0 -0.11318936015E+03  0.61551286370E+02 -0.44436460652E+01  0.12891911455E+03  0.00000000000E+00 0.  1.
</event>
<event>
 7    1  0.5993218E-006  0.2088370E+03  0.7818608E-02  0.1242020E+00
          2   -1    0    0  502    0  0.00000000000E+00  0.00000000000E+00  0.90327181242E+03  0.90327181242E+03  0.00000000000E+00 0. -1.
          1   -1    0    0  501    0 -0.00000000000E+00 -0.00000000000E+00 -0.31117512550E+03  0.31117512550E+03  0.00000000000E+00 0. -1.
         25    2    1    2    0    0 -0.59172096006E+02  0.17420967589E+03  0.23804135896E+03  0.32579034932E+03  0.12500126006E+03 0.  0.
          2    1    1    2  501    0 -0.69272626398E+02  0.77802662805E+01 -0.24226300042E+03  0.25209242488E+03  0.00000000000E+00 0. -1.
          1    1    1    2  502    0  0.12844472240E+03 -0.18198994217E+03  0.59631832838E+03  0.63656416372E+03  0.00000000000E+00 0. -1.
         22    1    3    3    0    0 -0.85660548913E+02  0.96423176150E+02  0.19286633986E+03  0.23201849838E+03  0.00000000000E+00 0. -1.
         22    1    3    3    0    0  0.26488452906E+02  0.77786499736E+02  0.45175019102E+02  0.93771850943E+02  0.00000000000E+00 0. -1.
</event>
<event>
 7    1  0.5993218E-006  0.2145615E+03  0.7818608E-02  0.1282499E+00
          2   -1    0    0  502    0  0.00000000000E+00  0.00000000000E+00  0.46350868201E+03  0.46350868201E+03  0.00000000000E+00 0. -1.
          1   -1    0    0  501    0 -0.00000000000E+00 -0.00000000000E+00 -0.17412571169E+04  0.17412571169E+04  0.00000000000E+00 0. -1.
         25    2    1    2    0    0  0.28827546105E+01 -0.21242559747E+03 -0.11248889223E+04  0.11515785762E+04  0.12500073955E+03 0.  0.
          2    1    1    2  501    0  0.45526912023E+02  0.32380964298E+01 -0.57646654184E+03  0.57827057581E+03  0.00000000000E+00 0. -1.
          1    1    1    2  502    0 -0.48409666634E+02  0.20918750104E+03  0.42360702918E+03  0.47491664699E+03  0.00000000000E+00 0. -1.
         22    1    3    3    0    0  0.61979340737E+02 -0.96881247327E+02 -0.46157092189E+03  0.47568385582E+03  0.00000000000E+00 0. -1.
         22    1    3    3    0    0 -0.59096586126E+02 -0.11554435014E+03 -0.66331800039E+03  0.67589472034E+03  0.00000000000E+00 0. -1.
</event>
<event>
 7    1  0.5993218E-006  0.5777490E+02  0.7818608E-02  0.1513849E+00
          2   -1    0    0  502    0  0.00000000000E+00  0.00000000000E+00  0.25854264857E+03  0.25854264857E+03  0.00000000000E+00 0. -1.
          1   -1    0    0  501    0 -0.00000000000E+00 -0.00000000000E+00 -0.73522140843E+02  0.73522140843E+02  0.00000000000E+00 0. -1.
         25    2    1    2    0    0  0.45280717331E+02  0.12335917389E+02  0.91125183048E+02  0.16165144998E+03  0.12499949630E+03 0.  0.
          2    1    1    2  501    0  0.14695258688E+02 -0.22240437760E+02 -0.25211716866E+02  0.36690848546E+02  0.00000000000E+00 0. -1.
          1    1    1    2  502    0 -0.59975976019E+02  0.99045203710E+01  0.11910704155E+03  0.13372249089E+03  0.00000000000E+00 0. -1.
         22    1    3    3    0    0 -0.30473157149E+02  0.41552967031E+02  0.26902119580E+02  0.58129049653E+02  0.00000000000E+00 0.  1.
         22    1    3    3    0    0  0.75753874481E+02 -0.29217049642E+02  0.64223063468E+02  0.10352240033E+03  0.00000000000E+00 0.  1.
</event>
<event>
 7    1  0.5993218E-006  0.7227118E+02  0.7818608E-02  0.1432300E+00
          2   -1    0    0  502    0  0.00000000000E+00  0.00000000000E+00  0.35568636718E+03  0.35568636718E+03  0.00000000000E+00 0. -1.
          1   -1    0    0  501    0 -0.00000000000E+00 -0.00000000000E+00 -0.64025786295E+03  0.64025786295E+03  0.00000000000E+00 0. -1.
         25    2    1    2    0    0 -0.79221787388E+02 -0.73236932240E+02 -0.95481876649E+02  0.19074349839E+03  0.12500621412E+03 0.  0.
          2    1    1    2  501    0  0.55439338315E+02  0.43421058314E+02 -0.49345538024E+03  0.49845473297E+03  0.00000000000E+00 0. -1.
          1    1    1    2  502    0  0.23782449073E+02  0.29815873926E+02  0.30436576111E+03  0.30674599877E+03  0.00000000000E+00 0. -1.
         22    1    3    3    0    0 -0.12394065509E+02  0.30533502363E+02  0.26505985124E+01  0.33059541722E+02  0.00000000000E+00 0. -1.
         22    1    3    3    0    0 -0.66827721880E+02 -0.10377043460E+03 -0.98132475161E+02  0.15768395667E+03  0.00000000000E+00 0. -1.
</event>
<event>
 7    1  0.5993218E-006  0.7304997E+02  0.7818608E-02  0.1480513E+00
          2   -1    0    0  502    0  0.00000000000E+00  0.00000000000E+00  0.13352293894E+04  0.13352293894E+04  0.00000000000E+00 0. -1.
          1   -1    0    0  501    0 -0.00000000000E+00 -0.00000000000E+00 -0.60778812827E+02  0.60778812827E+02  0.00000000000E+00 0. -1.
         25    2    1    2    0    0  0.86500956487E+02  0.19126116908E+02  0.41028150560E+03  0.43795747772E+03  0.12501045810E+03 0.  0.
          2    1    1    2  501    0 -0.64072833430E+02 -0.33305052253E+02 -0.18851171574E+02  0.74631904432E+02  0.00000000000E+00 0. -1.
          1    1    1    2  502    0 -0.22428123057E+02  0.14178935345E+02  0.88302024250E+03  0.88341882003E+03  0.00000000000E+00 0. -1.
         22    1    3    3    0    0 -0.13366338555E+02 -0.27172790789E+02  0.18223281120E+03  0.18473174346E+03  0.00000000000E+00 0. -1.
         22    1    3    3    0    0  0.99867295042E+02  0.46298907697E+02  0.22804869440E+03  0.25322573426E+03  0.00000000000E+00 0. -1.
</event>
<event>
 7    1  0.5993218E-006  0.4985029E+02  0.7818608E-02  0.1540630E+00
          2   -1    0    0  502    0  0.00000000000E+00  0.00000000000E+00  0.21452319343E+04  0.21452319343E+04  0.00000000000E+00 0. -1.
          1   -1    0    0  501    0 -0.00000000000E+00 -0.00000000000E+00 -0.16050841027E+02  0.16050841027E+02  0.00000000000E+00 0. -1.
         25    2    1    2    0    0  0.24678586924E+02 -0.57880073457E+02  0.84028960270E+03  0.85186096636E+03  0.12498541532E+03 0.  0.
          2    1    1    2  501    0  0.10559925576E+02  0.23620884919E+02  0.72940564014E+01  0.26882363946E+02  0.00000000000E+00 0. -1.
          1    1    1    2  502    0 -0.35238512500E+02  0.34259188538E+02  0.12815974342E+04  0.12825394450E+04  0.00000000000E+00 0. -1.
         22    1    3    3    0    0  0.69984480910E+01 -0.94471129799E+02  0.47777805113E+03  0.48707867823E+03  0.00000000000E+00 0.  1.
         22    1    3    3    0    0  0.17680138833E+02  0.36591056342E+02  0.36251155157E+03  0.36478228813E+03  0.00000000000E+00 0.  1.
</event>
<event>
 7    1  0.5993218E-006  0.1786231E+03  0.7818608E-02  0.1256019E+00
          2   -1    0    0  502    0  0.00000000000E+00  0.00000000000E+00  0.20714947803E+04  0.20714947803E+04  0.00000000000E+00 0. -1.
          1   -1    0    0  501    0 -0.00000000000E+00 -0.00000000000E+00 -0.15652832820E+04  0.15652832820E+04  0.00000000000E+00 0. -1.
         25    2    1    2    0    0  0.93142603333E+02 -0.56318365439E+02  0.40132665683E+03  0.43420651371E+03  0.12499963289E+03 0.  0.
          2    1    1    2  501    0 -0.15701742554E+03  0.86967179422E+02 -0.15428793160E+04  0.15532850176E+04  0.00000000000E+00 0. -1.
          1    1    1    2  502    0  0.63874822211E+02 -0.30648813983E+02  0.16477641575E+04  0.16492865310E+04  0.00000000000E+00 0. -1.
         22    1    3    3    0    0 -0.17641312822E+01  0.34318987307E+02  0.76026344628E+02  0.83432068933E+02  0.00000000000E+00 0. -1.
         22    1    3    3    0    0  0.94906734616E+02 -0.90637352746E+02  0.32530031220E+03  0.35077444477E+03  0.00000000000E+00 0. -1.
</event>
<event>
 7    1  0.5993218E-006  0.1658491E+03  0.7818608E-02  0.1267275E+00
          2   -1    0    0  502    0  0.00000000000E+00  0.00000000000E+00  0.11110177750E+04  0.11110177750E+04  0.00000000000E+00 0. -1.
          1   -1    0    0  501    0 -0.00000000000E+00 -0.00000000000E+00 -0.65461698208E+03  0.65461698208E+03  0.00000000000E+00 0. -1.
         25    2    1    2    0    0 -0.84273882298E+02  0.70108862605E+02  0.59755249768E+02  0.17667218876E+03  0.12500013021E+03 0.  0.
          2    1    1    2  501    0  0.15174238858E+03 -0.80949594594E+02 -0.58253911236E+03  0.60739641650E+03  0.00000000000E+00 0. -1.
          1    1    1    2  502    0 -0.67468506281E+02  0.10840731989E+02  0.97918465556E+03  0.98156615187E+03  0.00000000000E+00 0. -1.
         22    1    3    3    0    0  0.19350959280E+02 -0.20595039002E+02  0.14137589862E+02  0.31598840226E+02  0.00000000000E+00 0.  1.
         22    1    3    3    0    0 -0.10362484158E+03  0.90703901606E+02  0.45617659906E+02  0.14507334853E+03  0.00000000000E+00 0.  1.
</event>
<event>
 7    1  0.5993218E-006  0.1163366E+03  0.7818608E-02  0.1398872E+00
          2   -1    0    0  502    0  0.00000000000E+00  0.00000000000E+00  0.23377514096E+04  0.23377514096E+04  0.00000000000E+00 0. -1.
          1   -1    0    0  501    0 -0.00000000000E+00 -0.00000000000E+00 -0.66547545247E+02  0.66547545247E+02  0.00000000000E+00 0. -1.
         25    2    1    2    0    0 -0.82293035658E+02  0.36068594729E+02  0.77322263226E+03  0.78839796104E+03  0.12500007480E+03 0.  0.
          2    1    1    2  501    0  0.11297625237E+03 -0.35414576041E+02  0.79432161848E+00  0.11839956394E+03  0.00000000000E+00 0. -1.
          1    1    1    2  502    0 -0.30683216710E+02 -0.65401868802E+00  0.14971869105E+04  0.14975014299E+04  0.00000000000E+00 0. -1.
         22    1    3    3    0    0  0.12565179163E+02  0.80013479368E+01  0.45297335671E+03  0.45321823351E+03  0.00000000000E+00 0. -1.
         22    1    3    3    0    0 -0.94858214821E+02  0.28067246792E+02  0.32024927554E+03  0.33517972753E+03  0.00000000000E+00 0. -1.
</event>
<event>
 7    1  0.5993218E-006  0.3849306E+02  0.7818608E-02  0.1525265E+00
          2   -1    0    0  502    0  0.00000000000E+00  0.00000000000E+00  0.28431362571E+03  0.28431362571E+03  0.00000000000E+00 0. -1.
          1   -1    0    0  501    0 -0.00000000000E+00 -0.00000000000E+00 -0.24946810720E+03  0.24946810720E+03  0.00000000000E+00 0. -1.
         25    2    1    2    0    0  0.15071149195E+02 -0.12913784435E+01  0.74837930321E+02  0.14647875424E+03  0.12500600958E+03 0.  0.
          2    1    1    2  501    0 -0.93218636516E+01  0.37910376431E+02 -0.20984864795E+03  0.21344917154E+03  0.00000000000E+00 0. -1.
          1    1    1    2  502    0 -0.57492855438E+01 -0.36618997987E+02  0.16985623614E+03  0.17385380713E+03  0.00000000000E+00 0. -1.
         22    1    3    3    0    0 -0.29041720217E+02  0.49069445463E+02  0.21716550715E+02  0.61015084743E+02  0.00000000000E+00 0. -1.
         22    1    3    3    0    0  0.44112869413E+02 -0.50360823907E+02  0.53121379606E+02  0.85463669496E+02  0.00000000000E+00 0. -1.
</event>
<event>
 7    1  0.5993218E-006  0.4217967E+02  0.7818608E-02  0.1548070E+00
          2   -1    0    0  502    0  0.00000000000E+00  0.00000000000E+00  0.10011508328E+04  0.10011508328E+04  0.00000000000E+00 0. -1.
          1   -1    0    0  501    0 -0.00000000000E+00 -0.00000000000E+00 -0.78793566518E+02  0.78793566518E+02  0.00000000000E+00 0. -1.
         25    2    1    2    0    0  0.11737716815E+02 -0.19050062902E+02  0.16497786180E+03  0.20819098292E+03  0.12500044636E+03 0.  0.
          2    1    1    2  501    0 -0.17358892672E+02 -0.23407597081E+02 -0.52871780611E+02  0.60371118433E+02  0.00000000000E+00 0. -1.
          1    1    1    2  502    0  0.56211758570E+01  0.42457659982E+02  0.81025118512E+03  0.81138229800E+03  0.00000000000E+00 0. -1.
         22    1    3    3    0    0 -0.53817781849E+02  0.97248501574E+01  0.60711535786E+02  0.81711791873E+02  0.00000000000E+00 0. -1.
         22    1    3    3    0    0  0.65555498664E+02 -0.28774913059E+02  0.10426632601E+03  0.12647919104E+03  0.00000000000E+00 0. -1.
</event>
<event>
 7    1  0.5993218E-006  0.1828827E+03  0.7818608E-02  0.1214142E+00
          2   -1    0    0  502    0  0.00000000000E+00  0.00000000000E+00  0.24165440031E+04  0.24165440031E+04  0.00000000000E+00 0. -1.
          1   -1    0    0  501    0 -0.00000000000E+00 -0.00000000000E+00 -0.15043766334E+04  0.15043766334E+04  0.00000000000E+00 0. -1.
         25    2    1    2    0    0  0.14255244331E+03  0.71305813112E+02  0.11141951393E+02  0.20286674629E+03  0.12500022237E+03 0.  0.
          2    1    1    2  501    0  0.40335300207E+02 -0.98297708378E+02 -0.14028024683E+04  0.14068205788E+04  0.00000000000E+00 0. -1.
          1    1    1    2  502    0 -0.18288774352E+03  0.26991895266E+02  0.23038278865E+04  0.23112333114E+04  0.00000000000E+00 0. -1.
         22    1    3    3    0    0  0.14455450005E+03  0.14020267576E+02  0.87595145852E+01  0.14549673702E+03  0.00000000000E+00 0. -1.
         22    1    3    3    0    0 -0.20020567432E+01  0.57285545536E+02  0.23824368078E+01  0.57370009271E+02  0.00000000000E+00 0. -1.
</event>
<event>
 7    1  0.5993218E-006  0.8285337E+02  0.7818608E-02  0.1353835E+00
          2   -1    0    0  502    0  0.00000000000E+00  0.00000000000E+00  0.17234731357E+04  0.17234731357E+04  0.00000000000E+00 0. -1.
          1   -1    0    0  501    0 -0.00000000000E+00 -0.00000000000E+00 -0.12403993835E+03  0.12403993835E+03  0.00000000000E+00 0. -1.
         25    2    1    2    0    0  0.43571746063E+02  0.72561858054E+02  0.52428193827E+03  0.54558278069E+03  0.12500119798E+03 0.  0.
          2    1    1    2  501    0  0.18138557883E+02 -0.81463409126E+02 -0.97091014001E+02  0.12803108727E+03  0.00000000000E+00 0. -1.
          1    1    1    2  502    0 -0.61710303946E+02  0.89015510720E+01  0.11722422731E+04  0.11738992061E+04  0.00000000000E+00 0. -1.
         22    1    3    3    0    0  0.86479571890E+02  0.33189287906E+02  0.33130096688E+03  0.34400665087E+03  0.00000000000E+00 0.  1.
         22    1    3    3    0    0 -0.42907825828E+02  0.39372570148E+02  0.19298097139E+03  0.20157612983E+03  0.00000000000E+00 0.  1.
</event>
<event>
 7    1  0.5993218E-006  0.9376751E+02  0.7818608E-02  0.1386505E+00
          2   -1    0    0  502    0  0.00000000000E+00  0.00000000000E+00  0.10790493139E+04  0.10790493139E+04  0.00000000000E+00 0. -1.
          1   -1    0    0  501    0 -0.00000000000E+00 -0.00000000000E+00 -0.33520305979E+02  0.33520305979E+02  0.00000000000E+00 0. -1.
         25    2    1    2    0    0 -0.24911008540E+02 -0.70644279147E+02  0.39423364513E+03  0.42030629193E+03  0.12500415816E+03 0.  0.
          2    1    1    2  501    0 -0.41741068887E+02 -0.49937263742E+01  0.10158586876E+02  0.43248711221E+02  0.00000000000E+00 0. -1.
          1    1    1    2  502    0  0.66652077427E+02  0.75638005521E+02  0.64113677596E+03  0.64901461678E+03  0.00000000000E+00 0. -1.
         22    1    3    3    0    0 -0.48307417350E+02 -0.11219552694E+01  0.54905466506E+02  0.73140109426E+02  0.00000000000E+00 0. -1.
         22    1    3    3    0    0  0.23396408810E+02 -0.69522323878E+02  0.33932817862E+03  0.34716618250E+03  0.00000000000E+00 0. -1.
</event>
<event>
 7    1  0.5993218E-006  0.1022445E+03  0.7818608E-02  0.1321552E+00
          2   -1    0    0  502    0  0.00000000000E+00  0.00000000000E+00  0.22715431805E+04  0.22715431805E+04  0.00000000000E+00 0. -1.
          1   -1    0    0  501    0 -0.00000000000E+00 -0.00000000000E+00 -0.11125695003E+04  0.11125695003E+04  0.00000000000E+00 0. -1.
         25    2    1    2    0    0 -0.26210565268E+02 -0.16546001473E+03  0.25639403233E+02  0.21058428019E+03  0.12499739941E+03 0.  0.
          2    1    1    2  501    0  0.18214852556E+02  0.64367992893E+02 -0.10178045992E+04  0.10200005988E+04  0.00000000000E+00 0. -1.
          1    1    1    2  502    0  0.79957127112E+01  0.10109202184E+03  0.21511388762E+04  0.21535278018E+04  0.00000000000E+00 0. -1.
         22    1    3    3    0    0 -0.66725383717E+00 -0.17500361583E+03  0.40357191609E+02  0.17959792230E+03  0.00000000000E+00 0.  1.
         22    1    3    3    0    0 -0.25543311430E+02  0.95436010952E+01 -0.14717788375E+02  0.30986357891E+02  0.00000000000E+00 0.  1.
</event>
<event>
 7    1  0.5993218E-006  0.1917085E+03  0.7818608E-02  0.1207234E+00
          2   -1    0    0  502    0  0.00000000000E+00  0.00000000000E+00  0.86893985956E+03  0.86893985956E+03  0.00000000000E+00 0. -1.
          1   -1    0    0  501    0 -0.00000000000E+00 -0.00000000000E+00 -0.10737371698E+04  0.10737371698E+04  0.00000000000E+00 0. -1.
         25    2    1    2    0    0  0.21863501031E+03 -0.13407218155E+03 -0.48121627088E+02  0.28933917139E+03  0.12499939004E+03 0.  0.
          2    1    1    2  501    0 -0.10759668392E+03 -0.18108529816E+02 -0.88976537081E+03  0.89643035442E+03  0.00000000000E+00 0. -1.
          1    1    1    2  502    0 -0.11103832638E+03  0.15218071137E+03  0.73308968763E+03  0.75690750356E+03  0.00000000000E+00 0. -1.
         22    1    3    3    0    0  0.16185208585E+03 -0.96063599266E+02 -0.90597498157E+02  0.20888326757E+03  0.00000000000E+00 0.  1.
         22    1    3    3    0    0  0.56782924451E+02 -0.38008582286E+02  0.42475871069E+02  0.80455903821E+02  0.00000000000E+00 0.  1.
</event>
<event>
 7    1  0.5993218E-006  0.3937014E+02  0.7818608E-02  0.1556634E+00
          2   -1    0    0  502    0  0.00000000000E+00  0.00000000000E+00  0.12540669418E+04  0.12540669418E+04  0.00000000000E+00 0. -1.
          1   -1    0    0  501    0 -0.00000000000E+00 -0.00000000000E+00 -0.11614454223E+03  0.11614454223E+03  0.00000000000E+00 0. -1.
         25    2    1    2    0    0  0.41813065954E+02  0.42027544694E+02  0.50261768558E+02  0.14719376205E+03  0.12500044484E+03 0.  0.
          2    1    1    2  501    0 -0.47003567432E+01 -0.29179257085E+02 -0.64101074377E+02  0.70586614410E+02  0.00000000000E+00 0. -1.
          1    1    1    2  502    0 -0.37112709210E+02 -0.12848287609E+02  0.11517617054E+04  0.11524311075E+04  0.00000000000E+00 0. -1.
         22    1    3    3    0    0  0.80707897368E+02  0.53447380175E+02  0.27170862431E+02  0.10054174710E+03  0.00000000000E+00 0. -1.
         22    1    3    3    0    0 -0.38894831415E+02 -0.11419835481E+02  0.23090906127E+02  0.46652014951E+02  0.00000000000E+00 0. -1.
</event>
<event>
 7    1  0.5993218E-006  0.1621954E+03  0.7818608E-02  0.1225707E+00
          2   -1    0    0  502    0  0.00000000000E+00  0.00000000000E+00  0.18275521326E+04  0.18275521326E+04  0.00000000000E+00 0. -1.
          1   -1    0    0  501    0 -0.00000000000E+00 -0.00000000000E+00 -0.16323348139E+04  0.16323348139E+04  0.00000000000E+00 0. -1.
         25    2    1    2    0    0 -0.19362010634E+02  0.63946291653E+02  0.32229724449E+02  0.14535327570E+03  0.12499921578E+03 0.  0.
          2    1    1    2  501    0 -0.69515464876E+02  0.80160892945E+02 -0.15698563394E+04  0.15734379857E+04  0.00000000000E+00 0. -1.
          1    1    1    2  502    0  0.88877475510E+02 -0.14410718460E+03  0.17328439336E+04  0.17410956851E+04  0.00000000000E+00 0. -1.
         22    1    3    3    0    0  0.33776786788E+02  0.79474724161E+02  0.18467957364E+02  0.88307239541E+02  0.00000000000E+00 0.  1.
         22    1    3    3    0    0 -0.53138797422E+02 -0.15528432508E+02  0.13761767086E+02  0.57046036154E+02  0.00000000000E+00 0.  1.
</event>
<event>
 7    1  0.5993218E-006  0.5698864E+02  0.7818608E-02  0.1505861E+00
          2   -1    0    0  502    0  0.00000000000E+00  0.00000000000E+00  0.28149560047E+04  0.28149560047E+04  0.00000000000E+00 0. -1.
          1   -1    0    0  501    0 -0.00000000000E+00 -0.00000000000E+00 -0.12512428324E+02  0.12512428324E+02  0.00000000000E+00 0. -1.
         25    2    1    2    0    0 -0.40526209048E+02 -0.46651728300E+02  0.63783526473E+03  0.65289928435E+03  0.12499957280E+03 0.  0.
          2    1    1    2  501    0  0.13424526787E+02  0.55560682211E+02  0.16253997166E+03  0.17229756155E+03  0.00000000000E+00 0. -1.
          1    1    1    2  502    0  0.27101682261E+02 -0.89089539113E+01  0.20020683400E+04  0.20022715871E+04  0.00000000000E+00 0. -1.
         22    1    3    3    0    0 -0.52404783132E+02 -0.39448266407E+02  0.63542274971E+03  0.63879926257E+03  0.00000000000E+00 0.  1.
         22    1    3    3    0    0  0.11878574084E+02 -0.72034618933E+01  0.24125150260E+01  0.14100021782E+02  0.00000000000E+00 0.  1.
</event>
<event>
 7    1  0.5993218E-006  0.6097469E+02  0.7818608E-02  0.1447193E+00
          2   -1    0    0  502    0  0.00000000000E+00  0.00000000000E+00  0.80294756794E+03  0.80294756794E+03  0.00000000000E+00 0. -1.
          1   -1    0    0  501    0 -0.00000000000E+00 -0.00000000000E+00 -0.50496445864E+03  0.50496445864E+03  0.00000000000E+00 0. -1.
         25    2    1    2    0    0 -0.43792649333E+02 -0.17529208046E+02  0.23734585749E+02  0.13569600295E+03  0.12500002154E+03 0.  0.
          2    1    1    2  501    0 -0.14334484120E+02  0.37816743506E+02 -0.44675849919E+03  0.44858526517E+03  0.00000000000E+00 0. -1.
          1    1    1    2  502    0  0.58127133453E+02 -0.20287535459E+02  0.72100702274E+03  0.72363075845E+03  0.00000000000E+00 0. -1.
         22    1    3    3    0    0 -0.76374749521E+02 -0.25748955498E+02 -0.17527352559E+02  0.82482235429E+02  0.00000000000E+00 0. -1.
         22    1    3    3    0    0  0.32582100188E+02  0.82197474520E+01  0.41261938308E+02  0.53213767521E+02  0.00000000000E+00 0. -1.
</event>
<event>
 7    1  0.5993218E-006  0.1292045E+03  0.7818608E-02  0.1273627E+00
          2   -1    0    0  502    0  0.00000000000E+00  0.00000000000E+00  0.40699425867E+03  0.40699425867E+03  0.00000000000E+00 0. -1.
          1   -1    0    0  501    0 -0.00000000000E+00 -0.00000000000E+00 -0.11267290955E+04  0.11267290955E+04  0.00000000000E+00 0. -1.
         25    2    1    2    0    0 -0.96467298430E+02 -0.13840893821E+03 -0.10355139580E+03  0.23412172923E+03  0.12500847444E+03 0.  0.
          2    1    1    2  501    0  0.81679087756E+02  0.11561091784E+02 -0.94409882269E+03  0.94769600570E+03  0.00000000000E+00 0. -1.
          1    1    1    2  502    0  0.14788210673E+02  0.12684784643E+03  0.32791538166E+03  0.35190561923E+03  0.00000000000E+00 0. -1.
         22    1    3    3    0    0 -0.10835354125E+03 -0.15013949110E+03 -0.72458844519E+02  0.19882816913E+03  0.00000000000E+00 0.  1.
         22    1    3    3    0    0  0.11886242820E+02  0.11730552893E+02 -0.31092551278E+02  0.35293560100E+02  0.00000000000E+00 0.  1.
</event>
<event>
 7    1  0.5993218E-006  0.1723987E+03  0.7818608E-02  0.1240025E+00
          2   -1    0    0  502    0  0.00000000000E+00  0.00000000000E+00  0.63125907950E+03  0.63125907950E+03  0.00000000000E+00 0. -1.
          1   -1    0    0  501    0 -0.00000000000E+00 -0.00000000000E+00 -0.27352134542E+04  0.27352134542E+04  0.00000000000E+00 0. -1.
         25    2    1    2    0    0 -0.15830897020E+03  0.55441565450E+02  0.41298545236E+03  0.46294293496E+03  0.12499471966E+03 0.  0.
          2    1    1    2  501    0  0.11413552080E+03 -0.12942494037E+03 -0.26977360958E+04  0.27032494844E+04  0.00000000000E+00 0. -1.
          1    1    1    2  502    0  0.44173449396E+02  0.73983374923E+02  0.18079626876E+03  0.20028011432E+03  0.00000000000E+00 0. -1.
         22    1    3    3    0    0 -0.84401514731E+02  0.42666037881E+01  0.74289035946E+02  0.11251968920E+03  0.00000000000E+00 0. -1.
         22    1    3    3    0    0 -0.73907455465E+02  0.51174961661E+02  0.33869641641E+03  0.35042324575E+03  0.00000000000E+00 0. -1.
</event>
<event>
 7    1  0.5993218E-006  0.6343919E+02  0.7818608E-02  0.1442213E+00
          2   -1    0    0  502    0  0.00000000000E+00  0.00000000000E+00  0.14928313614E+04  0.14928313614E+04  0.00000000000E+00 0. -1.
          1   -1    0    0  501    0 -0.00000000000E+00 -0.00000000000E+00 -0.45337172554E+03  0.45337172554E+03  0.00000000000E+00 0. -1.
         25    2    1    2    0    0  0.63866480040E+02  0.30633685218E+02  0.56604229127E+02  0.15442337184E+03  0.12500075629E+03 0.  0.
          2    1    1    2  501    0 -0.32132592965E+02  0.24380560124E+02 -0.40272733851E+03  0.40474217031E+03  0.00000000000E+00 0. -1.
          1    1    1    2  502    0 -0.31733887075E+02 -0.55014245342E+02  0.13855827453E+04  0.13870375448E+04  0.00000000000E+00 0. -1.
         22    1    3    3    0    0 -0.56851438643E+01 -0.36250095398E+02 -0.89501672415E+01  0.37768978948E+02  0.00000000000E+00 0. -1.
         22    1    3    3    0    0  0.69551623905E+02  0.66883780616E+02  0.65554396368E+02  0.11665439289E+03  0.00000000000E+00 0. -1.
</event>
<event>
 7    1  0.5993218E-006  0.1995694E+03  0.7818608E-02  0.1265875E+00
          2   -1    0    0  502    0  0.00000000000E+00  0.00000000000E+00  0.24029751581E+04  0.24029751581E+04  0.00000000000E+00 0. -1.
          1   -1    0    0  501    0 -0.00000000000E+00 -0.00000000000E+00 -0.41950362793E+03  0.41950362793E+03  0.00000000000E+00 0. -1.
         25    2    1    2    0    0  0.14292286724E+03 -0.21426371111E+02 -0.30065982645E+03  0.35624027935E+03  0.12499908014E+03 0.  0.
          2    1    1    2  501    0  0.51961660033E+02 -0.24776284943E+02 -0.77271263655E+02  0.96357286158E+02  0.00000000000E+00 0. -1.
          1    1    1    2  502    0 -0.19488452728E+03  0.46202656054E+02  0.23614026202E+04  0.23698812205E+04  0.00000000000E+00 0. -1.
         22    1    3    3    0    0  0.10953724157E+03 -0.37972991452E+01 -0.29899348961E+03  0.31844926377E+03  0.00000000000E+00 0. -1.
         22    1    3    3    0    0  0.33385625676E+02 -0.17629071966E+02 -0.16663368403E+01  0.37791015581E+02  0.00000000000E+00 0. -1.
</event>
<event>
 7    1  0.5993218E-006  0.5095997E+02  0.7818608E-02  0.1509174E+00
          2   -1    0    0  502    0  0.00000000000E+00  0.00000000000E+00  0.74035511029E+02  0.74035511029E+02  0.00000000000E+00 0. -1.
          1   -1    0    0  501    0 -0.00000000000E+00 -0.00000000000E+00 -0.21490276012E+04  0.21490276012E+04  0.00000000000E+00 0. -1.
         25    2    1    2    0    0 -0.53267114884E+02  0.31813492942E+02 -0.37210364745E+03  0.39741190316E+03  0.12500244985E+03 0.  0.
          2    1    1    2  501    0  0.28517572603E+02  0.12638573950E+02 -0.17535644458E+04  0.17538418547E+04  0.00000000000E+00 0. -1.
          1    1    1    2  502    0  0.24749542281E+02 -0.44452066891E+02  0.50676003084E+02  0.71809354423E+02  0.00000000000E+00 0. -1.
         22    1    3    3    0    0 -0.45296532548E+02 -0.49544896695E+01 -0.35164890335E+03  0.35458888033E+03  0.00000000000E+00 0. -1.
         22    1    3    3    0    0 -0.79705823364E+01  0.36767982611E+02 -0.20454744097E+02  0.42823022828E+02  0.00000000000E+00 0. -1.
</event>
<event>
 7    1  0.5993218E-006  0.5937100E+02  0.7818608E-02  0.1549827E+00
          2   -1    0    0  502    0  0.00000000000E+00  0.00000000000E+00  0.29465257348E+03  0.29465257348E+03  0.00000000000E+00 0. -1.
          1   -1    0    0  501    0 -0.00000000000E+00 -0.00000000000E+00 -0.12285135437E+04  0.12285135437E+04  0.00000000000E+00 0. -1.
         25    2    1    2    0    0 -0.68559761532E+02  0.21307358977E+02 -0.10220871726E+04  0.10322031199E+04  0.12500659136E+03 0.  0.
          2    1    1    2  501    0  0.49037586125E+02 -0.15147725758E+02 -0.19772624573E+03  0.20427874755E+03  0.00000000000E+00 0. -1.
          1    1    1    2  502    0  0.19522175407E+02 -0.61596332195E+01  0.28595244816E+03  0.28668424969E+03  0.00000000000E+00 0. -1.
         22    1    3    3    0    0 -0.13257334728E+02  0.69337670965E+02 -0.46757165858E+03  0.47287072805E+03  0.00000000000E+00 0. -1.
         22    1    3    3    0    0 -0.55302426805E+02 -0.48030311988E+02 -0.55451551403E+03  0.55933239186E+03  0.00000000000E+00 0. -1.
</event>
<event>
 7    1  0.5993218E-006  0.5749007E+02  0.7818608E-02  0.1527493E+00
          2   -1    0    0  502    0  0.00000000000E+00  0.00000000000E+00  0.21544822654E+04  0.21544822654E+04  0.00000000000E+00 0. -1.
          1   -1    0    0  501    0 -0.00000000000E+00 -0.00000000000E+00 -0.17367938059E+02  0.17367938059E+02  0.00000000000E+00 0. -1.
         25    2    1    2    0    0 -0.32547356888E+02 -0.68804608697E+02  0.12824080644E+04  0.12907317014E+04  0.12499790655E+03 0.  0.
          2    1    1    2  501    0  0.17475736054E+02  0.17107084342E+02 -0.26153686276E+00  0.24456534645E+02  0.00000000000E+00 0. -1.
          1    1    1    2  502    0  0.15071620833E+02  0.51697524355E+02  0.85496779973E+03  0.85666196738E+03  0.00000000000E+00 0. -1.
         22    1    3    3    0    0  0.16121774709E+00 -0.36098996267E+02  0.11483669958E+04  0.11489342542E+04  0.00000000000E+00 0. -1.
         22    1    3    3    0    0 -0.32708574635E+02 -0.32705612430E+02  0.13404106863E+03  0.14179744715E+03  0.00000000000E+00 0. -1.
</event>
<event>
 7    1  0.5993218E-006  0.4370610E+02  0.7818608E-02  0.1489362E+00
          2   -1    0    0  502    0  0.00000000000E+00  0.00000000000E+00  0.36647046070E+03  0.36647046070E+03  0.00000000000E+00 0. -1.
          1   -1    0    0  501    0 -0.00000000000E+00 -0.00000000000E+00 -0.14323547040E+04  0.14323547040E+04  0.00000000000E+00 0. -1.
         25    2    1    2    0    0  0.70064707159E+02  0.41326724154E+02  0.10404453663E+03  0.18184621973E+03  0.12500328280E+03 0.  0.
          2    1    1    2  501    0 -0.39813732319E+02 -0.12330980406E+02 -0.13911751617E+04  0.13917993810E+04  0.00000000000E+00 0. -1.
          1    1    1    2  502    0 -0.30250974840E+02 -0.28995743748E+02  0.22124638172E+03  0.22517956404E+03  0.00000000000E+00 0. -1.
         22    1    3    3    0    0  0.84263029669E+02  0.17744144133E+02  0.12174419350E+03  0.14911995665E+03  0.00000000000E+00 0. -1.
         22    1    3    3    0    0 -0.14198322510E+02  0.23582580021E+02 -0.17699656865E+02  0.32726263088E+02  0.00000000000E+00 0. -1.
</event>
<event>
 7    1  0.5993218E-006  0.8730162E+02  0.7818608E-02  0.1314211E+00
          2   -1    0    0  502    0  0.00000000000E+00  0.00000000000E+00  0.65682608441E+03  0.65682608441E+03  0.00000000000E+00 0. -1.
          1   -1    0    0  501    0 -0.00000000000E+00 -0.00000000000E+00 -0.84525253252E+02  0.84525253252E+02  0.00000000000E+00 0. -1.
         25    2    1    2    0    0  0.53337458205E+02  0.40046226874E+02  0.30006874990E+03  0.33183821803E+03  0.12500705398E+03 0.  0.
          2    1    1    2  501    0 -0.85212701846E+02  0.37318775037E+02 -0.28550403496E+02  0.97308895102E+02  0.00000000000E+00 0. -1.
          1    1    1    2  502    0  0.31875243641E+02 -0.77365001912E+02  0.30078248476E+03  0.31220422453E+03  0.00000000000E+00 0. -1.
         22    1    3    3    0    0  0.87883828011E+02  0.16860068062E+01  0.21578778117E+03  0.23300381188E+03  0.00000000000E+00 0.  1.
         22    1    3    3    0    0 -0.34546369806E+02  0.38360220068E+02  0.84280968722E+02  0.98834406151E+02  0.00000000000E+00 0.  1.
</event>
<event>
 7    1  0.5993218E-006  0.1495492E+03  0.7818608E-02  0.1203899E+00
          2   -1    0    0  502    0  0.00000000000E+00  0.00000000000E+00  0.10472175259E+04  0.10472175259E+04  0.00000000000E+00 0. -1.
          1   -1    0    0  501    0 -0.00000000000E+00 -0.00000000000E+00 -0.10014017367E+03  0.10014017367E+03  0.00000000000E+00 0. -1.
         25    2    1    2    0    0  0.12669545056E+03 -0.13421062085E+02  0.25219720815E+03  0.30896510787E+03  0.12499657587E+03 0.  0.
          2    1    1    2  501    0 -0.40168285095E+02 -0.13930255643E+03  0.26541762805E+02  0.14738778283E+03  0.00000000000E+00 0. -1.
          1    1    1    2  502    0 -0.86527165466E+02  0.15272361851E+03  0.66833838128E+03  0.69100480889E+03  0.00000000000E+00 0. -1.
         22    1    3    3    0    0  0.98845599650E+02 -0.65787491079E+02  0.15782724037E+03  0.19750413756E+03  0.00000000000E+00 0.  1.
         22    1    3    3    0    0  0.27849850910E+02  0.52366428994E+02  0.94369967784E+02  0.11146097030E+03  0.00000000000E+00 0.  1.
</event>
<event>
 7    1  0.5993218E-006  0.2149180E+03  0.7818608E-02  0.1365007E+00
          2   -1    0    0  502    0  0.00000000000E+00  0.00000000000E+00  0.15847759751E+04  0.15847759751E+04  0.00000000000E+00 0. -1.
          1   -1    0    0  501    0 -0.00000000000E+00 -0.00000000000E+00 -0.64893991483E+03  0.64893991483E+03  0.00000000000E+00 0. -1.
         25    2    1    2    0    0 -0.27639344708E+02 -0.21475492002E+03 -0.98531426083E+01  0.25020911291E+03  0.12499562678E+03 0.  0.
          2    1    1    2  501    0  0.21880554764E+02 -0.51724328796E-01 -0.51079144490E+03  0.51125987671E+03  0.00000000000E+00 0. -1.
          1    1    1    2  502    0  0.57587899445E+01  0.21480664435E+03  0.14564806477E+04  0.14722469003E+04  0.00000000000E+00 0. -1.
         22    1    3    3    0    0  0.29874822327E+02 -0.94049651027E+02 -0.49972748008E+02  0.11061246499E+03  0.00000000000E+00 0. -1.
         22    1    3    3    0    0 -0.57514167035E+02 -0.12070526899E+03  0.40119605399E+02  0.13959664792E+03  0.00000000000E+00 0. -1.
</event>
<event>
 7    1  0.5993218E-006  0.7456360E+02  0.7818608E-02  0.1377701E+00
          2   -1    0    0  502    0  0.00000000000E+00  0.00000000000E+00  0.18586470897E+03  0.18586470897E+03  0.00000000000E+00 0. -1.
          1   -1    0    0  501    0 -0.00000000000E+00 -0.00000000000E+00 -0.18289066413E+04  0.18289066413E+04  0.00000000000E+00 0. -1.
         25    2    1    2    0    0 -0.23677777069E+02  0.50595692293E+02 -0.14226403358E+03  0.19744616164E+03  0.12500148115E+03 0.  0.
          2    1    1    2  501    0 -0.49443140226E+02 -0.27933994942E+02 -0.16492777089E+04  0.16502550995E+04  0.00000000000E+00 0. -1.
          1    1    1    2  502    0  0.73120917296E+02 -0.22661697350E+02  0.14849981017E+03  0.16707008916E+03  0.00000000000E+00 0. -1.
         22    1    3    3    0    0  0.50655583849E+02  0.28835202746E+02 -0.74039838501E+02  0.94230328333E+02  0.00000000000E+00 0.  1.
         22    1    3    3    0    0 -0.74333360918E+02  0.21760489547E+02 -0.68224195082E+02  0.10321583331E+03  0.00000000000E+00 0.  1.
</event>
<event>
 7    1  0.5993218E-006  0.1084445E+03  0.7818608E-02  0.1314192E+00
          2   -1    0    0  502    0  0.00000000000E+00  0.00000000000E+00  0.11969240085E+04  0.11969240085E+04  0.00000000000E+00 0. -1.
          1   -1    0    0  501    0 -0.00000000000E+00 -0.00000000000E+00 -0.18817437605E+03  0.18817437605E+03  0.00000000000E+00 0. -1.
         25    2    1    2    0    0  0.92025751203E+02 -0.92599663248E+02  0.19278847936E+03  0.26426651883E+03  0.12500383468E+03 0.  0.
          2    1    1    2  501    0 -0.66241766926E+02 -0.12290778818E+02 -0.14180419786E+03  0.15699511286E+03  0.00000000000E+00 0. -1.
          1    1    1    2  502    0 -0.25783984277E+02  0.10489044207E+03  0.95776535099E+03  0.96383675290E+03  0.00000000000E+00 0. -1.
         22    1    3    3    0    0 -0.30873199092E+01 -0.18639045304E+02 -0.14966281286E+02  0.24102595909E+02  0.00000000000E+00 0. -1.
         22    1    3    3    0    0  0.95113071112E+02 -0.73960617944E+02  0.20775476065E+03  0.24016392292E+03  0.00000000000E+00 0. -1.
</event>
<event>
 7    1  0.5993218E-006  0.1005815E+03  0.7818608E-02  0.1318918E+00
          2   -1    0    0  502    0  0.00000000000E+00  0.00000000000E+00  0.10887252491E+04  0.10887252491E+04  0.00000000000E+00 0. -1.
          1   -1    0    0  501    0 -0.00000000000E+00 -0.00000000000E+00 -0.50419409698E+03  0.50419409698E+03  0.00000000000E+00 0. -1.
         25    2    1    2    0    0 -0.70373570140E+02 -0.59822894582E+01 -0.80862482717E+02  0.16477663967E+03  0.12499749080E+03 0.  0.
          2    1    1    2  501    0  0.90182749061E+02 -0.60760651456E+02 -0.37243305389E+03  0.38798345921E+03  0.00000000000E+00 0. -1.
          1    1    1    2  502    0 -0.19809178921E+02  0.66742940914E+02  0.10378266888E+04  0.10401592473E+04  0.00000000000E+00 0. -1.
         22    1    3    3    0    0 -0.16752122174E+02 -0.42904701400E+02 -0.87957420013E+02  0.99287233494E+02  0.00000000000E+00 0. -1.
         22    1    3    3    0    0 -0.53621447966E+02  0.36922411942E+02  0.70949372956E+01  0.65489406172E+02  0.00000000000E+00 0. -1.
</event>
<event>
 7    1  0.5993218E-006  0.7165102E+02  0.7818608E-02  0.1356107E+00
          2   -1    0    0  502    0  0.00000000000E+00  0.00000000000E+00  0.12544466364E+03  0.12544466364E+03  0.00000000000E+00 0. -1.
          1   -1    0    0  501    0 -0.00000000000E+00 -0.00000000000E+00 -0.30083075903E+04  0.30083075903E+04  0.00000000000E+00 0. -1.
         25    2    1    2    0    0  0.34356842124E+02  0.14870841544E+02 -0.19630139959E+03  0.23572523740E+03  0.12502245214E+03 0.  0.
          2    1    1    2  501    0 -0.48896127539E+02  0.54341851497E+02 -0.27799333030E+04  0.27808942873E+04  0.00000000000E+00 0. -1.
          1    1    1    2  502    0  0.14539285416E+02 -0.69212693041E+02  0.93371775970E+02  0.11713272918E+03  0.00000000000E+00 0. -1.
         22    1    3    3    0    0  0.74070209832E+02 -0.76701107590E+01 -0.16301029037E+03  0.17921378672E+03  0.00000000000E+00 0.  1.
         22    1    3    3    0    0 -0.39713367708E+02  0.22540952303E+02 -0.33291109219E+02  0.56511450685E+02  0.00000000000E+00 0.  1.
</event>
<event>
 7    1  0.5993218E-006  0.7151938E+02  0.7818608E-02  0.1420354E+00
          2   -1    0    0  502    0  0.00000000000E+00  0.00000000000E+00  0.13691405829E+04  0.13691405829E+04  0.00000000000E+00 0. -1.
          1   -1    0    0  501    0 -0.00000000000E+00 -0.00000000000E+00 -0.57439776888E+03  0.57439776888E+03  0.00000000000E+00 0. -1.
         25    2    1    2    0    0  0.84403028638E+02 -0.34263161017E+02  0.40772181551E+03  0.43607486490E+03  0.12500549392E+03 0.  0.
          2    1    1    2  501    0 -0.14112303690E+02  0.39784464494E+02 -0.55811102901E+03  0.55970517367E+03  0.00000000000E+00 0. -1.
          1    1    1    2  502    0 -0.70290724948E+02 -0.55213034762E+01  0.94513202750E+03  0.94775831319E+03  0.00000000000E+00 0. -1.
         22    1    3    3    0    0  0.10674122548E+03 -0.29337853236E+02  0.21332813951E+03  0.24033995497E+03  0.00000000000E+00 0. -1.
         22    1    3    3    0    0 -0.22338196847E+02 -0.49253077808E+01  0.19439367600E+03  0.19573490993E+03  0.00000000000E+00 0. -1.
</event>
<event>
 7    1  0.5993218E-006  0.1597252E+03  0.7818608E-02  0.1250204E+00
          2   -1    0    0  502    0  0.00000000000E+00  0.00000000000E+00  0.52152541213E+03  0.52152541213E+03  0.00000000000E+00 0. -1.
          1   -1    0    0  501    0 -0.00000000000E+00 -0.00000000000E+00 -0.11526371269E+04  0.11526371269E+04  0.00000000000E+00 0. -1.
         25    2    1    2    0    0  0.10328169633E+02  0.19599140080E+03  0.99106386710E+02  0.25291476552E+03  0.12499800981E+03 0.  0.
          2    1    1    2  501    0 -0.73717394130E+02 -0.14096131908E+03 -0.10646364506E+04  0.10764548851E+04  0.00000000000E+00 0. -1.
          1    1    1    2  502    0  0.63389224497E+02 -0.55030081720E+02  0.33441834912E+03  0.34479288842E+03  0.00000000000E+00 0. -1.
         22    1    3    3    0    0 -0.45976548491E+02  0.54424477569E+02  0.65760665465E+02  0.96955308737E+02  0.00000000000E+00 0. -1.
         22    1    3    3    0    0  0.56304718124E+02  0.14156692323E+03  0.33345721245E+02  0.15595945678E+03  0.00000000000E+00 0. -1.
</event>
<event>
 7    1  0.5993218E-006  0.2899113E+03  0.7818608E-02  0.1149320E+00
          2   -1    0    0  502    0  0.00000000000E+00  0.00000000000E+00  0.73875136402E+03  0.73875136402E+03  0.00000000000E+00 0. -1.
          1   -1    0    0  501    0 -0.00000000000E+00 -0.00000000000E+00 -0.84042103799E+03  0.84042103799E+03  0.00000000000E+00 0. -1.
         25    2    1    2    0    0  0.17970596001E+03  0.49554890205E+02 -0.69147018260E+01  0.22455094435E+03  0.12500157720E+03 0.  0.
          2    1    1    2  501    0 -0.31511463500E+03 -0.79406195754E+02 -0.67974143541E+03  0.75342617165E+03  0.00000000000E+00 0. -1.
          1    1    1    2  502    0  0.13540867499E+03  0.29851305549E+02  0.58498646327E+03  0.60119528601E+03  0.00000000000E+00 0. -1.
         22    1    3    3    0    0  0.19674198066E+03  0.31375945190E+02 -0.24684068155E+01  0.19924344387E+03  0.00000000000E+00 0. -1.
         22    1    3    3    0    0 -0.17036020653E+02  0.18178945015E+02 -0.44462950105E+01  0.25307500486E+02  0.00000000000E+00 0. -1.
</event>
<event>
 7    1  0.5993218E-006  0.1480156E+03  0.7818608E-02  0.1268387E+00
          2   -1    0    0  502    0  0.00000000000E+00  0.00000000000E+00  0.28492856627E+03  0.28492856627E+03  0.00000000000E+00 0. -1.
          1   -1    0    0  501    0 -0.00000000000E+00 -0.00000000000E+00 -0.33250876531E+03  0.33250876531E+03  0.00000000000E+00 0. -1.
         25    2    1    2    0    0 -0.61207044727E+02 -0.57973807120E+02  0.83724939402E+02  0.17246264427E+03  0.12500493413E+03 0.  0.
          2    1    1    2  501    0  0.12431985289E+03  0.99856690790E+02 -0.25451673620E+03  0.30034239382E+03  0.00000000000E+00 0. -1.
          1    1    1    2  502    0 -0.63112808160E+02 -0.41882883670E+02  0.12321159776E+03  0.14463229349E+03  0.00000000000E+00 0. -1.
         22    1    3    3    0    0  0.19074181939E+02 -0.19204215681E+02 -0.21486304148E+02  0.34558466148E+02  0.00000000000E+00 0. -1.
         22    1    3    3    0    0 -0.80281226666E+02 -0.38769591439E+02  0.10521124355E+03  0.13790417813E+03  0.00000000000E+00 0. -1.
</event>
<event>
 7    1  0.5993218E-006  0.9060217E+02  0.7818608E-02  0.1378531E+00
          2   -1    0    0  502    0  0.00000000000E+00  0.00000000000E+00  0.66765641608E+03  0.66765641608E+03  0.00000000000E+00 0. -1.
          1   -1    0    0  501    0 -0.00000000000E+00 -0.00000000000E+00 -0.55731914573E+03  0.55731914573E+03  0.00000000000E+00 0. -1.
         25    2    1    2    0    0 -0.22029843905E+02  0.13177213776E+03 -0.60238257535E+02  0.19262330882E+03  0.12500352442E+03 0.  0.
          2    1    1    2  501    0  0.19064454071E+02 -0.42324028307E+02 -0.42629214763E+03  0.42881204730E+03  0.00000000000E+00 0. -1.
          1    1    1    2  502    0  0.29653898340E+01 -0.89448109454E+02  0.59686767550E+03  0.60354020569E+03  0.00000000000E+00 0. -1.
         22    1    3    3    0    0  0.52175662562E+02  0.60042717490E+02 -0.30807657590E+02  0.85302634506E+02  0.00000000000E+00 0. -1.
         22    1    3    3    0    0 -0.74205506468E+02  0.71729420270E+02 -0.29430599945E+02  0.10732067432E+03  0.00000000000E+00 0. -1.
</event>
<event>
 7    1  0.5993218E-006  0.8608365E+02  0.7818608E-02  0.1338160E+00
          2   -1    0    0  502    0  0.00000000000E+00  0.00000000000E+00  0.33021123098E+04  0.33021123098E+04  0.00000000000E+00 0. -1.
          1   -1    0    0  501    0 -0.00000000000E+00 -0.00000000000E+00 -0.53315075827E+02  0.53315075827E+02  0.00000000000E+00 0. -1.
         25    2    1    2    0    0 -0.72715425671E+02  0.11406701648E+03  0.20646540880E+04  0.20728501988E+04  0.12495049488E+03 0.  0.
          2    1    1    2  501    0  0.10637176486E+02 -0.84751475113E+02 -0.10414019622E+02  0.86048903898E+02  0.00000000000E+00 0. -1.
          1    1    1    2  502    0  0.62078249185E+02 -0.29315541362E+02  0.11945571657E+04  0.11965282830E+04  0.00000000000E+00 0. -1.
         22    1    3    3    0    0 -0.29470643048E+01 -0.51703395296E+01  0.31710937845E+01  0.67433993399E+01  0.00000000000E+00 0. -1.
         22    1    3    3    0    0 -0.69768361366E+02  0.11923735600E+03  0.20614829942E+04  0.20661067994E+04  0.00000000000E+00 0. -1.
</event>
<event>
 7    1  0.5993218E-006  0.9379901E+02  0.7818608E-02  0.1451532E+00
          2   -1    0    0  502    0  0.00000000000E+00  0.00000000000E+00  0.41544372114E+03  0.41544372114E+03  0.00000000000E+00 0. -1.
          1   -1    0    0  501    0 -0.00000000000E+00 -0.00000000000E+00 -0.30705229314E+03  0.30705229314E+03  0.00000000000E+00 0. -1.
         25    2    1    2    0    0  0.98230738952E+02  0.53836048203E+02 -0.44616367786E+02  0.17367857856E+03  0.12500412079E+03 0.  0.
          2    1    1    2  501    0 -0.85193574243E+02 -0.31964990263E+02 -0.18694429637E+03  0.20791314446E+03  0.00000000000E+00 0. -1.
          1    1    1    2  502    0 -0.13037164708E+02 -0.21871057941E+02  0.33995209215E+03  0.34090429126E+03  0.00000000000E+00 0. -1.
         22    1    3    3    0    0  0.95957312396E+02  0.48409186846E+02 -0.82406614813E+02  0.13543302898E+03  0.00000000000E+00 0.  1.
         22    1    3    3    0    0  0.22734265558E+01  0.54268613569E+01  0.37790247027E+02  0.38245549582E+02  0.00000000000E+00 0.  1.
</event>
<event>
 7    1  0.5993218E-006  0.9329602E+02  0.7818608E-02  0.1366025E+00
          2   -1    0    0  502    0  0.00000000000E+00  0.00000000000E+00  0.26695130269E+03  0.26695130269E+03  0.00000000000E+00 0. -1.
          1   -1    0    0  501    0 -0.00000000000E+00 -0.00000000000E+00 -0.79254699822E+03  0.79254699822E+03  0.00000000000E+00 0. -1.
         25    2    1    2    0    0 -0.32355607750E+02 -0.35678132936E+02 -0.57553710028E+02  0.14581477419E+03  0.12501881582E+03 0.  0.
          2    1    1    2  501    0  0.52231994269E+02  0.81534399629E+02 -0.68460977867E+03  0.69142359563E+03  0.00000000000E+00 0. -1.
          1    1    1    2  502    0 -0.19876386519E+02 -0.45856266693E+02  0.21656779316E+03  0.22225993110E+03  0.00000000000E+00 0. -1.
         22    1    3    3    0    0 -0.39427257853E+02  0.27203849822E+02  0.14376422224E+02  0.50012394693E+02  0.00000000000E+00 0. -1.
         22    1    3    3    0    0  0.70716501033E+01 -0.62881982757E+02 -0.71930132252E+02  0.95802379493E+02  0.00000000000E+00 0. -1.
</event>
<event>
 7    1  0.5993218E-006  0.2742357E+02  0.7818608E-02  0.1640070E+00
          2   -1    0    0  502    0  0.00000000000E+00  0.00000000000E+00  0.11893732807E+04  0.11893732807E+04  0.00000000000E+00 0. -1.
          1   -1    0    0  501    0 -0.00000000000E+00 -0.00000000000E+00 -0.73467033829E+02  0.73467033829E+02  0.00000000000E+00 0. -1.
         25    2    1    2    0    0  0.13375561795E+02  0.41689304810E+02  0.15852076955E+03  0.20656400128E+03  0.12499179356E+03 0.  0.
          2    1    1    2  501    0  0.78356083641E+01 -0.24421831127E+02 -0.45920461407E+02  0.52597636542E+02  0.00000000000E+00 0. -1.
          1    1    1    2  502    0 -0.21211170159E+02 -0.17267473683E+02  0.10033059388E+04  0.10036786767E+04  0.00000000000E+00 0. -1.
         22    1    3    3    0    0  0.52853098720E+00 -0.28546066395E+02 -0.42085886702E+01  0.28859477997E+02  0.00000000000E+00 0. -1.
         22    1    3    3    0    0  0.12847030808E+02  0.70235371205E+02  0.16272935822E+03  0.17770452329E+03  0.00000000000E+00 0. -1.
</event>
<event>
 7    1  0.5993218E-006  0.7641998E+02  0.7818608E-02  0.1344926E+00
          2   -1    0    0  502    0  0.00000000000E+00  0.00000000000E+00  0.32650822293E+04  0.32650822293E+04  0.00000000000E+00 0. -1.
          1   -1    0    0  501    0 -0.00000000000E+00 -0.00000000000E+00 -0.23290268547E+03  0.23290268547E+03  0.00000000000E+00 0. -1.
         25    2    1    2    0    0  0.20267771794E+02  0.11171000192E+03  0.28976680053E+03  0.33537993290E+03  0.12499997440E+03 0.  0.
          2    1    1    2  501    0 -0.58034282618E+02 -0.49307434139E+02 -0.20272904867E+03  0.21656007987E+03  0.00000000000E+00 0. -1.
          1    1    1    2  502    0  0.37766510824E+02 -0.62402567785E+02  0.29451417920E+04  0.29460449020E+04  0.00000000000E+00 0. -1.
         22    1    3    3    0    0 -0.18396569857E+02  0.12550100693E+03  0.20260072926E+03  0.23903136200E+03  0.00000000000E+00 0.  1.
         22    1    3    3    0    0  0.38664341651E+02 -0.13791005003E+02  0.87166071269E+02  0.96348570902E+02  0.00000000000E+00 0.  1.
</event>
<event>
 7    1  0.5993218E-006  0.5528930E+02  0.7818608E-02  0.1438560E+00
          2   -1    0    0  502    0  0.00000000000E+00  0.00000000000E+00  0.55917608523E+03  0.55917608523E+03  0.00000000000E+00 0. -1.
          1   -1    0    0  501    0 -0.00000000000E+00 -0.00000000000E+00 -0.58133284533E+03  0.58133284533E+03  0.00000000000E+00 0. -1.
         25    2    1    2    0    0 -0.43104753423E+02 -0.19301883703E+02 -0.57459838460E+02  0.14545464491E+03  0.12499935283E+03 0.  0.
          2    1    1    2  501    0  0.48901608363E+02 -0.27904185928E+02 -0.47711910610E+03  0.48042965385E+03  0.00000000000E+00 0. -1.
          1    1    1    2  502    0 -0.57968549401E+01  0.47206069631E+02  0.51242218445E+03  0.51462463180E+03  0.00000000000E+00 0. -1.
         22    1    3    3    0    0 -0.47426714725E+02  0.14799714842E+02 -0.86963612680E+02  0.10015485390E+03  0.00000000000E+00 0.  1.
         22    1    3    3    0    0  0.43219613021E+01 -0.34101598545E+02  0.29503774219E+02  0.45299791015E+02  0.00000000000E+00 0.  1.
</event>
<event>
 7    1  0.5993218E-006  0.7369365E+02  0.7818608E-02  0.1356007E+00
          2   -1    0    0  502    0  0.00000000000E+00  0.00000000000E+00  0.50345584354E+03  0.50345584354E+03  0.00000000000E+00 0. -1.
          1   -1    0    0  501    0 -0.00000000000E+00 -0.00000000000E+00 -0.40200122131E+03  0.40200122131E+03  0.00000000000E+00 0. -1.
         25    2    1    2    0    0 -0.11853686023E+03 -0.49568358587E+02  0.15247346438E+03  0.23533044299E+03  0.12499700257E+03 0.  0.
          2    1    1    2  501    0  0.49809668209E+02  0.53163884795E+02 -0.35298127953E+03  0.36042084484E+03  0.00000000000E+00 0. -1.
          1    1    1    2  502    0  0.68727192026E+02 -0.35955262085E+01  0.30196243739E+03  0.30970577703E+03  0.00000000000E+00 0. -1.
         22    1    3    3    0    0 -0.60316589809E+02 -0.52096177101E+02  0.15782782693E+03  0.17680985727E+03  0.00000000000E+00 0.  1.
         22    1    3    3    0    0 -0.58220270426E+02  0.25278185143E+01 -0.53543625479E+01  0.58520585722E+02  0.00000000000E+00 0.  1.
</event>
<event>
 7    1  0.5993218E-006  0.7850939E+02  0.7818608E-02  0.1334462E+00
          2   -1    0    0  502    0  0.00000000000E+00  0.00000000000E+00  0.54095442211E+02  0.54095442211E+02  0.00000000000E+00 0. -1.
          1   -1    0    0  501    0 -0.00000000000E+00 -0.00000000000E+00 -0.19827155577E+04  0.19827155577E+04  0.00000000000E+00 0. -1.
         25    2    1    2    0    0 -0.39190866015E+02 -0.99932839480E+02 -0.32631960629E+03  0.36555947354E+03  0.12500698726E+03 0.  0.
          2    1    1    2  501    0 -0.33096328124E+02  0.71331213375E+02 -0.15907098813E+04  0.15926523273E+04  0.00000000000E+00 0. -1.
          1    1    1    2  502    0  0.72287194139E+02  0.28601626105E+02 -0.11590627909E+02  0.78599199154E+02  0.00000000000E+00 0. -1.
         22    1    3    3    0    0 -0.64431862453E+02 -0.59737024456E+01 -0.98713895706E+02  0.11803212794E+03  0.00000000000E+00 0. -1.
         22    1    3    3    0    0  0.25240996438E+02 -0.93959137034E+02 -0.22760571058E+03  0.24752734561E+03  0.00000000000E+00 0. -1.
</event>
<event>
 7    1  0.5993218E-006  0.7052701E+02  0.7818608E-02  0.1481280E+00
          2   -1    0    0  502    0  0.00000000000E+00  0.00000000000E+00  0.12400744202E+03  0.12400744202E+03  0.00000000000E+00 0. -1.
          1   -1    0    0  501    0 -0.00000000000E+00 -0.00000000000E+00 -0.70380138251E+03  0.70380138251E+03  0.00000000000E+00 0. -1.
         25    2    1    2    0    0 -0.58831692561E+01  0.45154760079E+02 -0.13107199010E+03  0.18675490475E+03  0.12499585522E+03 0.  0.
          2    1    1    2  501    0 -0.73151531683E+01  0.26338178688E+02 -0.53074536565E+03  0.53144882565E+03  0.00000000000E+00 0. -1.
          1    1    1    2  502    0  0.13198322424E+02 -0.71492938767E+02  0.82023415259E+02  0.10960509413E+03  0.00000000000E+00 0. -1.
         22    1    3    3    0    0 -0.17014111828E+02  0.79187729046E+02 -0.12712003237E+03  0.15073048485E+03  0.00000000000E+00 0.  1.
         22    1    3    3    0    0  0.11130942572E+02 -0.34032968967E+02 -0.39519577284E+01  0.36024419900E+02  0.00000000000E+00 0.  1.
</event>
<event>
 7    1  0.5993218E-006  0.8442456E+02  0.7818608E-02  0.1350582E+00
          2   -1    0    0  502    0  0.00000000000E+00  0.00000000000E+00  0.14821425429E+04  0.14821425429E+04  0.00000000000E+00 0. -1.
          1   -1    0    0  501    0 -0.00000000000E+00 -0.00000000000E+00 -0.25787644219E+03  0.25787644219E+03  0.00000000000E+00 0. -1.
         25    2    1    2    0    0  0.73776242638E+02 -0.62969516008E+02  0.14623500258E+03  0.21544691471E+03  0.12499841261E+03 0.  0.
          2    1    1    2  501    0 -0.59437840060E+02 -0.20594512911E+02 -0.21742632407E+03  0.22634309618E+03  0.00000000000E+00 0. -1.
          1    1    1    2  502    0 -0.14338402579E+02  0.83564028918E+02  0.12954574222E+04  0.12982289742E+04  0.00000000000E+00 0. -1.
         22    1    3    3    0    0 -0.19149298654E+02 -0.19202091320E+02 -0.96317714538E+01  0.28778237808E+02  0.00000000000E+00 0. -1.
         22    1    3    3    0    0  0.92925541293E+02 -0.43767424688E+02  0.15586677403E+03  0.18666867690E+03  0.00000000000E+00 0. -1.
</event>
<event>
 7    1  0.5993218E-006  0.1414519E+03  0.7818608E-02  0.1322368E+00
          2   -1    0    0  502    0  0.00000000000E+00  0.00000000000E+00  0.43226600304E+03  0.43226600304E+03  0.00000000000E+00 0. -1.
          1   -1    0    0  501    0 -0.00000000000E+00 -0.00000000000E+00 -0.16405362133E+03  0.16405362133E+03  0.00000000000E+00 0. -1.
         25    2    1    2    0    0  0.13222016290E+03 -0.28530468741E+02  0.12662957120E+03  0.22351774729E+03  0.12501590271E+03 0.  0.
          2    1    1    2  501    0  0.13243751263E+02  0.46140327747E+02 -0.88118488364E+02  0.10034537749E+03  0.00000000000E+00 0. -1.
          1    1    1    2  502    0 -0.14546391416E+03 -0.17609859006E+02  0.22970129888E+03  0.27245649958E+03  0.00000000000E+00 0. -1.
         22    1    3    3    0    0  0.24480681448E+02 -0.54734580220E+02  0.87220355474E+02  0.10584218651E+03  0.00000000000E+00 0. -1.
         22    1    3    3    0    0  0.10773948145E+03  0.26204111479E+02  0.39409215722E+02  0.11767556078E+03  0.00000000000E+00 0. -1.
</event>
<event>
 7    1  0.5993218E-006  0.9269508E+02  0.7818608E-02  0.1386628E+00
          2   -1    0    0  502    0  0.00000000000E+00  0.00000000000E+00  0.53607826610E+03  0.53607826610E+03  0.00000000000E+00 0. -1.
          1   -1    0    0  501    0 -0.00000000000E+00 -0.00000000000E+00 -0.80755987071E+03  0.80755987071E+03  0.00000000000E+00 0. -1.
         25    2    1    2    0    0  0.97105318802E+02 -0.77437699318E+02 -0.65763422056E+02  0.18808527022E+03  0.12500080391E+03 0.  0.
          2    1    1    2  501    0 -0.13191959782E+02  0.40383007558E+02 -0.67553257237E+03  0.67686710027E+03  0.00000000000E+00 0. -1.
          1    1    1    2  502    0 -0.83913359020E+02  0.37054691760E+02  0.46981438981E+03  0.47868576632E+03  0.00000000000E+00 0. -1.
         22    1    3    3    0    0  0.11488116258E+03 -0.33902470239E+02 -0.73348460818E+02  0.14045303738E+03  0.00000000000E+00 0. -1.
         22    1    3    3    0    0 -0.17775843778E+02 -0.43535229079E+02  0.75850387620E+01  0.47632232847E+02  0.00000000000E+00 0. -1.
</event>
<event>
 7    1  0.5993218E-006  0.9489878E+02  0.7818608E-02  0.1387505E+00
          2   -1    0    0  502    0  0.00000000000E+00  0.00000000000E+00  0.53943901042E+03  0.53943901042E+03  0.00000000000E+00 0. -1.
          1   -1    0    0  501    0 -0.00000000000E+00 -0.00000000000E+00 -0.40636741940E+03  0.40636741940E+03  0.00000000000E+00 0. -1.
         25    2    1    2    0    0 -0.28882889371E+02  0.12193227910E+03  0.17038029437E+03  0.24567725195E+03  0.12500466166E+03 0.  0.
          2    1    1    2  501    0  0.43568974838E+02 -0.83434403666E+02 -0.36138618763E+03  0.37344280940E+03  0.00000000000E+00 0. -1.
          1    1    1    2  502    0 -0.14686085467E+02 -0.38497875429E+02  0.32407748429E+03  0.32668636846E+03  0.00000000000E+00 0. -1.
         22    1    3    3    0    0  0.25998849606E+02  0.21938201633E+02 -0.70541570525E+01  0.34741704095E+02  0.00000000000E+00 0.  1.
         22    1    3    3    0    0 -0.54881738977E+02  0.99994077462E+02  0.17743445142E+03  0.21093554786E+03  0.00000000000E+00 0.  1.
</event>
<event>
 7    1  0.5993218E-006  0.5881502E+02  0.7818608E-02  0.1426579E+00
          2   -1    0    0  502    0  0.00000000000E+00  0.00000000000E+00  0.10036444451E+03  0.10036444451E+03  0.00000000000E+00 0. -1.
          1   -1    0    0  501    0 -0.00000000000E+00 -0.00000000000E+00 -0.12378943559E+04  0.12378943559E+04  0.00000000000E+00 0. -1.
         25    2    1    2    0    0  0.46047527210E+02  0.88316253749E+01 -0.35385681282E+03  0.37820268855E+03  0.12499702909E+03 0.  0.
          2    1    1    2  501    0 -0.18566190959E+01 -0.48908433609E+02 -0.86100067554E+03  0.86239065695E+03  0.00000000000E+00 0. -1.
          1    1    1    2  502    0 -0.44190908114E+02  0.40076808234E+02  0.77327576977E+02  0.97665454893E+02  0.00000000000E+00 0. -1.
         22    1    3    3    0    0  0.29676723482E+02  0.50777224026E+02 -0.72928741812E+02  0.93689037666E+02  0.00000000000E+00 0.  1.
         22    1    3    3    0    0  0.16370803728E+02 -0.41945598651E+02 -0.28092807101E+03  0.28451365089E+03  0.00000000000E+00 0.  1.
</event>
<event>
 7    1  0.5993218E-006  0.5115710E+02  0.7818608E-02  0.1440829E+00
          2   -1    0    0  502    0  0.00000000000E+00  0.00000000000E+00  0.13919167040E+04  0.13919167040E+04  0.00000000000E+00 0. -1.
          1   -1    0    0  501    0 -0.00000000000E+00 -0.00000000000E+00 -0.54367799519E+03  0.54367799519E+03  0.00000000000E+00 0. -1.
         25    2    1    2    0    0 -0.59949389286E+01 -0.53935843387E+01  0.19238166042E+03  0.22956328474E+03  0.12499427342E+03 0.  0.
          2    1    1    2  501    0 -0.26475674066E+02  0.44119559808E+02 -0.52328412266E+03  0.52580773093E+03  0.00000000000E+00 0. -1.
          1    1    1    2  502    0  0.32470612995E+02 -0.38725975469E+02  0.11791411710E+04  0.11802236835E+04  0.00000000000E+00 0. -1.
         22    1    3    3    0    0  0.15584542518E+02  0.28281720049E+01 -0.14453805643E+02  0.21442691527E+02  0.00000000000E+00 0.  1.
         22    1    3    3    0    0 -0.21579481446E+02 -0.82217563437E+01  0.20683546606E+03  0.20812059321E+03  0.00000000000E+00 0.  1.
</event>
<event>
 7    1  0.5993218E-006  0.6619699E+02  0.7818608E-02  0.1462070E+00
          2   -1    0    0  502    0  0.00000000000E+00  0.00000000000E+00  0.83216109857E+02  0.83216109857E+02  0.00000000000E+00 0. -1.
          1   -1    0    0  501    0 -0.00000000000E+00 -0.00000000000E+00 -0.38513462961E+03  0.38513462961E+03  0.00000000000E+00 0. -1.
         25    2    1    2    0    0 -0.71364009412E+02  0.62254868806E+02 -0.13967780938E+03  0.21000734605E+03  0.12499881772E+03 0.  0.
          2    1    1    2  501    0  0.51255961285E+02 -0.35575285775E+02 -0.19907026118E+03  0.20861865547E+03  0.00000000000E+00 0. -1.
          1    1    1    2  502    0  0.20108048127E+02 -0.26679583031E+02  0.36829550812E+02  0.49724737940E+02  0.00000000000E+00 0. -1.
         22    1    3    3    0    0  0.24098148824E+02 -0.60917667284E+01 -0.68118547782E+02  0.72511840071E+02  0.00000000000E+00 0.  1.
         22    1    3    3    0    0 -0.95462158236E+02  0.68346635534E+02 -0.71559261600E+02  0.13749550598E+03  0.00000000000E+00 0.  1.
</event>
<event>
 7    1  0.5993218E-006  0.6057520E+02  0.7818608E-02  0.1435298E+00
          2   -1    0    0  502    0  0.00000000000E+00  0.00000000000E+00  0.60073699290E+03  0.60073699290E+03  0.00000000000E+00 0. -1.
          1   -1    0    0  501    0 -0.00000000000E+00 -0.00000000000E+00 -0.11794341677E+03  0.11794341677E+03  0.00000000000E+00 0. -1.
         25    2    1    2    0    0 -0.74965220947E+02 -0.29800900560E+02  0.37657208614E+03  0.40489275900E+03  0.12499492870E+03 0.  0.
          2    1    1    2  501    0  0.34959678247E+02  0.49257958127E+02 -0.92319303939E+02  0.11032397483E+03  0.00000000000E+00 0. -1.
          1    1    1    2  502    0  0.40005542700E+02 -0.19457057567E+02  0.19854079393E+03  0.20346367585E+03  0.00000000000E+00 0. -1.
         22    1    3    3    0    0 -0.45321081213E+02  0.47363801508E+02  0.18398852680E+03  0.19531796664E+03  0.00000000000E+00 0. -1.
         22    1    3    3    0    0 -0.29644139733E+02 -0.77164702068E+02  0.19258355934E+03  0.20957479236E+03  0.00000000000E+00 0. -1.
</event>
<event>
 7    1  0.5993218E-006  0.1222761E+03  0.7818608E-02  0.1366973E+00
          2   -1    0    0  502    0  0.00000000000E+00  0.00000000000E+00  0.47098000670E+03  0.47098000670E+03  0.00000000000E+00 0. -1.
          1   -1    0    0  501    0 -0.00000000000E+00 -0.00000000000E+00 -0.64467351989E+03  0.64467351989E+03  0.00000000000E+00 0. -1.
         25    2    1    2    0    0 -0.93553739300E+02  0.95314942221E+02  0.38719301658E+02  0.18699364798E+03  0.12502079714E+03 0.  0.
          2    1    1    2  501    0  0.10629967003E+03 -0.59692835186E+02 -0.56299426712E+03  0.57604287968E+03  0.00000000000E+00 0. -1.
          1    1    1    2  502    0 -0.12745930726E+02 -0.35622107035E+02  0.35058145227E+03  0.35261699893E+03  0.00000000000E+00 0. -1.
         22    1    3    3    0    0  0.29582167829E+02  0.97762553304E+01 -0.31813957681E+01  0.31317744184E+02  0.00000000000E+00 0.  1.
         22    1    3    3    0    0 -0.12313590713E+03  0.85538686890E+02  0.41900697426E+02  0.15567590380E+03  0.00000000000E+00 0.  1.
</event>
<event>
 7    1  0.5993218E-006  0.9027584E+02  0.7818608E-02  0.1386998E+00
          2   -1    0    0  502    0  0.00000000000E+00  0.00000000000E+00  0.17564981128E+03  0.17564981128E+03  0.00000000000E+00 0. -1.
          1   -1    0    0  501    0 -0.00000000000E+00 -0.00000000000E+00 -0.81792808459E+03  0.81792808459E+03  0.00000000000E+00 0. -1.
         25    2    1    2    0    0  0.71397262990E+02 -0.29786908676E+01 -0.48331109784E+03  0.50430261981E+03  0.12500029316E+03 0.  0.
          2    1    1    2  501    0  0.71525463725E+01 -0.42899237972E+02 -0.30996088374E+03  0.31299720923E+03  0.00000000000E+00 0. -1.
          1    1    1    2  502    0 -0.78549809362E+02  0.45877928839E+02  0.15099370827E+03  0.17627806682E+03  0.00000000000E+00 0. -1.
         22    1    3    3    0    0 -0.67597252979E+01 -0.36593659538E+02 -0.47896142161E+02  0.60653361311E+02  0.00000000000E+00 0.  1.
         22    1    3    3    0    0  0.78156988287E+02  0.33614968670E+02 -0.43541495568E+03  0.44364925850E+03  0.00000000000E+00 0.  1.
</event>
<event>
 7    1  0.5993218E-006  0.5519559E+02  0.7818608E-02  0.1437072E+00
          2   -1    0    0  502    0  0.00000000000E+00  0.00000000000E+00  0.36897795914E+03  0.36897795914E+03  0.00000000000E+00 0. -1.
          1   -1    0    0  501    0 -0.00000000000E+00 -0.00000000000E+00 -0.20299990273E+03  0.20299990273E+03  0.00000000000E+00 0. -1.
         25    2    1    2    0    0  0.27500465853E+02  0.18751833511E+02  0.49617639314E+02  0.13854018383E+03  0.12499426196E+03 0.  0.
          2    1    1    2  501    0  0.14947362686E+01 -0.57224825727E+02 -0.15114847822E+03  0.16162542307E+03  0.00000000000E+00 0. -1.
          1    1    1    2  502    0 -0.28995202121E+02  0.38472992216E+02  0.26750889532E+03  0.27181225497E+03  0.00000000000E+00 0. -1.
         22    1    3    3    0    0  0.32474403301E+02  0.13341228248E+02  0.90464114934E+02  0.97037783011E+02  0.00000000000E+00 0. -1.
         22    1    3    3    0    0 -0.49739374479E+01  0.54106052633E+01 -0.40846475620E+02  0.41502400818E+02  0.00000000000E+00 0. -1.
</event>
<event>
 7    1  0.5993218E-006  0.3025379E+03  0.7818608E-02  0.1110664E+00
          2   -1    0    0  502    0  0.00000000000E+00  0.00000000000E+00  0.50234765455E+03  0.50234765455E+03  0.00000000000E+00 0. -1.
          1   -1    0    0  501    0 -0.00000000000E+00 -0.00000000000E+00 -0.14474263379E+04  0.14474263379E+04  0.00000000000E+00 0. -1.
         25    2    1    2    0    0 -0.99272314602E+02  0.89109182138E+02  0.14341308032E+02  0.18337432955E+03  0.12500013133E+03 0.  0.
          2    1    1    2  501    0  0.19061785205E+03 -0.28222027860E+03 -0.13112709287E+04  0.13547748520E+04  0.00000000000E+00 0. -1.
          1    1    1    2  502    0 -0.91345537443E+02  0.19311109646E+03  0.35185093736E+03  0.41162481085E+03  0.00000000000E+00 0. -1.
         22    1    3    3    0    0 -0.76484458881E+02 -0.13447991942E+02  0.31501050238E+01  0.77721580654E+02  0.00000000000E+00 0.  1.
         22    1    3    3    0    0 -0.22787855721E+02  0.10255717408E+03  0.11191203008E+02  0.10565274889E+03  0.00000000000E+00 0.  1.
</event>
<event>
 7    1  0.5993218E-006  0.6198433E+02  0.7818608E-02  0.1504820E+00
          2   -1    0    0  502    0  0.00000000000E+00  0.00000000000E+00  0.13111932711E+04  0.13111932711E+04  0.00000000000E+00 0. -1.
          1   -1    0    0  501    0 -0.00000000000E+00 -0.00000000000E+00 -0.28279934790E+03  0.28279934790E+03  0.00000000000E+00 0. -1.
         25    2    1    2    0    0  0.33443695967E+02  0.30964485901E+02 -0.20205245627E+02  0.13457555380E+03  0.12500019017E+03 0.  0.
          2    1    1    2  501    0 -0.72112190608E+01  0.25412731144E+02 -0.20378509562E+03  0.20549008196E+03  0.00000000000E+00 0. -1.
          1    1    1    2  502    0 -0.26232476906E+02 -0.56377217045E+02  0.12523842645E+04  0.12539269833E+04  0.00000000000E+00 0. -1.
         22    1    3    3    0    0  0.67052704123E+01 -0.32662751108E+02  0.33393310102E+02  0.47190349869E+02  0.00000000000E+00 0.  1.
         22    1    3    3    0    0  0.26738425555E+02  0.63627237009E+02 -0.53598555728E+02  0.87385203934E+02  0.00000000000E+00 0.  1.
</event>
<event>
 7    1  0.5993218E-006  0.9494579E+02  0.7818608E-02  0.1301280E+00
          2   -1    0    0  502    0  0.00000000000E+00  0.00000000000E+00  0.52400679719E+03  0.52400679719E+03  0.00000000000E+00 0. -1.
          1   -1    0    0  501    0 -0.00000000000E+00 -0.00000000000E+00 -0.23830214032E+03  0.23830214032E+03  0.00000000000E+00 0. -1.
         25    2    1    2    0    0 -0.24388546866E+02  0.10495164170E+03  0.24106442821E+03  0.29214174258E+03  0.12500036360E+03 0.  0.
          2    1    1    2  501    0  0.85467660912E+02 -0.43627135473E+02 -0.19393518671E+03  0.21637676552E+03  0.00000000000E+00 0. -1.
          1    1    1    2  502    0 -0.61079114047E+02 -0.61324506225E+02  0.23857541538E+03  0.25379042941E+03  0.00000000000E+00 0. -1.
         22    1    3    3    0    0 -0.62422635773E+02  0.96231520927E+02  0.21923722290E+03  0.24743090143E+03  0.00000000000E+00 0. -1.
         22    1    3    3    0    0  0.38034088907E+02  0.87201207715E+01  0.21827205306E+02  0.44710841154E+02  0.00000000000E+00 0. -1.
</event>
<event>
 7    1  0.5993218E-006  0.1037948E+03  0.7818608E-02  0.1420613E+00
          2   -1    0    0  502    0  0.00000000000E+00  0.00000000000E+00  0.85339769957E+03  0.85339769957E+03  0.00000000000E+00 0. -1.
          1   -1    0    0  501    0 -0.00000000000E+00 -0.00000000000E+00 -0.38361620925E+03  0.38361620925E+03  0.00000000000E+00 0. -1.
         25    2    1    2    0    0 -0.77069867095E+02  0.33092194742E+02  0.35085101544E+03  0.38177812427E+03  0.12499297329E+03 0.  0.
          2    1    1    2  501    0  0.84392699740E+02 -0.61182425681E+02 -0.36032632927E+03  0.37510062723E+03  0.00000000000E+00 0. -1.
          1    1    1    2  502    0 -0.73228326452E+01  0.28090230939E+02  0.47925680415E+03  0.48013515730E+03  0.00000000000E+00 0. -1.
         22    1    3    3    0    0  0.15723645040E+01  0.44048356807E+02  0.24777838433E+03  0.25166815016E+03  0.00000000000E+00 0. -1.
         22    1    3    3    0    0 -0.78642231599E+02 -0.10956162065E+02  0.10307263111E+03  0.13010997411E+03  0.00000000000E+00 0. -1.
</event>
<event>
 7    1  0.5993218E-006  0.2556778E+03  0.7818608E-02  0.1182306E+00
          2   -1    0    0  502    0  0.00000000000E+00  0.00000000000E+00  0.44025443598E+03  0.44025443598E+03  0.00000000000E+00 0. -1.
          1   -1    0    0  501    0 -0.00000000000E+00 -0.00000000000E+00 -0.10030263040E+04  0.10030263040E+04  0.00000000000E+00 0. -1.
         25    2    1    2    0    0  0.22853823722E+03  0.24559052200E+03 -0.17931823372E+03  0.40040730969E+03  0.12500621720E+03 0.  0.
          2    1    1    2  501    0 -0.10061158881E+03 -0.37888749774E+02 -0.66311450507E+03  0.67177309860E+03  0.00000000000E+00 0. -1.
          1    1    1    2  502    0 -0.12792664841E+03 -0.20770177222E+03  0.27966087076E+03  0.37110033171E+03  0.00000000000E+00 0. -1.
         22    1    3    3    0    0  0.14542860002E+03  0.20261281733E+03 -0.17874583076E+03  0.30684116977E+03  0.00000000000E+00 0.  1.
         22    1    3    3    0    0  0.83109637201E+02  0.42977704666E+02 -0.57240295943E+00  0.93566139918E+02  0.00000000000E+00 0.  1.
</event>
<event>
 7    1  0.5993218E-006  0.7029443E+02  0.7818608E-02  0.1425852E+00
          2   -1    0    0  502    0  0.00000000000E+00  0.00000000000E+00  0.15555306833E+03  0.15555306833E+03  0.00000000000E+00 0. -1.
          1   -1    0    0  501    0 -0.00000000000E+00 -0.00000000000E+00 -0.16619751636E+04  0.16619751636E+04  0.00000000000E+00 0. -1.
         25    2    1    2    0    0  0.47645246231E+02  0.12192019548E+02 -0.65303701516E+03  0.66670926453E+03  0.12500074163E+03 0.  0.
          2    1    1    2  501    0 -0.73265031632E+02  0.20046239767E+02 -0.99778004524E+03  0.10006670951E+04  0.00000000000E+00 0. -1.
          1    1    1    2  502    0  0.25619785401E+02 -0.32238259315E+02  0.14439496517E+03  0.15015187223E+03  0.00000000000E+00 0. -1.
         22    1    3    3    0    0  0.55143395387E+02  0.42872501761E+02 -0.60624576002E+03  0.61025631255E+03  0.00000000000E+00 0.  1.
         22    1    3    3    0    0 -0.74981491553E+01 -0.30680482213E+02 -0.46791255142E+02  0.56452951980E+02  0.00000000000E+00 0.  1.
</event>
<event>
 7    1  0.5993218E-006  0.1028702E+03  0.7818608E-02  0.1363916E+00
          2   -1    0    0  502    0  0.00000000000E+00  0.00000000000E+00  0.17141647712E+03  0.17141647712E+03  0.00000000000E+00 0. -1.
          1   -1    0    0  501    0 -0.00000000000E+00 -0.00000000000E+00 -0.47190873348E+03  0.47190873348E+03  0.00000000000E+00 0. -1.
         25    2    1    2    0    0  0.18979315566E+02 -0.84470849865E+02 -0.14188730515E+03  0.20797074859E+03  0.12499714401E+03 0.  0.
          2    1    1    2  501    0  0.46114869672E+02  0.12312066804E+01 -0.27459762340E+03  0.27844559945E+03  0.00000000000E+00 0. -1.
          1    1    1    2  502    0 -0.65094185238E+02  0.83239643184E+02  0.11599267219E+03  0.15690886256E+03  0.00000000000E+00 0. -1.
         22    1    3    3    0    0  0.46723814170E+02 -0.37158383982E+02 -0.42982208125E+01  0.59852610744E+02  0.00000000000E+00 0. -1.
         22    1    3    3    0    0 -0.27744498604E+02 -0.47312465883E+02 -0.13758908433E+03  0.14811813784E+03  0.00000000000E+00 0. -1.
</event>
<event>
 7    1  0.5993218E-006  0.8455357E+02  0.7818608E-02  0.1367980E+00
          2   -1    0    0  502    0  0.00000000000E+00  0.00000000000E+00  0.17473390773E+03  0.17473390773E+03  0.00000000000E+00 0. -1.
          1   -1    0    0  501    0 -0.00000000000E+00 -0.00000000000E+00 -0.16165014619E+04  0.16165014619E+04  0.00000000000E+00 0. -1.
         25    2    1    2    0    0  0.31367691838E+02  0.43489200884E+02 -0.98099731418E+02  0.16770158158E+03  0.12500008190E+03 0.  0.
          2    1    1    2  501    0  0.23173017126E+01 -0.86023259260E+02 -0.14770416123E+04  0.14795463141E+04  0.00000000000E+00 0. -1.
          1    1    1    2  502    0 -0.33684993550E+02  0.42534058376E+02  0.13337378957E+03  0.14398747396E+03  0.00000000000E+00 0. -1.
         22    1    3    3    0    0 -0.45087756725E+02  0.41792644301E+01 -0.13897559208E+02  0.47365749330E+02  0.00000000000E+00 0. -1.
         22    1    3    3    0    0  0.76455448563E+02  0.39309936454E+02 -0.84202172210E+02  0.12033583225E+03  0.00000000000E+00 0. -1.
</event>
<event>
 7    1  0.5993218E-006  0.6734077E+02  0.7818608E-02  0.1473093E+00
          2   -1    0    0  502    0  0.00000000000E+00  0.00000000000E+00  0.16242773651E+04  0.16242773651E+04  0.00000000000E+00 0. -1.
          1   -1    0    0  501    0 -0.00000000000E+00 -0.00000000000E+00 -0.73927033591E+03  0.73927033591E+03  0.00000000000E+00 0. -1.
         25    2    1    2    0    0  0.38270188208E+02 -0.12518868457E+02  0.10117818187E+03  0.16578149202E+03  0.12500059694E+03 0.  0.
          2    1    1    2  501    0  0.19681325049E+02 -0.23089925023E+02 -0.70586682404E+03  0.70651855777E+03  0.00000000000E+00 0. -1.
          1    1    1    2  502    0 -0.57951513256E+02  0.35608793481E+02  0.14896956713E+04  0.14912476512E+04  0.00000000000E+00 0. -1.
         22    1    3    3    0    0  0.49472715728E+02  0.22407472964E+02 -0.39345903192E+01  0.54452965458E+02  0.00000000000E+00 0.  1.
         22    1    3    3    0    0 -0.11202527521E+02 -0.34926341421E+02  0.10511277219E+03  0.11132852656E+03  0.00000000000E+00 0.  1.
</event>
<event>
 7    1  0.5993218E-006  0.6433623E+02  0.7818608E-02  0.1426076E+00
          2   -1    0    0  502    0  0.00000000000E+00  0.00000000000E+00  0.22952757350E+04  0.22952757350E+04  0.00000000000E+00 0. -1.
          1   -1    0    0  501    0 -0.00000000000E+00 -0.00000000000E+00 -0.39110086055E+03  0.39110086055E+03  0.00000000000E+00 0. -1.
         25    2    1    2    0    0 -0.81965836051E+02  0.51694666861E+02  0.25526688986E+03  0.30029435624E+03  0.12499911386E+03 0.  0.
          2    1    1    2  501    0  0.44914873353E+02  0.19910848858E+00 -0.36671277734E+03  0.36945317235E+03  0.00000000000E+00 0. -1.
          1    1    1    2  502    0  0.37050962697E+02 -0.51893775349E+02  0.20156207620E+04  0.20166290670E+04  0.00000000000E+00 0. -1.
         22    1    3    3    0    0  0.14593097746E+02  0.15886305345E+02 -0.34390037810E+01  0.21843991081E+02  0.00000000000E+00 0.  1.
         22    1    3    3    0    0 -0.96558933796E+02  0.35808361516E+02  0.25870589364E+03  0.27845036516E+03  0.00000000000E+00 0.  1.
</event>
<event>
 7    1  0.5993218E-006  0.1224771E+03  0.7818608E-02  0.1271757E+00
          2   -1    0    0  502    0  0.00000000000E+00  0.00000000000E+00  0.13830525700E+03  0.13830525700E+03  0.00000000000E+00 0. -1.
          1   -1    0    0  501    0 -0.00000000000E+00 -0.00000000000E+00 -0.22097208761E+04  0.22097208761E+04  0.00000000000E+00 0. -1.
         25    2    1    2    0    0  0.89237579037E+01  0.19821949913E+03 -0.32372079893E+03  0.39973860958E+03  0.12500078816E+03 0.  0.
          2    1    1    2  501    0  0.20344545673E+02 -0.86237769563E+02 -0.18131528238E+04  0.18153165057E+04  0.00000000000E+00 0. -1.
          1    1    1    2  502    0 -0.29268303576E+02 -0.11198172956E+03  0.65458003597E+02  0.13297101784E+03  0.00000000000E+00 0. -1.
         22    1    3    3    0    0 -0.32953874627E+02  0.52764836364E+02 -0.29465467160E+02  0.68835307542E+02  0.00000000000E+00 0. -1.
         22    1    3    3    0    0  0.41877632531E+02  0.14545466276E+03 -0.29425533177E+03  0.33090330204E+03  0.00000000000E+00 0. -1.
</event>
<event>
 7    1  0.5993218E-006  0.1014019E+03  0.7818608E-02  0.1350832E+00
          2   -1    0    0  502    0  0.00000000000E+00  0.00000000000E+00  0.29747721613E+04  0.29747721613E+04  0.00000000000E+00 0. -1.
          1   -1    0    0  501    0 -0.00000000000E+00 -0.00000000000E+00 -0.80754560459E+02  0.80754560459E+02  0.00000000000E+00 0. -1.
         25    2    1    2    0    0 -0.38510495177E+02  0.49185967132E+02  0.54017046941E+03  0.55795594619E+03  0.12501353633E+03 0.  0.
          2    1    1    2  501    0  0.90711052429E+02 -0.51705473224E+02 -0.33497525028E+02  0.10965416170E+03  0.00000000000E+00 0. -1.
          1    1    1    2  502    0 -0.52200557252E+02  0.25195060916E+01  0.23873446565E+04  0.23879166139E+04  0.00000000000E+00 0. -1.
         22    1    3    3    0    0 -0.13855867406E+02  0.64163532536E+01  0.47947883187E+03  0.47972190367E+03  0.00000000000E+00 0.  1.
         22    1    3    3    0    0 -0.24654627771E+02  0.42769613879E+02  0.60691637544E+02  0.78234042524E+02  0.00000000000E+00 0.  1.
</event>
<event>
 7    1  0.5993218E-006  0.8213183E+02  0.7818608E-02  0.1386942E+00
          2   -1    0    0  502    0  0.00000000000E+00  0.00000000000E+00  0.22482607803E+03  0.22482607803E+03  0.00000000000E+00 0. -1.
          1   -1    0    0  501    0 -0.00000000000E+00 -0.00000000000E+00 -0.11277646299E+04  0.11277646299E+04  0.00000000000E+00 0. -1.
         25    2    1    2    0    0 -0.32769143866E+02  0.25463577969E+02 -0.24927058491E+03  0.28192692069E+03  0.12499901406E+03 0.  0.
          2    1    1    2  501    0 -0.86944112525E+01  0.47028659724E+02 -0.85310655638E+03  0.85444606861E+03  0.00000000000E+00 0. -1.
          1    1    1    2  502    0  0.41463555118E+02 -0.72492237693E+02  0.19943858938E+03  0.21621771866E+03  0.00000000000E+00 0. -1.
         22    1    3    3    0    0 -0.61492178967E+02  0.54497721721E+02 -0.11331798956E+03  0.13997234193E+03  0.00000000000E+00 0. -1.
         22    1    3    3    0    0  0.28723035102E+02 -0.29034143752E+02 -0.13595259535E+03  0.14195457876E+03  0.00000000000E+00 0. -1.
</event>
<event>
 7    1  0.5993218E-006  0.3380092E+03  0.7818608E-02  0.1204376E+00
          2   -1    0    0  502    0  0.00000000000E+00  0.00000000000E+00  0.42073818402E+03  0.42073818402E+03  0.00000000000E+00 0. -1.
          1   -1    0    0  501    0 -0.00000000000E+00 -0.00000000000E+00 -0.16530982929E+04  0.16530982929E+04  0.00000000000E+00 0. -1.
         25    2    1    2    0    0 -0.30860215024E+03 -0.68001200093E+01 -0.71706994211E+02  0.34065890700E+03  0.12500027654E+03 0.  0.
          2    1    1    2  501    0  0.33700520380E+03  0.63945368593E+02 -0.14227025723E+04  0.14634698927E+04  0.00000000000E+00 0. -1.
          1    1    1    2  502    0 -0.28403053556E+02 -0.57145248584E+02  0.26204945766E+03  0.26970767722E+03  0.00000000000E+00 0. -1.
         22    1    3    3    0    0 -0.25378976976E+03 -0.53362006176E+02 -0.41435562408E+02  0.26262836246E+03  0.00000000000E+00 0. -1.
         22    1    3    3    0    0 -0.54812380483E+02  0.46561886167E+02 -0.30271431804E+02  0.78030544539E+02  0.00000000000E+00 0. -1.
</event>
<event>
 7    1  0.5993218E-006  0.1333165E+03  0.7818608E-02  0.1260259E+00
          2   -1    0    0  502    0  0.00000000000E+00  0.00000000000E+00  0.11894368802E+04  0.11894368802E+04  0.00000000000E+00 0. -1.
          1   -1    0    0  501    0 -0.00000000000E+00 -0.00000000000E+00 -0.11322861876E+04  0.11322861876E+04  0.00000000000E+00 0. -1.
         25    2    1    2    0    0  0.11523039647E+03 -0.18692107361E+02 -0.36436950162E+02  0.17487075129E+03  0.12499875668E+03 0.  0.
          2    1    1    2  501    0 -0.86620929205E+02  0.10511851559E+03 -0.10202490548E+04  0.10293013269E+04  0.00000000000E+00 0. -1.
          1    1    1    2  502    0 -0.28609467263E+02 -0.86426408231E+02  0.11138366975E+04  0.11175509896E+04  0.00000000000E+00 0. -1.
         22    1    3    3    0    0  0.60703981222E+02 -0.69361972174E+02 -0.40878898327E+00  0.92174962048E+02  0.00000000000E+00 0.  1.
         22    1    3    3    0    0  0.54526415246E+02  0.50669864813E+02 -0.36028161178E+02  0.82695789238E+02  0.00000000000E+00 0.  1.
</event>
<event>
 7    1  0.5993218E-006  0.9374949E+02  0.7818608E-02  0.1375263E+00
          2   -1    0    0  502    0  0.00000000000E+00  0.00000000000E+00  0.14605409735E+04  0.14605409735E+04  0.00000000000E+00 0. -1.
          1   -1    0    0  501    0 -0.00000000000E+00 -0.00000000000E+00 -0.16435393118E+03  0.16435393118E+03  0.00000000000E+00 0. -1.
         25    2    1    2    0    0 -0.94630817871E+02  0.31993339876E+02  0.37169087457E+03  0.40466993356E+03  0.12500033362E+03 0.  0.
          2    1    1    2  501    0  0.14701999619E+01 -0.46054998622E+02 -0.14214699115E+03  0.14942888435E+03  0.00000000000E+00 0. -1.
          1    1    1    2  502    0  0.93160617909E+02  0.14061658747E+02  0.10666431589E+04  0.10707960868E+04  0.00000000000E+00 0. -1.
         22    1    3    3    0    0 -0.29935702981E+02 -0.39170714904E+02  0.55781838943E+02  0.74445313989E+02  0.00000000000E+00 0. -1.
         22    1    3    3    0    0 -0.64695114889E+02  0.71164054779E+02  0.31590903562E+03  0.33022461957E+03  0.00000000000E+00 0. -1.
</event>
<event>
 7    1  0.5993218E-006  0.1697387E+03  0.7818608E-02  0.1341382E+00
          2   -1    0    0  502    0  0.00000000000E+00  0.00000000000E+00  0.57158457672E+03  0.57158457672E+03  0.00000000000E+00 0. -1.
          1   -1    0    0  501    0 -0.00000000000E+00 -0.00000000000E+00 -0.49830991011E+03  0.49830991011E+03  0.00000000000E+00 0. -1.
         25    2    1    2    0    0 -0.48313439712E+02 -0.13767198955E+03  0.15368769536E+03  0.24603460097E+03  0.12500140801E+03 0.  0.
          2    1    1    2  501    0  0.34059995368E+02  0.16838408346E+03 -0.43498203971E+03  0.46767794230E+03  0.00000000000E+00 0. -1.
          1    1    1    2  502    0  0.14253444345E+02 -0.30712093905E+02  0.35456901096E+03  0.35618194356E+03  0.00000000000E+00 0. -1.
         22    1    3    3    0    0 -0.52185118371E+02 -0.15382687915E+03  0.16024363479E+03  0.22817541020E+03  0.00000000000E+00 0.  1.
         22    1    3    3    0    0  0.38716786588E+01  0.16154889596E+02 -0.65559394228E+01  0.17859190777E+02  0.00000000000E+00 0.  1.
</event>
<event>
 7    1  0.5993218E-006  0.2429521E+03  0.7818608E-02  0.1306735E+00
          2   -1    0    0  502    0  0.00000000000E+00  0.00000000000E+00  0.17030114566E+04  0.17030114566E+04  0.00000000000E+00 0. -1.
          1   -1    0    0  501    0 -0.00000000000E+00 -0.00000000000E+00 -0.14957829247E+03  0.14957829247E+03  0.00000000000E+00 0. -1.
         25    2    1    2    0    0  0.38998277689E+02  0.26385463986E+03  0.48893599763E+03  0.57080907392E+03  0.12499780981E+03 0.  0.
          2    1    1    2  501    0 -0.46567323546E+02 -0.23258134626E+03  0.21370785487E+02  0.23815815906E+03  0.00000000000E+00 0. -1.
          1    1    1    2  502    0  0.75690458561E+01 -0.31273293595E+02  0.10431263810E+04  0.10436225161E+04  0.00000000000E+00 0. -1.
         22    1    3    3    0    0  0.10236051382E+02 -0.23671910074E+01 -0.28179758961E+01  0.10877560816E+02  0.00000000000E+00 0.  1.
         22    1    3    3    0    0  0.28762226308E+02  0.26622183087E+03  0.49175397353E+03  0.55993151311E+03  0.00000000000E+00 0.  1.
</event>
<event>
 7    1  0.5993218E-006  0.6522727E+02  0.7818608E-02  0.1484496E+00
          2   -1    0    0  502    0  0.00000000000E+00  0.00000000000E+00  0.16407454649E+04  0.16407454649E+04  0.00000000000E+00 0. -1.
          1   -1    0    0  501    0 -0.00000000000E+00 -0.00000000000E+00 -0.27360581957E+02  0.27360581957E+02  0.00000000000E+00 0. -1.
         25    2    1    2    0    0 -0.57899617839E+02  0.68642768160E+02  0.10188113381E+04  0.10303706850E+04  0.12499204162E+03 0.  0.
          2    1    1    2  501    0  0.32185335879E+02 -0.55463679254E+02  0.27248454439E+02  0.69674915367E+02  0.00000000000E+00 0. -1.
          1    1    1    2  502    0  0.25714281960E+02 -0.13179088906E+02  0.56732509041E+03  0.56806044651E+03  0.00000000000E+00 0. -1.
         22    1    3    3    0    0  0.62352631706E+01  0.25984890775E+02  0.75680782886E+03  0.75727946155E+03  0.00000000000E+00 0.  1.
         22    1    3    3    0    0 -0.64134881010E+02  0.42657877385E+02  0.26200350922E+03  0.27309122342E+03  0.00000000000E+00 0.  1.
</event>
<event>
 7    1  0.5993218E-006  0.8836342E+02  0.7818608E-02  0.1346892E+00
          2   -1    0    0  502    0  0.00000000000E+00  0.00000000000E+00  0.91635079503E+03  0.91635079503E+03  0.00000000000E+00 0. -1.
          1   -1    0    0  501    0 -0.00000000000E+00 -0.00000000000E+00 -0.52522088412E+03  0.52522088412E+03  0.00000000000E+00 0. -1.
         25    2    1    2    0    0  0.84650790231E+02 -0.18278710042E+02  0.67124444420E+02  0.16623638679E+03  0.12501590989E+03 0.  0.
          2    1    1    2  501    0 -0.63939344382E+01  0.61696002789E+02 -0.47112184494E+03  0.47518740718E+03  0.00000000000E+00 0. -1.
          1    1    1    2  502    0 -0.78256855793E+02 -0.43417292747E+02  0.79512731143E+03  0.80014788518E+03  0.00000000000E+00 0. -1.
         22    1    3    3    0    0  0.10005367466E+03 -0.43144889862E+02  0.79084996676E+02  0.13463527039E+03  0.00000000000E+00 0.  1.
         22    1    3    3    0    0 -0.15402884424E+02  0.24866179820E+02 -0.11960552256E+02  0.31601116399E+02  0.00000000000E+00 0.  1.
</event>
<event>
 7    1  0.5993218E-006  0.8394612E+02  0.7818608E-02  0.1470413E+00
          2   -1    0    0  502    0  0.00000000000E+00  0.00000000000E+00  0.51213616863E+03  0.51213616863E+03  0.00000000000E+00 0. -1.
          1   -1    0    0  501    0 -0.00000000000E+00 -0.00000000000E+00 -0.14543101821E+03  0.14543101821E+03  0.00000000000E+00 0. -1.
         25    2    1    2    0    0  0.34180778640E+02  0.60695615710E+02  0.92364676777E+02  0.17031354601E+03  0.12499274797E+03 0.  0.
          2    1    1    2  501    0 -0.23150375000E+02 -0.82917223516E+02 -0.88559278273E+02  0.12350688882E+03  0.00000000000E+00 0. -1.
          1    1    1    2  502    0 -0.11030403641E+02  0.22221607805E+02  0.36289975191E+03  0.36374675201E+03  0.00000000000E+00 0. -1.
         22    1    3    3    0    0 -0.20429115014E+02 -0.30203100496E+02  0.17081971312E+02  0.40266236026E+02  0.00000000000E+00 0. -1.
         22    1    3    3    0    0  0.54609893655E+02  0.90898716206E+02  0.75282705465E+02  0.13004730999E+03  0.00000000000E+00 0. -1.
</event>
<event>
 7    1  0.5993218E-006  0.8713743E+02  0.7818608E-02  0.1355086E+00
          2   -1    0    0  502    0  0.00000000000E+00  0.00000000000E+00  0.23864204523E+04  0.23864204523E+04  0.00000000000E+00 0. -1.
          1   -1    0    0  501    0 -0.00000000000E+00 -0.00000000000E+00 -0.10901655467E+04  0.10901655467E+04  0.00000000000E+00 0. -1.
         25    2    1    2    0    0 -0.80125888067E+00 -0.30582457014E+02  0.14625251649E+03  0.19481076645E+03  0.12500202979E+03 0.  0.
          2    1    1    2  501    0 -0.41925205467E+01 -0.58508465587E+02 -0.10641800813E+04  0.10657955072E+04  0.00000000000E+00 0. -1.
          1    1    1    2  502    0  0.49937794274E+01  0.89090922602E+02  0.22141824704E+04  0.22159797252E+04  0.00000000000E+00 0. -1.
         22    1    3    3    0    0 -0.23641894528E+02 -0.48706476820E+02  0.15515036808E+03  0.16432558163E+03  0.00000000000E+00 0.  1.
         22    1    3    3    0    0  0.22840635648E+02  0.18124019805E+02 -0.88978515903E+01  0.30485184822E+02  0.00000000000E+00 0.  1.
</event>
<event>
 7    1  0.5993218E-006  0.2368697E+03  0.7818608E-02  0.1288328E+00
          2   -1    0    0  502    0  0.00000000000E+00  0.00000000000E+00  0.14096777983E+04  0.14096777983E+04  0.00000000000E+00 0. -1.
          1   -1    0    0  501    0 -0.00000000000E+00 -0.00000000000E+00 -0.35648395129E+03  0.35648395129E+03  0.00000000000E+00 0. -1.
         25    2    1    2    0    0 -0.19135863707E+03  0.10612907546E+03 -0.49789124658E+02  0.25686885508E+03  0.12498457160E+03 0.  0.
          2    1    1    2  501    0  0.23791472763E+01  0.39059095811E+02 -0.19027692093E+03  0.19425905370E+03  0.00000000000E+00 0. -1.
          1    1    1    2  502    0  0.18897948979E+03 -0.14518817127E+03  0.12932598926E+04  0.13150338408E+04  0.00000000000E+00 0. -1.
         22    1    3    3    0    0 -0.13374020021E+03  0.11359896103E+03 -0.78298460606E+02  0.19215049839E+03  0.00000000000E+00 0.  1.
         22    1    3    3    0    0 -0.57618436855E+02 -0.74698855720E+01  0.28509335948E+02  0.64718356687E+02  0.00000000000E+00 0.  1.
</event>
<event>
 7    1  0.5993218E-006  0.2200872E+03  0.7818608E-02  0.1217776E+00
          2   -1    0    0  502    0  0.00000000000E+00  0.00000000000E+00  0.58359880720E+03  0.58359880720E+03  0.00000000000E+00 0. -1.
          1   -1    0    0  501    0 -0.00000000000E+00 -0.00000000000E+00 -0.11764516886E+04  0.11764516886E+04  0.00000000000E+00 0. -1.
         25    2    1    2    0    0  0.62387849450E+02 -0.13640713814E+03 -0.28650829743E+02  0.19730765315E+03  0.12494114156E+03 0.  0.
          2    1    1    2  501    0 -0.12477876557E+03  0.19408083667E+03 -0.10472057472E+04  0.10723231735E+04  0.00000000000E+00 0. -1.
          1    1    1    2  502    0  0.62390916120E+02 -0.57673698536E+02  0.48300369556E+03  0.49041966910E+03  0.00000000000E+00 0. -1.
         22    1    3    3    0    0  0.54055428680E+02 -0.76638474006E+02 -0.75912021459E+02  0.12065686914E+03  0.00000000000E+00 0.  1.
         22    1    3    3    0    0  0.83324207695E+01 -0.59768664129E+02  0.47261191716E+02  0.76650784015E+02  0.00000000000E+00 0.  1.
</event>
<event>
 7    1  0.5993218E-006  0.1659915E+03  0.7818608E-02  0.1261774E+00
          2   -1    0    0  502    0  0.00000000000E+00  0.00000000000E+00  0.27303190857E+04  0.27303190857E+04  0.00000000000E+00 0. -1.
          1   -1    0    0  501    0 -0.00000000000E+00 -0.00000000000E+00 -0.32118357547E+03  0.32118357547E+03  0.00000000000E+00 0. -1.
         25    2    1    2    0    0 -0.28872174081E+02  0.22504091624E+03  0.46307545217E+03  0.53060605993E+03  0.12500759982E+03 0.  0.
          2    1    1    2  501    0 -0.79195091956E+01 -0.16310501301E+03 -0.26358941009E+03  0.31007312203E+03  0.00000000000E+00 0. -1.
          1    1    1    2  502    0  0.36791683277E+02 -0.61935903233E+02  0.22096494681E+04  0.22108234792E+04  0.00000000000E+00 0. -1.
         22    1    3    3    0    0 -0.95237600098E+01  0.66943261120E+02  0.27950816457E+03  0.28757071526E+03  0.00000000000E+00 0. -1.
         22    1    3    3    0    0 -0.19348414072E+02  0.15809765512E+03  0.18356728760E+03  0.24303534467E+03  0.00000000000E+00 0. -1.
</event>
<event>
 7    1  0.5993218E-006  0.1529870E+03  0.7818608E-02  0.1217650E+00
          2   -1    0    0  502    0  0.00000000000E+00  0.00000000000E+00  0.70766620347E+03  0.70766620347E+03  0.00000000000E+00 0. -1.
          1   -1    0    0  501    0 -0.00000000000E+00 -0.00000000000E+00 -0.11022015300E+04  0.11022015300E+04  0.00000000000E+00 0. -1.
         25    2    1    2    0    0  0.42910140966E+02 -0.88233066894E+02  0.89953483691E+02  0.18258335708E+03  0.12497479251E+03 0.  0.
          2    1    1    2  501    0  0.67131923896E+02  0.14180797241E+03 -0.10433996211E+04  0.10551298335E+04  0.00000000000E+00 0. -1.
          1    1    1    2  502    0 -0.11004206486E+03 -0.53574905519E+02  0.55891081083E+03  0.57215454294E+03  0.00000000000E+00 0. -1.
         22    1    3    3    0    0 -0.31916729968E+02  0.11516079211E+02  0.23616394489E+02  0.41340438083E+02  0.00000000000E+00 0.  1.
         22    1    3    3    0    0  0.74826870934E+02 -0.99749146105E+02  0.66337089203E+02  0.14124291900E+03  0.00000000000E+00 0.  1.
</event>
<event>
 7    1  0.5993218E-006  0.2859523E+03  0.7818608E-02  0.1216175E+00
          2   -1    0    0  502    0  0.00000000000E+00  0.00000000000E+00  0.12120465355E+04  0.12120465355E+04  0.00000000000E+00 0. -1.
          1   -1    0    0  501    0 -0.00000000000E+00 -0.00000000000E+00 -0.96653004170E+03  0.96653004170E+03  0.00000000000E+00 0. -1.
         25    2    1    2    0    0 -0.30636033423E+03  0.99740654934E+02 -0.52039831782E+03  0.62469659256E+03  0.12500628357E+03 0.  0.
          2    1    1    2  501    0  0.24053440058E+03 -0.90240628949E+02 -0.35100785192E+03  0.43497894327E+03  0.00000000000E+00 0. -1.
          1    1    1    2  502    0  0.65825933646E+02 -0.95000259845E+01  0.11169226635E+04  0.11189010414E+04  0.00000000000E+00 0. -1.
         22    1    3    3    0    0 -0.30005183270E+03  0.10978030500E+03 -0.52270223062E+03  0.61261769446E+03  0.00000000000E+00 0. -1.
         22    1    3    3    0    0 -0.63085015349E+01 -0.10039650071E+02  0.23039127989E+01  0.12078898102E+02  0.00000000000E+00 0. -1.
</event>
<event>
 7    1  0.5993218E-006  0.7130670E+02  0.7818608E-02  0.1466509E+00
          2   -1    0    0  502    0  0.00000000000E+00  0.00000000000E+00  0.28202165567E+04  0.28202165567E+04  0.00000000000E+00 0. -1.
          1   -1    0    0  501    0 -0.00000000000E+00 -0.00000000000E+00 -0.48872961368E+03  0.48872961368E+03  0.00000000000E+00 0. -1.
         25    2    1    2    0    0  0.43762817084E+02 -0.87843963104E+02  0.93998692256E+03  0.95332679186E+03  0.12499924594E+03 0.  0.
          2    1    1    2  501    0 -0.84042717950E+01  0.28836483196E+02 -0.48095959940E+03  0.48189657687E+03  0.00000000000E+00 0. -1.
          1    1    1    2  502    0 -0.35358545289E+02  0.59007479908E+02  0.18724596199E+04  0.18737228017E+04  0.00000000000E+00 0. -1.
         22    1    3    3    0    0  0.61911587099E+00 -0.66635400732E+02  0.83725441680E+03  0.83990214810E+03  0.00000000000E+00 0. -1.
         22    1    3    3    0    0  0.43143701213E+02 -0.21208562372E+02  0.10273250575E+03  0.11342464375E+03  0.00000000000E+00 0. -1.
</event>
<event>
 7    1  0.5993218E-006  0.3944979E+03  0.7818608E-02  0.1305141E+00
          2   -1    0    0  502    0  0.00000000000E+00  0.00000000000E+00  0.89037558488E+03  0.89037558488E+03  0.00000000000E+00 0. -1.
          1   -1    0    0  501    0 -0.00000000000E+00 -0.00000000000E+00 -0.36888252231E+03  0.36888252231E+03  0.00000000000E+00 0. -1.
         25    2    1    2    0    0 -0.11161022525E+03 -0.37768509795E+03  0.37284800959E+03  0.55653769386E+03  0.12496275780E+03 0.  0.
          2    1    1    2  501    0  0.13102172715E+03  0.37244500152E+03 -0.13583389229E+03  0.41753181728E+03  0.00000000000E+00 0. -1.
          1    1    1    2  502    0 -0.19411501903E+02  0.52400964251E+01  0.28447894527E+03  0.28518859606E+03  0.00000000000E+00 0. -1.
         22    1    3    3    0    0 -0.11709161141E+03 -0.36982602229E+03  0.38116777946E+03  0.54384796435E+03  0.00000000000E+00 0. -1.
         22    1    3    3    0    0  0.54813861630E+01 -0.78590756604E+01 -0.83197698674E+01  0.12689729514E+02  0.00000000000E+00 0. -1.
</event>
<event>
 7    1  0.5993218E-006  0.1022990E+03  0.7818608E-02  0.1339819E+00
          2   -1    0    0  502    0  0.00000000000E+00  0.00000000000E+00  0.25748246925E+04  0.25748246925E+04  0.00000000000E+00 0. -1.
          1   -1    0    0  501    0 -0.00000000000E+00 -0.00000000000E+00 -0.36305769649E+02  0.36305769649E+02  0.00000000000E+00 0. -1.
         25    2    1    2    0    0 -0.82164421625E+01 -0.13116633531E+03  0.61131338422E+03  0.63765323885E+03  0.12500192738E+03 0.  0.
          2    1    1    2  501    0  0.43224056176E+02  0.37072683926E+02  0.15336174175E+02  0.58973732831E+02  0.00000000000E+00 0. -1.
          1    1    1    2  502    0 -0.35007614013E+02  0.94093651385E+02  0.19118693645E+04  0.19145034905E+04  0.00000000000E+00 0. -1.
         22    1    3    3    0    0 -0.55465328552E+02 -0.10433653276E+03  0.31572537500E+03  0.33711278107E+03  0.00000000000E+00 0.  1.
         22    1    3    3    0    0  0.47248886389E+02 -0.26829802553E+02  0.29558800921E+03  0.30054045778E+03  0.00000000000E+00 0.  1.
</event>
<event>
 7    1  0.5993218E-006  0.4971626E+02  0.7818608E-02  0.1510618E+00
          2   -1    0    0  502    0  0.00000000000E+00  0.00000000000E+00  0.14974893795E+02  0.14974893795E+02  0.00000000000E+00 0. -1.
          1   -1    0    0  501    0 -0.00000000000E+00 -0.00000000000E+00 -0.34773062165E+04  0.34773062165E+04  0.00000000000E+00 0. -1.
         25    2    1    2    0    0  0.38421770383E+02 -0.44696693595E+02 -0.68935260302E+03  0.70306841213E+03  0.12499661588E+03 0.  0.
          2    1    1    2  501    0 -0.70818729584E+01  0.49198743999E+02 -0.27491168730E+04  0.27495661932E+04  0.00000000000E+00 0. -1.
          1    1    1    2  502    0 -0.31339897425E+02 -0.45020504035E+01 -0.23861846649E+02  0.39646504940E+02  0.00000000000E+00 0. -1.
         22    1    3    3    0    0 -0.32598987411E+02 -0.14419587709E+02 -0.66518125810E+02  0.75467075942E+02  0.00000000000E+00 0.  1.
         22    1    3    3    0    0  0.71020757794E+02 -0.30277105886E+02 -0.62283447721E+03  0.62760133618E+03  0.00000000000E+00 0.  1.
</event>
<event>
 7    1  0.5993218E-006  0.9574239E+02  0.7818608E-02  0.1371034E+00
          2   -1    0    0  502    0  0.00000000000E+00  0.00000000000E+00  0.22074345039E+03  0.22074345039E+03  0.00000000000E+00 0. -1.
          1   -1    0    0  501    0 -0.00000000000E+00 -0.00000000000E+00 -0.29440010265E+03  0.29440010265E+03  0.00000000000E+00 0. -1.
         25    2    1    2    0    0  0.51145593249E+02 -0.13310041325E+02 -0.12444742997E+03  0.18413289278E+03  0.12499892187E+03 0.  0.
          2    1    1    2  501    0  0.46201930289E+02 -0.69329978508E+01 -0.12256335699E+03  0.13116577792E+03  0.00000000000E+00 0. -1.
          1    1    1    2  502    0 -0.97347523539E+02  0.20243039176E+02  0.17335413470E+03  0.19984488233E+03  0.00000000000E+00 0. -1.
         22    1    3    3    0    0  0.11640520719E+02 -0.67171680958E+02 -0.72471943787E+02  0.99497332033E+02  0.00000000000E+00 0. -1.
         22    1    3    3    0    0  0.39505072531E+02  0.53861639633E+02 -0.51975486183E+02  0.84635560751E+02  0.00000000000E+00 0. -1.
</event>
<event>
 7    1  0.5993218E-006  0.1717207E+03  0.7818608E-02  0.1316882E+00
          2   -1    0    0  502    0  0.00000000000E+00  0.00000000000E+00  0.21916220121E+03  0.21916220121E+03  0.00000000000E+00 0. -1.
          1   -1    0    0  501    0 -0.00000000000E+00 -0.00000000000E+00 -0.83645049671E+03  0.83645049671E+03  0.00000000000E+00 0. -1.
         25    2    1    2    0    0 -0.45628434341E+02 -0.17479429155E+03  0.31402462076E+01  0.21970196364E+03  0.12499637316E+03 0.  0.
          2    1    1    2  501    0  0.42502761227E+01  0.17125257225E+03 -0.71361548759E+03  0.73388866491E+03  0.00000000000E+00 0. -1.
          1    1    1    2  502    0  0.41378158219E+02  0.35417193002E+01  0.93186945890E+02  0.10202206937E+03  0.00000000000E+00 0. -1.
         22    1    3    3    0    0 -0.54964529270E+02 -0.16725552884E+03 -0.35189468274E+02  0.17953776785E+03  0.00000000000E+00 0.  1.
         22    1    3    3    0    0  0.93360949283E+01 -0.75387627068E+01  0.38329714482E+02  0.40164195796E+02  0.00000000000E+00 0.  1.
</event>
<event>
 7    1  0.5993218E-006  0.1327414E+03  0.7818608E-02  0.1344035E+00
          2   -1    0    0  502    0  0.00000000000E+00  0.00000000000E+00  0.33036252222E+04  0.33036252222E+04  0.00000000000E+00 0. -1.
          1   -1    0    0  501    0 -0.00000000000E+00 -0.00000000000E+00 -0.15083868072E+02  0.15083868072E+02  0.00000000000E+00 0. -1.
         25    2    1    2    0    0  0.11355602612E+03  0.43957213580E+02  0.96224421257E+03  0.97793906228E+03  0.12499470873E+03 0.  0.
          2    1    1    2  501    0 -0.68288211831E+01  0.41761285177E+02  0.81751258372E+02  0.92053821125E+02  0.00000000000E+00 0. -1.
          1    1    1    2  502    0 -0.10672720494E+03 -0.85718498756E+02  0.22445458832E+04  0.22487162069E+04  0.00000000000E+00 0. -1.
         22    1    3    3    0    0  0.47335941197E+02  0.83737340369E+02  0.58655252832E+03  0.59438750154E+03  0.00000000000E+00 0. -1.
         22    1    3    3    0    0  0.66220084924E+02 -0.39780126789E+02  0.37569168424E+03  0.38355156074E+03  0.00000000000E+00 0. -1.
</event>
<event>
 7    1  0.5993218E-006  0.5176675E+02  0.7818608E-02  0.1448251E+00
          2   -1    0    0  502    0  0.00000000000E+00  0.00000000000E+00  0.59850382316E+03  0.59850382316E+03  0.00000000000E+00 0. -1.
          1   -1    0    0  501    0 -0.00000000000E+00 -0.00000000000E+00 -0.18828691596E+03  0.18828691596E+03  0.00000000000E+00 0. -1.
         25    2    1    2    0    0  0.97942753304E+02  0.70606479144E+01  0.19994309961E+03  0.25541287221E+03  0.12496342078E+03 0.  0.
          2    1    1    2  501    0 -0.50774324599E+02 -0.40434911655E+01 -0.15495074007E+03  0.16310767519E+03  0.00000000000E+00 0. -1.
          1    1    1    2  502    0 -0.47168428705E+02 -0.30171567489E+01  0.36522454766E+03  0.36827019172E+03  0.00000000000E+00 0. -1.
         22    1    3    3    0    0  0.89329449890E+02 -0.13685727624E+02  0.21161060576E+03  0.23010019172E+03  0.00000000000E+00 0.  1.
         22    1    3    3    0    0  0.86133034137E+01  0.20746375538E+02 -0.11667506153E+02  0.25312680488E+02  0.00000000000E+00 0.  1.
</event>
<event>
 7    1  0.5993218E-006  0.2936755E+02  0.7818608E-02  0.1671905E+00
          2   -1    0    0  502    0  0.00000000000E+00  0.00000000000E+00  0.14849517248E+03  0.14849517248E+03  0.00000000000E+00 0. -1.
          1   -1    0    0  501    0 -0.00000000000E+00 -0.00000000000E+00 -0.18834763135E+03  0.18834763135E+03  0.00000000000E+00 0. -1.
         25    2    1    2    0    0 -0.30632807372E+02 -0.66858261909E+01  0.18281916729E+02  0.13017917951E+03  0.12501728336E+03 0.  0.
          2    1    1    2  501    0  0.18698022051E+02  0.22779617183E+02 -0.12935945640E+03  0.13267402137E+03  0.00000000000E+00 0. -1.
          1    1    1    2  502    0  0.11934785320E+02 -0.16093790992E+02  0.71225080800E+02  0.73989602946E+02  0.00000000000E+00 0. -1.
         22    1    3    3    0    0  0.37303862460E-01 -0.43127582497E+02 -0.37272247364E+02  0.57001843717E+02  0.00000000000E+00 0. -1.
         22    1    3    3    0    0 -0.30670111234E+02  0.36441756306E+02  0.55554164092E+02  0.73177335793E+02  0.00000000000E+00 0. -1.
</event>
<event>
 7    1  0.5993218E-006  0.1065634E+03  0.7818608E-02  0.1339866E+00
          2   -1    0    0  502    0  0.00000000000E+00  0.00000000000E+00  0.33024176942E+04  0.33024176942E+04  0.00000000000E+00 0. -1.
          1   -1    0    0  501    0 -0.00000000000E+00 -0.00000000000E+00 -0.73998315113E+03  0.73998315113E+03  0.00000000000E+00 0. -1.
         25    2    1    2    0    0 -0.15091658013E+03 -0.51364147217E+02  0.71914494095E+03  0.74713328618E+03  0.12499844580E+03 0.  0.
          2    1    1    2  501    0  0.96780210687E+02  0.43937393442E+02 -0.72180626145E+03  0.72958973594E+03  0.00000000000E+00 0. -1.
          1    1    1    2  502    0  0.54136369444E+02  0.74267537750E+01  0.25650958636E+04  0.25656778232E+04  0.00000000000E+00 0. -1.
         22    1    3    3    0    0 -0.54868857505E+02  0.27544805995E+02  0.11530358341E+03  0.13063010452E+03  0.00000000000E+00 0.  1.
         22    1    3    3    0    0 -0.96047722626E+02 -0.78908953213E+02  0.60384135754E+03  0.61650318166E+03  0.00000000000E+00 0.  1.
</event>
<event>
 7    1  0.5993218E-006  0.1447887E+03  0.7818608E-02  0.1377415E+00
          2   -1    0    0  502    0  0.00000000000E+00  0.00000000000E+00  0.23581950286E+04  0.23581950286E+04  0.00000000000E+00 0. -1.
          1   -1    0    0  501    0 -0.00000000000E+00 -0.00000000000E+00 -0.55612595387E+02  0.55612595387E+02  0.00000000000E+00 0. -1.
         25    2    1    2    0    0 -0.20090993206E+02  0.14197477418E+03  0.23167948411E+03  0.29976759815E+03  0.12499898012E+03 0.  0.
          2    1    1    2  501    0  0.29175971502E+02  0.28375722317E+01 -0.77566107584E+01  0.30322502201E+02  0.00000000000E+00 0. -1.
          1    1    1    2  502    0 -0.90849782960E+01 -0.14481234641E+03  0.20786595599E+04  0.20837175237E+04  0.00000000000E+00 0. -1.
         22    1    3    3    0    0  0.46996927370E+02  0.97295324972E+02  0.11340870704E+03  0.15664171308E+03  0.00000000000E+00 0. -1.
         22    1    3    3    0    0 -0.67087920576E+02  0.44679449209E+02  0.11827077706E+03  0.14312588507E+03  0.00000000000E+00 0. -1.
</event>
<event>
 7    1  0.5993218E-006  0.3311727E+03  0.7818608E-02  0.1313021E+00
          2   -1    0    0  502    0  0.00000000000E+00  0.00000000000E+00  0.60650116178E+03  0.60650116178E+03  0.00000000000E+00 0. -1.
          1   -1    0    0  501    0 -0.00000000000E+00 -0.00000000000E+00 -0.13580700663E+04  0.13580700663E+04  0.00000000000E+00 0. -1.
         25    2    1    2    0    0 -0.40118194437E+02  0.32520673131E+03 -0.10575439635E+03  0.36630319587E+03  0.12500060536E+03 0.  0.
          2    1    1    2  501    0  0.62398946557E+02 -0.32602970842E+03 -0.10972090844E+04  0.11463231543E+04  0.00000000000E+00 0. -1.
          1    1    1    2  502    0 -0.22280752120E+02  0.82297710874E+00  0.45139457622E+03  0.45194487789E+03  0.00000000000E+00 0. -1.
         22    1    3    3    0    0 -0.38622661915E+02  0.73632950610E+02 -0.76578421639E+02  0.11303882559E+03  0.00000000000E+00 0. -1.
         22    1    3    3    0    0 -0.14955325215E+01  0.25157378070E+03 -0.29175974711E+02  0.25326437028E+03  0.00000000000E+00 0. -1.
</event>
<event>
 7    1  0.5993218E-006  0.9894986E+02  0.7818608E-02  0.1366709E+00
          2   -1    0    0  502    0  0.00000000000E+00  0.00000000000E+00  0.19381737809E+04  0.19381737809E+04  0.00000000000E+00 0. -1.
          1   -1    0    0  501    0 -0.00000000000E+00 -0.00000000000E+00 -0.31926667506E+03  0.31926667506E+03  0.00000000000E+00 0. -1.
         25    2    1    2    0    0 -0.12035396966E+02 -0.92840567351E+02  0.14894903483E+03  0.21581338969E+03  0.12500152985E+03 0.  0.
          2    1    1    2  501    0 -0.45430117677E+02  0.11468852064E+02 -0.28249021351E+03  0.28634970035E+03  0.00000000000E+00 0. -1.
          1    1    1    2  502    0  0.57465514644E+02  0.81371715287E+02  0.17524482845E+04  0.17552773659E+04  0.00000000000E+00 0. -1.
         22    1    3    3    0    0 -0.62833013102E+02 -0.27374913721E+02  0.41492487188E+02  0.80118661558E+02  0.00000000000E+00 0. -1.
         22    1    3    3    0    0  0.50797616136E+02 -0.65465653630E+02  0.10745654765E+03  0.13569472813E+03  0.00000000000E+00 0. -1.
</event>
<event>
 7    1  0.5993218E-006  0.4571860E+02  0.7818608E-02  0.1507291E+00
          2   -1    0    0  502    0  0.00000000000E+00  0.00000000000E+00  0.11368162366E+04  0.11368162366E+04  0.00000000000E+00 0. -1.
          1   -1    0    0  501    0 -0.00000000000E+00 -0.00000000000E+00 -0.10193663790E+03  0.10193663790E+03  0.00000000000E+00 0. -1.
         25    2    1    2    0    0 -0.85136264993E+01  0.19890398599E+02  0.19368737753E+03  0.23153519649E+03  0.12500254880E+03 0.  0.
          2    1    1    2  501    0  0.43583289463E+02 -0.16678875993E+02 -0.76089746103E+02  0.89259943350E+02  0.00000000000E+00 0. -1.
          1    1    1    2  502    0 -0.35069662963E+02 -0.32115226060E+01  0.91728196731E+03  0.91795773470E+03  0.00000000000E+00 0. -1.
         22    1    3    3    0    0 -0.44611563290E+00 -0.15731588670E+02  0.19436862847E+03  0.19500473234E+03  0.00000000000E+00 0.  1.
         22    1    3    3    0    0 -0.80675108664E+01  0.35621987268E+02 -0.68125093666E+00  0.36530464155E+02  0.00000000000E+00 0.  1.
</event>
<event>
 7    1  0.5993218E-006  0.9977462E+02  0.7818608E-02  0.1385609E+00
          2   -1    0    0  502    0  0.00000000000E+00  0.00000000000E+00  0.36347956210E+02  0.36347956210E+02  0.00000000000E+00 0. -1.
          1   -1    0    0  501    0 -0.00000000000E+00 -0.00000000000E+00 -0.16690403788E+04  0.16690403788E+04  0.00000000000E+00 0. -1.
         25    2    1    2    0    0 -0.88783332364E+02  0.96503728107E+02 -0.74530605210E+03  0.76700843197E+03  0.12500149508E+03 0.  0.
          2    1    1    2  501    0  0.36519307883E+02 -0.15810978300E+02 -0.82002477286E+03  0.82098981418E+03  0.00000000000E+00 0. -1.
          1    1    1    2  502    0  0.52264024482E+02 -0.80692749807E+02 -0.67361597620E+02  0.11739008885E+03  0.00000000000E+00 0. -1.
         22    1    3    3    0    0 -0.45207583702E+02  0.10420960235E+03 -0.32303725345E+03  0.34242726814E+03  0.00000000000E+00 0.  1.
         22    1    3    3    0    0 -0.43575748663E+02 -0.77058742441E+01 -0.42226879865E+03  0.42458116383E+03  0.00000000000E+00 0.  1.
</event>
<event>
 7    1  0.5993218E-006  0.3463463E+02  0.7818608E-02  0.1603392E+00
          2   -1    0    0  502    0  0.00000000000E+00  0.00000000000E+00  0.55048020042E+03  0.55048020042E+03  0.00000000000E+00 0. -1.
          1   -1    0    0  501    0 -0.00000000000E+00 -0.00000000000E+00 -0.36125492318E+02  0.36125492318E+02  0.00000000000E+00 0. -1.
         25    2    1    2    0    0 -0.17584289600E+02  0.90402764321E+01  0.11086187039E+03  0.16824147991E+03  0.12499562958E+03 0.  0.
          2    1    1    2  501    0  0.64055775844E+01  0.24341633169E+02  0.17235391027E+02  0.30505822942E+02  0.00000000000E+00 0. -1.
          1    1    1    2  502    0  0.11178712016E+02 -0.33381909601E+02  0.38625744668E+03  0.38785838989E+03  0.00000000000E+00 0. -1.
         22    1    3    3    0    0 -0.67891680976E+02 -0.16274866917E+02  0.54540139399E+02  0.88593331829E+02  0.00000000000E+00 0.  1.
         22    1    3    3    0    0  0.50307391376E+02  0.25315143349E+02  0.56321730994E+02  0.79648148076E+02  0.00000000000E+00 0.  1.
</event>
<event>
 7    1  0.5993218E-006  0.1164362E+03  0.7818608E-02  0.1269567E+00
          2   -1    0    0  502    0  0.00000000000E+00  0.00000000000E+00  0.32411079441E+04  0.32411079441E+04  0.00000000000E+00 0. -1.
          1   -1    0    0  501    0 -0.00000000000E+00 -0.00000000000E+00 -0.95000944319E+02  0.95000944319E+02  0.00000000000E+00 0. -1.
         25    2    1    2    0    0  0.45832333269E+02 -0.78492555008E+02  0.13693326478E+03  0.20652148996E+03  0.12505487933E+03 0.  0.
          2    1    1    2  501    0 -0.89849079260E+02 -0.31450912689E+02 -0.20684198580E+02  0.97415876651E+02  0.00000000000E+00 0. -1.
          1    1    1    2  502    0  0.44016745991E+02  0.10994346770E+03  0.30298579336E+04  0.30321715218E+04  0.00000000000E+00 0. -1.
         22    1    3    3    0    0  0.42109499227E+02  0.72339887298E+01  0.10770919506E+03  0.11587411798E+03  0.00000000000E+00 0.  1.
         22    1    3    3    0    0  0.37228340424E+01 -0.85726543738E+02  0.29224069724E+02  0.90647371974E+02  0.00000000000E+00 0.  1.
</event>
<event>
 7    1  0.5993218E-006  0.1714645E+03  0.7818608E-02  0.1230007E+00
          2   -1    0    0  502    0  0.00000000000E+00  0.00000000000E+00  0.21477615608E+04  0.21477615608E+04  0.00000000000E+00 0. -1.
          1   -1    0    0  501    0 -0.00000000000E+00 -0.00000000000E+00 -0.13895717386E+04  0.13895717386E+04  0.00000000000E+00 0. -1.
         25    2    1    2    0    0  0.12984515935E+03 -0.14604122121E+03  0.17380307591E+03  0.28985503223E+03  0.12498250603E+03 0.  0.
          2    1    1    2  501    0 -0.36300467135E+02  0.16759305610E+03 -0.13248139804E+04  0.13358657264E+04  0.00000000000E+00 0. -1.
          1    1    1    2  502    0 -0.93544692219E+02 -0.21551834889E+02  0.19092007267E+04  0.19116125407E+04  0.00000000000E+00 0. -1.
         22    1    3    3    0    0  0.64440854088E+02 -0.12318881180E+03  0.17117998271E+03  0.22052368015E+03  0.00000000000E+00 0.  1.
         22    1    3    3    0    0  0.65404305266E+02 -0.22852409413E+02  0.26230932010E+01  0.69331352080E+02  0.00000000000E+00 0.  1.
</event>
<event>
 7    1  0.5993218E-006  0.1254714E+03  0.7818608E-02  0.1293139E+00
          2   -1    0    0  502    0  0.00000000000E+00  0.00000000000E+00  0.11117804113E+04  0.11117804113E+04  0.00000000000E+00 0. -1.
          1   -1    0    0  501    0 -0.00000000000E+00 -0.00000000000E+00 -0.53254910715E+02  0.53254910715E+02  0.00000000000E+00 0. -1.
         25    2    1    2    0    0  0.13917015228E+02  0.10900818776E+03  0.37502341188E+03  0.41029254965E+03  0.12498379306E+03 0.  0.
          2    1    1    2  501    0  0.55195301664E+02 -0.12353604873E+03  0.10322892742E+03  0.17018780249E+03  0.00000000000E+00 0. -1.
          1    1    1    2  502    0 -0.69112316892E+02  0.14527860970E+02  0.58027316124E+03  0.58455496983E+03  0.00000000000E+00 0. -1.
         22    1    3    3    0    0 -0.45635153457E+02  0.35172439229E+02  0.22919999264E+03  0.23633092125E+03  0.00000000000E+00 0.  1.
         22    1    3    3    0    0  0.59552168686E+02  0.73835748533E+02  0.14582341924E+03  0.17396162840E+03  0.00000000000E+00 0.  1.
</event>
<event>
 7    1  0.5993218E-006  0.1344664E+03  0.7818608E-02  0.1228549E+00
          2   -1    0    0  502    0  0.00000000000E+00  0.00000000000E+00  0.65923735560E+03  0.65923735560E+03  0.00000000000E+00 0. -1.
          1   -1    0    0  501    0 -0.00000000000E+00 -0.00000000000E+00 -0.13189138774E+04  0.13189138774E+04  0.00000000000E+00 0. -1.
         25    2    1    2    0    0 -0.99178761803E+02 -0.10002234000E+02 -0.68662322122E+02  0.17400137233E+03  0.12500196645E+03 0.  0.
          2    1    1    2  501    0  0.16740923030E+02  0.12313421295E+03 -0.11862168253E+04  0.11927081158E+04  0.00000000000E+00 0. -1.
          1    1    1    2  502    0  0.82437838773E+02 -0.11313197895E+03  0.59520262557E+03  0.61144174490E+03  0.00000000000E+00 0. -1.
         22    1    3    3    0    0 -0.69156435174E+02 -0.73869883562E+00 -0.10514669519E+03  0.12585303219E+03  0.00000000000E+00 0. -1.
         22    1    3    3    0    0 -0.30022326629E+02 -0.92635351646E+01  0.36484373070E+02  0.48148340140E+02  0.00000000000E+00 0. -1.
</event>
<event>
 7    1  0.6481825E-006  0.1261291E+03  0.7818608E-02  0.1323669E+00
          2   -1    0    0  502    0  0.00000000000E+00  0.00000000000E+00  0.11083327990E+04  0.11083327990E+04  0.00000000000E+00 0. -1.
          1   -1    0    0  501    0 -0.00000000000E+00 -0.00000000000E+00 -0.99796347184E+03  0.99796347184E+03  0.00000000000E+00 0. -1.
         25    2    1    2    0    0 -0.13294977855E+03  0.25173042505E+02 -0.33201717659E+03  0.37969720062E+03  0.12500093167E+03 0.  0.
          2    1    1    2  501    0  0.97585409353E+01 -0.52313661014E+02 -0.63732535152E+03  0.63954323696E+03  0.00000000000E+00 0. -1.
          1    1    1    2  502    0  0.12319123762E+03  0.27140618509E+02  0.10797118553E+04  0.10870558333E+04  0.00000000000E+00 0. -1.
         22    1    3    3    0    0 -0.61446824701E+02  0.19349853319E+02 -0.28890390065E+03  0.29599931233E+03  0.00000000000E+00 0.  1.
         22    1    3    3    0    0 -0.71502953851E+02  0.58231891860E+01 -0.43113275948E+02  0.83697888293E+02  0.00000000000E+00 0.  1.
</event>
<event>
 7    1  0.5993218E-006  0.6625796E+02  0.7818608E-02  0.1464289E+00
          2   -1    0    0  502    0  0.00000000000E+00  0.00000000000E+00  0.27491700161E+04  0.27491700161E+04  0.00000000000E+00 0. -1.
          1   -1    0    0  501    0 -0.00000000000E+00 -0.00000000000E+00 -0.44668440259E+02  0.44668440259E+02  0.00000000000E+00 0. -1.
         25    2    1    2    0    0 -0.42284172105E+02  0.35379935971E+02  0.63988791635E+03  0.65430930415E+03  0.12499771571E+03 0.  0.
          2    1    1    2  501    0  0.17788904182E+02  0.27612429772E+02 -0.29605497990E+02  0.44219643838E+02  0.00000000000E+00 0. -1.
          1    1    1    2  502    0  0.24495267923E+02 -0.62992365743E+02  0.20942191575E+04  0.20953095084E+04  0.00000000000E+00 0. -1.
         22    1    3    3    0    0 -0.28977815793E+02 -0.34754844105E+02  0.10049087233E+03  0.11020902149E+03  0.00000000000E+00 0.  1.
         22    1    3    3    0    0 -0.13306356312E+02  0.70134780076E+02  0.53939704402E+03  0.54410028266E+03  0.00000000000E+00 0.  1.
</event>
<event>
 7    1  0.5993218E-006  0.1110173E+03  0.7818608E-02  0.1263302E+00
          2   -1    0    0  502    0  0.00000000000E+00  0.00000000000E+00  0.82249935068E+03  0.82249935068E+03  0.00000000000E+00 0. -1.
          1   -1    0    0  501    0 -0.00000000000E+00 -0.00000000000E+00 -0.21707913009E+03  0.21707913009E+03  0.00000000000E+00 0. -1.
         25    2    1    2    0    0 -0.13950311213E+03  0.15625725042E+03  0.23148399625E+02  0.24502677882E+03  0.12499930934E+03 0.  0.
          2    1    1    2  501    0  0.54136195110E+02 -0.91265209122E+02 -0.74127888112E+02  0.12944114420E+03  0.00000000000E+00 0. -1.
          1    1    1    2  502    0  0.85366917016E+02 -0.64992041297E+02  0.65639970907E+03  0.66511055774E+03  0.00000000000E+00 0. -1.
         22    1    3    3    0    0 -0.32687409138E+02  0.57301580061E+02  0.65926654030E+02  0.93264470755E+02  0.00000000000E+00 0.  1.
         22    1    3    3    0    0 -0.10681570299E+03  0.98955670359E+02 -0.42778254405E+02  0.15176230807E+03  0.00000000000E+00 0.  1.
</event>
<event>
 7    1  0.5993218E-006  0.8364077E+02  0.7818608E-02  0.1387532E+00
          2   -1    0    0  502    0  0.00000000000E+00  0.00000000000E+00  0.12293853584E+04  0.12293853584E+04  0.00000000000E+00 0. -1.
          1   -1    0    0  501    0 -0.00000000000E+00 -0.00000000000E+00 -0.40165219413E+03  0.40165219413E+03  0.00000000000E+00 0. -1.
         25    2    1    2    0    0  0.53782476149E+02  0.10899178102E+03 -0.58914985750E+02  0.18404072612E+03  0.12501300035E+03 0.  0.
          2    1    1    2  501    0 -0.18614760370E+02 -0.78204791633E+02 -0.27392774639E+03  0.28548013763E+03  0.00000000000E+00 0. -1.
          1    1    1    2  502    0 -0.35167715780E+02 -0.30786989387E+02  0.11605758964E+04  0.11615166888E+04  0.00000000000E+00 0. -1.
         22    1    3    3    0    0  0.83361841086E+02  0.34367411930E+02 -0.50450922865E+02  0.10332284922E+03  0.00000000000E+00 0. -1.
         22    1    3    3    0    0 -0.29579364937E+02  0.74624369091E+02 -0.84640628852E+01  0.80717876910E+02  0.00000000000E+00 0. -1.
</event>
<event>
 7    1  0.5993218E-006  0.8657313E+02  0.7818608E-02  0.1414511E+00
          2   -1    0    0  502    0  0.00000000000E+00  0.00000000000E+00  0.17568513248E+04  0.17568513248E+04  0.00000000000E+00 0. -1.
          1   -1    0    0  501    0 -0.00000000000E+00 -0.00000000000E+00 -0.30445461820E+03  0.30445461820E+03  0.00000000000E+00 0. -1.
         25    2    1    2    0    0  0.29442184880E+02 -0.65187014826E+02 -0.17587348412E+03  0.22732077285E+03  0.12500824854E+03 0.  0.
          2    1    1    2  501    0 -0.29472311327E+02 -0.21501364604E+02 -0.98500739265E+02  0.10503961848E+03  0.00000000000E+00 0. -1.
          1    1    1    2  502    0  0.30126447643E-01  0.86688379430E+02  0.17267709300E+04  0.17289455517E+04  0.00000000000E+00 0. -1.
         22    1    3    3    0    0  0.64385601060E+02 -0.24469538273E+02 -0.36448859254E+02  0.77928064701E+02  0.00000000000E+00 0. -1.
         22    1    3    3    0    0 -0.34943416180E+02 -0.40717476553E+02 -0.13942462486E+03  0.14939270815E+03  0.00000000000E+00 0. -1.
</event>
<event>
 7    1  0.5993218E-006  0.7830535E+02  0.7818608E-02  0.1436721E+00
          2   -1    0    0  502    0  0.00000000000E+00  0.00000000000E+00  0.32706648576E+03  0.32706648576E+03  0.00000000000E+00 0. -1.
          1   -1    0    0  501    0 -0.00000000000E+00 -0.00000000000E+00 -0.10769862755E+03  0.10769862755E+03  0.00000000000E+00 0. -1.
         25    2    1    2    0    0  0.43142702592E+02 -0.31172717790E+02  0.90184700963E+02  0.16306918629E+03  0.12500099243E+03 0.  0.
          2    1    1    2  501    0  0.33715219660E+02 -0.47438503190E+01 -0.57396248268E+02  0.66734919403E+02  0.00000000000E+00 0. -1.
          1    1    1    2  502    0 -0.76857922252E+02  0.35916568109E+02  0.18657940552E+03  0.20496100762E+03  0.00000000000E+00 0. -1.
         22    1    3    3    0    0 -0.26637575903E+02 -0.35542167397E+02 -0.52914584790E+01  0.44730366040E+02  0.00000000000E+00 0. -1.
         22    1    3    3    0    0  0.69780278496E+02  0.43694496065E+01  0.95476159442E+02  0.11833882025E+03  0.00000000000E+00 0. -1.
</event>
<event>
 7    1  0.5993218E-006  0.5564734E+03  0.7818608E-02  0.1242977E+00
          2   -1    0    0  502    0  0.00000000000E+00  0.00000000000E+00  0.57969016007E+03  0.57969016007E+03  0.00000000000E+00 0. -1.
          1   -1    0    0  501    0 -0.00000000000E+00 -0.00000000000E+00 -0.21338524199E+04  0.21338524199E+04  0.00000000000E+00 0. -1.
         25    2    1    2    0    0  0.12253991943E+02  0.54851331158E+03 -0.45545724236E+03  0.72393769332E+03  0.12500988319E+03 0.  0.
          2    1    1    2  501    0  0.24215720686E+02  0.92120465858E+01 -0.13686626882E+04  0.13689078921E+04  0.00000000000E+00 0. -1.
          1    1    1    2  502    0 -0.36469712629E+02 -0.55772535816E+03  0.26995767073E+03  0.62069699457E+03  0.00000000000E+00 0. -1.
         22    1    3    3    0    0  0.58516359685E+02  0.33403383530E+03 -0.23278984836E+03  0.41133183803E+03  0.00000000000E+00 0.  1.
         22    1    3    3    0    0 -0.46262367742E+02  0.21447947628E+03 -0.22266739399E+03  0.31260585529E+03  0.00000000000E+00 0.  1.
</event>
<event>
 7    1  0.5993218E-006  0.1075843E+03  0.7818608E-02  0.1317531E+00
          2   -1    0    0  502    0  0.00000000000E+00  0.00000000000E+00  0.14796036895E+04  0.14796036895E+04  0.00000000000E+00 0. -1.
          1   -1    0    0  501    0 -0.00000000000E+00 -0.00000000000E+00 -0.10396666700E+04  0.10396666700E+04  0.00000000000E+00 0. -1.
         25    2    1    2    0    0  0.46354859352E+02  0.16447277911E+03 -0.92310049729E+02  0.23096798473E+03  0.12499998654E+03 0.  0.
          2    1    1    2  501    0 -0.29279482363E+02 -0.59041159657E+02 -0.87476420293E+03  0.87724315748E+03  0.00000000000E+00 0. -1.
          1    1    1    2  502    0 -0.17075376988E+02 -0.10543161946E+03  0.14070112722E+04  0.14110592174E+04  0.00000000000E+00 0. -1.
         22    1    3    3    0    0 -0.26778851073E+02  0.10786448714E+03 -0.81576937898E+02  0.13786461202E+03  0.00000000000E+00 0.  1.
         22    1    3    3    0    0  0.73133710424E+02  0.56608291972E+02 -0.10733111831E+02  0.93103372710E+02  0.00000000000E+00 0.  1.
</event>
<event>
 7    1  0.5993218E-006  0.6859418E+02  0.7818608E-02  0.1386177E+00
          2   -1    0    0  502    0  0.00000000000E+00  0.00000000000E+00  0.39181853338E+03  0.39181853338E+03  0.00000000000E+00 0. -1.
          1   -1    0    0  501    0 -0.00000000000E+00 -0.00000000000E+00 -0.78488061165E+03  0.78488061165E+03  0.00000000000E+00 0. -1.
         25    2    1    2    0    0 -0.25741051823E+02 -0.38518805697E+01 -0.58239279513E+02  0.14033744339E+03  0.12500138241E+03 0.  0.
          2    1    1    2  501    0 -0.10287223597E+02 -0.56693535156E+02 -0.68082522371E+03  0.68325907907E+03  0.00000000000E+00 0. -1.
          1    1    1    2  502    0  0.36028275420E+02  0.60545415726E+02  0.34600242495E+03  0.35310262257E+03  0.00000000000E+00 0. -1.
         22    1    3    3    0    0 -0.26485906447E+02 -0.42406456000E+02  0.19415239407E+02  0.53635457228E+02  0.00000000000E+00 0. -1.
         22    1    3    3    0    0  0.74485462378E+00  0.38554575430E+02 -0.77654518920E+02  0.86701986158E+02  0.00000000000E+00 0. -1.
</event>
<event>
 7    1  0.5993218E-006  0.1733603E+03  0.7818608E-02  0.1372584E+00
          2   -1    0    0  502    0  0.00000000000E+00  0.00000000000E+00  0.17978063132E+04  0.17978063132E+04  0.00000000000E+00 0. -1.
          1   -1    0    0  501    0 -0.00000000000E+00 -0.00000000000E+00 -0.27170775349E+03  0.27170775349E+03  0.00000000000E+00 0. -1.
         25    2    1    2    0    0  0.13484471033E+03 -0.76775794330E+02  0.29446311913E+03  0.35554413776E+03  0.12500194748E+03 0.  0.
          2    1    1    2  501    0 -0.14330226054E+03  0.10080463172E+03 -0.20921840476E+03  0.27289091693E+03  0.00000000000E+00 0. -1.
          1    1    1    2  502    0  0.84575502139E+01 -0.24028837393E+02  0.14408538454E+04  0.14410790120E+04  0.00000000000E+00 0. -1.
         22    1    3    3    0    0 -0.19725497320E+02 -0.32507516558E+02  0.47344344897E+02  0.60723314065E+02  0.00000000000E+00 0.  1.
         22    1    3    3    0    0  0.15457020765E+03 -0.44268277772E+02  0.24711877423E+03  0.29482082370E+03  0.00000000000E+00 0.  1.
</event>
<event>
 7    1  0.5993218E-006  0.1512207E+03  0.7818608E-02  0.1245139E+00
          2   -1    0    0  502    0  0.00000000000E+00  0.00000000000E+00  0.24710788659E+04  0.24710788659E+04  0.00000000000E+00 0. -1.
          1   -1    0    0  501    0 -0.00000000000E+00 -0.00000000000E+00 -0.49946670025E+03  0.49946670025E+03  0.00000000000E+00 0. -1.
         25    2    1    2    0    0 -0.45909808706E+02 -0.22933189070E+03  0.17380086399E+03  0.31706852521E+03  0.12499953091E+03 0.  0.
          2    1    1    2  501    0  0.46580526925E+02  0.80821641251E+02 -0.42023516073E+03  0.43046425345E+03  0.00000000000E+00 0. -1.
          1    1    1    2  502    0 -0.67071821900E+00  0.14851024945E+03  0.22180464624E+04  0.22230127875E+04  0.00000000000E+00 0. -1.
         22    1    3    3    0    0 -0.53559482992E+02 -0.23014336548E+02  0.45963440237E+02  0.74235542320E+02  0.00000000000E+00 0. -1.
         22    1    3    3    0    0  0.76496742862E+01 -0.20631755415E+03  0.12783742375E+03  0.24283298289E+03  0.00000000000E+00 0. -1.
</event>
<event>
 7    1  0.1126915E-005  0.7114686E+02  0.7818608E-02  0.1416897E+00
          2   -1    0    0  502    0  0.00000000000E+00  0.00000000000E+00  0.22043178664E+04  0.22043178664E+04  0.00000000000E+00 0. -1.
          1   -1    0    0  501    0 -0.00000000000E+00 -0.00000000000E+00 -0.68497621376E+03  0.68497621376E+03  0.00000000000E+00 0. -1.
         25    2    1    2    0    0 -0.54565244855E+02  0.24888682317E+01 -0.26237778427E+03  0.29572123016E+03  0.12500153551E+03 0.  0.
          2    1    1    2  501    0 -0.36974809923E+01 -0.43422784426E+02 -0.40417564333E+03  0.40651833936E+03  0.00000000000E+00 0. -1.
          1    1    1    2  502    0  0.58262725848E+02  0.40933916194E+02  0.21858950802E+04  0.21870545106E+04  0.00000000000E+00 0. -1.
         22    1    3    3    0    0  0.35636617784E+02 -0.11249245666E+01 -0.13479331647E+03  0.13942909362E+03  0.00000000000E+00 0. -1.
         22    1    3    3    0    0 -0.90201862640E+02  0.36137927983E+01 -0.12758446779E+03  0.15629213654E+03  0.00000000000E+00 0. -1.
</event>
<event>
 7    1  0.5993218E-006  0.9959529E+02  0.7818608E-02  0.1455661E+00
          2   -1    0    0  502    0  0.00000000000E+00  0.00000000000E+00  0.19347437049E+03  0.19347437049E+03  0.00000000000E+00 0. -1.
          1   -1    0    0  501    0 -0.00000000000E+00 -0.00000000000E+00 -0.74357375792E+03  0.74357375792E+03  0.00000000000E+00 0. -1.
         25    2    1    2    0    0 -0.71238783940E+02 -0.96038960593E+02 -0.22829779512E+03  0.28643042424E+03  0.12499623348E+03 0.  0.
          2    1    1    2  501    0  0.57422744884E+02  0.77320281479E+02 -0.48058417879E+03  0.49013972545E+03  0.00000000000E+00 0. -1.
          1    1    1    2  502    0  0.13816039056E+02  0.18718679114E+02  0.15878258649E+03  0.16047797872E+03  0.00000000000E+00 0. -1.
         22    1    3    3    0    0 -0.58693749204E+02  0.72697005607E+01 -0.13200223237E+03  0.14464575380E+03  0.00000000000E+00 0. -1.
         22    1    3    3    0    0 -0.12545034736E+02 -0.10330866115E+03 -0.96295562754E+02  0.14178467044E+03  0.00000000000E+00 0. -1.
</event>
<event>
 7    1  0.5993218E-006  0.6973708E+02  0.7818608E-02  0.1408786E+00
          2   -1    0    0  502    0  0.00000000000E+00  0.00000000000E+00  0.28533235907E+03  0.28533235907E+03  0.00000000000E+00 0. -1.
          1   -1    0    0  501    0 -0.00000000000E+00 -0.00000000000E+00 -0.17691422923E+03  0.17691422923E+03  0.00000000000E+00 0. -1.
         25    2    1    2    0    0  0.65321010647E+01  0.36585845686E+02  0.87416666429E+02  0.15699687175E+03  0.12500060688E+03 0.  0.
          2    1    1    2  501    0 -0.22708313170E+02  0.41553551349E+02 -0.12786147636E+03  0.13634853228E+03  0.00000000000E+00 0. -1.
          1    1    1    2  502    0  0.16176212105E+02 -0.78139397035E+02  0.14886293978E+03  0.16890118426E+03  0.00000000000E+00 0. -1.
         22    1    3    3    0    0  0.29984353817E+02 -0.39192271171E+02  0.46223940352E+02  0.67614704429E+02  0.00000000000E+00 0. -1.
         22    1    3    3    0    0 -0.23452252752E+02  0.75778116857E+02  0.41192726077E+02  0.89382167322E+02  0.00000000000E+00 0. -1.
</event>
<event>
 7    1  0.5993218E-006  0.1039135E+03  0.7818608E-02  0.1322208E+00
          2   -1    0    0  502    0  0.00000000000E+00  0.00000000000E+00  0.99399781580E+03  0.99399781580E+03  0.00000000000E+00 0. -1.
          1   -1    0    0  501    0 -0.00000000000E+00 -0.00000000000E+00 -0.67056413979E+03  0.67056413979E+03  0.00000000000E+00 0. -1.
         25    2    1    2    0    0 -0.77069927231E+02  0.44756521117E+01  0.20634631424E+03  0.25330410261E+03  0.12499744739E+03 0.  0.
          2    1    1    2  501    0  0.77961377065E+02 -0.69907617183E+02 -0.64143094588E+03  0.64992207963E+03  0.00000000000E+00 0. -1.
          1    1    1    2  502    0 -0.89144983377E+00  0.65431965072E+02  0.75851830766E+03  0.76133577335E+03  0.00000000000E+00 0. -1.
         22    1    3    3    0    0 -0.25805584349E+02 -0.53282472133E+02  0.44783997333E+02  0.74233122238E+02  0.00000000000E+00 0.  1.
         22    1    3    3    0    0 -0.51264342882E+02  0.57758124244E+02  0.16156231690E+03  0.17907098037E+03  0.00000000000E+00 0.  1.
</event>
<event>
 7    1  0.5993218E-006  0.5212574E+02  0.7818608E-02  0.1449572E+00
          2   -1    0    0  502    0  0.00000000000E+00  0.00000000000E+00  0.21034898725E+04  0.21034898725E+04  0.00000000000E+00 0. -1.
          1   -1    0    0  501    0 -0.00000000000E+00 -0.00000000000E+00 -0.25719719706E+03  0.25719719706E+03  0.00000000000E+00 0. -1.
         25    2    1    2    0    0  0.39995513097E+02 -0.56503137915E+02  0.68681981460E+02  0.15853886102E+03  0.12500044086E+03 0.  0.
          2    1    1    2  501    0  0.62456458347E+01  0.51757394952E+02 -0.20879180682E+03  0.21520189269E+03  0.00000000000E+00 0. -1.
          1    1    1    2  502    0 -0.46241158932E+02  0.47457429628E+01  0.19864025008E+04  0.19869463158E+04  0.00000000000E+00 0. -1.
         22    1    3    3    0    0  0.39636106085E+02 -0.72322327019E+02 -0.55319974401E+01  0.82656777621E+02  0.00000000000E+00 0.  1.
         22    1    3    3    0    0  0.35940701252E+00  0.15819189104E+02  0.74213978900E+02  0.75882083402E+02  0.00000000000E+00 0.  1.
</event>
<event>
 7    1  0.5993218E-006  0.8512448E+02  0.7818608E-02  0.1451309E+00
          2   -1    0    0  502    0  0.00000000000E+00  0.00000000000E+00  0.16854876746E+04  0.16854876746E+04  0.00000000000E+00 0. -1.
          1   -1    0    0  501    0 -0.00000000000E+00 -0.00000000000E+00 -0.44363959619E+02  0.44363959619E+02  0.00000000000E+00 0. -1.
         25    2    1    2    0    0  0.59045431492E+02  0.18930907043E+02  0.78065921394E+03  0.79303190267E+03  0.12500419240E+03 0.  0.
          2    1    1    2  501    0 -0.85959657434E+02 -0.10845160185E+02  0.11512380852E+02  0.87402603614E+02  0.00000000000E+00 0. -1.
          1    1    1    2  502    0  0.26914225943E+02 -0.80857468580E+01  0.84895212015E+03  0.84941712790E+03  0.00000000000E+00 0. -1.
         22    1    3    3    0    0  0.63168133996E+02 -0.23170819836E+02  0.68670452611E+03  0.68999290303E+03  0.00000000000E+00 0.  1.
         22    1    3    3    0    0 -0.41227025040E+01  0.42101726879E+02  0.93954687829E+02  0.10303899964E+03  0.00000000000E+00 0.  1.
</event>
<event>
 7    1  0.5993218E-006  0.6356173E+02  0.7818608E-02  0.1495709E+00
          2   -1    0    0  502    0  0.00000000000E+00  0.00000000000E+00  0.26897292831E+02  0.26897292831E+02  0.00000000000E+00 0. -1.
          1   -1    0    0  501    0 -0.00000000000E+00 -0.00000000000E+00 -0.98454915991E+03  0.98454915991E+03  0.00000000000E+00 0. -1.
         25    2    1    2    0    0  0.58658024319E+02 -0.52683282068E+02 -0.70401519657E+03  0.71936004487E+03  0.12500074049E+03 0.  0.
          2    1    1    2  501    0 -0.51640327462E+02  0.26172145985E+02 -0.25791289298E+03  0.26433078710E+03  0.00000000000E+00 0. -1.
          1    1    1    2  502    0 -0.70176968571E+01  0.26511136083E+02  0.42762224732E+01  0.27755620769E+02  0.00000000000E+00 0. -1.
         22    1    3    3    0    0  0.95787942683E+02 -0.42566941019E+02 -0.42663478978E+03  0.43932279508E+03  0.00000000000E+00 0. -1.
         22    1    3    3    0    0 -0.37129918364E+02 -0.10116341049E+02 -0.27738040679E+03  0.28003724978E+03  0.00000000000E+00 0. -1.
</event>
<event>
 7    1  0.5993218E-006  0.1602404E+03  0.7818608E-02  0.1287882E+00
          2   -1    0    0  502    0  0.00000000000E+00  0.00000000000E+00  0.26588423399E+03  0.26588423399E+03  0.00000000000E+00 0. -1.
          1   -1    0    0  501    0 -0.00000000000E+00 -0.00000000000E+00 -0.49243464709E+03  0.49243464709E+03  0.00000000000E+00 0. -1.
         25    2    1    2    0    0  0.15190451528E+02 -0.12227775262E+03  0.80327216732E+02  0.19302698458E+03  0.12499742568E+03 0.  0.
          2    1    1    2  501    0 -0.65339852698E+02  0.15158966286E+03 -0.41274802954E+03  0.44453307878E+03  0.00000000000E+00 0. -1.
          1    1    1    2  502    0  0.50149401171E+02 -0.29311910245E+02  0.10587039971E+03  0.12075881771E+03  0.00000000000E+00 0. -1.
         22    1    3    3    0    0 -0.37911081419E+02 -0.64508025055E+01  0.48123117362E+02  0.61601115022E+02  0.00000000000E+00 0.  1.
         22    1    3    3    0    0  0.53101532947E+02 -0.11582695011E+03  0.32204099370E+02  0.13142586956E+03  0.00000000000E+00 0.  1.
</event>
<event>
 7    1  0.5993218E-006  0.9106101E+02  0.7818608E-02  0.1343731E+00
          2   -1    0    0  502    0  0.00000000000E+00  0.00000000000E+00  0.66859078103E+03  0.66859078103E+03  0.00000000000E+00 0. -1.
          1   -1    0    0  501    0 -0.00000000000E+00 -0.00000000000E+00 -0.47806183017E+03  0.47806183017E+03  0.00000000000E+00 0. -1.
         25    2    1    2    0    0 -0.46851590383E+02 -0.38514881568E+02  0.10262282917E+03  0.17272605057E+03  0.12499750340E+03 0.  0.
          2    1    1    2  501    0  0.26713984914E+02 -0.55779440698E+02 -0.43643423588E+03  0.44079453858E+03  0.00000000000E+00 0. -1.
          1    1    1    2  502    0  0.20137605470E+02  0.94294322266E+02  0.52434035756E+03  0.53313202205E+03  0.00000000000E+00 0. -1.
         22    1    3    3    0    0 -0.52458618974E+02 -0.60387139629E+02  0.12001181640E+03  0.14422672919E+03  0.00000000000E+00 0. -1.
         22    1    3    3    0    0  0.56070285907E+01  0.21872258061E+02 -0.17388987232E+02  0.28499321382E+02  0.00000000000E+00 0. -1.
</event>
<event>
 7    1  0.5993218E-006  0.9113602E+02  0.7818608E-02  0.1353865E+00
          2   -1    0    0  502    0  0.00000000000E+00  0.00000000000E+00  0.10845229508E+03  0.10845229508E+03  0.00000000000E+00 0. -1.
          1   -1    0    0  501    0 -0.00000000000E+00 -0.00000000000E+00 -0.10764394147E+04  0.10764394147E+04  0.00000000000E+00 0. -1.
         25    2    1    2    0    0 -0.23045972638E+02 -0.95993520488E+02 -0.19691515347E+02  0.16049490465E+03  0.12499994324E+03 0.  0.
          2    1    1    2  501    0 -0.32622927139E+02  0.85399607218E+02 -0.96180578214E+03  0.96614062685E+03  0.00000000000E+00 0. -1.
          1    1    1    2  502    0  0.55668899777E+02  0.10593913269E+02  0.13510177887E+02  0.58256178276E+02  0.00000000000E+00 0. -1.
         22    1    3    3    0    0 -0.38223314865E+01  0.29641809891E+02 -0.14681767247E+02  0.33298669660E+02  0.00000000000E+00 0.  1.
         22    1    3    3    0    0 -0.19223641152E+02 -0.12563533038E+03 -0.50097480999E+01  0.12719623499E+03  0.00000000000E+00 0.  1.
</event>
<event>
 7    1  0.5993218E-006  0.8000958E+02  0.7818608E-02  0.1389441E+00
          2   -1    0    0  502    0  0.00000000000E+00  0.00000000000E+00  0.38954288610E+04  0.38954288610E+04  0.00000000000E+00 0. -1.
          1   -1    0    0  501    0 -0.00000000000E+00 -0.00000000000E+00 -0.31470422635E+03  0.31470422635E+03  0.00000000000E+00 0. -1.
         25    2    1    2    0    0 -0.11880545258E+03  0.31656478232E+02  0.14028512349E+04  0.14137656986E+04  0.12499998026E+03 0.  0.
          2    1    1    2  501    0  0.47727106441E+02 -0.60997729139E+01 -0.30679805069E+03  0.31054810871E+03  0.00000000000E+00 0. -1.
          1    1    1    2  502    0  0.71078346137E+02 -0.25556705318E+02  0.24846714504E+04  0.24858192801E+04  0.00000000000E+00 0. -1.
         22    1    3    3    0    0  0.18676969463E+02  0.19557572008E+02  0.98891272128E+02  0.10252224887E+03  0.00000000000E+00 0.  1.
         22    1    3    3    0    0 -0.13748242204E+03  0.12098906224E+02  0.13039599628E+04  0.13112434497E+04  0.00000000000E+00 0.  1.
</event>
<event>
 7    1  0.5993218E-006  0.1981942E+03  0.7818608E-02  0.1317719E+00
          2   -1    0    0  502    0  0.00000000000E+00  0.00000000000E+00  0.52290985487E+03  0.52290985487E+03  0.00000000000E+00 0. -1.
          1   -1    0    0  501    0 -0.00000000000E+00 -0.00000000000E+00 -0.71455708132E+03  0.71455708132E+03  0.00000000000E+00 0. -1.
         25    2    1    2    0    0  0.48890823685E+02  0.15808995300E+03  0.29450750091E+03  0.36019794158E+03  0.12500057257E+03 0.  0.
          2    1    1    2  501    0 -0.69710989221E+02 -0.18710636598E+03 -0.66529062742E+03  0.69460782687E+03  0.00000000000E+00 0. -1.
          1    1    1    2  502    0  0.20820165536E+02  0.29016412972E+02  0.17913590005E+03  0.18266116775E+03  0.00000000000E+00 0. -1.
         22    1    3    3    0    0  0.40621555794E+02  0.78137340039E+02  0.25667105104E+03  0.27135877201E+03  0.00000000000E+00 0. -1.
         22    1    3    3    0    0  0.82692678917E+01  0.79952612965E+02  0.37836449875E+02  0.88839169573E+02  0.00000000000E+00 0. -1.
</event>
<event>
 7    1  0.5993218E-006  0.1096172E+03  0.7818608E-02  0.1302037E+00
          2   -1    0    0  502    0  0.00000000000E+00  0.00000000000E+00  0.14550112331E+04  0.14550112331E+04  0.00000000000E+00 0. -1.
          1   -1    0    0  501    0 -0.00000000000E+00 -0.00000000000E+00 -0.51839846354E+02  0.51839846354E+02  0.00000000000E+00 0. -1.
         25    2    1    2    0    0  0.22776476014E+02  0.14931000693E+03  0.10394449421E+04  0.10577662763E+04  0.12494583508E+03 0.  0.
          2    1    1    2  501    0 -0.40205720948E+02 -0.62658118542E+02 -0.33353585287E+00  0.74448982950E+02  0.00000000000E+00 0. -1.
          1    1    1    2  502    0  0.17429244934E+02 -0.86651888385E+02  0.36405998057E+03  0.37463582022E+03  0.00000000000E+00 0. -1.
         22    1    3    3    0    0 -0.27275226685E+02  0.14288406511E+03  0.75723313651E+03  0.77107834691E+03  0.00000000000E+00 0.  1.
         22    1    3    3    0    0  0.50051702698E+02  0.64259418212E+01  0.28221180555E+03  0.28668792940E+03  0.00000000000E+00 0.  1.
</event>
<event>
 7    1  0.5993218E-006  0.3061812E+02  0.7818608E-02  0.1648135E+00
          2   -1    0    0  502    0  0.00000000000E+00  0.00000000000E+00  0.14716646988E+03  0.14716646988E+03  0.00000000000E+00 0. -1.
          1   -1    0    0  501    0 -0.00000000000E+00 -0.00000000000E+00 -0.35029379953E+03  0.35029379953E+03  0.00000000000E+00 0. -1.
         25    2    1    2    0    0 -0.22699087830E+02 -0.16774685809E+02 -0.32316462952E+02  0.13216201384E+03  0.12500322177E+03 0.  0.
          2    1    1    2  501    0  0.30572224951E+02 -0.37061004398E+01 -0.26591674869E+03  0.26769406671E+03  0.00000000000E+00 0. -1.
          1    1    1    2  502    0 -0.78731371212E+01  0.20480786248E+02  0.95105881988E+02  0.97604188855E+02  0.00000000000E+00 0. -1.
         22    1    3    3    0    0 -0.53336906850E+02  0.27983084995E+02  0.12840317361E+02  0.61585326402E+02  0.00000000000E+00 0.  1.
         22    1    3    3    0    0  0.30637819020E+02 -0.44757770803E+02 -0.45156780312E+02  0.70576687438E+02  0.00000000000E+00 0.  1.
</event>
<event>
 7    1  0.5993218E-006  0.1208367E+03  0.7818608E-02  0.1297400E+00
          2   -1    0    0  502    0  0.00000000000E+00  0.00000000000E+00  0.22677982293E+04  0.22677982293E+04  0.00000000000E+00 0. -1.
          1   -1    0    0  501    0 -0.00000000000E+00 -0.00000000000E+00 -0.22009589475E+03  0.22009589475E+03  0.00000000000E+00 0. -1.
         25    2    1    2    0    0 -0.34345232759E+02  0.42234827916E+02  0.31311523456E+03  0.34151073544E+03  0.12500022641E+03 0.  0.
          2    1    1    2  501    0  0.85264464987E+02 -0.90975171984E+02 -0.18631583390E+03  0.22418764656E+03  0.00000000000E+00 0. -1.
          1    1    1    2  502    0 -0.50919232228E+02  0.48740344068E+02  0.19209029339E+04  0.19221957421E+04  0.00000000000E+00 0. -1.
         22    1    3    3    0    0 -0.29263785483E+02  0.20791986708E+02  0.95500234338E+01  0.37146719904E+02  0.00000000000E+00 0.  1.
         22    1    3    3    0    0 -0.50814472754E+01  0.21442841209E+02  0.30356521112E+03  0.30436401553E+03  0.00000000000E+00 0.  1.
</event>
<event>
 7    1  0.5993218E-006  0.1037021E+03  0.7818608E-02  0.1332610E+00
          2   -1    0    0  502    0  0.00000000000E+00  0.00000000000E+00  0.26855885912E+03  0.26855885912E+03  0.00000000000E+00 0. -1.
          1   -1    0    0  501    0 -0.00000000000E+00 -0.00000000000E+00 -0.19139833661E+04  0.19139833661E+04  0.00000000000E+00 0. -1.
         25    2    1    2    0    0  0.52810816438E+00  0.83562251651E+02 -0.54803912401E+03  0.56829115028E+03  0.12500008495E+03 0.  0.
          2    1    1    2  501    0 -0.59544567206E+02 -0.93306326334E+02 -0.13500615703E+04  0.13545914032E+04  0.00000000000E+00 0. -1.
          1    1    1    2  502    0  0.59016459042E+02  0.97440746831E+01  0.25267618739E+03  0.25965967169E+03  0.00000000000E+00 0. -1.
         22    1    3    3    0    0 -0.52200595895E+02  0.19437577696E+02 -0.12030231256E+03  0.13257212394E+03  0.00000000000E+00 0.  1.
         22    1    3    3    0    0  0.52728704060E+02  0.64124673955E+02 -0.42773681145E+03  0.43571902634E+03  0.00000000000E+00 0.  1.
</event>
<event>
 7    1  0.5993218E-006  0.6181523E+02  0.7818608E-02  0.1397576E+00
          2   -1    0    0  502    0  0.00000000000E+00  0.00000000000E+00  0.44963571392E+03  0.44963571392E+03  0.00000000000E+00 0. -1.
          1   -1    0    0  501    0 -0.00000000000E+00 -0.00000000000E+00 -0.19510622647E+03  0.19510622647E+03  0.00000000000E+00 0. -1.
         25    2    1    2    0    0 -0.13351891298E+02 -0.17687326345E+02  0.52598142811E+02  0.13741325891E+03  0.12499889832E+03 0.  0.
          2    1    1    2  501    0  0.55589018816E+02 -0.27447444967E+02 -0.14354761902E+03  0.15636310362E+03  0.00000000000E+00 0. -1.
          1    1    1    2  502    0 -0.42237127518E+02  0.45134771312E+02  0.34547896365E+03  0.35096557786E+03  0.00000000000E+00 0. -1.
         22    1    3    3    0    0  0.50124923308E+02  0.47115587894E+01 -0.25261611970E+01  0.50409207624E+02  0.00000000000E+00 0. -1.
         22    1    3    3    0    0 -0.63476814606E+02 -0.22398885134E+02  0.55124304007E+02  0.87004051285E+02  0.00000000000E+00 0. -1.
</event>
<event>
 7    1  0.5993218E-006  0.8731752E+02  0.7818608E-02  0.1463261E+00
          2   -1    0    0  502    0  0.00000000000E+00  0.00000000000E+00  0.44251154547E+03  0.44251154547E+03  0.00000000000E+00 0. -1.
          1   -1    0    0  501    0 -0.00000000000E+00 -0.00000000000E+00 -0.22094845565E+04  0.22094845565E+04  0.00000000000E+00 0. -1.
         25    2    1    2    0    0 -0.57410457235E+02 -0.92485801603E+02 -0.16417378034E+03  0.23329684597E+03  0.12499921636E+03 0.  0.
          2    1    1    2  501    0  0.36385808404E+02  0.78756730073E+02 -0.20094259880E+04  0.20112979269E+04  0.00000000000E+00 0. -1.
          1    1    1    2  502    0  0.21024648831E+02  0.13729071530E+02  0.40662675725E+03  0.40740132913E+03  0.00000000000E+00 0. -1.
         22    1    3    3    0    0 -0.47304838154E+02 -0.10077705788E+03 -0.18069075733E+03  0.21223315691E+03  0.00000000000E+00 0. -1.
         22    1    3    3    0    0 -0.10105619081E+02  0.82912562776E+01  0.16516976992E+02  0.21063689056E+02  0.00000000000E+00 0. -1.
</event>
<event>
 7    1  0.5993218E-006  0.1419768E+03  0.7818608E-02  0.1347819E+00
          2   -1    0    0  502    0  0.00000000000E+00  0.00000000000E+00  0.10927188077E+04  0.10927188077E+04  0.00000000000E+00 0. -1.
          1   -1    0    0  501    0 -0.00000000000E+00 -0.00000000000E+00 -0.13585281909E+03  0.13585281909E+03  0.00000000000E+00 0. -1.
         25    2    1    2    0    0 -0.80358779966E+02  0.11155358814E+03  0.28951454206E+03  0.34402003294E+03  0.12501750459E+03 0.  0.
          2    1    1    2  501    0  0.30228221275E+02  0.23516806090E+02 -0.98282034136E+02  0.10548053737E+03  0.00000000000E+00 0. -1.
          1    1    1    2  502    0  0.50130558690E+02 -0.13507039423E+03  0.76563348064E+03  0.77907105644E+03  0.00000000000E+00 0. -1.
         22    1    3    3    0    0 -0.28477317783E+02 -0.75819837228E+01  0.32551875793E+01  0.29648614663E+02  0.00000000000E+00 0. -1.
         22    1    3    3    0    0 -0.51881462183E+02  0.11913557186E+03  0.28625935448E+03  0.31437141827E+03  0.00000000000E+00 0. -1.
</event>
<event>
 7    1  0.5993218E-006  0.9749925E+02  0.7818608E-02  0.1419000E+00
          2   -1    0    0  502    0  0.00000000000E+00  0.00000000000E+00  0.19711343723E+04  0.19711343723E+04  0.00000000000E+00 0. -1.
          1   -1    0    0  501    0 -0.00000000000E+00 -0.00000000000E+00 -0.45334499292E+03  0.45334499292E+03  0.00000000000E+00 0. -1.
         25    2    1    2    0    0 -0.48711014585E+02  0.10974341544E+03 -0.69324143419E+02  0.18667162571E+03  0.12499631518E+03 0.  0.
          2    1    1    2  501    0 -0.75613839947E+01 -0.30362043609E+02 -0.32335377979E+03  0.32486411794E+03  0.00000000000E+00 0. -1.
          1    1    1    2  502    0  0.56272398579E+02 -0.79381371835E+02  0.19104673026E+04  0.19129436215E+04  0.00000000000E+00 0. -1.
         22    1    3    3    0    0 -0.72472060303E+02  0.71793952354E+02 -0.91202872467E+02  0.13683762299E+03  0.00000000000E+00 0.  1.
         22    1    3    3    0    0  0.23761045718E+02  0.37949463090E+02  0.21878729048E+02  0.49834002721E+02  0.00000000000E+00 0.  1.
</event>
<event>
 7    1  0.5993218E-006  0.1434334E+03  0.7818608E-02  0.1267212E+00
          2   -1    0    0  502    0  0.00000000000E+00  0.00000000000E+00  0.25189577042E+04  0.25189577042E+04  0.00000000000E+00 0. -1.
          1   -1    0    0  501    0 -0.00000000000E+00 -0.00000000000E+00 -0.17131987261E+03  0.17131987261E+03  0.00000000000E+00 0. -1.
         25    2    1    2    0    0 -0.23887128406E+02  0.71719981557E+02  0.49118860954E+03  0.51244995827E+03  0.12499743570E+03 0.  0.
          2    1    1    2  501    0  0.40140047289E+01 -0.14824287182E+03 -0.12551720904E+03  0.19428492232E+03  0.00000000000E+00 0. -1.
          1    1    1    2  502    0  0.19873123677E+02  0.76522890260E+02  0.19819664311E+04  0.19835426963E+04  0.00000000000E+00 0. -1.
         22    1    3    3    0    0 -0.21129091668E+02  0.92920800429E+02  0.47783170906E+03  0.48724106544E+03  0.00000000000E+00 0. -1.
         22    1    3    3    0    0 -0.27580367378E+01 -0.21200818872E+02  0.13356900485E+02  0.25208892837E+02  0.00000000000E+00 0. -1.
</event>
<event>
 7    1  0.5993218E-006  0.6764531E+02  0.7818608E-02  0.1397933E+00
          2   -1    0    0  502    0  0.00000000000E+00  0.00000000000E+00  0.23058878390E+04  0.23058878390E+04  0.00000000000E+00 0. -1.
          1   -1    0    0  501    0 -0.00000000000E+00 -0.00000000000E+00 -0.40663122891E+02  0.40663122891E+02  0.00000000000E+00 0. -1.
         25    2    1    2    0    0  0.18148326646E+02  0.44776531076E+02  0.85010529754E+03  0.86060328499E+03  0.12499879094E+03 0.  0.
          2    1    1    2  501    0  0.32500913537E+02 -0.60974002862E+02 -0.73101469349E+00  0.69099007143E+02  0.00000000000E+00 0. -1.
          1    1    1    2  502    0 -0.50649240183E+02  0.16197471786E+02  0.14158504332E+04  0.14168486697E+04  0.00000000000E+00 0. -1.
         22    1    3    3    0    0  0.62522464920E+02  0.94953651085E+01  0.25186327274E+03  0.25968120597E+03  0.00000000000E+00 0.  1.
         22    1    3    3    0    0 -0.44374138273E+02  0.35281165968E+02  0.59824202480E+03  0.60092207902E+03  0.00000000000E+00 0.  1.
</event>
<event>
 7    1  0.5993218E-006  0.5737023E+02  0.7818608E-02  0.1447027E+00
          2   -1    0    0  502    0  0.00000000000E+00  0.00000000000E+00  0.12218107602E+04  0.12218107602E+04  0.00000000000E+00 0. -1.
          1   -1    0    0  501    0 -0.00000000000E+00 -0.00000000000E+00 -0.50175202777E+03  0.50175202777E+03  0.00000000000E+00 0. -1.
         25    2    1    2    0    0  0.30236286713E+02 -0.98741399846E+01  0.38796184198E+03  0.40884019708E+03  0.12499673694E+03 0.  0.
          2    1    1    2  501    0 -0.50067464450E+02 -0.28320311483E+02 -0.48906379201E+03  0.49243495377E+03  0.00000000000E+00 0. -1.
          1    1    1    2  502    0  0.19831177737E+02  0.38194451467E+02  0.82116068242E+03  0.82228763707E+03  0.00000000000E+00 0. -1.
         22    1    3    3    0    0  0.38534123194E+02 -0.25544802853E+02  0.38836153812E+03  0.39110369455E+03  0.00000000000E+00 0. -1.
         22    1    3    3    0    0 -0.82978364815E+01  0.15670662869E+02 -0.39969613901E+00  0.17736502531E+02  0.00000000000E+00 0. -1.
</event>
<event>
 7    1  0.5993218E-006  0.7231195E+02  0.7818608E-02  0.1454516E+00
          2   -1    0    0  502    0  0.00000000000E+00  0.00000000000E+00  0.16595442101E+04  0.16595442101E+04  0.00000000000E+00 0. -1.
          1   -1    0    0  501    0 -0.00000000000E+00 -0.00000000000E+00 -0.32675050279E+03  0.32675050279E+03  0.00000000000E+00 0. -1.
         25    2    1    2    0    0  0.28330622676E+02  0.33873623324E+02  0.17938697086E+03  0.22306220412E+03  0.12500805997E+03 0.  0.
          2    1    1    2  501    0  0.30737532588E+02  0.99658894327E+01 -0.30312604933E+03  0.30484342972E+03  0.00000000000E+00 0. -1.
          1    1    1    2  502    0 -0.59068155265E+02 -0.43839512756E+02  0.14565327858E+04  0.14583890790E+04  0.00000000000E+00 0. -1.
         22    1    3    3    0    0 -0.23290936038E+02 -0.34895813909E+02  0.33370141712E+02  0.53607386504E+02  0.00000000000E+00 0.  1.
         22    1    3    3    0    0  0.51621558714E+02  0.68769437232E+02  0.14601682914E+03  0.16945481762E+03  0.00000000000E+00 0.  1.
</event>
<event>
 7    1  0.5993218E-006  0.4683719E+02  0.7818608E-02  0.1475462E+00
          2   -1    0    0  502    0  0.00000000000E+00  0.00000000000E+00  0.84623253239E+03  0.84623253239E+03  0.00000000000E+00 0. -1.
          1   -1    0    0  501    0 -0.00000000000E+00 -0.00000000000E+00 -0.21754533567E+02  0.21754533567E+02  0.00000000000E+00 0. -1.
         25    2    1    2    0    0  0.20821983543E+02 -0.14035888809E+02  0.35514214188E+03  0.37733427918E+03  0.12499862452E+03 0.  0.
          2    1    1    2  501    0 -0.21222928592E+02 -0.37272914049E+02  0.41268350108E+02  0.59521084839E+02  0.00000000000E+00 0. -1.
          1    1    1    2  502    0  0.40094504893E+00  0.51308802859E+02  0.42806750683E+03  0.43113170194E+03  0.00000000000E+00 0. -1.
         22    1    3    3    0    0  0.30210255796E+00  0.54000337763E+02  0.19060142943E+03  0.19810359070E+03  0.00000000000E+00 0.  1.
         22    1    3    3    0    0  0.20519880985E+02 -0.68036226573E+02  0.16454071245E+03  0.17923068848E+03  0.00000000000E+00 0.  1.
</event>
<event>
 7    1  0.5993218E-006  0.4586794E+02  0.7818608E-02  0.1512869E+00
          2   -1    0    0  502    0  0.00000000000E+00  0.00000000000E+00  0.37498754002E+03  0.37498754002E+03  0.00000000000E+00 0. -1.
          1   -1    0    0  501    0 -0.00000000000E+00 -0.00000000000E+00 -0.41183966029E+03  0.41183966029E+03  0.00000000000E+00 0. -1.
         25    2    1    2    0    0  0.42884411966E+01  0.74810924271E+02 -0.12729493245E+03  0.19350424506E+03  0.12499931164E+03 0.  0.
          2    1    1    2  501    0 -0.13290151953E+02 -0.42232124309E+02 -0.24864439732E+03  0.25255537369E+03  0.00000000000E+00 0. -1.
          1    1    1    2  502    0  0.90017107564E+01 -0.32578799962E+02  0.33908720949E+03  0.34076758156E+03  0.00000000000E+00 0. -1.
         22    1    3    3    0    0  0.45847835253E+02  0.73308239270E+02 -0.36913866342E+02  0.94014655616E+02  0.00000000000E+00 0. -1.
         22    1    3    3    0    0 -0.41559394056E+02  0.15026850008E+01 -0.90381066111E+02  0.99489589445E+02  0.00000000000E+00 0. -1.
</event>
<event>
 7    1  0.5993218E-006  0.4920162E+02  0.7818608E-02  0.1462709E+00
          2   -1    0    0  502    0  0.00000000000E+00  0.00000000000E+00  0.57732047468E+02  0.57732047468E+02  0.00000000000E+00 0. -1.
          1   -1    0    0  501    0 -0.00000000000E+00 -0.00000000000E+00 -0.33842490640E+04  0.33842490640E+04  0.00000000000E+00 0. -1.
         25    2    1    2    0    0 -0.59835904282E+02  0.50890031805E+02 -0.10660166123E+03  0.18209958801E+03  0.12500485989E+03 0.  0.
          2    1    1    2  501    0  0.43933042377E+02 -0.84641440095E+01 -0.32138586149E+04  0.32141700252E+04  0.00000000000E+00 0. -1.
          1    1    1    2  502    0  0.15902861904E+02 -0.42425887795E+02 -0.60567403703E+01  0.45711498290E+02  0.00000000000E+00 0. -1.
         22    1    3    3    0    0  0.39263021255E+02  0.11016916570E+02 -0.31280275162E+02  0.51394677769E+02  0.00000000000E+00 0. -1.
         22    1    3    3    0    0 -0.99098925537E+02  0.39873115235E+02 -0.75321386071E+02  0.13070491024E+03  0.00000000000E+00 0. -1.
</event>
<event>
 7    1  0.5993218E-006  0.8044222E+02  0.7818608E-02  0.1375790E+00
          2   -1    0    0  502    0  0.00000000000E+00  0.00000000000E+00  0.11663849828E+03  0.11663849828E+03  0.00000000000E+00 0. -1.
          1   -1    0    0  501    0 -0.00000000000E+00 -0.00000000000E+00 -0.53558272749E+03  0.53558272749E+03  0.00000000000E+00 0. -1.
         25    2    1    2    0    0 -0.27692093390E+02 -0.33348375348E+02 -0.19341066125E+03  0.23433176632E+03  0.12499890657E+03 0.  0.
          2    1    1    2  501    0  0.17856946585E+02 -0.50399552562E+02 -0.30040317042E+03  0.30512464705E+03  0.00000000000E+00 0. -1.
          1    1    1    2  502    0  0.98351468052E+01  0.83747927910E+02  0.74869602468E+02  0.11276481240E+03  0.00000000000E+00 0. -1.
         22    1    3    3    0    0  0.16732610722E+02  0.35674858941E+02 -0.24145127165E+02  0.46213233904E+02  0.00000000000E+00 0. -1.
         22    1    3    3    0    0 -0.44424704112E+02 -0.69023234289E+02 -0.16926553409E+03  0.18811853241E+03  0.00000000000E+00 0. -1.
</event>
<event>
 7    1  0.5993218E-006  0.1742741E+03  0.7818608E-02  0.1365939E+00
          2   -1    0    0  502    0  0.00000000000E+00  0.00000000000E+00  0.77365796212E+03  0.77365796212E+03  0.00000000000E+00 0. -1.
          1   -1    0    0  501    0 -0.00000000000E+00 -0.00000000000E+00 -0.91730307377E+03  0.91730307377E+03  0.00000000000E+00 0. -1.
         25    2    1    2    0    0 -0.77182960481E+02  0.12850569204E+03  0.18195704118E+02  0.19602891420E+03  0.12500131712E+03 0.  0.
          2    1    1    2  501    0  0.94288157201E+02 -0.14910407476E+03 -0.81871821174E+03  0.83750927871E+03  0.00000000000E+00 0. -1.
          1    1    1    2  502    0 -0.17105196720E+02  0.20598382720E+02  0.65687739597E+03  0.65742284297E+03  0.00000000000E+00 0. -1.
         22    1    3    3    0    0 -0.55975510446E+02  0.41412270700E+02  0.64696794971E+02  0.95046879032E+02  0.00000000000E+00 0.  1.
         22    1    3    3    0    0 -0.21207450035E+02  0.87093421336E+02 -0.46501090853E+02  0.10098203517E+03  0.00000000000E+00 0.  1.
</event>
<event>
 7    1  0.5993218E-006  0.1669870E+03  0.7818608E-02  0.1238660E+00
          2   -1    0    0  502    0  0.00000000000E+00  0.00000000000E+00  0.43603909318E+03  0.43603909318E+03  0.00000000000E+00 0. -1.
          1   -1    0    0  501    0 -0.00000000000E+00 -0.00000000000E+00 -0.97325732836E+03  0.97325732836E+03  0.00000000000E+00 0. -1.
         25    2    1    2    0    0 -0.21812091887E+03 -0.98801228493E+02  0.58441988208E+02  0.27636750122E+03  0.12500044697E+03 0.  0.
          2    1    1    2  501    0  0.88323697657E+02  0.18313852584E+02 -0.83997546451E+03  0.84480486134E+03  0.00000000000E+00 0. -1.
          1    1    1    2  502    0  0.12979722121E+03  0.80487375908E+02  0.24431524112E+03  0.28812405898E+03  0.00000000000E+00 0. -1.
         22    1    3    3    0    0 -0.17050161952E+03 -0.84579369312E+02 -0.11377162820E+02  0.19066701814E+03  0.00000000000E+00 0.  1.
         22    1    3    3    0    0 -0.47619299345E+02 -0.14221859181E+02  0.69819151027E+02  0.85700483073E+02  0.00000000000E+00 0.  1.
</event>
<event>
 7    1  0.5993218E-006  0.2353033E+03  0.7818608E-02  0.1198191E+00
          2   -1    0    0  502    0  0.00000000000E+00  0.00000000000E+00  0.11502428218E+04  0.11502428218E+04  0.00000000000E+00 0. -1.
          1   -1    0    0  501    0 -0.00000000000E+00 -0.00000000000E+00 -0.12332102631E+04  0.12332102631E+04  0.00000000000E+00 0. -1.
         25    2    1    2    0    0 -0.83364956532E+02  0.27199568837E+03  0.22871260470E+03  0.38583102485E+03  0.12499901487E+03 0.  0.
          2    1    1    2  501    0 -0.47729599548E+02 -0.85618284781E+02 -0.11371052263E+04  0.11413224352E+04  0.00000000000E+00 0. -1.
          1    1    1    2  502    0  0.13109455608E+03 -0.18637740359E+03  0.82542518034E+03  0.85629962487E+03  0.00000000000E+00 0. -1.
         22    1    3    3    0    0  0.28174787040E+02  0.99928359590E+02  0.57430430265E+02  0.11864969446E+03  0.00000000000E+00 0. -1.
         22    1    3    3    0    0 -0.11153974357E+03  0.17206732878E+03  0.17128217443E+03  0.26718133039E+03  0.00000000000E+00 0. -1.
</event>
<event>
 7    1  0.5993218E-006  0.2598260E+03  0.7818608E-02  0.1306033E+00
          2   -1    0    0  502    0  0.00000000000E+00  0.00000000000E+00  0.13923704106E+04  0.13923704106E+04  0.00000000000E+00 0. -1.
          1   -1    0    0  501    0 -0.00000000000E+00 -0.00000000000E+00 -0.15379015380E+04  0.15379015380E+04  0.00000000000E+00 0. -1.
         25    2    1    2    0    0 -0.27069505104E+03  0.94679593275E+02 -0.63897540042E+02  0.31929437997E+03  0.12500387762E+03 0.  0.
          2    1    1    2  501    0  0.24482947588E+03 -0.78936258268E+02 -0.13338331040E+04  0.13584119974E+04  0.00000000000E+00 0. -1.
          1    1    1    2  502    0  0.25865575154E+02 -0.15743335007E+02  0.12521995167E+04  0.12525655712E+04  0.00000000000E+00 0. -1.
         22    1    3    3    0    0 -0.17972945247E+03  0.10813165192E+03 -0.44509705495E+01  0.20979738171E+03  0.00000000000E+00 0.  1.
         22    1    3    3    0    0 -0.90965598569E+02 -0.13452058650E+02 -0.59446569493E+02  0.10949699827E+03  0.00000000000E+00 0.  1.
</event>
<event>
 7    1  0.5993218E-006  0.4663038E+02  0.7818608E-02  0.1503024E+00
          2   -1    0    0  502    0  0.00000000000E+00  0.00000000000E+00  0.13796174400E+04  0.13796174400E+04  0.00000000000E+00 0. -1.
          1   -1    0    0  501    0 -0.00000000000E+00 -0.00000000000E+00 -0.77612213338E+03  0.77612213338E+03  0.00000000000E+00 0. -1.
         25    2    1    2    0    0 -0.39759633222E+02 -0.71128014589E+02  0.25196309146E+02  0.15132792751E+03  0.12500105903E+03 0.  0.
          2    1    1    2  501    0  0.26008372095E+02  0.38347726634E+02 -0.71205854784E+03  0.71356454446E+03  0.00000000000E+00 0. -1.
          1    1    1    2  502    0  0.13751261127E+02  0.32780287954E+02  0.12903575453E+04  0.12908471014E+04  0.00000000000E+00 0. -1.
         22    1    3    3    0    0 -0.21218754621E+02  0.22004347520E+02 -0.28877261396E+02  0.42051433782E+02  0.00000000000E+00 0. -1.
         22    1    3    3    0    0 -0.18540878601E+02 -0.93132362109E+02  0.54073570542E+02  0.10927649373E+03  0.00000000000E+00 0. -1.
</event>
<event>
 7    1  0.5993218E-006  0.1109764E+03  0.7818608E-02  0.1259000E+00
          2   -1    0    0  502    0  0.00000000000E+00  0.00000000000E+00  0.24475604631E+04  0.24475604631E+04  0.00000000000E+00 0. -1.
          1   -1    0    0  501    0 -0.00000000000E+00 -0.00000000000E+00 -0.26221413922E+02  0.26221413922E+02  0.00000000000E+00 0. -1.
         25    2    1    2    0    0 -0.84304279329E+01 -0.29885592081E+02  0.82889833045E+03  0.83884483446E+03  0.12499597331E+03 0.  0.
          2    1    1    2  501    0  0.10186463353E+03  0.89305834497E+02  0.22227115024E+03  0.26030059521E+03  0.00000000000E+00 0. -1.
          1    1    1    2  502    0 -0.93434205593E+02 -0.59420242415E+02  0.13701695685E+04  0.13746364474E+04  0.00000000000E+00 0. -1.
         22    1    3    3    0    0 -0.93607801190E+01 -0.54249290169E+02  0.79597553356E+03  0.79787697028E+03  0.00000000000E+00 0.  1.
         22    1    3    3    0    0  0.93035218609E+00  0.24363698088E+02  0.32922796897E+02  0.40967864177E+02  0.00000000000E+00 0.  1.
</event>
<event>
 7    1  0.5993218E-006  0.6175233E+02  0.7818608E-02  0.1476794E+00
          2   -1    0    0  502    0  0.00000000000E+00  0.00000000000E+00  0.16447575931E+03  0.16447575931E+03  0.00000000000E+00 0. -1.
          1   -1    0    0  501    0 -0.00000000000E+00 -0.00000000000E+00 -0.99413506565E+03  0.99413506565E+03  0.00000000000E+00 0. -1.
         25    2    1    2    0    0 -0.71315875688E+02 -0.16507221340E+02  0.45642154464E+02  0.15187966255E+03  0.12500313256E+03 0.  0.
          2    1    1    2  501    0  0.48012652699E+02  0.38766150597E+02 -0.93598747532E+03  0.93801950044E+03  0.00000000000E+00 0. -1.
          1    1    1    2  502    0  0.23303222989E+02 -0.22258929257E+02  0.60686014520E+02  0.68711661977E+02  0.00000000000E+00 0. -1.
         22    1    3    3    0    0 -0.84558040733E+02 -0.30326612684E+02  0.74870845457E+02  0.11694190519E+03  0.00000000000E+00 0. -1.
         22    1    3    3    0    0  0.13242165046E+02  0.13819391344E+02 -0.29228690993E+02  0.34937757360E+02  0.00000000000E+00 0. -1.
</event>
<event>
 7    1  0.5993218E-006  0.1242674E+03  0.7818608E-02  0.1409816E+00
          2   -1    0    0  502    0  0.00000000000E+00  0.00000000000E+00  0.75924308404E+03  0.75924308404E+03  0.00000000000E+00 0. -1.
          1   -1    0    0  501    0 -0.00000000000E+00 -0.00000000000E+00 -0.81594491002E+02  0.81594491002E+02  0.00000000000E+00 0. -1.
         25    2    1    2    0    0 -0.58034259382E+02 -0.86517096439E+02  0.39821387038E+03  0.43017712252E+03  0.12499954776E+03 0.  0.
          2    1    1    2  501    0  0.59057318889E+02  0.11285844806E+03 -0.25934251612E+01  0.12740299081E+03  0.00000000000E+00 0. -1.
          1    1    1    2  502    0 -0.10230595070E+01 -0.26341351617E+02  0.28202814782E+03  0.28325746172E+03  0.00000000000E+00 0. -1.
         22    1    3    3    0    0 -0.94593352792E+02 -0.51318784038E+02  0.31313663915E+03  0.33111338657E+03  0.00000000000E+00 0. -1.
         22    1    3    3    0    0  0.36559093410E+02 -0.35198312401E+02  0.85077231229E+02  0.99063735950E+02  0.00000000000E+00 0. -1.
</event>
<event>
 7    1  0.5993218E-006  0.8406997E+02  0.7818608E-02  0.1385820E+00
          2   -1    0    0  502    0  0.00000000000E+00  0.00000000000E+00  0.69536937876E+03  0.69536937876E+03  0.00000000000E+00 0. -1.
          1   -1    0    0  501    0 -0.00000000000E+00 -0.00000000000E+00 -0.30257195088E+03  0.30257195088E+03  0.00000000000E+00 0. -1.
         25    2    1    2    0    0  0.85375640132E+02  0.79860637143E+02  0.17059072842E+03  0.24164449619E+03  0.12499657845E+03 0.  0.
          2    1    1    2  501    0 -0.76135260555E+02 -0.33626632692E+02 -0.25938059295E+03  0.27240708567E+03  0.00000000000E+00 0. -1.
          1    1    1    2  502    0 -0.92403795775E+01 -0.46234004451E+02  0.48158729241E+03  0.48388974777E+03  0.00000000000E+00 0. -1.
         22    1    3    3    0    0  0.41238842162E+02  0.86824409127E+02  0.40878293802E+02  0.10445168753E+03  0.00000000000E+00 0.  1.
         22    1    3    3    0    0  0.44136797970E+02 -0.69637719848E+01  0.12971243461E+03  0.13719280866E+03  0.00000000000E+00 0.  1.
</event>
<event>
 7    1  0.5993218E-006  0.8259786E+02  0.7818608E-02  0.1364193E+00
          2   -1    0    0  502    0  0.00000000000E+00  0.00000000000E+00  0.75350808840E+03  0.75350808840E+03  0.00000000000E+00 0. -1.
          1   -1    0    0  501    0 -0.00000000000E+00 -0.00000000000E+00 -0.56171727829E+03  0.56171727829E+03  0.00000000000E+00 0. -1.
         25    2    1    2    0    0 -0.65954904999E+02 -0.67879848544E+02 -0.85552507861E+02  0.17861145803E+03  0.12500039202E+03 0.  0.
          2    1    1    2  501    0  0.10502578338E+02  0.82395331288E+02 -0.42444120335E+03  0.43249234661E+03  0.00000000000E+00 0. -1.
          1    1    1    2  502    0  0.55452326661E+02 -0.14515482745E+02  0.70178452133E+03  0.70412156205E+03  0.00000000000E+00 0. -1.
         22    1    3    3    0    0 -0.24261407418E+02 -0.80069218502E+02 -0.11333222386E+01  0.83671859431E+02  0.00000000000E+00 0.  1.
         22    1    3    3    0    0 -0.41693497582E+02  0.12189369958E+02 -0.84419185622E+02  0.94939598597E+02  0.00000000000E+00 0.  1.
</event>
<event>
 7    1  0.5993218E-006  0.1016775E+03  0.7818608E-02  0.1310217E+00
          2   -1    0    0  502    0  0.00000000000E+00  0.00000000000E+00  0.27887299557E+04  0.27887299557E+04  0.00000000000E+00 0. -1.
          1   -1    0    0  501    0 -0.00000000000E+00 -0.00000000000E+00 -0.81576620750E+02  0.81576620750E+02  0.00000000000E+00 0. -1.
         25    2    1    2    0    0 -0.11956853329E+02 -0.32190244088E+02  0.31996331168E+03  0.34522617085E+03  0.12500164022E+03 0.  0.
          2    1    1    2  501    0 -0.81927751921E+01 -0.74034157031E+02 -0.47270962445E+02  0.88219736245E+02  0.00000000000E+00 0. -1.
          1    1    1    2  502    0  0.20149628521E+02  0.10622440112E+03  0.24344609857E+04  0.24368606693E+04  0.00000000000E+00 0. -1.
         22    1    3    3    0    0  0.52018750022E+02 -0.20237267089E+02  0.21144166486E+03  0.21868487595E+03  0.00000000000E+00 0.  1.
         22    1    3    3    0    0 -0.63975603351E+02 -0.11952976999E+02  0.10852164683E+03  0.12654129489E+03  0.00000000000E+00 0.  1.
</event>
<event>
 7    1  0.5993218E-006  0.9682088E+02  0.7818608E-02  0.1422953E+00
          2   -1    0    0  502    0  0.00000000000E+00  0.00000000000E+00  0.10360177868E+04  0.10360177868E+04  0.00000000000E+00 0. -1.
          1   -1    0    0  501    0 -0.00000000000E+00 -0.00000000000E+00 -0.10722314037E+04  0.10722314037E+04  0.00000000000E+00 0. -1.
         25    2    1    2    0    0  0.61995287280E+02  0.10548280466E+03 -0.13449985694E+03  0.22064187864E+03  0.12499035709E+03 0.  0.
          2    1    1    2  501    0 -0.58809911001E+02 -0.75082902955E+02 -0.89188226791E+03  0.89696712747E+03  0.00000000000E+00 0. -1.
          1    1    1    2  502    0 -0.31853762787E+01 -0.30399901707E+02  0.99016850796E+03  0.99064018433E+03  0.00000000000E+00 0. -1.
         22    1    3    3    0    0 -0.23525387029E+02  0.80183792861E+02 -0.47841817340E+02  0.96289791561E+02  0.00000000000E+00 0.  1.
         22    1    3    3    0    0  0.85520674309E+02  0.25299011802E+02 -0.86658039604E+02  0.12435208708E+03  0.00000000000E+00 0.  1.
</event>
<event>
 7    1  0.5993218E-006  0.1264629E+03  0.7818608E-02  0.1287706E+00
          2   -1    0    0  502    0  0.00000000000E+00  0.00000000000E+00  0.28503201187E+04  0.28503201187E+04  0.00000000000E+00 0. -1.
          1   -1    0    0  501    0 -0.00000000000E+00 -0.00000000000E+00 -0.16748322993E+03  0.16748322993E+03  0.00000000000E+00 0. -1.
         25    2    1    2    0    0 -0.97713530354E+02 -0.16366183992E+02  0.13435639836E+04  0.13529990072E+04  0.12500539712E+03 0.  0.
          2    1    1    2  501    0  0.11462223516E+03 -0.55392952707E+02 -0.13681165532E+03  0.18687981441E+03  0.00000000000E+00 0. -1.
          1    1    1    2  502    0 -0.16908704801E+02  0.71759136699E+02  0.14760845605E+04  0.14779245271E+04  0.00000000000E+00 0. -1.
         22    1    3    3    0    0 -0.37914511655E+02  0.47879651444E+02  0.32710072872E+03  0.33275344919E+03  0.00000000000E+00 0. -1.
         22    1    3    3    0    0 -0.59799018699E+02 -0.64245835436E+02  0.10164632549E+04  0.10202455580E+04  0.00000000000E+00 0. -1.
</event>
<event>
 7    1  0.5993218E-006  0.8227931E+02  0.7818608E-02  0.1433278E+00
          2   -1    0    0  502    0  0.00000000000E+00  0.00000000000E+00  0.20408922906E+04  0.20408922906E+04  0.00000000000E+00 0. -1.
          1   -1    0    0  501    0 -0.00000000000E+00 -0.00000000000E+00 -0.32220021085E+03  0.32220021085E+03  0.00000000000E+00 0. -1.
         25    2    1    2    0    0  0.38512850790E+02 -0.58464364818E+02  0.26596232542E+03  0.30209605099E+03  0.12499897539E+03 0.  0.
          2    1    1    2  501    0 -0.23597258911E+02 -0.23430052467E+02 -0.30223488873E+03  0.30405875411E+03  0.00000000000E+00 0. -1.
          1    1    1    2  502    0 -0.14915591879E+02  0.81894417285E+02  0.17549646430E+04  0.17569376963E+04  0.00000000000E+00 0. -1.
         22    1    3    3    0    0  0.16124499646E+02 -0.23053831212E+02  0.25790367698E+03  0.25943358538E+03  0.00000000000E+00 0. -1.
         22    1    3    3    0    0  0.22388351143E+02 -0.35410533606E+02  0.80586484422E+01  0.42662465610E+02  0.00000000000E+00 0. -1.
</event>
<event>
 7    1  0.5993218E-006  0.1548295E+03  0.7818608E-02  0.1235234E+00
          2   -1    0    0  502    0  0.00000000000E+00  0.00000000000E+00  0.10334379028E+04  0.10334379028E+04  0.00000000000E+00 0. -1.
          1   -1    0    0  501    0 -0.00000000000E+00 -0.00000000000E+00 -0.62883203336E+03  0.62883203336E+03  0.00000000000E+00 0. -1.
         25    2    1    2    0    0 -0.65628842102E+01  0.12464756482E+03 -0.12247747536E+03  0.21495343767E+03  0.12499664608E+03 0.  0.
          2    1    1    2  501    0  0.10681782767E+03 -0.13459586162E+03 -0.44136910663E+03  0.47363781792E+03  0.00000000000E+00 0. -1.
          1    1    1    2  502    0 -0.10025494346E+03  0.99482967949E+01  0.96845245142E+03  0.97367868055E+03  0.00000000000E+00 0. -1.
         22    1    3    3    0    0  0.27733080348E+02  0.12160866606E+03 -0.49373834288E+02  0.13414755652E+03  0.00000000000E+00 0.  1.
         22    1    3    3    0    0 -0.34295964558E+02  0.30388987574E+01 -0.73103641076E+02  0.80805881155E+02  0.00000000000E+00 0.  1.
</event>
<event>
 7    1  0.5993218E-006  0.4082216E+02  0.7818608E-02  0.1580034E+00
          2   -1    0    0  502    0  0.00000000000E+00  0.00000000000E+00  0.49021313985E+03  0.49021313985E+03  0.00000000000E+00 0. -1.
          1   -1    0    0  501    0 -0.00000000000E+00 -0.00000000000E+00 -0.79746854191E+02  0.79746854191E+02  0.00000000000E+00 0. -1.
         25    2    1    2    0    0  0.20369849475E+02 -0.10170728904E+02  0.74341560684E+02  0.14720669945E+03  0.12499908090E+03 0.  0.
          2    1    1    2  501    0  0.21032204575E+02  0.12787898317E+02 -0.38577599001E+02  0.45761502569E+02  0.00000000000E+00 0. -1.
          1    1    1    2  502    0 -0.41402054051E+02 -0.26171694127E+01  0.37470232398E+03  0.37699179202E+03  0.00000000000E+00 0. -1.
         22    1    3    3    0    0  0.16409883564E+02 -0.67561762795E+02  0.41102635273E+02  0.80766965382E+02  0.00000000000E+00 0.  1.
         22    1    3    3    0    0  0.39599659108E+01  0.57391033892E+02  0.33238925411E+02  0.66439734073E+02  0.00000000000E+00 0.  1.
</event>
<event>
 7    1  0.5993218E-006  0.8320364E+02  0.7818608E-02  0.1368285E+00
          2   -1    0    0  502    0  0.00000000000E+00  0.00000000000E+00  0.15755707585E+03  0.15755707585E+03  0.00000000000E+00 0. -1.
          1   -1    0    0  501    0 -0.00000000000E+00 -0.00000000000E+00 -0.20198937691E+04  0.20198937691E+04  0.00000000000E+00 0. -1.
         25    2    1    2    0    0 -0.10726946561E+03  0.82240770509E+02 -0.19448353945E+03  0.26780504447E+03  0.12500164855E+03 0.  0.
          2    1    1    2  501    0  0.70910767740E+02 -0.40975592121E+02 -0.17815047904E+04  0.17833862886E+04  0.00000000000E+00 0. -1.
          1    1    1    2  502    0  0.36358697875E+02 -0.41265178388E+02  0.11365163656E+03  0.12625951192E+03  0.00000000000E+00 0. -1.
         22    1    3    3    0    0 -0.53853510313E+02  0.10674131999E+03 -0.96909250438E+02  0.15390033394E+03  0.00000000000E+00 0. -1.
         22    1    3    3    0    0 -0.53415955302E+02 -0.24500549480E+02 -0.97574289009E+02  0.11390471053E+03  0.00000000000E+00 0. -1.
</event>
<event>
 7    1  0.5993218E-006  0.2524780E+03  0.7818608E-02  0.1211606E+00
          2   -1    0    0  502    0  0.00000000000E+00  0.00000000000E+00  0.22867493921E+04  0.22867493921E+04  0.00000000000E+00 0. -1.
          1   -1    0    0  501    0 -0.00000000000E+00 -0.00000000000E+00 -0.11317081586E+03  0.11317081586E+03  0.00000000000E+00 0. -1.
         25    2    1    2    0    0  0.19625132992E+03 -0.57147799697E+02  0.15930053754E+04  0.16109222301E+04  0.12499539980E+03 0.  0.
          2    1    1    2  501    0 -0.22171604026E+03  0.13200074868E+03  0.63258782197E+02  0.26567625729E+03  0.00000000000E+00 0. -1.
          1    1    1    2  502    0  0.25464710344E+02 -0.74852948982E+02  0.51731441861E+03  0.52332172050E+03  0.00000000000E+00 0. -1.
         22    1    3    3    0    0  0.58583492449E+02 -0.13811922701E+02  0.95059871109E+03  0.95250233822E+03  0.00000000000E+00 0. -1.
         22    1    3    3    0    0  0.13766783747E+03 -0.43335876996E+02  0.64240666433E+03  0.65841989193E+03  0.00000000000E+00 0. -1.
</event>
<event>
 7    1  0.5993218E-006  0.1555750E+03  0.7818608E-02  0.1222441E+00
          2   -1    0    0  502    0  0.00000000000E+00  0.00000000000E+00  0.35768916591E+04  0.35768916591E+04  0.00000000000E+00 0. -1.
          1   -1    0    0  501    0 -0.00000000000E+00 -0.00000000000E+00 -0.39886029549E+03  0.39886029549E+03  0.00000000000E+00 0. -1.
         25    2    1    2    0    0  0.18016980716E+03  0.15730583242E+03  0.78017354091E+03  0.82553116621E+03  0.12499867250E+03 0.  0.
          2    1    1    2  501    0 -0.39257440573E+02 -0.10750886341E+03 -0.36540973625E+03  0.38291458277E+03  0.00000000000E+00 0. -1.
          1    1    1    2  502    0 -0.14091236659E+03 -0.49796969006E+02  0.27632675590E+04  0.27673062056E+04  0.00000000000E+00 0. -1.
         22    1    3    3    0    0  0.78001755142E+02  0.26901599601E+02  0.12528273114E+03  0.15001244144E+03  0.00000000000E+00 0.  1.
         22    1    3    3    0    0  0.10216805202E+03  0.13040423282E+03  0.65489080977E+03  0.67551872477E+03  0.00000000000E+00 0.  1.
</event>
<event>
 7    1  0.5993218E-006  0.1139596E+03  0.7818608E-02  0.1270487E+00
          2   -1    0    0  502    0  0.00000000000E+00  0.00000000000E+00  0.45071714549E+04  0.45071714549E+04  0.00000000000E+00 0. -1.
          1   -1    0    0  501    0 -0.00000000000E+00 -0.00000000000E+00 -0.78602530653E+02  0.78602530653E+02  0.00000000000E+00 0. -1.
         25    2    1    2    0    0  0.17223311296E+03  0.41305753144E+02  0.19849222493E+04  0.19967250299E+04  0.12499639495E+03 0.  0.
          2    1    1    2  501    0 -0.82707630618E+02 -0.77061060833E+02 -0.27242196977E+02  0.11628025007E+03  0.00000000000E+00 0. -1.
          1    1    1    2  502    0 -0.89525482338E+02  0.35755307689E+02  0.24708888719E+04  0.24727687056E+04  0.00000000000E+00 0. -1.
         22    1    3    3    0    0  0.18922480720E+03  0.26190988362E+02  0.16476584017E+04  0.16586953319E+04  0.00000000000E+00 0. -1.
         22    1    3    3    0    0 -0.16991694247E+02  0.15114764782E+02  0.33726384762E+03  0.33802969796E+03  0.00000000000E+00 0. -1.
</event>
<event>
 7    1  0.5993218E-006  0.1253467E+03  0.7818608E-02  0.1278016E+00
          2   -1    0    0  502    0  0.00000000000E+00  0.00000000000E+00  0.61266165626E+03  0.61266165626E+03  0.00000000000E+00 0. -1.
          1   -1    0    0  501    0 -0.00000000000E+00 -0.00000000000E+00 -0.11222846655E+04  0.11222846655E+04  0.00000000000E+00 0. -1.
         25    2    1    2    0    0  0.37166008811E+02 -0.27965549914E+02  0.87048123392E+02  0.15925778904E+03  0.12498913309E+03 0.  0.
          2    1    1    2  501    0 -0.95003365530E+02  0.85429495937E+02 -0.10789895860E+04  0.10865276641E+04  0.00000000000E+00 0. -1.
          1    1    1    2  502    0  0.57837356720E+02 -0.57463946023E+02  0.48231845335E+03  0.48916086860E+03  0.00000000000E+00 0. -1.
         22    1    3    3    0    0  0.45671151585E+02 -0.73719568979E+02  0.53619587634E+02  0.10195827144E+03  0.00000000000E+00 0. -1.
         22    1    3    3    0    0 -0.85051427744E+01  0.45754019065E+02  0.33428535758E+02  0.57299517600E+02  0.00000000000E+00 0. -1.
</event>
<event>
 7    1  0.5993218E-006  0.1466566E+03  0.7818608E-02  0.1385638E+00
          2   -1    0    0  502    0  0.00000000000E+00  0.00000000000E+00  0.16707182472E+04  0.16707182472E+04  0.00000000000E+00 0. -1.
          1   -1    0    0  501    0 -0.00000000000E+00 -0.00000000000E+00 -0.11328448479E+03  0.11328448479E+03  0.00000000000E+00 0. -1.
         25    2    1    2    0    0  0.69403702952E+02  0.15358652464E+03  0.31847789826E+03  0.38139011146E+03  0.12499820360E+03 0.  0.
          2    1    1    2  501    0 -0.65709464456E+02 -0.12677258441E+03 -0.19279802583E+02  0.14408585171E+03  0.00000000000E+00 0. -1.
          1    1    1    2  502    0 -0.36942384961E+01 -0.26813940237E+02  0.12582356667E+04  0.12585267688E+04  0.00000000000E+00 0. -1.
         22    1    3    3    0    0 -0.28356651516E+02  0.79673371794E+02  0.10075190731E+03  0.13154046026E+03  0.00000000000E+00 0.  1.
         22    1    3    3    0    0  0.97760354469E+02  0.73913152851E+02  0.21772599095E+03  0.24984965120E+03  0.00000000000E+00 0.  1.
</event>
<event>
 7    1  0.5993218E-006  0.8323857E+02  0.7818608E-02  0.1449844E+00
          2   -1    0    0  502    0  0.00000000000E+00  0.00000000000E+00  0.76622042618E+02  0.76622042618E+02  0.00000000000E+00 0. -1.
          1   -1    0    0  501    0 -0.00000000000E+00 -0.00000000000E+00 -0.24486795498E+04  0.24486795498E+04  0.00000000000E+00 0. -1.
         25    2    1    2    0    0 -0.97553898103E+02 -0.10436005894E+02 -0.54253976717E+03  0.56533207963E+03  0.12500115218E+03 0.  0.
          2    1    1    2  501    0  0.81202444262E+02 -0.13576180309E+02 -0.18905679513E+04  0.18923597248E+04  0.00000000000E+00 0. -1.
          1    1    1    2  502    0  0.16351453841E+02  0.24012186203E+02  0.61050211295E+02  0.67609787962E+02  0.00000000000E+00 0. -1.
         22    1    3    3    0    0 -0.84088378301E+02 -0.46737334066E+02 -0.49380532916E+03  0.50308939252E+03  0.00000000000E+00 0. -1.
         22    1    3    3    0    0 -0.13465519802E+02  0.36301328172E+02 -0.48734438013E+02  0.62242687113E+02  0.00000000000E+00 0. -1.
</event>
<event>
 7    1  0.5993218E-006  0.5938313E+02  0.7818608E-02  0.1432101E+00
          2   -1    0    0  502    0  0.00000000000E+00  0.00000000000E+00  0.22445571649E+03  0.22445571649E+03  0.00000000000E+00 0. -1.
          1   -1    0    0  501    0 -0.00000000000E+00 -0.00000000000E+00 -0.17246542146E+03  0.17246542146E+03  0.00000000000E+00 0. -1.
         25    2    1    2    0    0  0.25423332699E+02  0.10618117231E+02 -0.95878581618E+02  0.15992789206E+03  0.12500055195E+03 0.  0.
          2    1    1    2  501    0 -0.26504530941E+02 -0.69991401706E+02 -0.29550136975E+01  0.74900057270E+02  0.00000000000E+00 0. -1.
          1    1    1    2  502    0  0.10811982420E+01  0.59373284475E+02  0.15082389034E+03  0.16209318862E+03  0.00000000000E+00 0. -1.
         22    1    3    3    0    0  0.49651429240E+02 -0.22853596602E+02  0.93366203049E+00  0.54666470784E+02  0.00000000000E+00 0. -1.
         22    1    3    3    0    0 -0.24228096541E+02  0.33471713833E+02 -0.96812243648E+02  0.10526142128E+03  0.00000000000E+00 0. -1.
</event>
<event>
 7    1  0.5993218E-006  0.1339570E+03  0.7818608E-02  0.1359260E+00
          2   -1    0    0  502    0  0.00000000000E+00  0.00000000000E+00  0.15858789985E+04  0.15858789985E+04  0.00000000000E+00 0. -1.
          1   -1    0    0  501    0 -0.00000000000E+00 -0.00000000000E+00 -0.13951917911E+04  0.13951917911E+04  0.00000000000E+00 0. -1.
         25    2    1    2    0    0  0.15470954177E+03 -0.61100694352E+02 -0.33240325410E+03  0.39215419282E+03  0.12499860178E+03 0.  0.
          2    1    1    2  501    0 -0.11984849877E+03  0.49201202955E+02 -0.10286312289E+04  0.10367577471E+04  0.00000000000E+00 0. -1.
          1    1    1    2  502    0 -0.34861042999E+02  0.11899491397E+02  0.15517216904E+04  0.15521588497E+04  0.00000000000E+00 0. -1.
         22    1    3    3    0    0  0.22846164181E+01  0.86093675534E+01 -0.12579254207E+03  0.12610751097E+03  0.00000000000E+00 0.  1.
         22    1    3    3    0    0  0.15242492535E+03 -0.69710061906E+02 -0.20661071202E+03  0.26604668185E+03  0.00000000000E+00 0.  1.
</event>
<event>
 7    1  0.5993218E-006  0.1461574E+03  0.7818608E-02  0.1333630E+00
          2   -1    0    0  502    0  0.00000000000E+00  0.00000000000E+00  0.76363876775E+03  0.76363876775E+03  0.00000000000E+00 0. -1.
          1   -1    0    0  501    0 -0.00000000000E+00 -0.00000000000E+00 -0.14139343651E+04  0.14139343651E+04  0.00000000000E+00 0. -1.
         25    2    1    2    0    0 -0.49679843211E+02  0.12289326853E+03  0.46568909297E+03  0.50006225954E+03  0.12500035935E+03 0.  0.
          2    1    1    2  501    0 -0.37114617175E+02  0.19794883720E+02 -0.13715598559E+04  0.13722047116E+04  0.00000000000E+00 0. -1.
          1    1    1    2  502    0  0.86794460386E+02 -0.14268815225E+03  0.25557516555E+03  0.30530616174E+03  0.00000000000E+00 0. -1.
         22    1    3    3    0    0  0.30240540686E+01  0.10111473394E+03  0.16144482059E+03  0.19051972186E+03  0.00000000000E+00 0.  1.
         22    1    3    3    0    0 -0.52703897280E+02  0.21778534586E+02  0.30424427238E+03  0.30954253768E+03  0.00000000000E+00 0.  1.
</event>
<event>
 7    1  0.5993218E-006  0.8786821E+02  0.7818608E-02  0.1400535E+00
          2   -1    0    0  502    0  0.00000000000E+00  0.00000000000E+00  0.10515992235E+04  0.10515992235E+04  0.00000000000E+00 0. -1.
          1   -1    0    0  501    0 -0.00000000000E+00 -0.00000000000E+00 -0.10147327092E+04  0.10147327092E+04  0.00000000000E+00 0. -1.
         25    2    1    2    0    0 -0.11791380439E+03 -0.24504153685E+02  0.27389216701E+02  0.17572473972E+03  0.12499958458E+03 0.  0.
          2    1    1    2  501    0  0.87264764274E+02 -0.13567190805E+01 -0.93811537647E+03  0.94216635439E+03  0.00000000000E+00 0. -1.
          1    1    1    2  502    0  0.30649040120E+02  0.25860872766E+02  0.94759267403E+03  0.94844083857E+03  0.00000000000E+00 0. -1.
         22    1    3    3    0    0 -0.46716019016E+02 -0.49306834080E+02 -0.36314009153E+02  0.77021150215E+02  0.00000000000E+00 0. -1.
         22    1    3    3    0    0 -0.71197785377E+02  0.24802680395E+02  0.63703225854E+02  0.98703589507E+02  0.00000000000E+00 0. -1.
</event>
<event>
 7    1  0.5993218E-006  0.1651520E+03  0.7818608E-02  0.1192370E+00
          2   -1    0    0  502    0  0.00000000000E+00  0.00000000000E+00  0.35421254483E+04  0.35421254483E+04  0.00000000000E+00 0. -1.
          1   -1    0    0  501    0 -0.00000000000E+00 -0.00000000000E+00 -0.15097448797E+04  0.15097448797E+04  0.00000000000E+00 0. -1.
         25    2    1    2    0    0 -0.45158381584E+02 -0.13078806567E+03  0.38783200250E+03  0.43032700795E+03  0.12499149596E+03 0.  0.
          2    1    1    2  501    0  0.14851900068E+03 -0.99323007693E+01 -0.14823344990E+04  0.14897892841E+04  0.00000000000E+00 0. -1.
          1    1    1    2  502    0 -0.10336061910E+03  0.14072036644E+03  0.31268830651E+04  0.31317540360E+04  0.00000000000E+00 0. -1.
         22    1    3    3    0    0  0.35024947301E+02 -0.36503144262E+02  0.52613934583E+02  0.72989400509E+02  0.00000000000E+00 0. -1.
         22    1    3    3    0    0 -0.80183328885E+02 -0.94284921411E+02  0.33521806791E+03  0.35733760744E+03  0.00000000000E+00 0. -1.
</event>
<event>
 7    1  0.5993218E-006  0.7486729E+02  0.7818608E-02  0.1495723E+00
          2   -1    0    0  502    0  0.00000000000E+00  0.00000000000E+00  0.12683612344E+02  0.12683612344E+02  0.00000000000E+00 0. -1.
          1   -1    0    0  501    0 -0.00000000000E+00 -0.00000000000E+00 -0.15634403832E+04  0.15634403832E+04  0.00000000000E+00 0. -1.
         25    2    1    2    0    0 -0.58949412885E+02  0.69852889766E+02 -0.96477457774E+03  0.97711964841E+03  0.12497344508E+03 0.  0.
          2    1    1    2  501    0  0.49204597575E+02 -0.48709911161E+02 -0.55940156266E+03  0.56366998871E+03  0.00000000000E+00 0. -1.
          1    1    1    2  502    0  0.97448153099E+01 -0.21142978605E+02 -0.26580630473E+02  0.35334358436E+02  0.00000000000E+00 0. -1.
         22    1    3    3    0    0 -0.58725017193E+02 -0.16965934484E+02 -0.54798115695E+03  0.55137992251E+03  0.00000000000E+00 0. -1.
         22    1    3    3    0    0 -0.22439569119E+00  0.86818824250E+02 -0.41679342079E+03  0.42573972591E+03  0.00000000000E+00 0. -1.
</event>
<event>
 7    1  0.5993218E-006  0.1073182E+03  0.7818608E-02  0.1451213E+00
          2   -1    0    0  502    0  0.00000000000E+00  0.00000000000E+00  0.10973651751E+04  0.10973651751E+04  0.00000000000E+00 0. -1.
          1   -1    0    0  501    0 -0.00000000000E+00 -0.00000000000E+00 -0.24967742153E+03  0.24967742153E+03  0.00000000000E+00 0. -1.
         25    2    1    2    0    0  0.34483817306E+02 -0.11823348230E+03 -0.26259919154E+02  0.17743483730E+03  0.12500099256E+03 0.  0.
          2    1    1    2  501    0 -0.18454940877E+02  0.12529963941E+02 -0.14417333721E+03  0.14588877956E+03  0.00000000000E+00 0. -1.
          1    1    1    2  502    0 -0.16028876429E+02  0.10570351835E+03  0.10181210099E+04  0.10237189798E+04  0.00000000000E+00 0. -1.
         22    1    3    3    0    0  0.69060323963E+02 -0.63711923396E+02  0.22395582593E+02  0.96592440949E+02  0.00000000000E+00 0.  1.
         22    1    3    3    0    0 -0.34576506657E+02 -0.54521558900E+02 -0.48655501747E+02  0.80842396350E+02  0.00000000000E+00 0.  1.
</event>
<event>
 7    1  0.5993218E-006  0.5593126E+02  0.7818608E-02  0.1499633E+00
          2   -1    0    0  502    0  0.00000000000E+00  0.00000000000E+00  0.18241500801E+04  0.18241500801E+04  0.00000000000E+00 0. -1.
          1   -1    0    0  501    0 -0.00000000000E+00 -0.00000000000E+00 -0.23129239516E+03  0.23129239516E+03  0.00000000000E+00 0. -1.
         25    2    1    2    0    0 -0.61978262769E+02  0.32263948809E+02  0.92201812753E+02  0.17032065899E+03  0.12500274059E+03 0.  0.
          2    1    1    2  501    0  0.61952937564E+01 -0.29694434309E+02 -0.19057261554E+03  0.19297166343E+03  0.00000000000E+00 0. -1.
          1    1    1    2  502    0  0.55782969012E+02 -0.25695145005E+01  0.16912284877E+04  0.16921501528E+04  0.00000000000E+00 0. -1.
         22    1    3    3    0    0  0.33164870547E+02  0.33550138882E+02  0.39626361247E+02  0.61609812231E+02  0.00000000000E+00 0.  1.
         22    1    3    3    0    0 -0.95143133316E+02 -0.12861900728E+01  0.52575451506E+02  0.10871084676E+03  0.00000000000E+00 0.  1.
</event>
<event>
 7    1  0.5993218E-006  0.3480338E+02  0.7818608E-02  0.1639416E+00
          2   -1    0    0  502    0  0.00000000000E+00  0.00000000000E+00  0.98293624286E+01  0.98293624286E+01  0.00000000000E+00 0. -1.
          1   -1    0    0  501    0 -0.00000000000E+00 -0.00000000000E+00 -0.27258710726E+04  0.27258710726E+04  0.00000000000E+00 0. -1.
         25    2    1    2    0    0 -0.38935442674E+02  0.21776717647E+02 -0.12194907621E+04  0.12266919549E+04  0.12500095726E+03 0.  0.
          2    1    1    2  501    0  0.19178659719E+02  0.66087411998E+01 -0.14541518104E+04  0.14542932937E+04  0.00000000000E+00 0. -1.
          1    1    1    2  502    0  0.19756782956E+02 -0.28385458847E+02 -0.42399137706E+02  0.54715186419E+02  0.00000000000E+00 0. -1.
         22    1    3    3    0    0  0.38298151145E+01 -0.27554546859E+02 -0.90831988476E+03  0.90874580251E+03  0.00000000000E+00 0. -1.
         22    1    3    3    0    0 -0.42765257789E+02  0.49331264506E+02 -0.31117087730E+03  0.31794615237E+03  0.00000000000E+00 0. -1.
</event>
<event>
 7    1  0.5993218E-006  0.5655370E+02  0.7818608E-02  0.1431820E+00
          2   -1    0    0  502    0  0.00000000000E+00  0.00000000000E+00  0.30173645515E+03  0.30173645515E+03  0.00000000000E+00 0. -1.
          1   -1    0    0  501    0 -0.00000000000E+00 -0.00000000000E+00 -0.53391322242E+03  0.53391322242E+03  0.00000000000E+00 0. -1.
         25    2    1    2    0    0  0.91485223261E+02  0.36058973162E+02 -0.28980452189E+02  0.16166149930E+03  0.12499911250E+03 0.  0.
          2    1    1    2  501    0 -0.48909326887E+02 -0.79975819671E+00 -0.43395356471E+03  0.43670179550E+03  0.00000000000E+00 0. -1.
          1    1    1    2  502    0 -0.42575896374E+02 -0.35259214965E+02  0.23075724963E+03  0.23728638277E+03  0.00000000000E+00 0. -1.
         22    1    3    3    0    0  0.40871408695E+02 -0.49868162431E+00 -0.74102224047E+02  0.84627775232E+02  0.00000000000E+00 0.  1.
         22    1    3    3    0    0  0.50613814567E+02  0.36557654786E+02  0.45121771858E+02  0.77033724069E+02  0.00000000000E+00 0.  1.
</event>
<event>
 7    1  0.5993218E-006  0.1260750E+03  0.7818608E-02  0.1305688E+00
          2   -1    0    0  502    0  0.00000000000E+00  0.00000000000E+00  0.65639010917E+03  0.65639010917E+03  0.00000000000E+00 0. -1.
          1   -1    0    0  501    0 -0.00000000000E+00 -0.00000000000E+00 -0.86479994899E+02  0.86479994899E+02  0.00000000000E+00 0. -1.
         25    2    1    2    0    0  0.11868242434E+02  0.10490538618E+03  0.16398640167E+03  0.23165160937E+03  0.12499973185E+03 0.  0.
          2    1    1    2  501    0  0.62034769774E+02  0.83952491275E+01 -0.18889291648E+02  0.65388058602E+02  0.00000000000E+00 0. -1.
          1    1    1    2  502    0 -0.73903012208E+02 -0.11330063530E+03  0.42481300425E+03  0.44583043610E+03  0.00000000000E+00 0. -1.
         22    1    3    3    0    0 -0.18864619015E+02  0.12530160972E+03  0.12849249531E+03  0.18046242988E+03  0.00000000000E+00 0. -1.
         22    1    3    3    0    0  0.30732861449E+02 -0.20396223540E+02  0.35493906359E+02  0.51189179483E+02  0.00000000000E+00 0. -1.
</event>
<event>
 7    1  0.5993218E-006  0.1215927E+03  0.7818608E-02  0.1273416E+00
          2   -1    0    0  502    0  0.00000000000E+00  0.00000000000E+00  0.16955195171E+03  0.16955195171E+03  0.00000000000E+00 0. -1.
          1   -1    0    0  501    0 -0.00000000000E+00 -0.00000000000E+00 -0.55979932988E+03  0.55979932988E+03  0.00000000000E+00 0. -1.
         25    2    1    2    0    0  0.15635871276E+02 -0.10634480589E+03  0.12854654743E+02  0.16536033287E+03  0.12500039731E+03 0.  0.
          2    1    1    2  501    0 -0.98679715723E+02  0.77731197703E+02 -0.44804771794E+03  0.46532416974E+03  0.00000000000E+00 0. -1.
          1    1    1    2  502    0  0.83043844447E+02  0.28613608185E+02  0.44945685019E+02  0.98666778988E+02  0.00000000000E+00 0. -1.
         22    1    3    3    0    0 -0.50295086581E+02 -0.66072552592E+02 -0.12663836224E+02  0.83997325482E+02  0.00000000000E+00 0.  1.
         22    1    3    3    0    0  0.65930957857E+02 -0.40272253296E+02  0.25518490966E+02  0.81363007385E+02  0.00000000000E+00 0.  1.
</event>
<event>
 7    1  0.5993218E-006  0.2112346E+03  0.7818608E-02  0.1247283E+00
          2   -1    0    0  502    0  0.00000000000E+00  0.00000000000E+00  0.34614265097E+04  0.34614265097E+04  0.00000000000E+00 0. -1.
          1   -1    0    0  501    0 -0.00000000000E+00 -0.00000000000E+00 -0.79226244725E+03  0.79226244725E+03  0.00000000000E+00 0. -1.
         25    2    1    2    0    0  0.13834896733E+03  0.13164817894E+03  0.11099709801E+03  0.25380568146E+03  0.12500115358E+03 0.  0.
          2    1    1    2  501    0 -0.10352405468E+03 -0.18695485251E+03 -0.70468516970E+03  0.73637662590E+03  0.00000000000E+00 0. -1.
          1    1    1    2  502    0 -0.34824912653E+02  0.55306673562E+02  0.32628521342E+04  0.32635066496E+04  0.00000000000E+00 0. -1.
         22    1    3    3    0    0  0.88985854606E+01  0.65184293326E+02  0.82510122914E+02  0.10552770870E+03  0.00000000000E+00 0. -1.
         22    1    3    3    0    0  0.12945038187E+03  0.66463885618E+02  0.28486975098E+02  0.14827797277E+03  0.00000000000E+00 0. -1.
</event>
<event>
 7    1  0.5993218E-006  0.1132958E+03  0.7818608E-02  0.1262096E+00
          2   -1    0    0  502    0  0.00000000000E+00  0.00000000000E+00  0.15413479014E+04  0.15413479014E+04  0.00000000000E+00 0. -1.
          1   -1    0    0  501    0 -0.00000000000E+00 -0.00000000000E+00 -0.16229242163E+04  0.16229242163E+04  0.00000000000E+00 0. -1.
         25    2    1    2    0    0 -0.81225683557E+02  0.18221402286E+03  0.39578155087E+03  0.46050698359E+03  0.12499633644E+03 0.  0.
          2    1    1    2  501    0  0.73532591750E+02 -0.75251867808E+02 -0.15862320269E+04  0.15897175626E+04  0.00000000000E+00 0. -1.
          1    1    1    2  502    0  0.76930918071E+01 -0.10696215505E+03  0.11088741611E+04  0.11140475715E+04  0.00000000000E+00 0. -1.
         22    1    3    3    0    0  0.13072187523E+02  0.97870207306E+02  0.24202332878E+03  0.26139003660E+03  0.00000000000E+00 0.  1.
         22    1    3    3    0    0 -0.94297871080E+02  0.84343815554E+02  0.15375822210E+03  0.19911694698E+03  0.00000000000E+00 0.  1.
</event>
<event>
 7    1  0.5993218E-006  0.1583146E+03  0.7818608E-02  0.1208943E+00
          2   -1    0    0  502    0  0.00000000000E+00  0.00000000000E+00  0.11765878489E+04  0.11765878489E+04  0.00000000000E+00 0. -1.
          1   -1    0    0  501    0 -0.00000000000E+00 -0.00000000000E+00 -0.27183254652E+03  0.27183254652E+03  0.00000000000E+00 0. -1.
         25    2    1    2    0    0 -0.21245055910E+03  0.63656657743E+02  0.70447633864E+03  0.74906569906E+03  0.12500039869E+03 0.  0.
          2    1    1    2  501    0  0.80656747014E+02 -0.10160607101E+03 -0.22102815905E+03  0.25628646393E+03  0.00000000000E+00 0. -1.
          1    1    1    2  502    0  0.13179381209E+03  0.37949413263E+02  0.42130712275E+03  0.44306823239E+03  0.00000000000E+00 0. -1.
         22    1    3    3    0    0 -0.43301227747E+02  0.34183092111E+01  0.33998030543E+03  0.34274376616E+03  0.00000000000E+00 0.  1.
         22    1    3    3    0    0 -0.16914933135E+03  0.60238348532E+02  0.36449603321E+03  0.40632193290E+03  0.00000000000E+00 0.  1.
</event>
<event>
 7    1  0.5993218E-006  0.1085008E+03  0.7818608E-02  0.1403120E+00
          2   -1    0    0  502    0  0.00000000000E+00  0.00000000000E+00  0.16000224361E+04  0.16000224361E+04  0.00000000000E+00 0. -1.
          1   -1    0    0  501    0 -0.00000000000E+00 -0.00000000000E+00 -0.43067360900E+03  0.43067360900E+03  0.00000000000E+00 0. -1.
         25    2    1    2    0    0  0.11063183702E+03 -0.82853235228E+02  0.11937192891E+03  0.22131131156E+03  0.12499990904E+03 0.  0.
          2    1    1    2  501    0 -0.28938243619E+02  0.13231624574E+02 -0.37701816630E+03  0.37835855422E+03  0.00000000000E+00 0. -1.
          1    1    1    2  502    0 -0.81693593404E+02  0.69621610654E+02  0.14269950645E+04  0.14310261794E+04  0.00000000000E+00 0. -1.
         22    1    3    3    0    0  0.20580344168E+02  0.17578389481E+02  0.74320178725E+02  0.79095128223E+02  0.00000000000E+00 0. -1.
         22    1    3    3    0    0  0.90051492855E+02 -0.10043162471E+03  0.45051750185E+02  0.14221618333E+03  0.00000000000E+00 0. -1.
</event>
<event>
 7    1  0.5993218E-006  0.8197583E+02  0.7818608E-02  0.1356276E+00
          2   -1    0    0  502    0  0.00000000000E+00  0.00000000000E+00  0.38691156595E+03  0.38691156595E+03  0.00000000000E+00 0. -1.
          1   -1    0    0  501    0 -0.00000000000E+00 -0.00000000000E+00 -0.56962586454E+03  0.56962586454E+03  0.00000000000E+00 0. -1.
         25    2    1    2    0    0  0.12172881936E+03  0.43859949082E+02  0.59339688483E+02  0.18944065636E+03  0.12499985223E+03 0.  0.
          2    1    1    2  501    0 -0.61427397096E+02  0.60773501669E+01 -0.49678486438E+03  0.50060509464E+03  0.00000000000E+00 0. -1.
          1    1    1    2  502    0 -0.60301422262E+02 -0.49937299248E+02  0.25473087730E+03  0.26649167948E+03  0.00000000000E+00 0. -1.
         22    1    3    3    0    0  0.12052441488E+03  0.24870424098E+02 -0.41775780166E+01  0.12313457977E+03  0.00000000000E+00 0. -1.
         22    1    3    3    0    0  0.12044044752E+01  0.18989524983E+02  0.63517266500E+02  0.66306076591E+02  0.00000000000E+00 0. -1.
</event>
<event>
 7    1  0.5993218E-006  0.1057057E+03  0.7818608E-02  0.1343949E+00
          2   -1    0    0  502    0  0.00000000000E+00  0.00000000000E+00  0.26129808346E+04  0.26129808346E+04  0.00000000000E+00 0. -1.
          1   -1    0    0  501    0 -0.00000000000E+00 -0.00000000000E+00 -0.52162798817E+02  0.52162798817E+02  0.00000000000E+00 0. -1.
         25    2    1    2    0    0 -0.21214928097E+02  0.62062803803E+02  0.37661812584E+03  0.40220319112E+03  0.12499731775E+03 0.  0.
          2    1    1    2  501    0 -0.47102965073E+02  0.24682278522E+02 -0.19377375394E+02  0.56598470553E+02  0.00000000000E+00 0. -1.
          1    1    1    2  502    0  0.68317893171E+02 -0.86745082325E+02  0.22035772854E+04  0.22063419718E+04  0.00000000000E+00 0. -1.
         22    1    3    3    0    0 -0.64500730109E+02  0.57991210120E+02  0.31545349433E+03  0.32716086520E+03  0.00000000000E+00 0.  1.
         22    1    3    3    0    0  0.43285802011E+02  0.40715936830E+01  0.61164631508E+02  0.75042325913E+02  0.00000000000E+00 0.  1.
</event>
<event>
 7    1  0.5993218E-006  0.1048869E+03  0.7818608E-02  0.1380916E+00
          2   -1    0    0  502    0  0.00000000000E+00  0.00000000000E+00  0.15792334947E+03  0.15792334947E+03  0.00000000000E+00 0. -1.
          1   -1    0    0  501    0 -0.00000000000E+00 -0.00000000000E+00 -0.83204769854E+03  0.83204769854E+03  0.00000000000E+00 0. -1.
         25    2    1    2    0    0  0.43417377296E+02 -0.11304738607E+03 -0.12540667615E+03  0.21451511863E+03  0.12500048620E+03 0.  0.
          2    1    1    2  501    0  0.21697436382E+02  0.32797472454E+02 -0.63780337380E+03  0.63901455114E+03  0.00000000000E+00 0. -1.
          1    1    1    2  502    0 -0.65114813678E+02  0.80249913612E+02  0.89085700881E+02  0.13644137824E+03  0.00000000000E+00 0. -1.
         22    1    3    3    0    0  0.56511772419E+02 -0.22789341900E+02 -0.18737621251E+01  0.60962656690E+02  0.00000000000E+00 0. -1.
         22    1    3    3    0    0 -0.13094395124E+02 -0.90258044166E+02 -0.12353291403E+03  0.15355246194E+03  0.00000000000E+00 0. -1.
</event>
<event>
 7    1  0.5993218E-006  0.1186981E+03  0.7818608E-02  0.1254085E+00
          2   -1    0    0  502    0  0.00000000000E+00  0.00000000000E+00  0.48410712897E+03  0.48410712897E+03  0.00000000000E+00 0. -1.
          1   -1    0    0  501    0 -0.00000000000E+00 -0.00000000000E+00 -0.70871848866E+03  0.70871848866E+03  0.00000000000E+00 0. -1.
         25    2    1    2    0    0 -0.12814128132E+03  0.67888861751E+02  0.20582666061E+03  0.28110335770E+03  0.12500159185E+03 0.  0.
          2    1    1    2  501    0  0.96922696134E+02  0.49161805974E+02 -0.65103894168E+03  0.66004741934E+03  0.00000000000E+00 0. -1.
          1    1    1    2  502    0  0.31218585191E+02 -0.11705066773E+03  0.22060092138E+03  0.25167484060E+03  0.00000000000E+00 0. -1.
         22    1    3    3    0    0 -0.91834425214E+02 -0.68207569137E+01  0.16404037541E+03  0.18812051761E+03  0.00000000000E+00 0.  1.
         22    1    3    3    0    0 -0.36306856111E+02  0.74709618665E+02  0.41786285195E+02  0.92982840095E+02  0.00000000000E+00 0.  1.
</event>
<event>
 7    1  0.5993218E-006  0.5641612E+02  0.7818608E-02  0.1453296E+00
          2   -1    0    0  502    0  0.00000000000E+00  0.00000000000E+00  0.61170383434E+03  0.61170383434E+03  0.00000000000E+00 0. -1.
          1   -1    0    0  501    0 -0.00000000000E+00 -0.00000000000E+00 -0.55660408684E+03  0.55660408684E+03  0.00000000000E+00 0. -1.
         25    2    1    2    0    0 -0.51285420832E+02  0.62383306494E+02  0.15810880393E+03  0.21712941614E+03  0.12499967261E+03 0.  0.
          2    1    1    2  501    0 -0.23386785444E+00 -0.41788252289E+02 -0.52444434800E+03  0.52610663071E+03  0.00000000000E+00 0. -1.
          1    1    1    2  502    0  0.51519288686E+02 -0.20595054205E+02  0.42143529157E+03  0.42507187433E+03  0.00000000000E+00 0. -1.
         22    1    3    3    0    0 -0.11004962631E+02  0.51891596723E+02  0.16643199718E+03  0.17468101413E+03  0.00000000000E+00 0. -1.
         22    1    3    3    0    0 -0.40280458201E+02  0.10491709771E+02 -0.83231932503E+01  0.42448402004E+02  0.00000000000E+00 0. -1.
</event>
<event>
 7    1  0.5993218E-006  0.8879585E+02  0.7818608E-02  0.1448386E+00
          2   -1    0    0  502    0  0.00000000000E+00  0.00000000000E+00  0.80047796675E+03  0.80047796675E+03  0.00000000000E+00 0. -1.
          1   -1    0    0  501    0 -0.00000000000E+00 -0.00000000000E+00 -0.13469004868E+04  0.13469004868E+04  0.00000000000E+00 0. -1.
         25    2    1    2    0    0 -0.87959836129E+02  0.20369725871E+02  0.40982554141E+03  0.43787349589E+03  0.12499746200E+03 0.  0.
          2    1    1    2  501    0  0.11056162617E+02  0.25209389141E+02 -0.13274270857E+04  0.13277124764E+04  0.00000000000E+00 0. -1.
          1    1    1    2  502    0  0.76903673512E+02 -0.45579115012E+02  0.37117902425E+03  0.38179248128E+03  0.00000000000E+00 0. -1.
         22    1    3    3    0    0 -0.50755665472E+02  0.24784437259E+02  0.48031118659E+02  0.74144414944E+02  0.00000000000E+00 0. -1.
         22    1    3    3    0    0 -0.37204170658E+02 -0.44147113877E+01  0.36179442275E+03  0.36372908095E+03  0.00000000000E+00 0. -1.
</event>
<event>
 7    1  0.5993218E-006  0.5921865E+02  0.7818608E-02  0.1517101E+00
          2   -1    0    0  502    0  0.00000000000E+00  0.00000000000E+00  0.52716992084E+03  0.52716992084E+03  0.00000000000E+00 0. -1.
          1   -1    0    0  501    0 -0.00000000000E+00 -0.00000000000E+00 -0.17374677294E+03  0.17374677294E+03  0.00000000000E+00 0. -1.
         25    2    1    2    0    0 -0.33433527483E+02  0.89843939729E+01 -0.91294744815E+02  0.15861267065E+03  0.12499891505E+03 0.  0.
          2    1    1    2  501    0 -0.22079723747E+02  0.12644886965E+02 -0.43537363426E+02  0.50427268231E+02  0.00000000000E+00 0. -1.
          1    1    1    2  502    0  0.55513251230E+02 -0.21629280938E+02  0.48825525614E+03  0.49187675489E+03  0.00000000000E+00 0. -1.
         22    1    3    3    0    0 -0.53540980380E+02  0.39637686287E+02 -0.73608779502E+01  0.67022125291E+02  0.00000000000E+00 0.  1.
         22    1    3    3    0    0  0.20107452898E+02 -0.30653292314E+02 -0.83933866864E+02  0.91590545356E+02  0.00000000000E+00 0.  1.
</event>
<event>
 7    1  0.5993218E-006  0.4351790E+02  0.7818608E-02  0.1579983E+00
          2   -1    0    0  502    0  0.00000000000E+00  0.00000000000E+00  0.91611727521E+03  0.91611727521E+03  0.00000000000E+00 0. -1.
          1   -1    0    0  501    0 -0.00000000000E+00 -0.00000000000E+00 -0.98620838879E+02  0.98620838879E+02  0.00000000000E+00 0. -1.
         25    2    1    2    0    0 -0.23560134654E+02 -0.46918571508E+02  0.29931440343E+03  0.32859029042E+03  0.12500413819E+03 0.  0.
          2    1    1    2  501    0  0.72617389326E+00  0.43441966720E+02 -0.78124927439E+02  0.89393713919E+02  0.00000000000E+00 0. -1.
          1    1    1    2  502    0  0.22833960761E+02  0.34766047884E+01  0.59630696034E+03  0.59675410974E+03  0.00000000000E+00 0. -1.
         22    1    3    3    0    0  0.39310036461E+02 -0.30142333096E+02  0.22236942291E+03  0.22782010327E+03  0.00000000000E+00 0.  1.
         22    1    3    3    0    0 -0.62870171115E+02 -0.16776238412E+02  0.76944980521E+02  0.10077018715E+03  0.00000000000E+00 0.  1.
</event>
<event>
 7    1  0.5993218E-006  0.7430398E+02  0.7818608E-02  0.1362344E+00
          2   -1    0    0  502    0  0.00000000000E+00  0.00000000000E+00  0.19749435058E+03  0.19749435058E+03  0.00000000000E+00 0. -1.
          1   -1    0    0  501    0 -0.00000000000E+00 -0.00000000000E+00 -0.23017535837E+03  0.23017535837E+03  0.00000000000E+00 0. -1.
         25    2    1    2    0    0 -0.70894690533E+01  0.43689367260E+02  0.82041547720E+02  0.15595251524E+03  0.12502539772E+03 0.  0.
          2    1    1    2  501    0 -0.74303559783E+02 -0.25076246314E+00 -0.15435296085E+03  0.17130650426E+03  0.00000000000E+00 0. -1.
          1    1    1    2  502    0  0.81393028836E+02 -0.43438604796E+02  0.39630405341E+02  0.10041068946E+03  0.00000000000E+00 0. -1.
         22    1    3    3    0    0  0.17423591925E+02  0.74644679026E+02  0.14937427662E+02  0.78093126507E+02  0.00000000000E+00 0.  1.
         22    1    3    3    0    0 -0.24513060979E+02 -0.30955311766E+02  0.67104120058E+02  0.77859388733E+02  0.00000000000E+00 0.  1.
</event>
<event>
 7    1  0.5993218E-006  0.7900414E+02  0.7818608E-02  0.1484153E+00
          2   -1    0    0  502    0  0.00000000000E+00  0.00000000000E+00  0.68800281724E+03  0.68800281724E+03  0.00000000000E+00 0. -1.
          1   -1    0    0  501    0 -0.00000000000E+00 -0.00000000000E+00 -0.12147131507E+03  0.12147131507E+03  0.00000000000E+00 0. -1.
         25    2    1    2    0    0  0.62586383936E+02 -0.68883849058E+02  0.30448395600E+03  0.34204884088E+03  0.12499955990E+03 0.  0.
          2    1    1    2  501    0 -0.92856566018E+00  0.23895578748E+02 -0.97231129251E+02  0.10012868427E+03  0.00000000000E+00 0. -1.
          1    1    1    2  502    0 -0.61657818276E+02  0.44988270309E+02  0.35927867542E+03  0.36729660716E+03  0.00000000000E+00 0. -1.
         22    1    3    3    0    0  0.76453781907E+02  0.44692244332E+00  0.21380020792E+03  0.22705926410E+03  0.00000000000E+00 0. -1.
         22    1    3    3    0    0 -0.13867397971E+02 -0.69330771501E+02  0.90683748077E+02  0.11498957678E+03  0.00000000000E+00 0. -1.
</event>
<event>
 7    1  0.5993218E-006  0.2022683E+03  0.7818608E-02  0.1281211E+00
          2   -1    0    0  502    0  0.00000000000E+00  0.00000000000E+00  0.48297300032E+02  0.48297300032E+02  0.00000000000E+00 0. -1.
          1   -1    0    0  501    0 -0.00000000000E+00 -0.00000000000E+00 -0.29637304139E+04  0.29637304139E+04  0.00000000000E+00 0. -1.
         25    2    1    2    0    0  0.14455035423E+03 -0.78076232485E+02 -0.33457078150E+03  0.39313310912E+03  0.12500132265E+03 0.  0.
          2    1    1    2  501    0 -0.19351697156E+03  0.75985546965E+02 -0.25550638507E+04  0.25635081242E+04  0.00000000000E+00 0. -1.
          1    1    1    2  502    0  0.48966617336E+02  0.20906855196E+01 -0.25798481654E+02  0.55386480615E+02  0.00000000000E+00 0. -1.
         22    1    3    3    0    0 -0.98089727008E+01  0.14400918425E+02 -0.58411582242E+01  0.18377201265E+02  0.00000000000E+00 0. -1.
         22    1    3    3    0    0  0.15435932693E+03 -0.92477150910E+02 -0.32872962328E+03  0.37475590785E+03  0.00000000000E+00 0. -1.
</event>
<event>
 7    1  0.5993218E-006  0.7845961E+02  0.7818608E-02  0.1363922E+00
          2   -1    0    0  502    0  0.00000000000E+00  0.00000000000E+00  0.21456985499E+04  0.21456985499E+04  0.00000000000E+00 0. -1.
          1   -1    0    0  501    0 -0.00000000000E+00 -0.00000000000E+00 -0.51597601791E+03  0.51597601791E+03  0.00000000000E+00 0. -1.
         25    2    1    2    0    0  0.68467682289E+02 -0.14195958243E+02  0.16690045043E+03  0.21993342262E+03  0.12500240512E+03 0.  0.
          2    1    1    2  501    0 -0.27555088585E+02 -0.53839382343E+02 -0.48678021314E+03  0.49052312677E+03  0.00000000000E+00 0. -1.
          1    1    1    2  502    0 -0.40912593705E+02  0.68035340586E+02  0.19496022947E+04  0.19512180184E+04  0.00000000000E+00 0. -1.
         22    1    3    3    0    0  0.14037626106E+02 -0.27618330833E+02  0.16055278255E+03  0.16351459607E+03  0.00000000000E+00 0. -1.
         22    1    3    3    0    0  0.54430056183E+02  0.13422372590E+02  0.63476678794E+01  0.56418826552E+02  0.00000000000E+00 0. -1.
</event>
<event>
 7    1  0.5993218E-006  0.1401518E+03  0.7818608E-02  0.1331993E+00
          2   -1    0    0  502    0  0.00000000000E+00  0.00000000000E+00  0.25419756118E+03  0.25419756118E+03  0.00000000000E+00 0. -1.
          1   -1    0    0  501    0 -0.00000000000E+00 -0.00000000000E+00 -0.20336968658E+04  0.20336968658E+04  0.00000000000E+00 0. -1.
         25    2    1    2    0    0 -0.15980508197E+03  0.46772641704E+02  0.12466968628E+03  0.24267733845E+03  0.12499766273E+03 0.  0.
          2    1    1    2  501    0  0.13967590702E+03 -0.70864167552E+01 -0.19649316585E+04  0.19699025354E+04  0.00000000000E+00 0. -1.
          1    1    1    2  502    0  0.20129174947E+02 -0.39686224949E+02  0.60762667626E+02  0.75314553120E+02  0.00000000000E+00 0. -1.
         22    1    3    3    0    0 -0.12350981671E+02 -0.36507606972E+02  0.28456954440E+02  0.47907727676E+02  0.00000000000E+00 0. -1.
         22    1    3    3    0    0 -0.14745410030E+03  0.83280248677E+02  0.96212731838E+02  0.19476961078E+03  0.00000000000E+00 0. -1.
</event>
<event>
 7    1  0.5993218E-006  0.1462710E+03  0.7818608E-02  0.1250525E+00
          2   -1    0    0  502    0  0.00000000000E+00  0.00000000000E+00  0.15562681939E+04  0.15562681939E+04  0.00000000000E+00 0. -1.
          1   -1    0    0  501    0 -0.00000000000E+00 -0.00000000000E+00 -0.17224770671E+03  0.17224770671E+03  0.00000000000E+00 0. -1.
         25    2    1    2    0    0 -0.67973247103E+02 -0.58339526694E+02  0.13688159687E+03  0.20587755727E+03  0.12500053732E+03 0.  0.
          2    1    1    2  501    0  0.68967911618E+02  0.14970561956E+03 -0.86312818229E+02  0.18605979671E+03  0.00000000000E+00 0. -1.
          1    1    1    2  502    0 -0.99466451527E+00 -0.91366092863E+02  0.13334517086E+04  0.13365785467E+04  0.00000000000E+00 0. -1.
         22    1    3    3    0    0 -0.80431239337E+02 -0.27010694744E+02  0.14781439197E+03  0.17043431687E+03  0.00000000000E+00 0. -1.
         22    1    3    3    0    0  0.12457992234E+02 -0.31328831950E+02 -0.10932795103E+02  0.35443240408E+02  0.00000000000E+00 0. -1.
</event>
<event>
 7    1  0.5993218E-006  0.7843225E+02  0.7818608E-02  0.1399780E+00
          2   -1    0    0  502    0  0.00000000000E+00  0.00000000000E+00  0.79172627453E+03  0.79172627453E+03  0.00000000000E+00 0. -1.
          1   -1    0    0  501    0 -0.00000000000E+00 -0.00000000000E+00 -0.38949616085E+03  0.38949616085E+03  0.00000000000E+00 0. -1.
         25    2    1    2    0    0 -0.25570168463E+02  0.53630245850E+02  0.43544189997E+03  0.45690649674E+03  0.12499544685E+03 0.  0.
          2    1    1    2  501    0 -0.44949172942E+02  0.47137842381E+01 -0.37130889455E+03  0.37404938589E+03  0.00000000000E+00 0. -1.
          1    1    1    2  502    0  0.70519341405E+02 -0.58344030088E+02  0.33809710826E+03  0.35026655275E+03  0.00000000000E+00 0. -1.
         22    1    3    3    0    0 -0.15617357206E+02  0.75584824722E+02  0.42260728699E+03  0.42959735403E+03  0.00000000000E+00 0. -1.
         22    1    3    3    0    0 -0.99528112569E+01 -0.21954578872E+02  0.12834612980E+02  0.27309142713E+02  0.00000000000E+00 0. -1.
</event>
<event>
 7    1  0.5993218E-006  0.1392004E+03  0.7818608E-02  0.1344288E+00
          2   -1    0    0  502    0  0.00000000000E+00  0.00000000000E+00  0.33687019977E+03  0.33687019977E+03  0.00000000000E+00 0. -1.
          1   -1    0    0  501    0 -0.00000000000E+00 -0.00000000000E+00 -0.31676516928E+04  0.31676516928E+04  0.00000000000E+00 0. -1.
         25    2    1    2    0    0  0.11590277580E+03  0.78914465139E+02 -0.35306824890E+02  0.19115357036E+03  0.12502867404E+03 0.  0.
          2    1    1    2  501    0 -0.13270988562E+03 -0.42325302657E+02 -0.30512576458E+04  0.30544355560E+04  0.00000000000E+00 0. -1.
          1    1    1    2  502    0  0.16807109820E+02 -0.36589162483E+02  0.25578297764E+03  0.25893276619E+03  0.00000000000E+00 0. -1.
         22    1    3    3    0    0 -0.14140318049E+02  0.15093606537E+02  0.26537055745E+02  0.33644923546E+02  0.00000000000E+00 0. -1.
         22    1    3    3    0    0  0.13004309384E+03  0.63820858602E+02 -0.61843880635E+02  0.15750864681E+03  0.00000000000E+00 0. -1.
</event>
<event>
 7    1  0.5993218E-006  0.5715085E+02  0.7818608E-02  0.1424796E+00
          2   -1    0    0  502    0  0.00000000000E+00  0.00000000000E+00  0.36846933494E+03  0.36846933494E+03  0.00000000000E+00 0. -1.
          1   -1    0    0  501    0 -0.00000000000E+00 -0.00000000000E+00 -0.11215046432E+03  0.11215046432E+03  0.00000000000E+00 0. -1.
         25    2    1    2    0    0  0.15375384892E+02 -0.16990036279E+02  0.59919067153E+02  0.14050009732E+03  0.12499967578E+03 0.  0.
          2    1    1    2  501    0  0.73492193071E+01  0.62713041783E+02 -0.54908349278E+02  0.83677138184E+02  0.00000000000E+00 0. -1.
          1    1    1    2  502    0 -0.22724604199E+02 -0.45723005504E+02  0.25130815275E+03  0.25644256376E+03  0.00000000000E+00 0. -1.
         22    1    3    3    0    0 -0.47009869280E+01 -0.56668601028E+02 -0.99036947909E+01  0.57719258407E+02  0.00000000000E+00 0.  1.
         22    1    3    3    0    0  0.20076371820E+02  0.39678564749E+02  0.69822761944E+02  0.82780838915E+02  0.00000000000E+00 0.  1.
</event>
<event>
 7    1  0.5993218E-006  0.1013414E+03  0.7818608E-02  0.1396251E+00
          2   -1    0    0  502    0  0.00000000000E+00  0.00000000000E+00  0.56188272809E+03  0.56188272809E+03  0.00000000000E+00 0. -1.
          1   -1    0    0  501    0 -0.00000000000E+00 -0.00000000000E+00 -0.15958359997E+04  0.15958359997E+04  0.00000000000E+00 0. -1.
         25    2    1    2    0    0 -0.26234469888E+01  0.73989274997E+02 -0.19380081969E+03  0.24221119688E+03  0.12500484347E+03 0.  0.
          2    1    1    2  501    0  0.27487079001E+02 -0.99986355813E+02 -0.13752742186E+04  0.13791780114E+04  0.00000000000E+00 0. -1.
          1    1    1    2  502    0 -0.24863632012E+02  0.25997080817E+02  0.53512176663E+03  0.53632951954E+03  0.00000000000E+00 0. -1.
         22    1    3    3    0    0  0.43560206549E+02  0.40741695832E+01 -0.12920446898E+03  0.13641072266E+03  0.00000000000E+00 0. -1.
         22    1    3    3    0    0 -0.46183653538E+02  0.69915105413E+02 -0.64596350717E+02  0.10580047422E+03  0.00000000000E+00 0. -1.
</event>
<event>
 7    1  0.5993218E-006  0.9266669E+02  0.7818608E-02  0.1343232E+00
          2   -1    0    0  502    0  0.00000000000E+00  0.00000000000E+00  0.14695619892E+04  0.14695619892E+04  0.00000000000E+00 0. -1.
          1   -1    0    0  501    0 -0.00000000000E+00 -0.00000000000E+00 -0.46452445046E+03  0.46452445046E+03  0.00000000000E+00 0. -1.
         25    2    1    2    0    0 -0.62506463861E+02 -0.12585093708E+03 -0.86938616972E+02  0.20719857828E+03  0.12500964495E+03 0.  0.
          2    1    1    2  501    0 -0.30630266789E+01  0.60959374935E+02 -0.31299530521E+03  0.31889102937E+03  0.00000000000E+00 0. -1.
          1    1    1    2  502    0  0.65569490540E+02  0.64891562149E+02  0.14049714609E+04  0.14079968320E+04  0.00000000000E+00 0. -1.
         22    1    3    3    0    0 -0.38972903387E+02  0.11200472787E+02  0.44578875648E+01  0.40794736801E+02  0.00000000000E+00 0. -1.
         22    1    3    3    0    0 -0.23533560474E+02 -0.13705140987E+03 -0.91396504537E+02  0.16640384148E+03  0.00000000000E+00 0. -1.
</event>
<event>
 7    1  0.5993218E-006  0.1049098E+03  0.7818608E-02  0.1454808E+00
          2   -1    0    0  502    0  0.00000000000E+00  0.00000000000E+00  0.75246815778E+03  0.75246815778E+03  0.00000000000E+00 0. -1.
          1   -1    0    0  501    0 -0.00000000000E+00 -0.00000000000E+00 -0.15600501391E+04  0.15600501391E+04  0.00000000000E+00 0. -1.
         25    2    1    2    0    0  0.77130807178E+02 -0.96291230551E+02  0.76887480293E+02  0.19172180202E+03  0.12499760896E+03 0.  0.
          2    1    1    2  501    0 -0.56455785920E+02  0.88137463200E+02 -0.15006096712E+04  0.15042555811E+04  0.00000000000E+00 0. -1.
          1    1    1    2  502    0 -0.20675021257E+02  0.81537673509E+01  0.61614020957E+03  0.61654091371E+03  0.00000000000E+00 0. -1.
         22    1    3    3    0    0  0.75914214844E+02 -0.61008386132E+02 -0.10032020946E+02  0.97906244122E+02  0.00000000000E+00 0. -1.
         22    1    3    3    0    0  0.12165923336E+01 -0.35282844418E+02  0.86919501239E+02  0.93815557893E+02  0.00000000000E+00 0. -1.
</event>
<event>
 7    1  0.5993218E-006  0.1226301E+03  0.7818608E-02  0.1324959E+00
          2   -1    0    0  502    0  0.00000000000E+00  0.00000000000E+00  0.57777067218E+03  0.57777067218E+03  0.00000000000E+00 0. -1.
          1   -1    0    0  501    0 -0.00000000000E+00 -0.00000000000E+00 -0.10834958162E+04  0.10834958162E+04  0.00000000000E+00 0. -1.
         25    2    1    2    0    0  0.52452783803E+02 -0.57580353692E+02 -0.89533890197E+03  0.90737147310E+03  0.12499779659E+03 0.  0.
          2    1    1    2  501    0  0.53956680260E+02 -0.40878462420E+01 -0.17130668488E+03  0.17964969835E+03  0.00000000000E+00 0. -1.
          1    1    1    2  502    0 -0.10640946406E+03  0.61668199934E+02  0.56092044279E+03  0.57424531698E+03  0.00000000000E+00 0. -1.
         22    1    3    3    0    0  0.64228925776E+02 -0.15963306383E+02 -0.19953523443E+03  0.21022486018E+03  0.00000000000E+00 0.  1.
         22    1    3    3    0    0 -0.11776141973E+02 -0.41617047309E+02 -0.69580366754E+03  0.69714661292E+03  0.00000000000E+00 0.  1.
</event>
<event>
 7    1  0.5993218E-006  0.8575558E+02  0.7818608E-02  0.1343038E+00
          2   -1    0    0  502    0  0.00000000000E+00  0.00000000000E+00  0.98718640134E+03  0.98718640134E+03  0.00000000000E+00 0. -1.
          1   -1    0    0  501    0 -0.00000000000E+00 -0.00000000000E+00 -0.88396767418E+02  0.88396767418E+02  0.00000000000E+00 0. -1.
         25    2    1    2    0    0  0.60216045390E+01 -0.10196783070E+03  0.23482475578E+03  0.28495855863E+03  0.12500006396E+03 0.  0.
          2    1    1    2  501    0  0.51418880007E+02  0.69329410386E+02 -0.31607970820E+02  0.91921336942E+02  0.00000000000E+00 0. -1.
          1    1    1    2  502    0 -0.57440484546E+02  0.32638420316E+02  0.69557284897E+03  0.69870327319E+03  0.00000000000E+00 0. -1.
         22    1    3    3    0    0  0.29251622348E+02 -0.13059230839E+02  0.16878138643E+03  0.17179452065E+03  0.00000000000E+00 0. -1.
         22    1    3    3    0    0 -0.23230017809E+02 -0.88908599864E+02  0.66043369348E+02  0.11316403798E+03  0.00000000000E+00 0. -1.
</event>
<event>
 7    1  0.5993218E-006  0.3833692E+02  0.7818608E-02  0.1550846E+00
          2   -1    0    0  502    0  0.00000000000E+00  0.00000000000E+00  0.10176753578E+04  0.10176753578E+04  0.00000000000E+00 0. -1.
          1   -1    0    0  501    0 -0.00000000000E+00 -0.00000000000E+00 -0.68996860836E+03  0.68996860836E+03  0.00000000000E+00 0. -1.
         25    2    1    2    0    0 -0.20735004205E+02  0.47152229605E+02  0.25119045029E+03  0.28525838466E+03  0.12498972178E+03 0.  0.
          2    1    1    2  501    0 -0.91546223838E+01 -0.37222551266E+02 -0.67205736126E+03  0.67314962843E+03  0.00000000000E+00 0. -1.
          1    1    1    2  502    0  0.29889626589E+02 -0.99296783397E+01  0.74857366041E+03  0.74923595305E+03  0.00000000000E+00 0. -1.
         22    1    3    3    0    0  0.95070818133E+01  0.35226072406E+02  0.25008319076E+03  0.25273081150E+03  0.00000000000E+00 0.  1.
         22    1    3    3    0    0 -0.30242086018E+02  0.11926157199E+02  0.11072595281E+01  0.32527573164E+02  0.00000000000E+00 0.  1.
</event>
<event>
 7    1  0.5993218E-006  0.1029463E+03  0.7818608E-02  0.1307875E+00
          2   -1    0    0  502    0  0.00000000000E+00  0.00000000000E+00  0.14753680820E+04  0.14753680820E+04  0.00000000000E+00 0. -1.
          1   -1    0    0  501    0 -0.00000000000E+00 -0.00000000000E+00 -0.58874989744E+03  0.58874989744E+03  0.00000000000E+00 0. -1.
         25    2    1    2    0    0  0.14134217278E+03 -0.44270311279E+02 -0.13261838865E+03  0.23483940038E+03  0.12499774677E+03 0.  0.
          2    1    1    2  501    0 -0.70627546387E+02  0.69709189691E+02 -0.39793196127E+03  0.41011884526E+03  0.00000000000E+00 0. -1.
          1    1    1    2  502    0 -0.70714626392E+02 -0.25438878412E+02  0.14171685345E+04  0.14191597338E+04  0.00000000000E+00 0. -1.
         22    1    3    3    0    0 -0.59628722544E+01 -0.13606023802E+02  0.17050032664E+02  0.22613786571E+02  0.00000000000E+00 0.  1.
         22    1    3    3    0    0  0.14730504503E+03 -0.30664287478E+02 -0.14966842132E+03  0.21222561381E+03  0.00000000000E+00 0.  1.
</event>
<event>
 7    1  0.5993218E-006  0.7101267E+02  0.7818608E-02  0.1422187E+00
          2   -1    0    0  502    0  0.00000000000E+00  0.00000000000E+00  0.65279777223E+03  0.65279777223E+03  0.00000000000E+00 0. -1.
          1   -1    0    0  501    0 -0.00000000000E+00 -0.00000000000E+00 -0.55269969173E+02  0.55269969173E+02  0.00000000000E+00 0. -1.
         25    2    1    2    0    0 -0.53892712866E+02 -0.17582778171E+02  0.12612743174E+03  0.18640636946E+03  0.12500250778E+03 0.  0.
          2    1    1    2  501    0  0.77756381597E+02 -0.16882586952E+02  0.41534504852E+02  0.89756290668E+02  0.00000000000E+00 0. -1.
          1    1    1    2  502    0 -0.23863668731E+02  0.34465365123E+02  0.42986586646E+03  0.43190508127E+03  0.00000000000E+00 0. -1.
         22    1    3    3    0    0  0.32374747415E+02  0.21141596069E+02  0.17662257120E+02  0.42509371686E+02  0.00000000000E+00 0. -1.
         22    1    3    3    0    0 -0.86267460281E+02 -0.38724374240E+02  0.10846517462E+03  0.14389699778E+03  0.00000000000E+00 0. -1.
</event>
<event>
 7    1  0.5993218E-006  0.1330759E+03  0.7818608E-02  0.1372749E+00
          2   -1    0    0  502    0  0.00000000000E+00  0.00000000000E+00  0.97768615626E+03  0.97768615626E+03  0.00000000000E+00 0. -1.
          1   -1    0    0  501    0 -0.00000000000E+00 -0.00000000000E+00 -0.13267411886E+03  0.13267411886E+03  0.00000000000E+00 0. -1.
         25    2    1    2    0    0  0.75054116130E+02 -0.69881159475E+02  0.13583292765E+02  0.16225776933E+03  0.12500632411E+03 0.  0.
          2    1    1    2  501    0  0.28203591511E+02 -0.17401708124E+02 -0.48006725204E+02  0.58334446809E+02  0.00000000000E+00 0. -1.
          1    1    1    2  502    0 -0.10325770764E+03  0.87282867599E+02  0.87943546985E+03  0.88976805898E+03  0.00000000000E+00 0. -1.
         22    1    3    3    0    0  0.34233076112E+02  0.20605274098E+02 -0.33731338678E+02  0.52290381809E+02  0.00000000000E+00 0.  1.
         22    1    3    3    0    0  0.40821040018E+02 -0.90486433573E+02  0.47314631443E+02  0.10996738752E+03  0.00000000000E+00 0.  1.
</event>
<event>
 7    1  0.5993218E-006  0.1622401E+03  0.7818608E-02  0.1255440E+00
          2   -1    0    0  502    0  0.00000000000E+00  0.00000000000E+00  0.20233856502E+03  0.20233856502E+03  0.00000000000E+00 0. -1.
          1   -1    0    0  501    0 -0.00000000000E+00 -0.00000000000E+00 -0.34333640794E+03  0.34333640794E+03  0.00000000000E+00 0. -1.
         25    2    1    2    0    0  0.90735359508E+02  0.87636941830E+02 -0.48407203574E+02  0.18407564491E+03  0.12500978623E+03 0.  0.
          2    1    1    2  501    0  0.78077355810E+02 -0.76330558462E+01 -0.14734635549E+03  0.16692898343E+03  0.00000000000E+00 0. -1.
          1    1    1    2  502    0 -0.16881271532E+03 -0.80003885984E+02  0.54755716137E+02  0.19467034462E+03  0.00000000000E+00 0. -1.
         22    1    3    3    0    0  0.37173714688E+02  0.70470812822E+02 -0.85368842365E+02  0.11677268418E+03  0.00000000000E+00 0. -1.
         22    1    3    3    0    0  0.53561644820E+02  0.17166129008E+02  0.36961638791E+02  0.67302960730E+02  0.00000000000E+00 0. -1.
</event>
<event>
 7    1  0.5993218E-006  0.8679810E+02  0.7818608E-02  0.1416839E+00
          2   -1    0    0  502    0  0.00000000000E+00  0.00000000000E+00  0.72716775022E+02  0.72716775022E+02  0.00000000000E+00 0. -1.
          1   -1    0    0  501    0 -0.00000000000E+00 -0.00000000000E+00 -0.22158867489E+04  0.22158867489E+04  0.00000000000E+00 0. -1.
         25    2    1    2    0    0 -0.95086188702E+01 -0.53649462597E+02 -0.44130466726E+03  0.46188926314E+03  0.12499281333E+03 0.  0.
          2    1    1    2  501    0  0.52059329529E+01 -0.35356601546E+02 -0.17322105056E+04  0.17325791257E+04  0.00000000000E+00 0. -1.
          1    1    1    2  502    0  0.43026859173E+01  0.89006064143E+02  0.30345198986E+02  0.94135135108E+02  0.00000000000E+00 0. -1.
         22    1    3    3    0    0 -0.49392335361E+02 -0.74100317369E+02 -0.24947442631E+03  0.26489233513E+03  0.00000000000E+00 0.  1.
         22    1    3    3    0    0  0.39883716491E+02  0.20450854772E+02 -0.19183024095E+03  0.19699692801E+03  0.00000000000E+00 0.  1.
</event>
<event>
 7    1  0.5993218E-006  0.1090744E+03  0.7818608E-02  0.1294537E+00
          2   -1    0    0  502    0  0.00000000000E+00  0.00000000000E+00  0.97693633809E+03  0.97693633809E+03  0.00000000000E+00 0. -1.
          1   -1    0    0  501    0 -0.00000000000E+00 -0.00000000000E+00 -0.11068170721E+03  0.11068170721E+03  0.00000000000E+00 0. -1.
         25    2    1    2    0    0 -0.77688495470E+02 -0.25758075807E+02  0.35048516508E+03  0.38098504105E+03  0.12494306609E+03 0.  0.
          2    1    1    2  501    0  0.66173448259E+01 -0.79915719080E+02 -0.70449903291E+02  0.10674034046E+03  0.00000000000E+00 0. -1.
          1    1    1    2  502    0  0.71071150644E+02  0.10567379489E+03  0.58621936909E+03  0.59989266379E+03  0.00000000000E+00 0. -1.
         22    1    3    3    0    0  0.24883226554E+02  0.23687560678E+02  0.62766660252E+02  0.71553680086E+02  0.00000000000E+00 0.  1.
         22    1    3    3    0    0 -0.10257172202E+03 -0.49445636485E+02  0.28771850483E+03  0.30943136096E+03  0.00000000000E+00 0.  1.
</event>
<event>
 7    1  0.5993218E-006  0.6929759E+02  0.7818608E-02  0.1364372E+00
          2   -1    0    0  502    0  0.00000000000E+00  0.00000000000E+00  0.66726595046E+03  0.66726595046E+03  0.00000000000E+00 0. -1.
          1   -1    0    0  501    0 -0.00000000000E+00 -0.00000000000E+00 -0.12861656318E+03  0.12861656318E+03  0.00000000000E+00 0. -1.
         25    2    1    2    0    0 -0.41144497542E+02 -0.27994840328E+02  0.20580091774E+03  0.24587812196E+03  0.12500180941E+03 0.  0.
          2    1    1    2  501    0 -0.14532152517E+02  0.69253378485E+02 -0.93949711490E+02  0.11761701483E+03  0.00000000000E+00 0. -1.
          1    1    1    2  502    0  0.55676650059E+02 -0.41258538156E+02  0.42679818103E+03  0.43238737685E+03  0.00000000000E+00 0. -1.
         22    1    3    3    0    0  0.58658306743E+01 -0.61759764721E+02  0.50016314458E+02  0.79688821173E+02  0.00000000000E+00 0.  1.
         22    1    3    3    0    0 -0.47010328217E+02  0.33764924393E+02  0.15578460328E+03  0.16618930079E+03  0.00000000000E+00 0.  1.
</event>
<event>
 7    1  0.5993218E-006  0.4507563E+02  0.7818608E-02  0.1503120E+00
          2   -1    0    0  502    0  0.00000000000E+00  0.00000000000E+00  0.97431348277E+03  0.97431348277E+03  0.00000000000E+00 0. -1.
          1   -1    0    0  501    0 -0.00000000000E+00 -0.00000000000E+00 -0.70746262674E+02  0.70746262674E+02  0.00000000000E+00 0. -1.
         25    2    1    2    0    0 -0.66386222754E+02  0.25791550918E+02  0.27156291729E+03  0.30731773528E+03  0.12500175078E+03 0.  0.
          2    1    1    2  501    0  0.30263249225E+02 -0.32549958783E+02 -0.42938950523E+02  0.61799009235E+02  0.00000000000E+00 0. -1.
          1    1    1    2  502    0  0.36122973529E+02  0.67584078658E+01  0.67494325333E+03  0.67594300093E+03  0.00000000000E+00 0. -1.
         22    1    3    3    0    0 -0.56701761317E+02 -0.77314395948E+01  0.32681013649E+02  0.65900785639E+02  0.00000000000E+00 0. -1.
         22    1    3    3    0    0 -0.96844614365E+01  0.33522990512E+02  0.23888190364E+03  0.24141694964E+03  0.00000000000E+00 0. -1.
</event>
<event>
 7    1  0.5993218E-006  0.1531035E+03  0.7818608E-02  0.1228249E+00
          2   -1    0    0  502    0  0.00000000000E+00  0.00000000000E+00  0.35382389478E+03  0.35382389478E+03  0.00000000000E+00 0. -1.
          1   -1    0    0  501    0 -0.00000000000E+00 -0.00000000000E+00 -0.83926812467E+03  0.83926812467E+03  0.00000000000E+00 0. -1.
         25    2    1    2    0    0 -0.16972466560E+02 -0.80824820171E+02 -0.17891434371E+03  0.23335827550E+03  0.12500010474E+03 0.  0.
          2    1    1    2  501    0  0.19915407266E+02  0.19026463705E+03 -0.60885214080E+03  0.63819917339E+03  0.00000000000E+00 0. -1.
          1    1    1    2  502    0 -0.29429407062E+01 -0.10943981688E+03  0.30232225462E+03  0.32153457055E+03  0.00000000000E+00 0. -1.
         22    1    3    3    0    0  0.37519817101E+02 -0.86803603712E+02 -0.12168149795E+03  0.15410707069E+03  0.00000000000E+00 0. -1.
         22    1    3    3    0    0 -0.54492283661E+02  0.59787835417E+01 -0.57232845761E+02  0.79251204818E+02  0.00000000000E+00 0. -1.
</event>
<event>
 7    1  0.5993218E-006  0.2077441E+03  0.7818608E-02  0.1285202E+00
          2   -1    0    0  502    0  0.00000000000E+00  0.00000000000E+00  0.77004608900E+03  0.77004608900E+03  0.00000000000E+00 0. -1.
          1   -1    0    0  501    0 -0.00000000000E+00 -0.00000000000E+00 -0.70860847877E+03  0.70860847877E+03  0.00000000000E+00 0. -1.
         25    2    1    2    0    0  0.81883977255E+02  0.16692866528E+03 -0.21570559480E+03  0.31100454717E+03  0.12499903882E+03 0.  0.
          2    1    1    2  501    0 -0.67461874477E+02 -0.21055692643E+03 -0.41699885435E+03  0.47198873748E+03  0.00000000000E+00 0. -1.
          1    1    1    2  502    0 -0.14422102778E+02  0.43628261149E+02  0.69414205939E+03  0.69566128312E+03  0.00000000000E+00 0. -1.
         22    1    3    3    0    0  0.54881467916E+01  0.13264172286E+03 -0.16971300484E+03  0.21546798001E+03  0.00000000000E+00 0.  1.
         22    1    3    3    0    0  0.76395830464E+02  0.34286942424E+02 -0.45992589967E+02  0.95536567161E+02  0.00000000000E+00 0.  1.
</event>
<event>
 7    1  0.5993218E-006  0.6203724E+02  0.7818608E-02  0.1403715E+00
          2   -1    0    0  502    0  0.00000000000E+00  0.00000000000E+00  0.30676242125E+03  0.30676242125E+03  0.00000000000E+00 0. -1.
          1   -1    0    0  501    0 -0.00000000000E+00 -0.00000000000E+00 -0.99222859793E+03  0.99222859793E+03  0.00000000000E+00 0. -1.
         25    2    1    2    0    0  0.16679282346E+02 -0.36299709409E+02 -0.63686871464E+03  0.65024732503E+03  0.12499582656E+03 0.  0.
          2    1    1    2  501    0  0.45405463054E+02  0.31725849103E+02 -0.34319712943E+03  0.34763839723E+03  0.00000000000E+00 0. -1.
          1    1    1    2  502    0 -0.62084745399E+02  0.45738603055E+01  0.29459966739E+03  0.30110529693E+03  0.00000000000E+00 0. -1.
         22    1    3    3    0    0 -0.35029945555E+02 -0.45127710581E+02 -0.14916245772E+03  0.15972803806E+03  0.00000000000E+00 0. -1.
         22    1    3    3    0    0  0.51709227901E+02  0.88280011725E+01 -0.48770625692E+03  0.49051928697E+03  0.00000000000E+00 0. -1.
</event>
<event>
 7    1  0.5993218E-006  0.1689768E+03  0.7818608E-02  0.1218581E+00
          2   -1    0    0  502    0  0.00000000000E+00  0.00000000000E+00  0.33443670523E+03  0.33443670523E+03  0.00000000000E+00 0. -1.
          1   -1    0    0  501    0 -0.00000000000E+00 -0.00000000000E+00 -0.29309639734E+03  0.29309639734E+03  0.00000000000E+00 0. -1.
         25    2    1    2    0    0 -0.46542220618E+02 -0.10163507455E+03 -0.21641974445E+01  0.16770790307E+03  0.12500156128E+03 0.  0.
          2    1    1    2  501    0 -0.10471624341E+03 -0.32785157333E+02 -0.14596751265E+03  0.18261126177E+03  0.00000000000E+00 0. -1.
          1    1    1    2  502    0  0.15125846403E+03  0.13442023189E+03  0.18947201798E+03  0.27721393774E+03  0.00000000000E+00 0. -1.
         22    1    3    3    0    0 -0.52229296539E+01  0.26782281725E+02  0.15933640277E+02  0.31598267374E+02  0.00000000000E+00 0. -1.
         22    1    3    3    0    0 -0.41319290964E+02 -0.12841735628E+03 -0.18097837721E+02  0.13610963570E+03  0.00000000000E+00 0. -1.
</event>
<event>
 7    1  0.5993218E-006  0.2168704E+03  0.7818608E-02  0.1270872E+00
          2   -1    0    0  502    0  0.00000000000E+00  0.00000000000E+00  0.12023049411E+04  0.12023049411E+04  0.00000000000E+00 0. -1.
          1   -1    0    0  501    0 -0.00000000000E+00 -0.00000000000E+00 -0.91303275897E+03  0.91303275897E+03  0.00000000000E+00 0. -1.
         25    2    1    2    0    0  0.17287699995E+03  0.15847135161E+02  0.10969447979E+03  0.24040655524E+03  0.12499937641E+03 0.  0.
          2    1    1    2  501    0 -0.21663261696E+03 -0.40996749545E+02 -0.83270106250E+03  0.86139507991E+03  0.00000000000E+00 0. -1.
          1    1    1    2  502    0  0.43755617012E+02  0.25149614384E+02  0.10122787649E+04  0.10135360649E+04  0.00000000000E+00 0. -1.
         22    1    3    3    0    0  0.11022505348E+02  0.27324118862E+02  0.66133885357E+02  0.72400234034E+02  0.00000000000E+00 0.  1.
         22    1    3    3    0    0  0.16185449460E+03 -0.11476983701E+02  0.43560594428E+02  0.16800632121E+03  0.00000000000E+00 0.  1.
</event>
<event>
 7    1  0.5993218E-006  0.4052122E+02  0.7818608E-02  0.1541696E+00
          2   -1    0    0  502    0  0.00000000000E+00  0.00000000000E+00  0.70423237694E+02  0.70423237694E+02  0.00000000000E+00 0. -1.
          1   -1    0    0  501    0 -0.00000000000E+00 -0.00000000000E+00 -0.17297124389E+04  0.17297124389E+04  0.00000000000E+00 0. -1.
         25    2    1    2    0    0 -0.27677415010E+02 -0.38679822966E+02 -0.59118221884E+03  0.60612114031E+03  0.12499701136E+03 0.  0.
          2    1    1    2  501    0  0.39620032330E+02  0.94116791248E+01 -0.11267014058E+04  0.11274370867E+04  0.00000000000E+00 0. -1.
          1    1    1    2  502    0 -0.11942617320E+02  0.29268143841E+02  0.58594423361E+02  0.66577449646E+02  0.00000000000E+00 0. -1.
         22    1    3    3    0    0 -0.51133305571E+02 -0.63676051992E+02 -0.24513606106E+03  0.25838139052E+03  0.00000000000E+00 0.  1.
         22    1    3    3    0    0  0.23455890561E+02  0.24996229026E+02 -0.34604615778E+03  0.34773974979E+03  0.00000000000E+00 0.  1.
</event>
<event>
 7    1  0.5993218E-006  0.3116506E+02  0.7818608E-02  0.1616054E+00
          2   -1    0    0  502    0  0.00000000000E+00  0.00000000000E+00  0.16836262663E+02  0.16836262663E+02  0.00000000000E+00 0. -1.
          1   -1    0    0  501    0 -0.00000000000E+00 -0.00000000000E+00 -0.94448220553E+03  0.94448220553E+03  0.00000000000E+00 0. -1.
         25    2    1    2    0    0 -0.23470714127E+02  0.30852803092E+01 -0.27450147804E+03  0.30255656783E+03  0.12501608662E+03 0.  0.
          2    1    1    2  501    0 -0.66436588321E+01 -0.25080180130E+02 -0.51558267791E+03  0.51623507377E+03  0.00000000000E+00 0. -1.
          1    1    1    2  502    0  0.30114372959E+02  0.21994899820E+02 -0.13756178693E+03  0.14252682660E+03  0.00000000000E+00 0. -1.
         22    1    3    3    0    0  0.22404228573E+02 -0.38541831860E+01  0.14045249684E+01  0.22776673953E+02  0.00000000000E+00 0.  1.
         22    1    3    3    0    0 -0.45874942700E+02  0.69394634952E+01 -0.27590600301E+03  0.27977989387E+03  0.00000000000E+00 0.  1.
</event>
<event>
 7    1  0.7627385E-006  0.7012825E+02  0.7818608E-02  0.1472356E+00
          2   -1    0    0  502    0  0.00000000000E+00  0.00000000000E+00  0.12427264855E+04  0.12427264855E+04  0.00000000000E+00 0. -1.
          1   -1    0    0  501    0 -0.00000000000E+00 -0.00000000000E+00 -0.97312443793E+03  0.97312443793E+03  0.00000000000E+00 0. -1.
         25    2    1    2    0    0 -0.17038636054E+02  0.78557207355E+02 -0.51926045770E+03  0.54010980452E+03  0.12500251225E+03 0.  0.
          2    1    1    2  501    0 -0.21447229584E+02 -0.19943945374E+02 -0.44195679094E+03  0.44292612214E+03  0.00000000000E+00 0. -1.
          1    1    1    2  502    0  0.38485865639E+02 -0.58613261981E+02  0.12308192962E+04  0.12328149967E+04  0.00000000000E+00 0. -1.
         22    1    3    3    0    0  0.42655964678E+02 -0.37877120726E+01 -0.21734798835E+03  0.22152658108E+03  0.00000000000E+00 0. -1.
         22    1    3    3    0    0 -0.59694600733E+02  0.82344919428E+02 -0.30191246934E+03  0.31858322344E+03  0.00000000000E+00 0. -1.
</event>
<event>
 7    1  0.5993218E-006  0.6393967E+02  0.7818608E-02  0.1489935E+00
          2   -1    0    0  502    0  0.00000000000E+00  0.00000000000E+00  0.13768964900E+04  0.13768964900E+04  0.00000000000E+00 0. -1.
          1   -1    0    0  501    0 -0.00000000000E+00 -0.00000000000E+00 -0.11354501576E+03  0.11354501576E+03  0.00000000000E+00 0. -1.
         25    2    1    2    0    0  0.27100488175E+02 -0.30564495919E+02  0.12023416615E+03  0.17818485040E+03  0.12499984533E+03 0.  0.
          2    1    1    2  501    0 -0.54753338094E+02  0.36932877348E+02 -0.71484047042E+02  0.97323863688E+02  0.00000000000E+00 0. -1.
          1    1    1    2  502    0  0.27652849920E+02 -0.63683814289E+01  0.12146013551E+04  0.12149327917E+04  0.00000000000E+00 0. -1.
         22    1    3    3    0    0 -0.23940174113E+02 -0.63239898364E+02  0.43493762537E+02  0.80399776500E+02  0.00000000000E+00 0. -1.
         22    1    3    3    0    0  0.51040662288E+02  0.32675402445E+02  0.76740403611E+02  0.97785073902E+02  0.00000000000E+00 0. -1.
</event>
<event>
 7    1  0.5993218E-006  0.5218233E+02  0.7818608E-02  0.1455864E+00
          2   -1    0    0  502    0  0.00000000000E+00  0.00000000000E+00  0.33899427292E+03  0.33899427292E+03  0.00000000000E+00 0. -1.
          1   -1    0    0  501    0 -0.00000000000E+00 -0.00000000000E+00 -0.45802655978E+03  0.45802655978E+03  0.00000000000E+00 0. -1.
         25    2    1    2    0    0  0.36412301878E+02  0.27736997451E+02  0.18377763264E+03  0.22692426760E+03  0.12500083284E+03 0.  0.
          2    1    1    2  501    0  0.20301092635E+02 -0.39417606416E+02 -0.42898453516E+03  0.43126976878E+03  0.00000000000E+00 0. -1.
          1    1    1    2  502    0 -0.56713394513E+02  0.11680608966E+02  0.12617461565E+03  0.13882679632E+03  0.00000000000E+00 0. -1.
         22    1    3    3    0    0  0.26328917914E+02  0.44778182225E+02  0.11103577715E+02  0.53118612180E+02  0.00000000000E+00 0.  1.
         22    1    3    3    0    0  0.10083383964E+02 -0.17041184775E+02  0.17267405493E+03  0.17380565542E+03  0.00000000000E+00 0.  1.
</event>
<event>
 7    1  0.5993218E-006  0.1233380E+03  0.7818608E-02  0.1258579E+00
          2   -1    0    0  502    0  0.00000000000E+00  0.00000000000E+00  0.19470490121E+03  0.19470490121E+03  0.00000000000E+00 0. -1.
          1   -1    0    0  501    0 -0.00000000000E+00 -0.00000000000E+00 -0.69519695193E+03  0.69519695193E+03  0.00000000000E+00 0. -1.
         25    2    1    2    0    0  0.14822917367E+03 -0.13068198471E+03 -0.29512935764E+03  0.37653125147E+03  0.12499910614E+03 0.  0.
          2    1    1    2  501    0 -0.55130425954E+02  0.94056186810E+02 -0.33346316352E+03  0.35083274016E+03  0.00000000000E+00 0. -1.
          1    1    1    2  502    0 -0.93098747720E+02  0.36625797904E+02  0.12810047044E+03  0.16253786152E+03  0.00000000000E+00 0. -1.
         22    1    3    3    0    0  0.16016940718E+03 -0.82387021803E+02 -0.25708722734E+03  0.31390397070E+03  0.00000000000E+00 0. -1.
         22    1    3    3    0    0 -0.11940233511E+02 -0.48294962910E+02 -0.38042130299E+02  0.62627280768E+02  0.00000000000E+00 0. -1.
</event>
<event>
 7    1  0.5993218E-006  0.1284331E+03  0.7818608E-02  0.1274888E+00
          2   -1    0    0  502    0  0.00000000000E+00  0.00000000000E+00  0.32660435695E+04  0.32660435695E+04  0.00000000000E+00 0. -1.
          1   -1    0    0  501    0 -0.00000000000E+00 -0.00000000000E+00 -0.60309819759E+03  0.60309819759E+03  0.00000000000E+00 0. -1.
         25    2    1    2    0    0  0.14394267816E+03  0.78154016951E+02  0.41924517175E+03  0.46713860421E+03  0.12499766614E+03 0.  0.
          2    1    1    2  501    0 -0.16466537166E+02 -0.80318755835E+02 -0.57480141429E+03  0.58061942377E+03  0.00000000000E+00 0. -1.
          1    1    1    2  502    0 -0.12747614100E+03  0.21647388834E+01  0.28185016144E+04  0.28213837391E+04  0.00000000000E+00 0. -1.
         22    1    3    3    0    0  0.10139707366E+03 -0.15850702828E+02  0.19812453668E+03  0.22312763917E+03  0.00000000000E+00 0. -1.
         22    1    3    3    0    0  0.42545604500E+02  0.94004719779E+02  0.22112063508E+03  0.24401096504E+03  0.00000000000E+00 0. -1.
</event>
<event>
 7    1  0.5993218E-006  0.5250419E+02  0.7818608E-02  0.1478743E+00
          2   -1    0    0  502    0  0.00000000000E+00  0.00000000000E+00  0.21940536020E+04  0.21940536020E+04  0.00000000000E+00 0. -1.
          1   -1    0    0  501    0 -0.00000000000E+00 -0.00000000000E+00 -0.34733863765E+02  0.34733863765E+02  0.00000000000E+00 0. -1.
         25    2    1    2    0    0 -0.49243119312E+02 -0.72029688828E+01  0.32480869461E+03  0.35157115528E+03  0.12499928628E+03 0.  0.
          2    1    1    2  501    0  0.44928305465E+02 -0.29929218815E+02  0.13269653329E+02  0.55591316501E+02  0.00000000000E+00 0. -1.
          1    1    1    2  502    0  0.43148138463E+01  0.37132187697E+02  0.18212413902E+04  0.18216249939E+04  0.00000000000E+00 0. -1.
         22    1    3    3    0    0 -0.43962989256E+02  0.27476216904E+02  0.30860749429E+03  0.31293173769E+03  0.00000000000E+00 0.  1.
         22    1    3    3    0    0 -0.52801300553E+01 -0.34679185787E+02  0.16201200324E+02  0.38639417597E+02  0.00000000000E+00 0.  1.
</event>
<event>
 7    1  0.6513815E-006  0.8197837E+02  0.7818608E-02  0.1363495E+00
          2   -1    0    0  502    0  0.00000000000E+00  0.00000000000E+00  0.33297585011E+04  0.33297585011E+04  0.00000000000E+00 0. -1.
          1   -1    0    0  501    0 -0.00000000000E+00 -0.00000000000E+00 -0.11169710464E+04  0.11169710464E+04  0.00000000000E+00 0. -1.
         25    2    1    2    0    0  0.11081756381E+02  0.13893545839E+03 -0.13142471569E+03  0.22874368605E+03  0.12500140437E+03 0.  0.
          2    1    1    2  501    0  0.13914834851E+01 -0.58075025027E+02 -0.93547567869E+03  0.93727764840E+03  0.00000000000E+00 0. -1.
          1    1    1    2  502    0 -0.12473239866E+02 -0.80860433358E+02  0.32796878491E+04  0.32807082130E+04  0.00000000000E+00 0. -1.
         22    1    3    3    0    0  0.20389152594E+02  0.30266829650E+02  0.20396884972E+02  0.41807074008E+02  0.00000000000E+00 0. -1.
         22    1    3    3    0    0 -0.93073962123E+01  0.10866862873E+03 -0.15182160066E+03  0.18693661204E+03  0.00000000000E+00 0. -1.
</event>
<event>
 7    1  0.5993218E-006  0.4546454E+03  0.7818608E-02  0.1206817E+00
          2   -1    0    0  502    0  0.00000000000E+00  0.00000000000E+00  0.13769857399E+04  0.13769857399E+04  0.00000000000E+00 0. -1.
          1   -1    0    0  501    0 -0.00000000000E+00 -0.00000000000E+00 -0.13715479483E+04  0.13715479483E+04  0.00000000000E+00 0. -1.
         25    2    1    2    0    0  0.33372441010E+03  0.35211881300E+03  0.18131393172E+03  0.53278395544E+03  0.12499744387E+03 0.  0.
          2    1    1    2  501    0 -0.96984616284E+01 -0.45185037690E+02 -0.11464982799E+04  0.11474293240E+04  0.00000000000E+00 0. -1.
          1    1    1    2  502    0 -0.32402594847E+03 -0.30693377531E+03  0.97062213976E+03  0.10683204088E+04  0.00000000000E+00 0. -1.
         22    1    3    3    0    0  0.24943006341E+03  0.32231572333E+03  0.17377720465E+03  0.44305902416E+03  0.00000000000E+00 0. -1.
         22    1    3    3    0    0  0.84294346691E+02  0.29803089674E+02  0.75367270749E+01  0.89724931280E+02  0.00000000000E+00 0. -1.
</event>
<event>
 7    1  0.5993218E-006  0.6222544E+02  0.7818608E-02  0.1396816E+00
          2   -1    0    0  502    0  0.00000000000E+00  0.00000000000E+00  0.42291649322E+03  0.42291649322E+03  0.00000000000E+00 0. -1.
          1   -1    0    0  501    0 -0.00000000000E+00 -0.00000000000E+00 -0.17887390569E+04  0.17887390569E+04  0.00000000000E+00 0. -1.
         25    2    1    2    0    0 -0.16324882807E+02  0.18179298639E+02 -0.34656361861E+03  0.36922680749E+03  0.12500041972E+03 0.  0.
          2    1    1    2  501    0 -0.42251518761E+02 -0.40204340427E+02 -0.14278662852E+04  0.14290569297E+04  0.00000000000E+00 0. -1.
          1    1    1    2  502    0  0.58576401568E+02  0.22025041788E+02  0.40860734016E+03  0.41337181292E+03  0.00000000000E+00 0. -1.
         22    1    3    3    0    0 -0.37153199077E+02 -0.37352852775E+02 -0.77550832827E+02  0.93753546515E+02  0.00000000000E+00 0.  1.
         22    1    3    3    0    0  0.20828316270E+02  0.55532151414E+02 -0.26901278578E+03  0.27547326098E+03  0.00000000000E+00 0.  1.
</event>
<event>
 7    1  0.5993218E-006  0.7754011E+02  0.7818608E-02  0.1365479E+00
          2   -1    0    0  502    0  0.00000000000E+00  0.00000000000E+00  0.10873101116E+04  0.10873101116E+04  0.00000000000E+00 0. -1.
          1   -1    0    0  501    0 -0.00000000000E+00 -0.00000000000E+00 -0.21729289009E+03  0.21729289009E+03  0.00000000000E+00 0. -1.
         25    2    1    2    0    0 -0.37833360790E+02  0.11741730925E+03  0.16842519904E+03  0.24333089710E+03  0.12499876045E+03 0.  0.
          2    1    1    2  501    0 -0.59955018283E+01 -0.75846187286E+02 -0.17070157700E+03  0.18688932168E+03  0.00000000000E+00 0. -1.
          1    1    1    2  502    0  0.43828862618E+02 -0.41571121962E+02  0.87229359950E+03  0.87438278294E+03  0.00000000000E+00 0. -1.
         22    1    3    3    0    0  0.11457150033E+02  0.11044941780E+03  0.65300253880E+02  0.12881949906E+03  0.00000000000E+00 0. -1.
         22    1    3    3    0    0 -0.49290510823E+02  0.69678914443E+01  0.10312494516E+03  0.11451139805E+03  0.00000000000E+00 0. -1.
</event>
<event>
 7    1  0.5993218E-006  0.2845493E+02  0.7818608E-02  0.1635699E+00
          2   -1    0    0  502    0  0.00000000000E+00  0.00000000000E+00  0.22922351340E+04  0.22922351340E+04  0.00000000000E+00 0. -1.
          1   -1    0    0  501    0 -0.00000000000E+00 -0.00000000000E+00 -0.12647834957E+02  0.12647834957E+02  0.00000000000E+00 0. -1.
         25    2    1    2    0    0  0.75501777582E+01 -0.63281489664E+01  0.55618966524E+03  0.57014825596E+03  0.12500015760E+03 0.  0.
          2    1    1    2  501    0  0.14131136896E+01  0.30036006210E+02  0.34983254064E+02  0.46130105400E+02  0.00000000000E+00 0. -1.
          1    1    1    2  502    0 -0.89632914477E+01 -0.23707857243E+02  0.16884143798E+04  0.16886046076E+04  0.00000000000E+00 0. -1.
         22    1    3    3    0    0 -0.33210117909E+02 -0.91139169904E+01  0.41891200245E+02  0.54229586688E+02  0.00000000000E+00 0.  1.
         22    1    3    3    0    0  0.40760295667E+02  0.27857680240E+01  0.51429846500E+03  0.51591866927E+03  0.00000000000E+00 0.  1.
</event>
<event>
 7    1  0.5993218E-006  0.1520925E+03  0.7818608E-02  0.1366432E+00
          2   -1    0    0  502    0  0.00000000000E+00  0.00000000000E+00  0.52861595077E+03  0.52861595077E+03  0.00000000000E+00 0. -1.
          1   -1    0    0  501    0 -0.00000000000E+00 -0.00000000000E+00 -0.20343610038E+04  0.20343610038E+04  0.00000000000E+00 0. -1.
         25    2    1    2    0    0 -0.10225570302E+03 -0.82061150761E+02 -0.24860943351E+03  0.30760627189E+03  0.12499882725E+03 0.  0.
          2    1    1    2  501    0 -0.14061798996E+01 -0.30521498640E+02 -0.17443852002E+04  0.17446527637E+04  0.00000000000E+00 0. -1.
          1    1    1    2  502    0  0.10366188292E+03  0.11258264940E+03  0.48724958067E+03  0.51071791899E+03  0.00000000000E+00 0. -1.
         22    1    3    3    0    0 -0.54423331770E+02 -0.74929157279E+02 -0.24159863153E+03  0.25873959189E+03  0.00000000000E+00 0.  1.
         22    1    3    3    0    0 -0.47832371249E+02 -0.71319934812E+01 -0.70108019733E+01  0.48866680004E+02  0.00000000000E+00 0.  1.
</event>
<event>
 7    1  0.5993218E-006  0.8792870E+02  0.7818608E-02  0.1396603E+00
          2   -1    0    0  502    0  0.00000000000E+00  0.00000000000E+00  0.99860752729E+02  0.99860752729E+02  0.00000000000E+00 0. -1.
          1   -1    0    0  501    0 -0.00000000000E+00 -0.00000000000E+00 -0.21771904536E+03  0.21771904536E+03  0.00000000000E+00 0. -1.
         25    2    1    2    0    0  0.22980537269E+02  0.60295682395E+02 -0.41935043646E+02  0.14678993496E+03  0.12500025085E+03 0.  0.
          2    1    1    2  501    0  0.87414210007E+01  0.40409498725E+02 -0.44248097551E+02  0.60557692866E+02  0.00000000000E+00 0. -1.
          1    1    1    2  502    0 -0.31721958270E+02 -0.10070518112E+03 -0.31675151429E+02  0.11023217025E+03  0.00000000000E+00 0. -1.
         22    1    3    3    0    0  0.17625482163E+02  0.10026270336E+02  0.43230654402E+02  0.47750112024E+02  0.00000000000E+00 0. -1.
         22    1    3    3    0    0  0.53550551068E+01  0.50269412059E+02 -0.85165698048E+02  0.99039822940E+02  0.00000000000E+00 0. -1.
</event>
<event>
 7    1  0.5993218E-006  0.1058160E+03  0.7818608E-02  0.1324785E+00
          2   -1    0    0  502    0  0.00000000000E+00  0.00000000000E+00  0.13687393831E+04  0.13687393831E+04  0.00000000000E+00 0. -1.
          1   -1    0    0  501    0 -0.00000000000E+00 -0.00000000000E+00 -0.87960491525E+03  0.87960491525E+03  0.00000000000E+00 0. -1.
         25    2    1    2    0    0 -0.37885602705E+02  0.11917925188E+03 -0.59859809923E+02  0.18666866244E+03  0.12499191862E+03 0.  0.
          2    1    1    2  501    0 -0.22833859917E+02 -0.10312155082E+03 -0.75189203668E+03  0.75927404422E+03  0.00000000000E+00 0. -1.
          1    1    1    2  502    0  0.60719462622E+02 -0.16057701061E+02  0.13008863144E+04  0.13024015917E+04  0.00000000000E+00 0. -1.
         22    1    3    3    0    0 -0.46728348658E+02  0.14349830113E+03 -0.50128742977E+02  0.15902261433E+03  0.00000000000E+00 0. -1.
         22    1    3    3    0    0  0.88427459537E+01 -0.24319049244E+02 -0.97310669461E+01  0.27646048109E+02  0.00000000000E+00 0. -1.
</event>
<event>
 7    1  0.5993218E-006  0.6107912E+02  0.7818608E-02  0.1407831E+00
          2   -1    0    0  502    0  0.00000000000E+00  0.00000000000E+00  0.73396818498E+03  0.73396818498E+03  0.00000000000E+00 0. -1.
          1   -1    0    0  501    0 -0.00000000000E+00 -0.00000000000E+00 -0.11910411869E+04  0.11910411869E+04  0.00000000000E+00 0. -1.
         25    2    1    2    0    0 -0.72216506032E+02 -0.21590909559E+02  0.16163355911E+02  0.14685864453E+03  0.12499926511E+03 0.  0.
          2    1    1    2  501    0  0.18597194199E+02  0.51198362542E+02 -0.11235947873E+04  0.11249143852E+04  0.00000000000E+00 0. -1.
          1    1    1    2  502    0  0.53619311833E+02 -0.29607452982E+02  0.65035842949E+03  0.65323634214E+03  0.00000000000E+00 0. -1.
         22    1    3    3    0    0 -0.99388704068E+02  0.14784676623E+02  0.13384033740E+02  0.10136978602E+03  0.00000000000E+00 0. -1.
         22    1    3    3    0    0  0.27172198037E+02 -0.36375586182E+02  0.27793221712E+01  0.45488858503E+02  0.00000000000E+00 0. -1.
</event>
<event>
 7    1  0.5993218E-006  0.3554561E+02  0.7818608E-02  0.1572744E+00
          2   -1    0    0  502    0  0.00000000000E+00  0.00000000000E+00  0.48268812249E+03  0.48268812249E+03  0.00000000000E+00 0. -1.
          1   -1    0    0  501    0 -0.00000000000E+00 -0.00000000000E+00 -0.23856018243E+02  0.23856018243E+02  0.00000000000E+00 0. -1.
         25    2    1    2    0    0 -0.46347007474E+02 -0.25954672184E+02  0.35510785943E+03  0.38020055120E+03  0.12501670768E+03 0.  0.
          2    1    1    2  501    0  0.13779641913E+02  0.26170186377E+02  0.17956333402E+02  0.34600391552E+02  0.00000000000E+00 0. -1.
          1    1    1    2  502    0  0.32567365561E+02 -0.21551419330E+00  0.85767911418E+02  0.91743197977E+02  0.00000000000E+00 0. -1.
         22    1    3    3    0    0  0.38327114622E+01 -0.11678068386E+02  0.31277123744E+03  0.31301264180E+03  0.00000000000E+00 0. -1.
         22    1    3    3    0    0 -0.50179718936E+02 -0.14276603798E+02  0.42336621988E+02  0.67187909402E+02  0.00000000000E+00 0. -1.
</event>
<event>
 7    1  0.5993218E-006  0.3715917E+02  0.7818608E-02  0.1540044E+00
          2   -1    0    0  502    0  0.00000000000E+00  0.00000000000E+00  0.98686740606E+03  0.98686740606E+03  0.00000000000E+00 0. -1.
          1   -1    0    0  501    0 -0.00000000000E+00 -0.00000000000E+00 -0.36633901854E+02  0.36633901854E+02  0.00000000000E+00 0. -1.
         25    2    1    2    0    0  0.57017476833E+00  0.69971956460E+02  0.47295417376E+03  0.49417097508E+03  0.12499160910E+03 0.  0.
          2    1    1    2  501    0  0.13993608317E+01 -0.34815083851E+02 -0.13442836903E+02  0.37346460853E+02  0.00000000000E+00 0. -1.
          1    1    1    2  502    0 -0.19695356000E+01 -0.35156872609E+02  0.49072216734E+03  0.49198387197E+03  0.00000000000E+00 0. -1.
         22    1    3    3    0    0  0.58455419949E+02  0.38845976709E+02  0.32149082454E+03  0.32906290629E+03  0.00000000000E+00 0.  1.
         22    1    3    3    0    0 -0.57885245180E+02  0.31125979751E+02  0.15146334922E+03  0.16510806880E+03  0.00000000000E+00 0.  1.
</event>
<event>
 7    1  0.5993218E-006  0.5532799E+02  0.7818608E-02  0.1473333E+00
          2   -1    0    0  502    0  0.00000000000E+00  0.00000000000E+00  0.24657735305E+04  0.24657735305E+04  0.00000000000E+00 0. -1.
          1   -1    0    0  501    0 -0.00000000000E+00 -0.00000000000E+00 -0.39110641526E+03  0.39110641526E+03  0.00000000000E+00 0. -1.
         25    2    1    2    0    0  0.76374493475E+02  0.12413247404E+02  0.76654060358E+02  0.16580021424E+03  0.12500685624E+03 0.  0.
          2    1    1    2  501    0 -0.44991148555E+02 -0.31753060329E+02 -0.34419967044E+03  0.34857692611E+03  0.00000000000E+00 0. -1.
          1    1    1    2  502    0 -0.31383344919E+02  0.19339812925E+02  0.23422127253E+04  0.23425028054E+04  0.00000000000E+00 0. -1.
         22    1    3    3    0    0 -0.34332742967E+02  0.11788432433E+02  0.18214658417E+02  0.40613768111E+02  0.00000000000E+00 0. -1.
         22    1    3    3    0    0  0.11070723644E+03  0.62481497073E+00  0.58439401941E+02  0.12518644613E+03  0.00000000000E+00 0. -1.
</event>
<event>
 7    1  0.5993218E-006  0.9450079E+02  0.7818608E-02  0.1344461E+00
          2   -1    0    0  502    0  0.00000000000E+00  0.00000000000E+00  0.54149470640E+03  0.54149470640E+03  0.00000000000E+00 0. -1.
          1   -1    0    0  501    0 -0.00000000000E+00 -0.00000000000E+00 -0.94569247431E+02  0.94569247431E+02  0.00000000000E+00 0. -1.
         25    2    1    2    0    0 -0.95925837054E+02 -0.98259492532E+02  0.12336100107E+03  0.22294977773E+03  0.12502788777E+03 0.  0.
          2    1    1    2  501    0  0.15707189487E+02  0.57100674495E+02 -0.16356690760E+02  0.61438946621E+02  0.00000000000E+00 0. -1.
          1    1    1    2  502    0  0.80218647567E+02  0.41158818037E+02  0.33992114866E+03  0.35167522948E+03  0.00000000000E+00 0. -1.
         22    1    3    3    0    0  0.14495019076E+02 -0.48096270500E+02  0.79382540588E+02  0.93941176085E+02  0.00000000000E+00 0. -1.
         22    1    3    3    0    0 -0.11042085613E+03 -0.50163222033E+02  0.43978460478E+02  0.12900860165E+03  0.00000000000E+00 0. -1.
</event>
<event>
 7    1  0.5993218E-006  0.4405769E+02  0.7818608E-02  0.1502362E+00
          2   -1    0    0  502    0  0.00000000000E+00  0.00000000000E+00  0.40491258599E+03  0.40491258599E+03  0.00000000000E+00 0. -1.
          1   -1    0    0  501    0 -0.00000000000E+00 -0.00000000000E+00 -0.36310317026E+02  0.36310317026E+02  0.00000000000E+00 0. -1.
         25    2    1    2    0    0 -0.80628509081E+00 -0.19830677580E+02  0.21438479803E+03  0.24895768808E+03  0.12500073183E+03 0.  0.
          2    1    1    2  501    0 -0.33729545082E+02  0.35183393818E+02  0.19753168559E+02  0.52590313558E+02  0.00000000000E+00 0. -1.
          1    1    1    2  502    0  0.34535830173E+02 -0.15352716238E+02  0.13446430238E+03  0.13967490138E+03  0.00000000000E+00 0. -1.
         22    1    3    3    0    0  0.35987621242E+02 -0.56503963935E+02  0.76909506917E+02  0.10199450513E+03  0.00000000000E+00 0. -1.
         22    1    3    3    0    0 -0.36793906333E+02  0.36673286355E+02  0.13747529112E+03  0.14696318295E+03  0.00000000000E+00 0. -1.
</event>
<event>
 7    1  0.5993218E-006  0.9168211E+02  0.7818608E-02  0.1355999E+00
          2   -1    0    0  502    0  0.00000000000E+00  0.00000000000E+00  0.85281259742E+03  0.85281259742E+03  0.00000000000E+00 0. -1.
          1   -1    0    0  501    0 -0.00000000000E+00 -0.00000000000E+00 -0.39926449080E+03  0.39926449080E+03  0.00000000000E+00 0. -1.
         25    2    1    2    0    0  0.11863151623E+03 -0.83326592870E+02  0.25633254373E+03  0.31991994016E+03  0.12500254964E+03 0.  0.
          2    1    1    2  501    0 -0.78641151575E+02  0.45100030517E+02 -0.36049011255E+03  0.37171435905E+03  0.00000000000E+00 0. -1.
          1    1    1    2  502    0 -0.39990364658E+02  0.38226562353E+02  0.55770567544E+03  0.56044278901E+03  0.00000000000E+00 0. -1.
         22    1    3    3    0    0  0.12610213295E+03 -0.20086514821E+02  0.17447156530E+03  0.21620717636E+03  0.00000000000E+00 0. -1.
         22    1    3    3    0    0 -0.74706167197E+01 -0.63240078049E+02  0.81860978428E+02  0.10371276380E+03  0.00000000000E+00 0. -1.
</event>
<event>
 7    1  0.5993218E-006  0.4712890E+02  0.7818608E-02  0.1573133E+00
          2   -1    0    0  502    0  0.00000000000E+00  0.00000000000E+00  0.52344080424E+03  0.52344080424E+03  0.00000000000E+00 0. -1.
          1   -1    0    0  501    0 -0.00000000000E+00 -0.00000000000E+00 -0.25364119972E+02  0.25364119972E+02  0.00000000000E+00 0. -1.
         25    2    1    2    0    0  0.25498640135E+02  0.20164900816E+02  0.36117186274E+03  0.38357131199E+03  0.12500013230E+03 0.  0.
          2    1    1    2  501    0  0.12805614782E+02  0.18199280163E+02  0.52646428268E+01  0.22867313627E+02  0.00000000000E+00 0. -1.
          1    1    1    2  502    0 -0.38304254917E+02 -0.38364180979E+02  0.13164017870E+03  0.14236629859E+03  0.00000000000E+00 0. -1.
         22    1    3    3    0    0  0.49585236473E+02  0.62500982687E+02  0.24272054878E+03  0.25549624912E+03  0.00000000000E+00 0.  1.
         22    1    3    3    0    0 -0.24086596338E+02 -0.42336081870E+02  0.11845131396E+03  0.12807506287E+03  0.00000000000E+00 0.  1.
</event>
<event>
 7    1  0.5993218E-006  0.6392292E+02  0.7818608E-02  0.1383641E+00
          2   -1    0    0  502    0  0.00000000000E+00  0.00000000000E+00  0.35169343920E+04  0.35169343920E+04  0.00000000000E+00 0. -1.
          1   -1    0    0  501    0 -0.00000000000E+00 -0.00000000000E+00 -0.74331484021E+02  0.74331484021E+02  0.00000000000E+00 0. -1.
         25    2    1    2    0    0 -0.32278418871E+02  0.35058028816E+02  0.20086874444E+04  0.20131371016E+04  0.12499911533E+03 0.  0.
          2    1    1    2  501    0  0.60597043896E+02  0.21344413205E+02 -0.56994611259E+02  0.85883475806E+02  0.00000000000E+00 0. -1.
          1    1    1    2  502    0 -0.28318625025E+02 -0.56402442021E+02  0.14909100749E+04  0.14922452987E+04  0.00000000000E+00 0. -1.
         22    1    3    3    0    0 -0.53150391107E+02 -0.28181526352E+02  0.12799896419E+04  0.12814026088E+04  0.00000000000E+00 0. -1.
         22    1    3    3    0    0  0.20871972236E+02  0.63239555168E+02  0.72869780242E+03  0.73173449271E+03  0.00000000000E+00 0. -1.
</event>
<event>
 7    1  0.5993218E-006  0.5909390E+02  0.7818608E-02  0.1412500E+00
          2   -1    0    0  502    0  0.00000000000E+00  0.00000000000E+00  0.50535680221E+02  0.50535680221E+02  0.00000000000E+00 0. -1.
          1   -1    0    0  501    0 -0.00000000000E+00 -0.00000000000E+00 -0.34883506596E+03  0.34883506596E+03  0.00000000000E+00 0. -1.
         25    2    1    2    0    0  0.90499306380E+01  0.14080591892E+02 -0.13805340996E+03  0.18698409835E+03  0.12499657883E+03 0.  0.
          2    1    1    2  501    0 -0.68136332230E+02 -0.15022051816E+02 -0.12615546146E+03  0.14416456662E+03  0.00000000000E+00 0. -1.
          1    1    1    2  502    0  0.59086401592E+02  0.94145992403E+00 -0.34090514315E+02  0.68222081221E+02  0.00000000000E+00 0. -1.
         22    1    3    3    0    0 -0.56257791944E+02 -0.67831319378E+01 -0.73585847735E+02  0.92875330525E+02  0.00000000000E+00 0.  1.
         22    1    3    3    0    0  0.65307722583E+02  0.20863723830E+02 -0.64467562230E+02  0.94108767821E+02  0.00000000000E+00 0.  1.
</event>
<event>
 7    1  0.5993218E-006  0.6017577E+02  0.7818608E-02  0.1547584E+00
          2   -1    0    0  502    0  0.00000000000E+00  0.00000000000E+00  0.12416407045E+04  0.12416407045E+04  0.00000000000E+00 0. -1.
          1   -1    0    0  501    0 -0.00000000000E+00 -0.00000000000E+00 -0.88922847871E+02  0.88922847871E+02  0.00000000000E+00 0. -1.
         25    2    1    2    0    0 -0.63697038688E+02 -0.30113570282E+01  0.23488413848E+03  0.27360893850E+03  0.12499964684E+03 0.  0.
          2    1    1    2  501    0  0.77050984761E+01 -0.18986869795E+02 -0.67113535603E+02  0.70171906261E+02  0.00000000000E+00 0. -1.
          1    1    1    2  502    0  0.55991940212E+02  0.21998226823E+02  0.98494725376E+03  0.98678270761E+03  0.00000000000E+00 0. -1.
         22    1    3    3    0    0  0.16290061492E+02  0.33999469438E+02  0.13609004598E+03  0.14121554673E+03  0.00000000000E+00 0.  1.
         22    1    3    3    0    0 -0.79987100180E+02 -0.37010826466E+02  0.98794092502E+02  0.13239339177E+03  0.00000000000E+00 0.  1.
</event>
<event>
 7    1  0.5993218E-006  0.4018389E+02  0.7818608E-02  0.1567599E+00
          2   -1    0    0  502    0  0.00000000000E+00  0.00000000000E+00  0.41561477842E+03  0.41561477842E+03  0.00000000000E+00 0. -1.
          1   -1    0    0  501    0 -0.00000000000E+00 -0.00000000000E+00 -0.77864495046E+02  0.77864495046E+02  0.00000000000E+00 0. -1.
         25    2    1    2    0    0  0.22607022981E+02 -0.44892392611E+02  0.28686171265E+03  0.31692327673E+03  0.12499726695E+03 0.  0.
          2    1    1    2  501    0 -0.34438050659E+02  0.20602480688E+02 -0.54544238545E+02  0.67716434506E+02  0.00000000000E+00 0. -1.
          1    1    1    2  502    0  0.11831027678E+02  0.24289911923E+02  0.10543280927E+03  0.10883956223E+03  0.00000000000E+00 0. -1.
         22    1    3    3    0    0  0.57572705793E+02  0.16537154918E+02  0.17116067424E+03  0.18133965466E+03  0.00000000000E+00 0.  1.
         22    1    3    3    0    0 -0.34965682812E+02 -0.61429547529E+02  0.11570103841E+03  0.13558362207E+03  0.00000000000E+00 0.  1.
</event>
<event>
 7    1  0.5993218E-006  0.3882616E+02  0.7818608E-02  0.1526695E+00
          2   -1    0    0  502    0  0.00000000000E+00  0.00000000000E+00  0.57382106121E+03  0.57382106121E+03  0.00000000000E+00 0. -1.
          1   -1    0    0  501    0 -0.00000000000E+00 -0.00000000000E+00 -0.13534185722E+03  0.13534185722E+03  0.00000000000E+00 0. -1.
         25    2    1    2    0    0 -0.16556202025E+02  0.54223770614E+02  0.46258673287E+02  0.14484485530E+03  0.12500336846E+03 0.  0.
          2    1    1    2  501    0 -0.14744121729E+02 -0.35637651566E+02 -0.80992843594E+02  0.89706588655E+02  0.00000000000E+00 0. -1.
          1    1    1    2  502    0  0.31300323755E+02 -0.18586119048E+02  0.47321337429E+03  0.47461147447E+03  0.00000000000E+00 0. -1.
         22    1    3    3    0    0  0.45851419718E+02  0.50579397060E+02  0.46018206632E+02  0.82330452681E+02  0.00000000000E+00 0. -1.
         22    1    3    3    0    0 -0.62407621743E+02  0.36443735536E+01  0.24046665509E+00  0.62514402616E+02  0.00000000000E+00 0. -1.
</event>
<event>
 7    1  0.5993218E-006  0.2410532E+03  0.7818608E-02  0.1217738E+00
          2   -1    0    0  502    0  0.00000000000E+00  0.00000000000E+00  0.30425744900E+04  0.30425744900E+04  0.00000000000E+00 0. -1.
          1   -1    0    0  501    0 -0.00000000000E+00 -0.00000000000E+00 -0.18759584322E+03  0.18759584322E+03  0.00000000000E+00 0. -1.
         25    2    1    2    0    0  0.23208605751E+03 -0.21302578239E+03  0.14138625794E+03  0.36723181324E+03  0.12500083468E+03 0.  0.
          2    1    1    2  501    0 -0.53096096253E+02  0.56598096632E+02 -0.47923956302E+02  0.91209898406E+02  0.00000000000E+00 0. -1.
          1    1    1    2  502    0 -0.17898996126E+03  0.15642768576E+03  0.27615163451E+04  0.27717286216E+04  0.00000000000E+00 0. -1.
         22    1    3    3    0    0  0.13962511941E+03 -0.10051345571E+03  0.12053674920E+02  0.17246280708E+03  0.00000000000E+00 0. -1.
         22    1    3    3    0    0  0.92460938105E+02 -0.11251232668E+03  0.12933258302E+03  0.19476900616E+03  0.00000000000E+00 0. -1.
</event>
<event>
 7    1  0.5993218E-006  0.6915507E+02  0.7818608E-02  0.1452150E+00
          2   -1    0    0  502    0  0.00000000000E+00  0.00000000000E+00  0.26571009226E+04  0.26571009226E+04  0.00000000000E+00 0. -1.
          1   -1    0    0  501    0 -0.00000000000E+00 -0.00000000000E+00 -0.47409121840E+02  0.47409121840E+02  0.00000000000E+00 0. -1.
         25    2    1    2    0    0  0.60568304604E+02  0.81667987744E+02  0.64133849125E+03  0.66126813025E+03  0.12498919946E+03 0.  0.
          2    1    1    2  501    0 -0.20943111440E+02 -0.27263657038E+02 -0.28864930210E+02  0.44889922120E+02  0.00000000000E+00 0. -1.
          1    1    1    2  502    0 -0.39625193164E+02 -0.54404330706E+02  0.19972182397E+04  0.19983519921E+04  0.00000000000E+00 0. -1.
         22    1    3    3    0    0  0.81855933779E+02  0.98544202736E+02  0.58308272587E+03  0.59698979807E+03  0.00000000000E+00 0. -1.
         22    1    3    3    0    0 -0.21287629175E+02 -0.16876214992E+02  0.58255765380E+02  0.64278332184E+02  0.00000000000E+00 0. -1.
</event>
<event>
 7    1  0.5993218E-006  0.5923257E+02  0.7818608E-02  0.1483336E+00
          2   -1    0    0  502    0  0.00000000000E+00  0.00000000000E+00  0.21880517056E+04  0.21880517056E+04  0.00000000000E+00 0. -1.
          1   -1    0    0  501    0 -0.00000000000E+00 -0.00000000000E+00 -0.13483767287E+03  0.13483767287E+03  0.00000000000E+00 0. -1.
         25    2    1    2    0    0  0.47727795373E+02 -0.47213126176E+02  0.83759534664E+03  0.84952808137E+03  0.12499989836E+03 0.  0.
          2    1    1    2  501    0 -0.56897693815E+02  0.16472112324E+02 -0.12186224836E+03  0.13549570333E+03  0.00000000000E+00 0. -1.
          1    1    1    2  502    0  0.91698984423E+01  0.30741013852E+02  0.13374809345E+04  0.13378655938E+04  0.00000000000E+00 0. -1.
         22    1    3    3    0    0  0.43927565692E+02 -0.65266684635E+02  0.82085357735E+03  0.82461504146E+03  0.00000000000E+00 0.  1.
         22    1    3    3    0    0  0.38002296809E+01  0.18053558459E+02  0.16741769285E+02  0.24913039908E+02  0.00000000000E+00 0.  1.
</event>
<event>
 7    1  0.5993218E-006  0.1829170E+03  0.7818608E-02  0.1320077E+00
          2   -1    0    0  502    0  0.00000000000E+00  0.00000000000E+00  0.21962200984E+04  0.21962200984E+04  0.00000000000E+00 0. -1.
          1   -1    0    0  501    0 -0.00000000000E+00 -0.00000000000E+00 -0.42847782061E+03  0.42847782061E+03  0.00000000000E+00 0. -1.
         25    2    1    2    0    0 -0.16288773649E+03 -0.62334768568E+02  0.30219638499E+03  0.37062976107E+03  0.12500290643E+03 0.  0.
          2    1    1    2  501    0  0.15453009905E+03  0.99289399043E+02 -0.37266218437E+03  0.41546966187E+03  0.00000000000E+00 0. -1.
          1    1    1    2  502    0  0.83576374367E+01 -0.36954630476E+02  0.18382080771E+04  0.18385984960E+04  0.00000000000E+00 0. -1.
         22    1    3    3    0    0 -0.21653868090E+02 -0.42229978873E+02  0.14695422414E+02  0.49681148928E+02  0.00000000000E+00 0.  1.
         22    1    3    3    0    0 -0.14123386840E+03 -0.20104789695E+02  0.28750096258E+03  0.32094861214E+03  0.00000000000E+00 0.  1.
</event>
<event>
 7    1  0.5993218E-006  0.9804942E+02  0.7818608E-02  0.1408530E+00
          2   -1    0    0  502    0  0.00000000000E+00  0.00000000000E+00  0.87854082765E+03  0.87854082765E+03  0.00000000000E+00 0. -1.
          1   -1    0    0  501    0 -0.00000000000E+00 -0.00000000000E+00 -0.42973939280E+02  0.42973939280E+02  0.00000000000E+00 0. -1.
         25    2    1    2    0    0  0.16080528996E+02  0.90351618625E+02  0.60559682021E+03  0.62513669777E+03  0.12500553527E+03 0.  0.
          2    1    1    2  501    0  0.16779542206E+02 -0.98039114507E+02  0.46441659963E+02  0.10977271423E+03  0.00000000000E+00 0. -1.
          1    1    1    2  502    0 -0.32860071202E+02  0.76874958824E+01  0.18352840820E+03  0.18660535493E+03  0.00000000000E+00 0. -1.
         22    1    3    3    0    0  0.17897386828E+02  0.87504353760E+02  0.61168660578E+03  0.61817297908E+03  0.00000000000E+00 0. -1.
         22    1    3    3    0    0 -0.18168578324E+01  0.28472648643E+01 -0.60897855706E+01  0.69637186824E+01  0.00000000000E+00 0. -1.
</event>
<event>
 7    1  0.5993218E-006  0.3657168E+02  0.7818608E-02  0.1603214E+00
          2   -1    0    0  502    0  0.00000000000E+00  0.00000000000E+00  0.11937210772E+04  0.11937210772E+04  0.00000000000E+00 0. -1.
          1   -1    0    0  501    0 -0.00000000000E+00 -0.00000000000E+00 -0.12315752745E+04  0.12315752745E+04  0.00000000000E+00 0. -1.
         25    2    1    2    0    0 -0.15168168746E+02  0.50846931526E+02  0.35984863422E+01  0.13584338998E+03  0.12499997483E+03 0.  0.
          2    1    1    2  501    0 -0.78798820388E+01 -0.22524010811E+02 -0.11650340381E+04  0.11652783931E+04  0.00000000000E+00 0. -1.
          1    1    1    2  502    0  0.23048050785E+02 -0.28322920714E+02  0.11235813545E+04  0.11241745686E+04  0.00000000000E+00 0. -1.
         22    1    3    3    0    0 -0.23705173597E+02  0.69765410075E+01  0.59408934477E+02  0.64343056155E+02  0.00000000000E+00 0. -1.
         22    1    3    3    0    0  0.85370048510E+01  0.43870390518E+02 -0.55810448135E+02  0.71500333825E+02  0.00000000000E+00 0. -1.
</event>
<event>
 7    1  0.5993218E-006  0.1530878E+03  0.7818608E-02  0.1360514E+00
          2   -1    0    0  502    0  0.00000000000E+00  0.00000000000E+00  0.66356750868E+03  0.66356750868E+03  0.00000000000E+00 0. -1.
          1   -1    0    0  501    0 -0.00000000000E+00 -0.00000000000E+00 -0.87018668403E+03  0.87018668403E+03  0.00000000000E+00 0. -1.
         25    2    1    2    0    0  0.87146770804E+02  0.87725706352E+02  0.83979787842E+02  0.19484896155E+03  0.12499261511E+03 0.  0.
          2    1    1    2  501    0 -0.10285583568E+03 -0.11548360520E+03 -0.80691720613E+03  0.82160280157E+03  0.00000000000E+00 0. -1.
          1    1    1    2  502    0  0.15709064881E+02  0.27757898853E+02  0.51631824294E+03  0.51730242959E+03  0.00000000000E+00 0. -1.
         22    1    3    3    0    0 -0.11469928182E+02  0.37673351324E+02  0.73977018086E+02  0.83805965524E+02  0.00000000000E+00 0.  1.
         22    1    3    3    0    0  0.98616698986E+02  0.50052355028E+02  0.10002769756E+02  0.11104299602E+03  0.00000000000E+00 0.  1.
</event>
<event>
 7    1  0.5993218E-006  0.9032085E+02  0.7818608E-02  0.1333576E+00
          2   -1    0    0  502    0  0.00000000000E+00  0.00000000000E+00  0.52785875051E+03  0.52785875051E+03  0.00000000000E+00 0. -1.
          1   -1    0    0  501    0 -0.00000000000E+00 -0.00000000000E+00 -0.24313557465E+04  0.24313557465E+04  0.00000000000E+00 0. -1.
         25    2    1    2    0    0 -0.92512534216E+02  0.12057875806E+03  0.53632822562E+02  0.20396023088E+03  0.12500196096E+03 0.  0.
          2    1    1    2  501    0  0.29200115464E+02 -0.61520955003E+02 -0.23509970083E+04  0.23519830798E+04  0.00000000000E+00 0. -1.
          1    1    1    2  502    0  0.63312418752E+02 -0.59057803059E+02  0.39386718981E+03  0.40327118627E+03  0.00000000000E+00 0. -1.
         22    1    3    3    0    0 -0.64331522815E+02 -0.35172686737E+01 -0.33814133360E+01  0.64516276728E+02  0.00000000000E+00 0.  1.
         22    1    3    3    0    0 -0.28181011400E+02  0.12409602674E+03  0.57014235898E+02  0.13944395415E+03  0.00000000000E+00 0.  1.
</event>
<event>
 7    1  0.5993218E-006  0.5198563E+02  0.7818608E-02  0.1563432E+00
          2   -1    0    0  502    0  0.00000000000E+00  0.00000000000E+00  0.14244097732E+04  0.14244097732E+04  0.00000000000E+00 0. -1.
          1   -1    0    0  501    0 -0.00000000000E+00 -0.00000000000E+00 -0.44201823925E+03  0.44201823925E+03  0.00000000000E+00 0. -1.
         25    2    1    2    0    0 -0.17372253145E+02 -0.50139109118E+02  0.22889971388E+03  0.26614930779E+03  0.12499859832E+03 0.  0.
          2    1    1    2  501    0  0.21364146267E+02 -0.17922385574E+01 -0.42254527057E+03  0.42308881402E+03  0.00000000000E+00 0. -1.
          1    1    1    2  502    0 -0.39918931223E+01  0.51931347675E+02  0.11760370906E+04  0.11771898906E+04  0.00000000000E+00 0. -1.
         22    1    3    3    0    0  0.38265277119E+02 -0.51475000757E+02  0.58210472542E+02  0.86616200849E+02  0.00000000000E+00 0.  1.
         22    1    3    3    0    0 -0.55637530264E+02  0.13358916392E+01  0.17068924134E+03  0.17953310694E+03  0.00000000000E+00 0.  1.
</event>
<event>
 7    1  0.5993218E-006  0.3827426E+02  0.7818608E-02  0.1595060E+00
          2   -1    0    0  502    0  0.00000000000E+00  0.00000000000E+00  0.25146634673E+03  0.25146634673E+03  0.00000000000E+00 0. -1.
          1   -1    0    0  501    0 -0.00000000000E+00 -0.00000000000E+00 -0.17725624233E+03  0.17725624233E+03  0.00000000000E+00 0. -1.
         25    2    1    2    0    0 -0.30620959152E+02  0.66904038396E+01  0.14403946789E+03  0.19326983543E+03  0.12499382518E+03 0.  0.
          2    1    1    2  501    0 -0.67607154991E+01 -0.22974792954E+02 -0.14659062916E+03  0.14853403968E+03  0.00000000000E+00 0. -1.
          1    1    1    2  502    0  0.37381674651E+02  0.16284389115E+02  0.76761265672E+02  0.86918713958E+02  0.00000000000E+00 0. -1.
         22    1    3    3    0    0  0.21959462668E+02  0.15536497583E+02 -0.11192929917E+02  0.29135587140E+02  0.00000000000E+00 0. -1.
         22    1    3    3    0    0 -0.52580421821E+02 -0.88460937439E+01  0.15523239780E+03  0.16413424829E+03  0.00000000000E+00 0. -1.
</event>
<event>
 7    1  0.5993218E-006  0.3499896E+02  0.7818608E-02  0.1594302E+00
          2   -1    0    0  502    0  0.00000000000E+00  0.00000000000E+00  0.16837197028E+04  0.16837197028E+04  0.00000000000E+00 0. -1.
          1   -1    0    0  501    0 -0.00000000000E+00 -0.00000000000E+00 -0.75411075232E+03  0.75411075232E+03  0.00000000000E+00 0. -1.
         25    2    1    2    0    0  0.32941152307E+01  0.52808832174E+02 -0.27651612041E+01  0.13576596055E+03  0.12500050391E+03 0.  0.
          2    1    1    2  501    0  0.13210183410E+02 -0.32318439644E+02 -0.68429309273E+03  0.68518320706E+03  0.00000000000E+00 0. -1.
          1    1    1    2  502    0 -0.16504298640E+02 -0.20490392530E+02  0.16166672044E+04  0.16168812875E+04  0.00000000000E+00 0. -1.
         22    1    3    3    0    0  0.59640181460E+02  0.40975174445E+01  0.86847802562E+01  0.60408329739E+02  0.00000000000E+00 0.  1.
         22    1    3    3    0    0 -0.56346066229E+02  0.48711314730E+02 -0.11449941460E+02  0.75357630812E+02  0.00000000000E+00 0.  1.
</event>
<event>
 7    1  0.5993218E-006  0.1652478E+03  0.7818608E-02  0.1354592E+00
          2   -1    0    0  502    0  0.00000000000E+00  0.00000000000E+00  0.87472485613E+03  0.87472485613E+03  0.00000000000E+00 0. -1.
          1   -1    0    0  501    0 -0.00000000000E+00 -0.00000000000E+00 -0.14883755599E+03  0.14883755599E+03  0.00000000000E+00 0. -1.
         25    2    1    2    0    0  0.40702652325E+02 -0.17957147752E+03  0.98383185598E+02  0.24331844253E+03  0.12498796669E+03 0.  0.
          2    1    1    2  501    0 -0.21662626954E+02  0.15503039899E+03  0.46394345662E+01  0.15660529484E+03  0.00000000000E+00 0. -1.
          1    1    1    2  502    0 -0.19040025371E+02  0.24541078532E+02  0.62286467997E+03  0.62363867476E+03  0.00000000000E+00 0. -1.
         22    1    3    3    0    0  0.22556635364E+02  0.12260080957E+02 -0.25433019817E+01  0.25798832706E+02  0.00000000000E+00 0. -1.
         22    1    3    3    0    0  0.18146016961E+02 -0.19183155848E+03  0.10092648758E+03  0.21751960982E+03  0.00000000000E+00 0. -1.
</event>
<event>
 7    1  0.5993218E-006  0.8892693E+02  0.7818608E-02  0.1443039E+00
          2   -1    0    0  502    0  0.00000000000E+00  0.00000000000E+00  0.33191217131E+04  0.33191217131E+04  0.00000000000E+00 0. -1.
          1   -1    0    0  501    0 -0.00000000000E+00 -0.00000000000E+00 -0.38615511360E+03  0.38615511360E+03  0.00000000000E+00 0. -1.
         25    2    1    2    0    0  0.14106490183E+02 -0.89384573334E+02 -0.16522728899E+03  0.22608539641E+03  0.12500381765E+03 0.  0.
          2    1    1    2  501    0  0.26662110153E+02  0.10343041794E+02 -0.18882060241E+03  0.19097399437E+03  0.00000000000E+00 0. -1.
          1    1    1    2  502    0 -0.40768600336E+02  0.79041531540E+02  0.32870144909E+04  0.32882174359E+04  0.00000000000E+00 0. -1.
         22    1    3    3    0    0  0.96793126868E+01 -0.11957595060E+03 -0.10889376449E+03  0.16201836007E+03  0.00000000000E+00 0.  1.
         22    1    3    3    0    0  0.44271774964E+01  0.30191377267E+02 -0.56333524503E+02  0.64067036335E+02  0.00000000000E+00 0.  1.
</event>
<event>
 7    1  0.5993218E-006  0.9607699E+02  0.7818608E-02  0.1327191E+00
          2   -1    0    0  502    0  0.00000000000E+00  0.00000000000E+00  0.66239147284E+03  0.66239147284E+03  0.00000000000E+00 0. -1.
          1   -1    0    0  501    0 -0.00000000000E+00 -0.00000000000E+00 -0.70201736996E+03  0.70201736996E+03  0.00000000000E+00 0. -1.
         25    2    1    2    0    0  0.37861288001E+02 -0.15553108607E+03  0.27786593518E+03  0.34417662844E+03  0.12499871106E+03 0.  0.
          2    1    1    2  501    0 -0.37261960077E+02  0.87818097610E+02 -0.66214913965E+03  0.66898576597E+03  0.00000000000E+00 0. -1.
          1    1    1    2  502    0 -0.59932792487E+00  0.67712988459E+02  0.34465730734E+03  0.35124644838E+03  0.00000000000E+00 0. -1.
         22    1    3    3    0    0 -0.18634303635E+02 -0.86416006101E+02  0.55043517707E+02  0.10413814010E+03  0.00000000000E+00 0.  1.
         22    1    3    3    0    0  0.56495591637E+02 -0.69115079968E+02  0.22282241748E+03  0.24003848834E+03  0.00000000000E+00 0.  1.
</event>
<event>
 7    1  0.5993218E-006  0.1032128E+03  0.7818608E-02  0.1286742E+00
          2   -1    0    0  502    0  0.00000000000E+00  0.00000000000E+00  0.10852594472E+04  0.10852594472E+04  0.00000000000E+00 0. -1.
          1   -1    0    0  501    0 -0.00000000000E+00 -0.00000000000E+00 -0.68523102601E+03  0.68523102601E+03  0.00000000000E+00 0. -1.
         25    2    1    2    0    0  0.15862022785E+02  0.83279026551E+02  0.49807229132E+02  0.15903930169E+03  0.12500295748E+03 0.  0.
          2    1    1    2  501    0 -0.96964081378E+02 -0.41666377828E+02 -0.62405697830E+03  0.63291802968E+03  0.00000000000E+00 0. -1.
          1    1    1    2  502    0  0.81102058594E+02 -0.41612648722E+02  0.97427817037E+03  0.97853314185E+03  0.00000000000E+00 0. -1.
         22    1    3    3    0    0 -0.40976918829E+02  0.84797699729E+02  0.30917051476E+02  0.99124274665E+02  0.00000000000E+00 0.  1.
         22    1    3    3    0    0  0.56838941613E+02 -0.15186731782E+01  0.18890177656E+02  0.59915027029E+02  0.00000000000E+00 0.  1.
</event>
<event>
 7    1  0.5993219E-006  0.7284282E+02  0.7818608E-02  0.1368433E+00
          2   -1    0    0  502    0  0.00000000000E+00  0.00000000000E+00  0.16071917805E+04  0.16071917805E+04  0.00000000000E+00 0. -1.
          1   -1    0    0  501    0 -0.00000000000E+00 -0.00000000000E+00 -0.15180620082E+04  0.15180620082E+04  0.00000000000E+00 0. -1.
         25    2    1    2    0    0 -0.27559649658E+02 -0.13243494446E+03 -0.11900185843E+03  0.21928229322E+03  0.12499893201E+03 0.  0.
          2    1    1    2  501    0  0.13145217488E+02  0.61350772079E+02 -0.13473448109E+04  0.13488049353E+04  0.00000000000E+00 0. -1.
          1    1    1    2  502    0  0.14414432170E+02  0.71084172384E+02  0.15554764417E+04  0.15571665601E+04  0.00000000000E+00 0. -1.
         22    1    3    3    0    0 -0.67015428473E+02 -0.87200939216E+02 -0.33788766636E+02  0.11505108519E+03  0.00000000000E+00 0. -1.
         22    1    3    3    0    0  0.39455778815E+02 -0.45234005247E+02 -0.85213091795E+02  0.10423120802E+03  0.00000000000E+00 0. -1.
</event>
<event>
 7    1  0.5993218E-006  0.6243565E+02  0.7818608E-02  0.1404863E+00
          2   -1    0    0  502    0  0.00000000000E+00  0.00000000000E+00  0.19230942407E+03  0.19230942407E+03  0.00000000000E+00 0. -1.
          1   -1    0    0  501    0 -0.00000000000E+00 -0.00000000000E+00 -0.12129857089E+04  0.12129857089E+04  0.00000000000E+00 0. -1.
         25    2    1    2    0    0  0.33972279178E+01 -0.42973726777E+01 -0.53091956216E+03  0.54546344104E+03  0.12499910187E+03 0.  0.
          2    1    1    2  501    0 -0.65822009970E+02  0.31325914833E+01 -0.66785932427E+03  0.67110239691E+03  0.00000000000E+00 0. -1.
          1    1    1    2  502    0  0.62424782052E+02  0.11647811944E+01  0.17810260156E+03  0.18872929505E+03  0.00000000000E+00 0. -1.
         22    1    3    3    0    0 -0.20517670583E+02 -0.60583269195E+02 -0.27153444070E+03  0.27896641338E+03  0.00000000000E+00 0. -1.
         22    1    3    3    0    0  0.23914898501E+02  0.56285896518E+02 -0.25938512146E+03  0.26649702766E+03  0.00000000000E+00 0. -1.
</event>
<event>
 7    1  0.5993218E-006  0.2889963E+03  0.7818608E-02  0.1294697E+00
          2   -1    0    0  502    0  0.00000000000E+00  0.00000000000E+00  0.31243543282E+03  0.31243543282E+03  0.00000000000E+00 0. -1.
          1   -1    0    0  501    0 -0.00000000000E+00 -0.00000000000E+00 -0.67140177643E+03  0.67140177643E+03  0.00000000000E+00 0. -1.
         25    2    1    2    0    0  0.25430382029E+03 -0.18240734150E+03  0.92151637642E+02  0.34937704677E+03  0.12501809966E+03 0.  0.
          2    1    1    2  501    0 -0.23766270391E+03  0.15718149659E+03 -0.50087132346E+03  0.57624792092E+03  0.00000000000E+00 0. -1.
          1    1    1    2  502    0 -0.16641116381E+02  0.25225844901E+02  0.49753342217E+02  0.58212241557E+02  0.00000000000E+00 0. -1.
         22    1    3    3    0    0  0.17716850472E+02  0.17160408573E+02 -0.46009329251E+01  0.25090536001E+02  0.00000000000E+00 0.  1.
         22    1    3    3    0    0  0.23658696982E+03 -0.19956775007E+03  0.96752570567E+02  0.32428651077E+03  0.00000000000E+00 0.  1.
</event>
<event>
 7    1  0.5993218E-006  0.4256960E+02  0.7818608E-02  0.1543400E+00
          2   -1    0    0  502    0  0.00000000000E+00  0.00000000000E+00  0.21054803840E+03  0.21054803840E+03  0.00000000000E+00 0. -1.
          1   -1    0    0  501    0 -0.00000000000E+00 -0.00000000000E+00 -0.12110356211E+04  0.12110356211E+04  0.00000000000E+00 0. -1.
         25    2    1    2    0    0  0.11101024985E+02 -0.83221024877E+01 -0.31040730501E+03  0.33491726293E+03  0.12499755142E+03 0.  0.
          2    1    1    2  501    0  0.14306868157E+02 -0.26094496233E+02 -0.88581328308E+03  0.88631302692E+03  0.00000000000E+00 0. -1.
          1    1    1    2  502    0 -0.25407893142E+02  0.34416598721E+02  0.19573300543E+03  0.20035336961E+03  0.00000000000E+00 0. -1.
         22    1    3    3    0    0 -0.51911651438E+02  0.13301934219E+02 -0.18879402966E+03  0.19625225259E+03  0.00000000000E+00 0.  1.
         22    1    3    3    0    0  0.63012676423E+02 -0.21624036707E+02 -0.12161327535E+03  0.13866501035E+03  0.00000000000E+00 0.  1.
</event>
<event>
 7    1  0.5993218E-006  0.2345960E+03  0.7818608E-02  0.1337873E+00
          2   -1    0    0  502    0  0.00000000000E+00  0.00000000000E+00  0.88419193449E+03  0.88419193449E+03  0.00000000000E+00 0. -1.
          1   -1    0    0  501    0 -0.00000000000E+00 -0.00000000000E+00 -0.20061641218E+04  0.20061641218E+04  0.00000000000E+00 0. -1.
         25    2    1    2    0    0  0.96580214067E+01  0.22942252698E+03 -0.67419315627E+02  0.26999672525E+03  0.12499957705E+03 0.  0.
          2    1    1    2  501    0 -0.24684274012E+02  0.53361873760E+01 -0.18196959166E+04  0.18198711540E+04  0.00000000000E+00 0. -1.
          1    1    1    2  502    0  0.15026252606E+02 -0.23475871436E+03  0.76514304496E+03  0.80048817698E+03  0.00000000000E+00 0. -1.
         22    1    3    3    0    0  0.35044027198E+02  0.49919706075E+02 -0.64377543625E+02  0.88682179834E+02  0.00000000000E+00 0. -1.
         22    1    3    3    0    0 -0.25386005791E+02  0.17950282091E+03 -0.30417720019E+01  0.18131454542E+03  0.00000000000E+00 0. -1.
</event>
<event>
 7    1  0.5993218E-006  0.1576804E+03  0.7818608E-02  0.1360221E+00
          2   -1    0    0  502    0  0.00000000000E+00  0.00000000000E+00  0.11090870434E+03  0.11090870434E+03  0.00000000000E+00 0. -1.
          1   -1    0    0  501    0 -0.00000000000E+00 -0.00000000000E+00 -0.11783566304E+04  0.11783566304E+04  0.00000000000E+00 0. -1.
         25    2    1    2    0    0  0.14227670847E+03 -0.42216427300E+02 -0.39446855801E+03  0.43960857322E+03  0.12500146350E+03 0.  0.
          2    1    1    2  501    0 -0.38827315101E+00 -0.31039799163E+02 -0.68851950569E+03  0.68921892719E+03  0.00000000000E+00 0. -1.
          1    1    1    2  502    0 -0.14188843532E+03  0.73256226462E+02  0.15540137672E+02  0.16043783429E+03  0.00000000000E+00 0. -1.
         22    1    3    3    0    0  0.81116571094E+02  0.39085558388E+02 -0.21885018882E+03  0.23664949636E+03  0.00000000000E+00 0. -1.
         22    1    3    3    0    0  0.61160137378E+02 -0.81301985688E+02 -0.17561836919E+03  0.20295907686E+03  0.00000000000E+00 0. -1.
</event>
<event>
 7    1  0.5993218E-006  0.8287232E+02  0.7818608E-02  0.1363685E+00
          2   -1    0    0  502    0  0.00000000000E+00  0.00000000000E+00  0.29057824615E+03  0.29057824615E+03  0.00000000000E+00 0. -1.
          1   -1    0    0  501    0 -0.00000000000E+00 -0.00000000000E+00 -0.54089924560E+03  0.54089924560E+03  0.00000000000E+00 0. -1.
         25    2    1    2    0    0  0.82699242960E+02  0.10994964971E+03  0.24432511886E+01  0.18590303700E+03  0.12500351768E+03 0.  0.
          2    1    1    2  501    0 -0.43547577174E+02 -0.68010327192E+02 -0.44123491436E+03  0.44856442762E+03  0.00000000000E+00 0. -1.
          1    1    1    2  502    0 -0.39151665786E+02 -0.41939322521E+02  0.18847066371E+03  0.19701002712E+03  0.00000000000E+00 0. -1.
         22    1    3    3    0    0  0.85635800638E+02  0.25728377113E+02  0.34356329906E+02  0.95790381273E+02  0.00000000000E+00 0. -1.
         22    1    3    3    0    0 -0.29365576781E+01  0.84221272600E+02 -0.31913078717E+02  0.90112655729E+02  0.00000000000E+00 0. -1.
</event>
<event>
 7    1  0.5993218E-006  0.1571830E+03  0.7818608E-02  0.1268386E+00
          2   -1    0    0  502    0  0.00000000000E+00  0.00000000000E+00  0.23167139345E+04  0.23167139345E+04  0.00000000000E+00 0. -1.
          1   -1    0    0  501    0 -0.00000000000E+00 -0.00000000000E+00 -0.57219906969E+02  0.57219906969E+02  0.00000000000E+00 0. -1.
         25    2    1    2    0    0  0.39919143651E+02  0.97197151506E+02  0.59697946908E+03  0.61891083565E+03  0.12500124676E+03 0.  0.
          2    1    1    2  501    0 -0.94488798248E+02 -0.14313108006E+03  0.11642891272E+03  0.20729286237E+03  0.00000000000E+00 0. -1.
          1    1    1    2  502    0  0.54569654598E+02  0.45933928555E+02  0.15460856458E+04  0.15477301435E+04  0.00000000000E+00 0. -1.
         22    1    3    3    0    0 -0.59215884975E+01  0.67430064858E+02  0.52063954268E+03  0.52502134458E+03  0.00000000000E+00 0. -1.
         22    1    3    3    0    0  0.45840732148E+02  0.29767086647E+02  0.76339926396E+02  0.93889491071E+02  0.00000000000E+00 0. -1.
</event>
<event>
 7    1  0.5993218E-006  0.3530148E+02  0.7818608E-02  0.1606814E+00
          2   -1    0    0  502    0  0.00000000000E+00  0.00000000000E+00  0.12676985905E+04  0.12676985905E+04  0.00000000000E+00 0. -1.
          1   -1    0    0  501    0 -0.00000000000E+00 -0.00000000000E+00 -0.39467742443E+02  0.39467742443E+02  0.00000000000E+00 0. -1.
         25    2    1    2    0    0  0.34900064697E+02 -0.42131397976E+02  0.15862565743E+03  0.20923756687E+03  0.12500076392E+03 0.  0.
          2    1    1    2  501    0 -0.22314738039E+02  0.93511051497E+01 -0.33266842824E+01  0.24422480005E+02  0.00000000000E+00 0. -1.
          1    1    1    2  502    0 -0.12585326658E+02  0.32780292826E+02  0.10729318749E+04  0.10735062861E+04  0.00000000000E+00 0. -1.
         22    1    3    3    0    0 -0.45359197953E+01 -0.21301902091E+02  0.16297796672E+03  0.16442677165E+03  0.00000000000E+00 0. -1.
         22    1    3    3    0    0  0.39435984493E+02 -0.20829495885E+02 -0.43523092821E+01  0.44810795215E+02  0.00000000000E+00 0. -1.
</event>
<event>
 7    1  0.5993218E-006  0.9277494E+02  0.7818608E-02  0.1342822E+00
          2   -1    0    0  502    0  0.00000000000E+00  0.00000000000E+00  0.70656401555E+03  0.70656401555E+03  0.00000000000E+00 0. -1.
          1   -1    0    0  501    0 -0.00000000000E+00 -0.00000000000E+00 -0.16930136883E+03  0.16930136883E+03  0.00000000000E+00 0. -1.
         25    2    1    2    0    0 -0.45684186689E+02  0.13895029682E+03  0.37677652650E+03  0.42306001214E+03  0.12499997222E+03 0.  0.
          2    1    1    2  501    0  0.47163565846E+02 -0.77786850568E+02 -0.12848528089E+03  0.15742828040E+03  0.00000000000E+00 0. -1.
          1    1    1    2  502    0 -0.14793791570E+01 -0.61163446247E+02  0.28897140111E+03  0.29537709183E+03  0.00000000000E+00 0. -1.
         22    1    3    3    0    0 -0.18418530601E+02  0.13971480809E+03  0.36854406050E+03  0.39456836467E+03  0.00000000000E+00 0.  1.
         22    1    3    3    0    0 -0.27265656087E+02 -0.76451127023E+00  0.82324659984E+01  0.28491647474E+02  0.00000000000E+00 0.  1.
</event>
<event>
 7    1  0.5993218E-006  0.5539684E+02  0.7818608E-02  0.1433385E+00
          2   -1    0    0  502    0  0.00000000000E+00  0.00000000000E+00  0.64064638936E+03  0.64064638936E+03  0.00000000000E+00 0. -1.
          1   -1    0    0  501    0 -0.00000000000E+00 -0.00000000000E+00 -0.87803584295E+03  0.87803584295E+03  0.00000000000E+00 0. -1.
         25    2    1    2    0    0  0.57503197197E+02 -0.84197932113E+02  0.76989057705E+01  0.16149368584E+03  0.12500011182E+03 0.  0.
          2    1    1    2  501    0 -0.35615437189E+02  0.34162098013E+02 -0.79903432087E+03  0.80055690256E+03  0.00000000000E+00 0. -1.
          1    1    1    2  502    0 -0.21887760008E+02  0.50035834100E+02  0.55394596151E+03  0.55663164391E+03  0.00000000000E+00 0. -1.
         22    1    3    3    0    0  0.93869151335E+02 -0.50405915351E+02  0.24050835618E+02  0.10922736181E+03  0.00000000000E+00 0.  1.
         22    1    3    3    0    0 -0.36365954137E+02 -0.33792016762E+02 -0.16351929847E+02  0.52266324023E+02  0.00000000000E+00 0.  1.
</event>
<event>
 7    1  0.5993218E-006  0.9111322E+02  0.7818608E-02  0.1451865E+00
          2   -1    0    0  502    0  0.00000000000E+00  0.00000000000E+00  0.11046415306E+04  0.11046415306E+04  0.00000000000E+00 0. -1.
          1   -1    0    0  501    0 -0.00000000000E+00 -0.00000000000E+00 -0.38450154611E+03  0.38450154611E+03  0.00000000000E+00 0. -1.
         25    2    1    2    0    0  0.56503938357E+02 -0.77388960663E+02  0.90584228521E+02  0.18169433560E+03  0.12500233138E+03 0.  0.
          2    1    1    2  501    0 -0.31611099861E+02  0.85394434376E+02 -0.33265005011E+03  0.34488770186E+03  0.00000000000E+00 0. -1.
          1    1    1    2  502    0 -0.24892838496E+02 -0.80054737132E+01  0.96220580609E+03  0.96256103925E+03  0.00000000000E+00 0. -1.
         22    1    3    3    0    0  0.19508367187E+02  0.10918588339E+02  0.82652339126E+02  0.85622433536E+02  0.00000000000E+00 0. -1.
         22    1    3    3    0    0  0.36995571170E+02 -0.88307549002E+02  0.79318893953E+01  0.96071902065E+02  0.00000000000E+00 0. -1.
</event>
<event>
 7    1  0.5993218E-006  0.1121248E+03  0.7818608E-02  0.1421860E+00
          2   -1    0    0  502    0  0.00000000000E+00  0.00000000000E+00  0.21215704761E+04  0.21215704761E+04  0.00000000000E+00 0. -1.
          1   -1    0    0  501    0 -0.00000000000E+00 -0.00000000000E+00 -0.77481725729E+03  0.77481725729E+03  0.00000000000E+00 0. -1.
         25    2    1    2    0    0  0.47122000878E+02 -0.10656589538E+03  0.62610103093E+03  0.64900101141E+03  0.12499215515E+03 0.  0.
          2    1    1    2  501    0 -0.20751820592E+02  0.11017889021E+03 -0.75913030700E+03  0.76736487339E+03  0.00000000000E+00 0. -1.
          1    1    1    2  502    0 -0.26370180286E+02 -0.36129948289E+01  0.14797824948E+04  0.14800218486E+04  0.00000000000E+00 0. -1.
         22    1    3    3    0    0  0.79616522423E+02 -0.11151306889E+03  0.53043006102E+03  0.54784122226E+03  0.00000000000E+00 0.  1.
         22    1    3    3    0    0 -0.32494521544E+02  0.49471735100E+01  0.95670969911E+02  0.10115978914E+03  0.00000000000E+00 0.  1.
</event>
<event>
 7    1  0.5993218E-006  0.7439890E+02  0.7818608E-02  0.1456332E+00
          2   -1    0    0  502    0  0.00000000000E+00  0.00000000000E+00  0.18000793053E+04  0.18000793053E+04  0.00000000000E+00 0. -1.
          1   -1    0    0  501    0 -0.00000000000E+00 -0.00000000000E+00 -0.71651237136E+03  0.71651237136E+03  0.00000000000E+00 0. -1.
         25    2    1    2    0    0  0.84001733458E+01 -0.43685317639E+02  0.42861983577E+02  0.13943327881E+03  0.12500207884E+03 0.  0.
          2    1    1    2  501    0 -0.79404878794E+01  0.74674038535E+02 -0.66597580551E+03  0.67019626745E+03  0.00000000000E+00 0. -1.
          1    1    1    2  502    0 -0.45968546639E+00 -0.30988720896E+02  0.17066807559E+04  0.17069621304E+04  0.00000000000E+00 0. -1.
         22    1    3    3    0    0 -0.17999162319E+02 -0.31743484990E+02 -0.38512052061E+02  0.53054658961E+02  0.00000000000E+00 0. -1.
         22    1    3    3    0    0  0.26399335665E+02 -0.11941832649E+02  0.81374035638E+02  0.86378619847E+02  0.00000000000E+00 0. -1.
</event>
<event>
 7    1  0.5993218E-006  0.5073707E+02  0.7818608E-02  0.1458592E+00
          2   -1    0    0  502    0  0.00000000000E+00  0.00000000000E+00  0.18520774109E+03  0.18520774109E+03  0.00000000000E+00 0. -1.
          1   -1    0    0  501    0 -0.00000000000E+00 -0.00000000000E+00 -0.20613409376E+03  0.20613409376E+03  0.00000000000E+00 0. -1.
         25    2    1    2    0    0 -0.13232563288E+02 -0.10578725138E+02  0.48549880557E+02  0.13515891842E+03  0.12499532860E+03 0.  0.
          2    1    1    2  501    0 -0.18722116911E+01  0.52652510874E+02 -0.15279829702E+03  0.16162645715E+03  0.00000000000E+00 0. -1.
          1    1    1    2  502    0  0.15104774979E+02 -0.42073785735E+02  0.83322063800E+02  0.94556459267E+02  0.00000000000E+00 0. -1.
         22    1    3    3    0    0  0.18967884027E+02 -0.46638437156E+02  0.66656995867E+02  0.83534900149E+02  0.00000000000E+00 0.  1.
         22    1    3    3    0    0 -0.32200447315E+02  0.36059712018E+02 -0.18107115310E+02  0.51624018276E+02  0.00000000000E+00 0.  1.
</event>
<event>
 7    1  0.5993218E-006  0.1720767E+03  0.7818608E-02  0.1245478E+00
          2   -1    0    0  502    0  0.00000000000E+00  0.00000000000E+00  0.16887016924E+04  0.16887016924E+04  0.00000000000E+00 0. -1.
          1   -1    0    0  501    0 -0.00000000000E+00 -0.00000000000E+00 -0.79325759937E+03  0.79325759937E+03  0.00000000000E+00 0. -1.
         25    2    1    2    0    0  0.92636647380E+02 -0.35758208416E+02  0.55103120824E+03  0.57369087399E+03  0.12500251412E+03 0.  0.
          2    1    1    2  501    0 -0.17242413237E+03  0.18189708152E+02 -0.77080392407E+03  0.79006305841E+03  0.00000000000E+00 0. -1.
          1    1    1    2  502    0  0.79787484986E+02  0.17568500264E+02  0.11152168089E+04  0.11182053594E+04  0.00000000000E+00 0. -1.
         22    1    3    3    0    0  0.10608367122E+03 -0.41173498185E+02  0.54690583797E+03  0.55861883056E+03  0.00000000000E+00 0. -1.
         22    1    3    3    0    0 -0.13447023838E+02  0.54152897690E+01  0.41253702765E+01  0.15072043434E+02  0.00000000000E+00 0. -1.
</event>
<event>
 7    1  0.5993218E-006  0.9668892E+02  0.7818608E-02  0.1353086E+00
          2   -1    0    0  502    0  0.00000000000E+00  0.00000000000E+00  0.72797393899E+03  0.72797393899E+03  0.00000000000E+00 0. -1.
          1   -1    0    0  501    0 -0.00000000000E+00 -0.00000000000E+00 -0.12560781688E+04  0.12560781688E+04  0.00000000000E+00 0. -1.
         25    2    1    2    0    0  0.53208839386E+02  0.90600627822E+02 -0.10159323619E+02  0.16361855401E+03  0.12501265939E+03 0.  0.
          2    1    1    2  501    0 -0.53395168327E+02  0.63208657865E+01 -0.11649596153E+04  0.11661997696E+04  0.00000000000E+00 0. -1.
          1    1    1    2  502    0  0.18632894116E+00 -0.96921493609E+02  0.64701470907E+03  0.65423378421E+03  0.00000000000E+00 0. -1.
         22    1    3    3    0    0  0.10307004891E+01  0.50400633601E+02 -0.61920373192E+02  0.79846219868E+02  0.00000000000E+00 0. -1.
         22    1    3    3    0    0  0.52178138897E+02  0.40199994221E+02  0.51761049573E+02  0.83772334138E+02  0.00000000000E+00 0. -1.
</event>
<event>
 7    1  0.5993218E-006  0.1404993E+03  0.7818608E-02  0.1312458E+00
          2   -1    0    0  502    0  0.00000000000E+00  0.00000000000E+00  0.39410442110E+03  0.39410442110E+03  0.00000000000E+00 0. -1.
          1   -1    0    0  501    0 -0.00000000000E+00 -0.00000000000E+00 -0.23394087508E+03  0.23394087508E+03  0.00000000000E+00 0. -1.
         25    2    1    2    0    0 -0.93717917989E+02 -0.22269148337E+02 -0.12601590382E+03  0.20195215361E+03  0.12500280482E+03 0.  0.
          2    1    1    2  501    0 -0.50812572100E+02  0.14430025035E+02 -0.41952809845E+02  0.67455032131E+02  0.00000000000E+00 0. -1.
          1    1    1    2  502    0  0.14453049009E+03  0.78391233017E+01  0.32813225968E+03  0.35863811044E+03  0.00000000000E+00 0. -1.
         22    1    3    3    0    0 -0.31244396133E+02 -0.60441673152E+02 -0.16155033200E+02  0.69931346626E+02  0.00000000000E+00 0.  1.
         22    1    3    3    0    0 -0.62473521856E+02  0.38172524816E+02 -0.10986087062E+03  0.13202080698E+03  0.00000000000E+00 0.  1.
</event>
<event>
 7    1  0.5993218E-006  0.6903858E+02  0.7818608E-02  0.1465880E+00
          2   -1    0    0  502    0  0.00000000000E+00  0.00000000000E+00  0.11829636707E+03  0.11829636707E+03  0.00000000000E+00 0. -1.
          1   -1    0    0  501    0 -0.00000000000E+00 -0.00000000000E+00 -0.27295403798E+03  0.27295403798E+03  0.00000000000E+00 0. -1.
         25    2    1    2    0    0  0.72408448705E+01 -0.95455823210E+02 -0.84434820016E+02  0.17865481336E+03  0.12499623789E+03 0.  0.
          2    1    1    2  501    0 -0.22357005297E+01  0.64696431378E+02 -0.12997562536E+03  0.14520430358E+03  0.00000000000E+00 0. -1.
          1    1    1    2  502    0 -0.50051443408E+01  0.30759391832E+02  0.59752774468E+02  0.67391288105E+02  0.00000000000E+00 0. -1.
         22    1    3    3    0    0  0.18673498041E+01 -0.10569437597E+03 -0.13251203401E+02  0.10653817391E+03  0.00000000000E+00 0. -1.
         22    1    3    3    0    0  0.53734950664E+01  0.10238552764E+02 -0.71183616615E+02  0.72116639455E+02  0.00000000000E+00 0. -1.
</event>
<event>
 7    1  0.5993218E-006  0.1021652E+03  0.7818608E-02  0.1451094E+00
          2   -1    0    0  502    0  0.00000000000E+00  0.00000000000E+00  0.57819464877E+03  0.57819464877E+03  0.00000000000E+00 0. -1.
          1   -1    0    0  501    0 -0.00000000000E+00 -0.00000000000E+00 -0.11192050423E+04  0.11192050423E+04  0.00000000000E+00 0. -1.
         25    2    1    2    0    0  0.10462752112E+02 -0.11648318713E+03  0.26304184884E+03  0.31383984115E+03  0.12500651817E+03 0.  0.
          2    1    1    2  501    0 -0.13814151158E+02  0.18952061919E+02 -0.10854588556E+04  0.10857121804E+04  0.00000000000E+00 0. -1.
          1    1    1    2  502    0  0.33513990461E+01  0.97531125213E+02  0.28140661325E+03  0.29784766952E+03  0.00000000000E+00 0. -1.
         22    1    3    3    0    0 -0.52145962177E+02 -0.51857840514E+02  0.16566996508E+03  0.18125941168E+03  0.00000000000E+00 0. -1.
         22    1    3    3    0    0  0.62608714289E+02 -0.64625346618E+02  0.97371883760E+02  0.13258042947E+03  0.00000000000E+00 0. -1.
</event>
<event>
 7    1  0.5993218E-006  0.1396458E+03  0.7818608E-02  0.1276385E+00
          2   -1    0    0  502    0  0.00000000000E+00  0.00000000000E+00  0.25298742554E+04  0.25298742554E+04  0.00000000000E+00 0. -1.
          1   -1    0    0  501    0 -0.00000000000E+00 -0.00000000000E+00 -0.20331404282E+03  0.20331404282E+03  0.00000000000E+00 0. -1.
         25    2    1    2    0    0  0.72244644489E+02 -0.16520740481E+02  0.27573691869E+03  0.31168519209E+03  0.12499834844E+03 0.  0.
          2    1    1    2  501    0 -0.13473098794E+03  0.56779295460E+02 -0.15578244695E+03  0.21364573078E+03  0.00000000000E+00 0. -1.
          1    1    1    2  502    0  0.62486343446E+02 -0.40258554978E+02  0.22066057408E+04  0.22078573753E+04  0.00000000000E+00 0. -1.
         22    1    3    3    0    0 -0.20538576313E+02 -0.87645980833E+01  0.16720038153E+03  0.16868496934E+03  0.00000000000E+00 0.  1.
         22    1    3    3    0    0  0.92783220802E+02 -0.77561423979E+01  0.10853653717E+03  0.14300022275E+03  0.00000000000E+00 0.  1.
</event>
<event>
 7    1  0.5993218E-006  0.7869105E+02  0.7818608E-02  0.1370708E+00
          2   -1    0    0  502    0  0.00000000000E+00  0.00000000000E+00  0.60652886074E+03  0.60652886074E+03  0.00000000000E+00 0. -1.
          1   -1    0    0  501    0 -0.00000000000E+00 -0.00000000000E+00 -0.10050186142E+04  0.10050186142E+04  0.00000000000E+00 0. -1.
         25    2    1    2    0    0  0.30186884271E+02  0.10334963602E+03  0.75298473660E+02  0.18133942484E+03  0.12498692579E+03 0.  0.
          2    1    1    2  501    0  0.19805354627E+02 -0.75975814164E+02 -0.94867231795E+03  0.95191582782E+03  0.00000000000E+00 0. -1.
          1    1    1    2  502    0 -0.49992238897E+02 -0.27373821853E+02  0.47488409089E+03  0.47829222223E+03  0.00000000000E+00 0. -1.
         22    1    3    3    0    0 -0.14622619623E+02  0.69254084311E+01 -0.28483915329E+02  0.32758445003E+02  0.00000000000E+00 0.  1.
         22    1    3    3    0    0  0.44809503894E+02  0.96424227585E+02  0.10378238899E+03  0.14858097984E+03  0.00000000000E+00 0.  1.
</event>
<event>
 7    1  0.5993218E-006  0.1637729E+03  0.7818608E-02  0.1276126E+00
          2   -1    0    0  502    0  0.00000000000E+00  0.00000000000E+00  0.66629545537E+03  0.66629545537E+03  0.00000000000E+00 0. -1.
          1   -1    0    0  501    0 -0.00000000000E+00 -0.00000000000E+00 -0.74465752699E+03  0.74465752699E+03  0.00000000000E+00 0. -1.
         25    2    1    2    0    0  0.74742502059E+02  0.20491385862E+03  0.20702249152E+03  0.32566892042E+03  0.12500321061E+03 0.  0.
          2    1    1    2  501    0 -0.78692166588E+02 -0.14149763397E+03 -0.67314996588E+03  0.69234739407E+03  0.00000000000E+00 0. -1.
          1    1    1    2  502    0  0.39496645297E+01 -0.63416224647E+02  0.38776540274E+03  0.39293666787E+03  0.00000000000E+00 0. -1.
         22    1    3    3    0    0  0.22147879587E+02  0.19631877922E+03  0.15402132754E+03  0.25050780623E+03  0.00000000000E+00 0. -1.
         22    1    3    3    0    0  0.52594622472E+02  0.85950793996E+01  0.53001163974E+02  0.75161114185E+02  0.00000000000E+00 0. -1.
</event>
<event>
 7    1  0.5993218E-006  0.1432124E+03  0.7818608E-02  0.1336421E+00
          2   -1    0    0  502    0  0.00000000000E+00  0.00000000000E+00  0.11196207419E+04  0.11196207419E+04  0.00000000000E+00 0. -1.
          1   -1    0    0  501    0 -0.00000000000E+00 -0.00000000000E+00 -0.23760376487E+03  0.23760376487E+03  0.00000000000E+00 0. -1.
         25    2    1    2    0    0 -0.81250999994E+02 -0.15824915899E+03  0.45106218952E+02  0.22204542169E+03  0.12500030793E+03 0.  0.
          2    1    1    2  501    0  0.33393791814E+02  0.25299325200E+02 -0.14101030975E+03  0.14710237471E+03  0.00000000000E+00 0. -1.
          1    1    1    2  502    0  0.47857208180E+02  0.13294983379E+03  0.97792106785E+03  0.98807671040E+03  0.00000000000E+00 0. -1.
         22    1    3    3    0    0  0.24770498245E+02 -0.16423469673E+02  0.33218339648E+02  0.44573153673E+02  0.00000000000E+00 0.  1.
         22    1    3    3    0    0 -0.10602149824E+03 -0.14182568932E+03  0.11887879305E+02  0.17747226802E+03  0.00000000000E+00 0.  1.
</event>
<event>
 7    1  0.5993218E-006  0.1025399E+03  0.7818608E-02  0.1302141E+00
          2   -1    0    0  502    0  0.00000000000E+00  0.00000000000E+00  0.22708463287E+03  0.22708463287E+03  0.00000000000E+00 0. -1.
          1   -1    0    0  501    0 -0.00000000000E+00 -0.00000000000E+00 -0.49580060202E+04  0.49580060202E+04  0.00000000000E+00 0. -1.
         25    2    1    2    0    0 -0.86973281491E+02  0.31851652111E+02 -0.10331340541E+03  0.18675571477E+03  0.12500063131E+03 0.  0.
          2    1    1    2  501    0 -0.83806825709E+01 -0.79067814377E+02 -0.47973451929E+04  0.47980040490E+04  0.00000000000E+00 0. -1.
          1    1    1    2  502    0  0.95353964062E+02  0.47216162267E+02  0.16973721090E+03  0.20033088930E+03  0.00000000000E+00 0. -1.
         22    1    3    3    0    0 -0.58465536368E+02  0.77712464270E+02 -0.44608071628E+02  0.10699217775E+03  0.00000000000E+00 0.  1.
         22    1    3    3    0    0 -0.28507745124E+02 -0.45860812159E+02 -0.58705333777E+02  0.79763537019E+02  0.00000000000E+00 0.  1.
</event>
<event>
 7    1  0.5993218E-006  0.1165457E+03  0.7818608E-02  0.1266211E+00
          2   -1    0    0  502    0  0.00000000000E+00  0.00000000000E+00  0.26529530717E+04  0.26529530717E+04  0.00000000000E+00 0. -1.
          1   -1    0    0  501    0 -0.00000000000E+00 -0.00000000000E+00 -0.65661199346E+03  0.65661199346E+03  0.00000000000E+00 0. -1.
         25    2    1    2    0    0 -0.20417058515E+03 -0.55179525754E+02  0.25465219932E+03  0.35384409370E+03  0.12500996809E+03 0.  0.
          2    1    1    2  501    0  0.11358733305E+03  0.17122976042E+02 -0.60054238979E+03  0.61142983283E+03  0.00000000000E+00 0. -1.
          1    1    1    2  502    0  0.90583252106E+02  0.38056549712E+02  0.23422312687E+04  0.23442911386E+04  0.00000000000E+00 0. -1.
         22    1    3    3    0    0 -0.13060926254E+03  0.21075759647E+02  0.18348903485E+03  0.22621050598E+03  0.00000000000E+00 0.  1.
         22    1    3    3    0    0 -0.73561322613E+02 -0.76255285401E+02  0.71163164469E+02  0.12763358772E+03  0.00000000000E+00 0.  1.
</event>
<event>
 7    1  0.5993218E-006  0.1680095E+03  0.7818608E-02  0.1293637E+00
          2   -1    0    0  502    0  0.00000000000E+00  0.00000000000E+00  0.46678106312E+03  0.46678106312E+03  0.00000000000E+00 0. -1.
          1   -1    0    0  501    0 -0.00000000000E+00 -0.00000000000E+00 -0.15180271779E+04  0.15180271779E+04  0.00000000000E+00 0. -1.
         25    2    1    2    0    0 -0.10185522549E+03  0.18108036323E+03  0.12016637062E+03  0.27060534777E+03  0.12499085048E+03 0.  0.
          2    1    1    2  501    0  0.18022768326E+02 -0.49307463670E+02 -0.14198132790E+04  0.14207835139E+04  0.00000000000E+00 0. -1.
          1    1    1    2  502    0  0.83832457166E+02 -0.13177289956E+03  0.24840079359E+03  0.29341937937E+03  0.00000000000E+00 0. -1.
         22    1    3    3    0    0 -0.11300951607E+03  0.14968927450E+03  0.51840373880E+02  0.19459047764E+03  0.00000000000E+00 0.  1.
         22    1    3    3    0    0  0.11154290575E+02  0.31391088727E+02  0.68325996743E+02  0.76014870128E+02  0.00000000000E+00 0.  1.
</event>
<event>
 7    1  0.5993218E-006  0.1442953E+03  0.7818608E-02  0.1251381E+00
          2   -1    0    0  502    0  0.00000000000E+00  0.00000000000E+00  0.55201065679E+03  0.55201065679E+03  0.00000000000E+00 0. -1.
          1   -1    0    0  501    0 -0.00000000000E+00 -0.00000000000E+00 -0.50696689782E+03  0.50696689782E+03  0.00000000000E+00 0. -1.
         25    2    1    2    0    0 -0.20509079958E+03 -0.27158026795E+01  0.10295009563E+03  0.26132954710E+03  0.12499919336E+03 0.  0.
          2    1    1    2  501    0  0.77183848451E+02  0.49762419480E+02 -0.40996833746E+03  0.42012817399E+03  0.00000000000E+00 0. -1.
          1    1    1    2  502    0  0.12790695113E+03 -0.47046616800E+02  0.35206200081E+03  0.37751983353E+03  0.00000000000E+00 0. -1.
         22    1    3    3    0    0 -0.10497881684E+03 -0.63558105744E+02  0.59474239129E+02  0.13637217425E+03  0.00000000000E+00 0. -1.
         22    1    3    3    0    0 -0.10011198274E+03  0.60842303065E+02  0.43475856497E+02  0.12495737284E+03  0.00000000000E+00 0. -1.
</event>
<event>
 7    1  0.5993218E-006  0.8123563E+02  0.7818608E-02  0.1362234E+00
          2   -1    0    0  502    0  0.00000000000E+00  0.00000000000E+00  0.15670206211E+03  0.15670206211E+03  0.00000000000E+00 0. -1.
          1   -1    0    0  501    0 -0.00000000000E+00 -0.00000000000E+00 -0.76870052165E+03  0.76870052165E+03  0.00000000000E+00 0. -1.
         25    2    1    2    0    0 -0.74200858377E+02 -0.99760650282E+02 -0.41242360437E+03  0.44853376559E+03  0.12502541625E+03 0.  0.
          2    1    1    2  501    0  0.55105397142E+02  0.21756485050E+02 -0.32367420813E+03  0.32905158022E+03  0.00000000000E+00 0. -1.
          1    1    1    2  502    0  0.19095461235E+02  0.78004165232E+02  0.12409935295E+03  0.14781723795E+03  0.00000000000E+00 0. -1.
         22    1    3    3    0    0 -0.64855951741E+02  0.45639408244E+01 -0.10242179231E+03  0.12131507561E+03  0.00000000000E+00 0.  1.
         22    1    3    3    0    0 -0.93449066364E+01 -0.10432459111E+03 -0.31000181206E+03  0.32721868998E+03  0.00000000000E+00 0.  1.
</event>
<event>
 7    1  0.5993218E-006  0.8758308E+02  0.7818608E-02  0.1403183E+00
          2   -1    0    0  502    0  0.00000000000E+00  0.00000000000E+00  0.16336403929E+04  0.16336403929E+04  0.00000000000E+00 0. -1.
          1   -1    0    0  501    0 -0.00000000000E+00 -0.00000000000E+00 -0.10334028158E+03  0.10334028158E+03  0.00000000000E+00 0. -1.
         25    2    1    2    0    0  0.80399294674E+02 -0.13245039663E+02  0.53682986251E+03  0.55718035443E+03  0.12499667365E+03 0.  0.
          2    1    1    2  501    0 -0.71439325614E+02  0.51612649833E+02 -0.71875850283E+02  0.11372590171E+03  0.00000000000E+00 0. -1.
          1    1    1    2  502    0 -0.89599690606E+01 -0.38367610170E+02  0.10653460991E+04  0.10660744183E+04  0.00000000000E+00 0. -1.
         22    1    3    3    0    0 -0.21794716285E+02  0.54215084462E+01  0.20191471194E+02  0.30200958937E+02  0.00000000000E+00 0. -1.
         22    1    3    3    0    0  0.10219401096E+03 -0.18666548109E+02  0.51663839131E+03  0.52697939549E+03  0.00000000000E+00 0. -1.
</event>
<event>
 7    1  0.5993218E-006  0.4821152E+02  0.7818608E-02  0.1542733E+00
          2   -1    0    0  502    0  0.00000000000E+00  0.00000000000E+00  0.14222146817E+04  0.14222146817E+04  0.00000000000E+00 0. -1.
          1   -1    0    0  501    0 -0.00000000000E+00 -0.00000000000E+00 -0.20365474056E+02  0.20365474056E+02  0.00000000000E+00 0. -1.
         25    2    1    2    0    0 -0.15931746470E+02  0.17627965478E+02  0.98380937215E+03  0.99200335890E+03  0.12500087051E+03 0.  0.
          2    1    1    2  501    0  0.39803996896E+02 -0.28878256350E+02  0.22365574307E+02  0.54023427999E+02  0.00000000000E+00 0. -1.
          1    1    1    2  502    0 -0.23872250426E+02  0.11250290872E+02  0.39567426115E+03  0.39655336882E+03  0.00000000000E+00 0. -1.
         22    1    3    3    0    0 -0.59355510637E+02 -0.37492052513E+01  0.79023227049E+03  0.79246714411E+03  0.00000000000E+00 0.  1.
         22    1    3    3    0    0  0.43423764167E+02  0.21377170729E+02  0.19357710167E+03  0.19953621479E+03  0.00000000000E+00 0.  1.
</event>
<event>
 7    1  0.5993218E-006  0.9812248E+02  0.7818608E-02  0.1302850E+00
          2   -1    0    0  502    0  0.00000000000E+00  0.00000000000E+00  0.29359851275E+04  0.29359851275E+04  0.00000000000E+00 0. -1.
          1   -1    0    0  501    0 -0.00000000000E+00 -0.00000000000E+00 -0.84509291025E+03  0.84509291025E+03  0.00000000000E+00 0. -1.
         25    2    1    2    0    0 -0.14096182046E+03  0.44022598295E+01  0.18129207155E+03  0.26149822255E+03  0.12499956189E+03 0.  0.
          2    1    1    2  501    0  0.78535593903E+02 -0.58417515192E+02 -0.80138389262E+03  0.80733920315E+03  0.00000000000E+00 0. -1.
          1    1    1    2  502    0  0.62426226557E+02  0.54015255362E+02  0.27109840384E+04  0.27122406121E+04  0.00000000000E+00 0. -1.
         22    1    3    3    0    0  0.13611592541E+02 -0.26639319937E+02  0.20218770585E+02  0.36107166909E+02  0.00000000000E+00 0.  1.
         22    1    3    3    0    0 -0.15457341300E+03  0.31041579767E+02  0.16107330096E+03  0.22539105565E+03  0.00000000000E+00 0.  1.
</event>
<event>
 7    1  0.5993218E-006  0.6639538E+02  0.7818608E-02  0.1450574E+00
          2   -1    0    0  502    0  0.00000000000E+00  0.00000000000E+00  0.39717881206E+04  0.39717881206E+04  0.00000000000E+00 0. -1.
          1   -1    0    0  501    0 -0.00000000000E+00 -0.00000000000E+00 -0.24897796685E+04  0.24897796685E+04  0.00000000000E+00 0. -1.
         25    2    1    2    0    0 -0.25477055841E+02 -0.16954118408E+02 -0.92177136377E+02  0.15829634453E+03  0.12499834285E+03 0.  0.
          2    1    1    2  501    0 -0.33626217708E+02 -0.13473791235E+02 -0.23641236703E+04  0.23644011914E+04  0.00000000000E+00 0. -1.
          1    1    1    2  502    0  0.59103273549E+02  0.30427909642E+02  0.39383092587E+04  0.39388702532E+04  0.00000000000E+00 0. -1.
         22    1    3    3    0    0 -0.56982470067E+02 -0.42867656717E+02 -0.17844151117E+02  0.73505452971E+02  0.00000000000E+00 0.  1.
         22    1    3    3    0    0  0.31505414226E+02  0.25913538309E+02 -0.74332985260E+02  0.84790891556E+02  0.00000000000E+00 0.  1.
</event>
<event>
 7    1  0.5993218E-006  0.4199704E+02  0.7818608E-02  0.1523409E+00
          2   -1    0    0  502    0  0.00000000000E+00  0.00000000000E+00  0.33066710498E+04  0.33066710498E+04  0.00000000000E+00 0. -1.
          1   -1    0    0  501    0 -0.00000000000E+00 -0.00000000000E+00 -0.46872799209E+02  0.46872799209E+02  0.00000000000E+00 0. -1.
         25    2    1    2    0    0  0.57939908486E+02  0.45534040570E+02  0.14656143316E+04  0.14727783930E+04  0.12498177533E+03 0.  0.
          2    1    1    2  501    0 -0.30055423175E+02 -0.16727323578E+02 -0.36203961489E+02  0.49938548676E+02  0.00000000000E+00 0. -1.
          1    1    1    2  502    0 -0.27884485311E+02 -0.28806716991E+02  0.18303878805E+04  0.18308269074E+04  0.00000000000E+00 0. -1.
         22    1    3    3    0    0  0.49699653288E+01 -0.42248146990E+02  0.44203067014E+03  0.44407287670E+03  0.00000000000E+00 0.  1.
         22    1    3    3    0    0  0.52969943157E+02  0.87782187560E+02  0.10235836614E+04  0.10287055163E+04  0.00000000000E+00 0.  1.
</event>
<event>
 7    1  0.6150142E-006  0.8834292E+02  0.7818608E-02  0.1335573E+00
          2   -1    0    0  502    0  0.00000000000E+00  0.00000000000E+00  0.10249180571E+04  0.10249180571E+04  0.00000000000E+00 0. -1.
          1   -1    0    0  501    0 -0.00000000000E+00 -0.00000000000E+00 -0.78829315523E+03  0.78829315523E+03  0.00000000000E+00 0. -1.
         25    2    1    2    0    0 -0.77855083730E+02 -0.23151558713E+02 -0.22826679426E+03  0.27263242360E+03  0.12500120121E+03 0.  0.
          2    1    1    2  501    0  0.81945575900E+02 -0.45145903377E+02 -0.53259410067E+03  0.54074920811E+03  0.00000000000E+00 0. -1.
          1    1    1    2  502    0 -0.40904921698E+01  0.68297462090E+02  0.99748579681E+03  0.99982958062E+03  0.00000000000E+00 0. -1.
         22    1    3    3    0    0 -0.38352443431E+02 -0.21400517945E+02 -0.22891062792E+03  0.23308575173E+03  0.00000000000E+00 0.  1.
         22    1    3    3    0    0 -0.39502640299E+02 -0.17510407679E+01  0.64383365736E+00  0.39546671872E+02  0.00000000000E+00 0.  1.
</event>
<event>
 7    1  0.5993218E-006  0.9733165E+02  0.7818608E-02  0.1303724E+00
          2   -1    0    0  502    0  0.00000000000E+00  0.00000000000E+00  0.69234518703E+03  0.69234518703E+03  0.00000000000E+00 0. -1.
          1   -1    0    0  501    0 -0.00000000000E+00 -0.00000000000E+00 -0.77640859197E+03  0.77640859197E+03  0.00000000000E+00 0. -1.
         25    2    1    2    0    0 -0.11782834547E+03  0.13178324531E+02 -0.12829425293E+03  0.21480557980E+03  0.12499933817E+03 0.  0.
          2    1    1    2  501    0  0.55063103032E+02  0.61513094107E+02 -0.59834222259E+03  0.60401094476E+03  0.00000000000E+00 0. -1.
          1    1    1    2  502    0  0.62765242441E+02 -0.74691418639E+02  0.64257307058E+03  0.64993725444E+03  0.00000000000E+00 0. -1.
         22    1    3    3    0    0 -0.36544351530E+02  0.42868685314E+02  0.42735325000E+01  0.56493157899E+02  0.00000000000E+00 0.  1.
         22    1    3    3    0    0 -0.81283993942E+02 -0.29690360783E+02 -0.13256778543E+03  0.15831242190E+03  0.00000000000E+00 0.  1.
</event>
<event>
 7    1  0.5993218E-006  0.1773063E+03  0.7818608E-02  0.1296764E+00
          2   -1    0    0  502    0  0.00000000000E+00  0.00000000000E+00  0.21850476666E+03  0.21850476666E+03  0.00000000000E+00 0. -1.
          1   -1    0    0  501    0 -0.00000000000E+00 -0.00000000000E+00 -0.99324255211E+03  0.99324255211E+03  0.00000000000E+00 0. -1.
         25    2    1    2    0    0 -0.11296596443E+03 -0.90325613068E+02 -0.24751558448E+03  0.31274524928E+03  0.12500240355E+03 0.  0.
          2    1    1    2  501    0  0.13658434431E+03  0.13248133132E+03 -0.69698715792E+03  0.72249407234E+03  0.00000000000E+00 0. -1.
          1    1    1    2  502    0 -0.23618379878E+02 -0.42155718257E+02  0.16976495695E+03  0.17650799715E+03  0.00000000000E+00 0. -1.
         22    1    3    3    0    0 -0.10693866362E+03 -0.44834374953E+02 -0.23959221755E+03  0.26617744019E+03  0.00000000000E+00 0. -1.
         22    1    3    3    0    0 -0.60273008103E+01 -0.45491238114E+02 -0.79233669281E+01  0.46567809093E+02  0.00000000000E+00 0. -1.
</event>
<event>
 7    1  0.5993218E-006  0.7768080E+02  0.7818608E-02  0.1387538E+00
          2   -1    0    0  502    0  0.00000000000E+00  0.00000000000E+00  0.12459958998E+04  0.12459958998E+04  0.00000000000E+00 0. -1.
          1   -1    0    0  501    0 -0.00000000000E+00 -0.00000000000E+00 -0.72035797299E+03  0.72035797299E+03  0.00000000000E+00 0. -1.
         25    2    1    2    0    0  0.15612458210E+02 -0.41841781364E+02  0.61307596463E+03  0.62728044772E+03  0.12499655259E+03 0.  0.
          2    1    1    2  501    0  0.65701054151E+01 -0.49892376466E+02 -0.70880033654E+03  0.71058450067E+03  0.00000000000E+00 0. -1.
          1    1    1    2  502    0 -0.22182563625E+02  0.91734157830E+02  0.62136229869E+03  0.62848892438E+03  0.00000000000E+00 0. -1.
         22    1    3    3    0    0  0.48595887152E+02 -0.60744193256E+02  0.24045358018E+03  0.25272384431E+03  0.00000000000E+00 0.  1.
         22    1    3    3    0    0 -0.32983428943E+02  0.18902411892E+02  0.37262238445E+03  0.37455660340E+03  0.00000000000E+00 0.  1.
</event>
<event>
 7    1  0.5993218E-006  0.7637052E+02  0.7818608E-02  0.1353236E+00
          2   -1    0    0  502    0  0.00000000000E+00  0.00000000000E+00  0.52201002348E+03  0.52201002348E+03  0.00000000000E+00 0. -1.
          1   -1    0    0  501    0 -0.00000000000E+00 -0.00000000000E+00 -0.34544352176E+03  0.34544352176E+03  0.00000000000E+00 0. -1.
         25    2    1    2    0    0  0.16121428021E+02  0.61225298770E+02 -0.14320957236E+03  0.20035543338E+03  0.12499952167E+03 0.  0.
          2    1    1    2  501    0 -0.80152834030E+02 -0.38374622214E+02 -0.15973546535E+03  0.18279088414E+03  0.00000000000E+00 0. -1.
          1    1    1    2  502    0  0.64031406009E+02 -0.22850676555E+02  0.47951153943E+03  0.48430722772E+03  0.00000000000E+00 0. -1.
         22    1    3    3    0    0  0.49192742879E+01 -0.27555692103E+02 -0.94320518035E+02  0.98386358552E+02  0.00000000000E+00 0. -1.
         22    1    3    3    0    0  0.11202153733E+02  0.88780990873E+02 -0.48889054326E+02  0.10196907483E+03  0.00000000000E+00 0. -1.
</event>
<event>
 7    1  0.5993218E-006  0.1018591E+03  0.7818608E-02  0.1357401E+00
          2   -1    0    0  502    0  0.00000000000E+00  0.00000000000E+00  0.14364691842E+03  0.14364691842E+03  0.00000000000E+00 0. -1.
          1   -1    0    0  501    0 -0.00000000000E+00 -0.00000000000E+00 -0.16615702015E+04  0.16615702015E+04  0.00000000000E+00 0. -1.
         25    2    1    2    0    0  0.13661373259E+03 -0.31738708118E+02 -0.38054747173E+02  0.19168557637E+03  0.12499815552E+03 0.  0.
          2    1    1    2  501    0 -0.48776798046E+02  0.65047520406E+01 -0.15148695848E+04  0.15156686138E+04  0.00000000000E+00 0. -1.
          1    1    1    2  502    0 -0.87836934540E+02  0.25233956077E+02  0.35001048867E+02  0.97862929807E+02  0.00000000000E+00 0. -1.
         22    1    3    3    0    0  0.86663983795E+02  0.31224894743E+02 -0.58027492236E+02  0.10887070310E+03  0.00000000000E+00 0.  1.
         22    1    3    3    0    0  0.49949748792E+02 -0.62963602860E+02  0.19972745063E+02  0.82814873271E+02  0.00000000000E+00 0.  1.
</event>
<event>
 7    1  0.5993218E-006  0.1835577E+03  0.7818608E-02  0.1249379E+00
          2   -1    0    0  502    0  0.00000000000E+00  0.00000000000E+00  0.31075583759E+04  0.31075583759E+04  0.00000000000E+00 0. -1.
          1   -1    0    0  501    0 -0.00000000000E+00 -0.00000000000E+00 -0.10379352416E+03  0.10379352416E+03  0.00000000000E+00 0. -1.
         25    2    1    2    0    0  0.14976761487E+03  0.89081480146E+02  0.61291692657E+03  0.64935074379E+03  0.12499352390E+03 0.  0.
          2    1    1    2  501    0 -0.39000500295E+02  0.62475202208E+02 -0.65457155513E+02  0.98533390899E+02  0.00000000000E+00 0. -1.
          1    1    1    2  502    0 -0.11076711458E+03 -0.15155668235E+03  0.24563050807E+04  0.24634677653E+04  0.00000000000E+00 0. -1.
         22    1    3    3    0    0  0.36285272325E+02  0.49746902779E+02  0.69647421954E+02  0.92963104018E+02  0.00000000000E+00 0. -1.
         22    1    3    3    0    0  0.11348234255E+03  0.39334577367E+02  0.54326950461E+03  0.55638763977E+03  0.00000000000E+00 0. -1.
</event>
<event>
 7    1  0.5993218E-006  0.6503052E+02  0.7818608E-02  0.1487860E+00
          2   -1    0    0  502    0  0.00000000000E+00  0.00000000000E+00  0.11537820868E+03  0.11537820868E+03  0.00000000000E+00 0. -1.
          1   -1    0    0  501    0 -0.00000000000E+00 -0.00000000000E+00 -0.19665041663E+03  0.19665041663E+03  0.00000000000E+00 0. -1.
         25    2    1    2    0    0 -0.31890783195E+02 -0.67129161913E+02 -0.11020249981E+03  0.18245945676E+03  0.12499406372E+03 0.  0.
          2    1    1    2  501    0  0.45000900150E+02  0.42040692987E+02 -0.26722282654E+02  0.67131075303E+02  0.00000000000E+00 0. -1.
          1    1    1    2  502    0 -0.13110116955E+02  0.25088468926E+02  0.55652574508E+02  0.62438093253E+02  0.00000000000E+00 0. -1.
         22    1    3    3    0    0  0.41820688945E+02 -0.63800118368E+01 -0.89093749734E+01  0.43232528694E+02  0.00000000000E+00 0.  1.
         22    1    3    3    0    0 -0.73711472140E+02 -0.60749150077E+02 -0.10129312483E+03  0.13922692807E+03  0.00000000000E+00 0.  1.
</event>
<event>
 7    1  0.5993218E-006  0.1045013E+03  0.7818608E-02  0.1348233E+00
          2   -1    0    0  502    0  0.00000000000E+00  0.00000000000E+00  0.15363689884E+04  0.15363689884E+04  0.00000000000E+00 0. -1.
          1   -1    0    0  501    0 -0.00000000000E+00 -0.00000000000E+00 -0.67828539608E+03  0.67828539608E+03  0.00000000000E+00 0. -1.
         25    2    1    2    0    0 -0.12743753109E+03 -0.45699111816E+02  0.98502668390E+03  0.10021136834E+04  0.12500213287E+03 0.  0.
          2    1    1    2  501    0  0.36193887378E+02  0.37125954656E+02 -0.66485702196E+03  0.66687569580E+03  0.00000000000E+00 0. -1.
          1    1    1    2  502    0  0.91243643711E+02  0.85731571598E+01  0.53791393038E+03  0.54566500532E+03  0.00000000000E+00 0. -1.
         22    1    3    3    0    0 -0.65566693512E+02  0.27829605335E+02  0.22420966679E+03  0.23525189248E+03  0.00000000000E+00 0. -1.
         22    1    3    3    0    0 -0.61870837577E+02 -0.73528717150E+02  0.76081701711E+03  0.76686179088E+03  0.00000000000E+00 0. -1.
</event>
<event>
 7    1  0.5993218E-006  0.1111557E+03  0.7818608E-02  0.1260022E+00
          2   -1    0    0  502    0  0.00000000000E+00  0.00000000000E+00  0.78652211737E+03  0.78652211737E+03  0.00000000000E+00 0. -1.
          1   -1    0    0  501    0 -0.00000000000E+00 -0.00000000000E+00 -0.22274612256E+04  0.22274612256E+04  0.00000000000E+00 0. -1.
         25    2    1    2    0    0 -0.13239950417E+03  0.34409985565E+02  0.32963767789E+03  0.37815183106E+03  0.12499653129E+03 0.  0.
          2    1    1    2  501    0  0.42224332038E+02 -0.10282363710E+03 -0.21943696571E+04  0.21971831482E+04  0.00000000000E+00 0. -1.
          1    1    1    2  502    0  0.90175172136E+02  0.68413651540E+02  0.42379287107E+03  0.43864836367E+03  0.00000000000E+00 0. -1.
         22    1    3    3    0    0 -0.10601442827E+03 -0.13795377797E+02  0.11682607471E+03  0.15835941141E+03  0.00000000000E+00 0.  1.
         22    1    3    3    0    0 -0.26385075908E+02  0.48205363361E+02  0.21281160318E+03  0.21979241965E+03  0.00000000000E+00 0.  1.
</event>
<event>
 7    1  0.5993218E-006  0.5560625E+02  0.7818608E-02  0.1453167E+00
          2   -1    0    0  502    0  0.00000000000E+00  0.00000000000E+00  0.56599389604E+03  0.56599389604E+03  0.00000000000E+00 0. -1.
          1   -1    0    0  501    0 -0.00000000000E+00 -0.00000000000E+00 -0.26523150964E+04  0.26523150964E+04  0.00000000000E+00 0. -1.
         25    2    1    2    0    0  0.72423291044E+00  0.13920381097E+02 -0.21920842066E+03  0.25272969179E+03  0.12500265556E+03 0.  0.
          2    1    1    2  501    0  0.15212068914E+02  0.39617602527E+02 -0.24147388274E+04  0.24151117088E+04  0.00000000000E+00 0. -1.
          1    1    1    2  502    0 -0.15936301824E+02 -0.53537983624E+02  0.54762604776E+03  0.55046759178E+03  0.00000000000E+00 0. -1.
         22    1    3    3    0    0  0.30256403499E+01 -0.55515888620E+02 -0.11085696373E+03  0.12401788096E+03  0.00000000000E+00 0.  1.
         22    1    3    3    0    0 -0.23014074395E+01  0.69436269717E+02 -0.10835145693E+03  0.12871181083E+03  0.00000000000E+00 0.  1.
</event>
<event>
 7    1  0.5993218E-006  0.7839142E+02  0.7818608E-02  0.1336011E+00
          2   -1    0    0  502    0  0.00000000000E+00  0.00000000000E+00  0.72954016309E+03  0.72954016309E+03  0.00000000000E+00 0. -1.
          1   -1    0    0  501    0 -0.00000000000E+00 -0.00000000000E+00 -0.17166880254E+03  0.17166880254E+03  0.00000000000E+00 0. -1.
         25    2    1    2    0    0 -0.47601978470E+02 -0.36621865260E+02  0.16138320710E+03  0.21278241996E+03  0.12499883735E+03 0.  0.
          2    1    1    2  501    0 -0.29811937505E+02  0.70790033880E+02 -0.13226186250E+03  0.15294829449E+03  0.00000000000E+00 0. -1.
          1    1    1    2  502    0  0.77413915975E+02 -0.34168168620E+02  0.52875001595E+03  0.53547825119E+03  0.00000000000E+00 0. -1.
         22    1    3    3    0    0 -0.57300158761E+02  0.10746337879E+02  0.17313488184E+02  0.60815695712E+02  0.00000000000E+00 0. -1.
         22    1    3    3    0    0  0.96981802916E+01 -0.47368203139E+02  0.14406971891E+03  0.15196672424E+03  0.00000000000E+00 0. -1.
</event>
<event>
 7    1  0.5993218E-006  0.7530015E+02  0.7818608E-02  0.1459008E+00
          2   -1    0    0  502    0  0.00000000000E+00  0.00000000000E+00  0.47543537369E+03  0.47543537369E+03  0.00000000000E+00 0. -1.
          1   -1    0    0  501    0 -0.00000000000E+00 -0.00000000000E+00 -0.15231091951E+04  0.15231091951E+04  0.00000000000E+00 0. -1.
         25    2    1    2    0    0  0.46485108543E+02 -0.77214013749E+02 -0.88358880868E+02  0.17763086274E+03  0.12499024896E+03 0.  0.
          2    1    1    2  501    0 -0.56840605304E+02  0.49026322323E+02 -0.13885760832E+04  0.13906034566E+04  0.00000000000E+00 0. -1.
          1    1    1    2  502    0  0.10355496760E+02  0.28187691425E+02  0.42926114261E+03  0.43031024949E+03  0.00000000000E+00 0. -1.
         22    1    3    3    0    0  0.87797843023E+02 -0.37349811692E+02 -0.43941684315E+02  0.10504447293E+03  0.00000000000E+00 0.  1.
         22    1    3    3    0    0 -0.41312734480E+02 -0.39864202057E+02 -0.44417196553E+02  0.72586389808E+02  0.00000000000E+00 0.  1.
</event>
<event>
 7    1  0.5993218E-006  0.2637974E+03  0.7818608E-02  0.1167204E+00
          2   -1    0    0  502    0  0.00000000000E+00  0.00000000000E+00  0.10566857983E+04  0.10566857983E+04  0.00000000000E+00 0. -1.
          1   -1    0    0  501    0 -0.00000000000E+00 -0.00000000000E+00 -0.10135440140E+04  0.10135440140E+04  0.00000000000E+00 0. -1.
         25    2    1    2    0    0 -0.23233431453E+03 -0.13064072698E+03 -0.68363395537E+03  0.74432979918E+03  0.12500092706E+03 0.  0.
          2    1    1    2  501    0  0.15690083944E+03  0.22864081168E+03 -0.23054872862E+03  0.36062059072E+03  0.00000000000E+00 0. -1.
          1    1    1    2  502    0  0.75433475088E+02 -0.98000084705E+02  0.95732446827E+03  0.96527942241E+03  0.00000000000E+00 0. -1.
         22    1    3    3    0    0 -0.16179768748E+03 -0.75814693147E+02 -0.28952654340E+03  0.34022342469E+03  0.00000000000E+00 0.  1.
         22    1    3    3    0    0 -0.70536627050E+02 -0.54826033829E+02 -0.39410741197E+03  0.40410637450E+03  0.00000000000E+00 0.  1.
</event>
<event>
 7    1  0.5993218E-006  0.2045051E+03  0.7818608E-02  0.1224301E+00
          2   -1    0    0  502    0  0.00000000000E+00  0.00000000000E+00  0.52112063857E+03  0.52112063857E+03  0.00000000000E+00 0. -1.
          1   -1    0    0  501    0 -0.00000000000E+00 -0.00000000000E+00 -0.92466881202E+03  0.92466881202E+03  0.00000000000E+00 0. -1.
         25    2    1    2    0    0  0.12154944308E+03 -0.65423362632E+02 -0.89096088731E+02  0.20644079081E+03  0.12500081437E+03 0.  0.
          2    1    1    2  501    0 -0.20225627386E+03  0.93325346970E+02 -0.75676572795E+03  0.78886728142E+03  0.00000000000E+00 0. -1.
          1    1    1    2  502    0  0.80706830782E+02 -0.27901984338E+02  0.44231364322E+03  0.45048137836E+03  0.00000000000E+00 0. -1.
         22    1    3    3    0    0  0.33547033761E+01 -0.25176405483E+02  0.26200318567E+02  0.36490575780E+02  0.00000000000E+00 0. -1.
         22    1    3    3    0    0  0.11819473971E+03 -0.40246957149E+02 -0.11529640730E+03  0.16995021503E+03  0.00000000000E+00 0. -1.
</event>
<event>
 7    1  0.5993218E-006  0.1157745E+03  0.7818608E-02  0.1314069E+00
          2   -1    0    0  502    0  0.00000000000E+00  0.00000000000E+00  0.26587339812E+03  0.26587339812E+03  0.00000000000E+00 0. -1.
          1   -1    0    0  501    0 -0.00000000000E+00 -0.00000000000E+00 -0.15842653541E+03  0.15842653541E+03  0.00000000000E+00 0. -1.
         25    2    1    2    0    0  0.12667233579E+03  0.11246039796E+02 -0.40809443655E+02  0.18292866530E+03  0.12500052733E+03 0.  0.
          2    1    1    2  501    0 -0.10095800391E+03  0.46460917313E+02  0.44127429813E+02  0.11957577285E+03  0.00000000000E+00 0. -1.
          1    1    1    2  502    0 -0.25714331886E+02 -0.57706957109E+02  0.10412887655E+03  0.12179549538E+03  0.00000000000E+00 0. -1.
         22    1    3    3    0    0 -0.40755473586E+01  0.40012839193E+02  0.68980008666E+01  0.40807104804E+02  0.00000000000E+00 0. -1.
         22    1    3    3    0    0  0.13074788315E+03 -0.28766799397E+02 -0.47707444522E+02  0.14212156050E+03  0.00000000000E+00 0. -1.
</event>
<event>
 7    1  0.5993218E-006  0.5746072E+02  0.7818608E-02  0.1449754E+00
          2   -1    0    0  502    0  0.00000000000E+00  0.00000000000E+00  0.30667824968E+04  0.30667824968E+04  0.00000000000E+00 0. -1.
          1   -1    0    0  501    0 -0.00000000000E+00 -0.00000000000E+00 -0.66723563545E+02  0.66723563545E+02  0.00000000000E+00 0. -1.
         25    2    1    2    0    0  0.32998604967E+02 -0.42143288064E+02  0.27428229281E+04  0.27461915191E+04  0.12500112021E+03 0.  0.
          2    1    1    2  501    0  0.63283834286E+01  0.57202535589E+02 -0.50587267975E+02  0.76624083655E+02  0.00000000000E+00 0. -1.
          1    1    1    2  502    0 -0.39326988396E+02 -0.15059247526E+02  0.30782327318E+03  0.31069045764E+03  0.00000000000E+00 0. -1.
         22    1    3    3    0    0 -0.13203787759E+01 -0.26112218632E+02  0.10884230092E+03  0.11193854489E+03  0.00000000000E+00 0.  1.
         22    1    3    3    0    0  0.34318983743E+02 -0.16031069432E+02  0.26339806272E+04  0.26342529742E+04  0.00000000000E+00 0.  1.
</event>
<event>
 7    1  0.5993218E-006  0.6775487E+02  0.7818608E-02  0.1463494E+00
          2   -1    0    0  502    0  0.00000000000E+00  0.00000000000E+00  0.23632825062E+03  0.23632825062E+03  0.00000000000E+00 0. -1.
          1   -1    0    0  501    0 -0.00000000000E+00 -0.00000000000E+00 -0.27702288574E+03  0.27702288574E+03  0.00000000000E+00 0. -1.
         25    2    1    2    0    0  0.66905769344E+02 -0.23959681012E+02 -0.39942849695E+02  0.14923405363E+03  0.12499969295E+03 0.  0.
          2    1    1    2  501    0  0.59443663998E+00  0.32300219116E+02 -0.17453446858E+03  0.17749912178E+03  0.00000000000E+00 0. -1.
          1    1    1    2  502    0 -0.67500205984E+02 -0.83405381033E+01  0.17378268315E+03  0.18661796095E+03  0.00000000000E+00 0. -1.
         22    1    3    3    0    0  0.45899194452E+02 -0.30580992649E+02 -0.83704862823E+02  0.10024189355E+03  0.00000000000E+00 0. -1.
         22    1    3    3    0    0  0.21006574892E+02  0.66213116365E+01  0.43762013128E+02  0.48992160082E+02  0.00000000000E+00 0. -1.
</event>
<event>
 7    1  0.5993218E-006  0.6029981E+02  0.7818608E-02  0.1426533E+00
          2   -1    0    0  502    0  0.00000000000E+00  0.00000000000E+00  0.60086569550E+03  0.60086569550E+03  0.00000000000E+00 0. -1.
          1   -1    0    0  501    0 -0.00000000000E+00 -0.00000000000E+00 -0.38588589022E+03  0.38588589022E+03  0.00000000000E+00 0. -1.
         25    2    1    2    0    0  0.58846422361E+02 -0.20487202523E+02 -0.23819633318E+02  0.14168548305E+03  0.12499909713E+03 0.  0.
          2    1    1    2  501    0 -0.54796271653E+02 -0.27096302080E+02 -0.29898258792E+03  0.30516786996E+03  0.00000000000E+00 0. -1.
          1    1    1    2  502    0 -0.40501507082E+01  0.47583504604E+02  0.53778202652E+03  0.53989823271E+03  0.00000000000E+00 0. -1.
         22    1    3    3    0    0  0.55070966624E+02  0.42656323526E+02  0.93105180704E+01  0.70278439428E+02  0.00000000000E+00 0.  1.
         22    1    3    3    0    0  0.37754557376E+01 -0.63143526050E+02 -0.33130151388E+02  0.71407043623E+02  0.00000000000E+00 0.  1.
</event>
<event>
 7    1  0.5993218E-006  0.1124856E+03  0.7818608E-02  0.1374825E+00
          2   -1    0    0  502    0  0.00000000000E+00  0.00000000000E+00  0.27490289115E+04  0.27490289115E+04  0.00000000000E+00 0. -1.
          1   -1    0    0  501    0 -0.00000000000E+00 -0.00000000000E+00 -0.46969848524E+03  0.46969848524E+03  0.00000000000E+00 0. -1.
         25    2    1    2    0    0  0.38940271649E+02  0.76053432746E+02  0.10171463436E+04  0.10283542843E+04  0.12500152195E+03 0.  0.
          2    1    1    2  501    0  0.25443582026E+02  0.28949969969E+02 -0.46109241505E+03  0.46270043424E+03  0.00000000000E+00 0. -1.
          1    1    1    2  502    0 -0.64383853675E+02 -0.10500340272E+03  0.17232764978E+04  0.17276726782E+04  0.00000000000E+00 0. -1.
         22    1    3    3    0    0  0.54863814504E+02  0.69864773003E+02  0.10007181338E+04  0.10046531282E+04  0.00000000000E+00 0. -1.
         22    1    3    3    0    0 -0.15923542855E+02  0.61886597432E+01  0.16428209741E+02  0.23701156127E+02  0.00000000000E+00 0. -1.
</event>
<event>
 7    1  0.5993218E-006  0.6629442E+02  0.7818608E-02  0.1523118E+00
          2   -1    0    0  502    0  0.00000000000E+00  0.00000000000E+00  0.34087747865E+02  0.34087747865E+02  0.00000000000E+00 0. -1.
          1   -1    0    0  501    0 -0.00000000000E+00 -0.00000000000E+00 -0.60489207256E+03  0.60489207256E+03  0.00000000000E+00 0. -1.
         25    2    1    2    0    0  0.34437912509E+02 -0.33774660030E+02 -0.24042589388E+03  0.27523935181E+03  0.12500157141E+03 0.  0.
          2    1    1    2  501    0 -0.49590081555E+02  0.49492818008E+02 -0.33429644406E+03  0.34155940587E+03  0.00000000000E+00 0. -1.
          1    1    1    2  502    0  0.15152169046E+02 -0.15718157978E+02  0.39180132521E+01  0.22181062753E+02  0.00000000000E+00 0. -1.
         22    1    3    3    0    0  0.35745779635E+02 -0.71436522445E+02 -0.90779109814E+02  0.12092057013E+03  0.00000000000E+00 0. -1.
         22    1    3    3    0    0 -0.13078671263E+01  0.37661862415E+02 -0.14964678407E+03  0.15431878168E+03  0.00000000000E+00 0. -1.
</event>
<event>
 7    1  0.5993218E-006  0.1529243E+03  0.7818608E-02  0.1200728E+00
          2   -1    0    0  502    0  0.00000000000E+00  0.00000000000E+00  0.11486280722E+04  0.11486280722E+04  0.00000000000E+00 0. -1.
          1   -1    0    0  501    0 -0.00000000000E+00 -0.00000000000E+00 -0.69472251555E+03  0.69472251555E+03  0.00000000000E+00 0. -1.
         25    2    1    2    0    0  0.15146155632E+02 -0.25574062961E+02 -0.84307896892E+02  0.15367214569E+03  0.12499547254E+03 0.  0.
          2    1    1    2  501    0 -0.91997008681E+02 -0.11430065165E+03 -0.56052454837E+03  0.57940992217E+03  0.00000000000E+00 0. -1.
          1    1    1    2  502    0  0.76850853050E+02  0.13987471461E+03  0.10987380019E+04  0.11102685199E+04  0.00000000000E+00 0. -1.
         22    1    3    3    0    0 -0.55069457042E+02 -0.49651682920E+01 -0.35321118478E+02  0.65611579813E+02  0.00000000000E+00 0.  1.
         22    1    3    3    0    0  0.70215612674E+02 -0.20608894669E+02 -0.48986778414E+02  0.88060565873E+02  0.00000000000E+00 0.  1.
</event>
<event>
 7    1  0.5993218E-006  0.1425530E+03  0.7818608E-02  0.1416983E+00
          2   -1    0    0  502    0  0.00000000000E+00  0.00000000000E+00  0.75855558802E+03  0.75855558802E+03  0.00000000000E+00 0. -1.
          1   -1    0    0  501    0 -0.00000000000E+00 -0.00000000000E+00 -0.90629365653E+02  0.90629365653E+02  0.00000000000E+00 0. -1.
         25    2    1    2    0    0 -0.13552930446E+03  0.50589828413E+02  0.28698009260E+03  0.34483308738E+03  0.12499904598E+03 0.  0.
          2    1    1    2  501    0  0.12436532142E+03 -0.69239688947E+02  0.21154260146E+02  0.14390403198E+03  0.00000000000E+00 0. -1.
          1    1    1    2  502    0  0.11163983035E+02  0.18649860534E+02  0.35979186962E+03  0.36044783431E+03  0.00000000000E+00 0. -1.
         22    1    3    3    0    0 -0.31822355278E+02 -0.40493919994E+02  0.58908867124E+02  0.78247520585E+02  0.00000000000E+00 0.  1.
         22    1    3    3    0    0 -0.10370694918E+03  0.91083748407E+02  0.22807122547E+03  0.26658556679E+03  0.00000000000E+00 0.  1.
</event>
<event>
 7    1  0.5993218E-006  0.4032271E+02  0.7818608E-02  0.1572523E+00
          2   -1    0    0  502    0  0.00000000000E+00  0.00000000000E+00  0.11538792080E+04  0.11538792080E+04  0.00000000000E+00 0. -1.
          1   -1    0    0  501    0 -0.00000000000E+00 -0.00000000000E+00 -0.31075259579E+03  0.31075259579E+03  0.00000000000E+00 0. -1.
         25    2    1    2    0    0  0.35254034983E+02  0.53611682927E+02 -0.13982924218E+03  0.19822689067E+03  0.12499849474E+03 0.  0.
          2    1    1    2  501    0 -0.19054161842E+02 -0.33137166858E+02 -0.13899248003E+03  0.14415284394E+03  0.00000000000E+00 0. -1.
          1    1    1    2  502    0 -0.16199873140E+02 -0.20474516069E+02  0.11219483344E+04  0.11222520692E+04  0.00000000000E+00 0. -1.
         22    1    3    3    0    0 -0.21981321078E+02 -0.31120374278E+02 -0.42139506607E+02  0.56810159203E+02  0.00000000000E+00 0.  1.
         22    1    3    3    0    0  0.57235356061E+02  0.84732057206E+02 -0.97689735575E+02  0.14141673147E+03  0.00000000000E+00 0.  1.
</event>
<event>
 7    1  0.5993218E-006  0.8980931E+02  0.7818608E-02  0.1368127E+00
          2   -1    0    0  502    0  0.00000000000E+00  0.00000000000E+00  0.14355557443E+04  0.14355557443E+04  0.00000000000E+00 0. -1.
          1   -1    0    0  501    0 -0.00000000000E+00 -0.00000000000E+00 -0.59841276914E+02  0.59841276914E+02  0.00000000000E+00 0. -1.
         25    2    1    2    0    0 -0.11953285376E+03  0.35632995838E+02  0.24330008166E+03  0.30062993527E+03  0.12500245887E+03 0.  0.
          2    1    1    2  501    0  0.31516984982E+02 -0.40120819832E+02 -0.73975451575E+01  0.51553120184E+02  0.00000000000E+00 0. -1.
          1    1    1    2  502    0  0.88015868779E+02  0.44878239944E+01  0.11398119308E+04  0.11432139657E+04  0.00000000000E+00 0. -1.
         22    1    3    3    0    0 -0.14085528318E+03  0.25935514488E+02  0.23606295330E+03  0.27611334563E+03  0.00000000000E+00 0.  1.
         22    1    3    3    0    0  0.21322429420E+02  0.96974813499E+01  0.72371283582E+01  0.24516589644E+02  0.00000000000E+00 0.  1.
</event>
<event>
 7    1  0.5993218E-006  0.1469117E+03  0.7818608E-02  0.1332195E+00
          2   -1    0    0  502    0  0.00000000000E+00  0.00000000000E+00  0.18766780011E+04  0.18766780011E+04  0.00000000000E+00 0. -1.
          1   -1    0    0  501    0 -0.00000000000E+00 -0.00000000000E+00 -0.18528257202E+03  0.18528257202E+03  0.00000000000E+00 0. -1.
         25    2    1    2    0    0 -0.65968942910E+02 -0.86501283268E+02  0.46632715199E+03  0.49489440835E+03  0.12500035719E+03 0.  0.
          2    1    1    2  501    0  0.79488800806E+02  0.12666334441E+03 -0.13791326807E+03  0.20342601058E+03  0.00000000000E+00 0. -1.
          1    1    1    2  502    0 -0.13519857895E+02 -0.40162061141E+02  0.13629815452E+04  0.13636401542E+04  0.00000000000E+00 0. -1.
         22    1    3    3    0    0 -0.32061903268E+02  0.29277706352E+02  0.15639349418E+03  0.16230857880E+03  0.00000000000E+00 0. -1.
         22    1    3    3    0    0 -0.33907039642E+02 -0.11577898962E+03  0.30993365781E+03  0.33258582955E+03  0.00000000000E+00 0. -1.
</event>
<event>
 7    1  0.5993218E-006  0.4659116E+03  0.7818608E-02  0.1032791E+00
          2   -1    0    0  502    0  0.00000000000E+00  0.00000000000E+00  0.47602292023E+03  0.47602292023E+03  0.00000000000E+00 0. -1.
          1   -1    0    0  501    0 -0.00000000000E+00 -0.00000000000E+00 -0.17357881344E+04  0.17357881344E+04  0.00000000000E+00 0. -1.
         25    2    1    2    0    0  0.59652982549E+03 -0.17679135595E+03 -0.42828219068E+03  0.76560598208E+03  0.12499547474E+03 0.  0.
          2    1    1    2  501    0 -0.35041262986E+03 -0.19936866434E+03 -0.90497490807E+03  0.99071512541E+03  0.00000000000E+00 0. -1.
          1    1    1    2  502    0 -0.24611719563E+03  0.37616002030E+03  0.73491884564E+02  0.45548994714E+03  0.00000000000E+00 0. -1.
         22    1    3    3    0    0  0.27362199078E+03 -0.16930132054E+02 -0.17682834463E+03  0.32622674120E+03  0.00000000000E+00 0. -1.
         22    1    3    3    0    0  0.32290783471E+03 -0.15986122390E+03 -0.25145384605E+03  0.43937924088E+03  0.00000000000E+00 0. -1.
</event>
<event>
 7    1  0.5993218E-006  0.8306049E+02  0.7818608E-02  0.1371716E+00
          2   -1    0    0  502    0  0.00000000000E+00  0.00000000000E+00  0.81545317021E+03  0.81545317021E+03  0.00000000000E+00 0. -1.
          1   -1    0    0  501    0 -0.00000000000E+00 -0.00000000000E+00 -0.69705919639E+02  0.69705919639E+02  0.00000000000E+00 0. -1.
         25    2    1    2    0    0 -0.80056577373E+02  0.43368620092E+02  0.12385845109E+03  0.19813074520E+03  0.12499993400E+03 0.  0.
          2    1    1    2  501    0  0.83998410681E+02  0.10036025614E+02  0.25663216870E+02  0.88402802598E+02  0.00000000000E+00 0. -1.
          1    1    1    2  502    0 -0.39418333077E+01 -0.53404645705E+02  0.59622558261E+03  0.59862554204E+03  0.00000000000E+00 0. -1.
         22    1    3    3    0    0 -0.10665298113E+03  0.34973182935E+02  0.57419483316E+02  0.12607529089E+03  0.00000000000E+00 0. -1.
         22    1    3    3    0    0  0.26596403756E+02  0.83954371563E+01  0.66438967774E+02  0.72055454316E+02  0.00000000000E+00 0. -1.
</event>
<event>
 7    1  0.5993218E-006  0.3152758E+02  0.7818608E-02  0.1628729E+00
          2   -1    0    0  502    0  0.00000000000E+00  0.00000000000E+00  0.20629870738E+04  0.20629870738E+04  0.00000000000E+00 0. -1.
          1   -1    0    0  501    0 -0.00000000000E+00 -0.00000000000E+00 -0.11826183409E+04  0.11826183409E+04  0.00000000000E+00 0. -1.
         25    2    1    2    0    0 -0.46246595021E+02  0.13130509433E+02  0.48054599693E+03  0.49885926822E+03  0.12499982597E+03 0.  0.
          2    1    1    2  501    0  0.22623987873E+02  0.74371656181E+01 -0.11731849544E+04  0.11734266460E+04  0.00000000000E+00 0. -1.
          1    1    1    2  502    0  0.23622607148E+02 -0.20567675052E+02  0.15730076903E+04  0.15733195005E+04  0.00000000000E+00 0. -1.
         22    1    3    3    0    0 -0.43104035552E+02 -0.44244085994E+02  0.13361660987E+03  0.14720358508E+03  0.00000000000E+00 0. -1.
         22    1    3    3    0    0 -0.31425594693E+01  0.57374595428E+02  0.34692938706E+03  0.35165568314E+03  0.00000000000E+00 0. -1.
</event>
<event>
 7    1  0.5993218E-006  0.6470204E+02  0.7818608E-02  0.1414785E+00
          2   -1    0    0  502    0  0.00000000000E+00  0.00000000000E+00  0.22939917593E+02  0.22939917593E+02  0.00000000000E+00 0. -1.
          1   -1    0    0  501    0 -0.00000000000E+00 -0.00000000000E+00 -0.15706187328E+04  0.15706187328E+04  0.00000000000E+00 0. -1.
         25    2    1    2    0    0 -0.32507864360E+00 -0.20752451064E+02 -0.70226719556E+03  0.71360762562E+03  0.12500343788E+03 0.  0.
          2    1    1    2  501    0  0.81372361262E+01 -0.48025978470E+02 -0.78941562159E+03  0.79091702019E+03  0.00000000000E+00 0. -1.
          1    1    1    2  502    0 -0.78121574826E+01  0.68778429533E+02 -0.55995998059E+02  0.89034004584E+02  0.00000000000E+00 0. -1.
         22    1    3    3    0    0  0.37749663702E+02  0.38356069077E+02 -0.23522778253E+03  0.24130548029E+03  0.00000000000E+00 0.  1.
         22    1    3    3    0    0 -0.38074742345E+02 -0.59108520141E+02 -0.46703941303E+03  0.47230214533E+03  0.00000000000E+00 0.  1.
</event>
<event>
 7    1  0.5993218E-006  0.9681753E+02  0.7818608E-02  0.1328298E+00
          2   -1    0    0  502    0  0.00000000000E+00  0.00000000000E+00  0.14189983301E+04  0.14189983301E+04  0.00000000000E+00 0. -1.
          1   -1    0    0  501    0 -0.00000000000E+00 -0.00000000000E+00 -0.38283845126E+03  0.38283845126E+03  0.00000000000E+00 0. -1.
         25    2    1    2    0    0  0.74039974142E+02 -0.92217228121E+02 -0.17880883379E+03  0.24816109783E+03  0.12500158600E+03 0.  0.
          2    1    1    2  501    0 -0.75134205217E+01  0.93742755883E+02 -0.15542784549E+03  0.18166444595E+03  0.00000000000E+00 0. -1.
          1    1    1    2  502    0 -0.66526553620E+02 -0.15255277613E+01  0.13703965581E+04  0.13720112375E+04  0.00000000000E+00 0. -1.
         22    1    3    3    0    0 -0.19648312377E+02  0.17738278800E+02 -0.18080856969E+02  0.32056514202E+02  0.00000000000E+00 0. -1.
         22    1    3    3    0    0  0.93688286519E+02 -0.10995550692E+03 -0.16072797682E+03  0.21610458363E+03  0.00000000000E+00 0. -1.
</event>
<event>
 7    1  0.5993218E-006  0.1486791E+03  0.7818608E-02  0.1280999E+00
          2   -1    0    0  502    0  0.00000000000E+00  0.00000000000E+00  0.85772090603E+02  0.85772090603E+02  0.00000000000E+00 0. -1.
          1   -1    0    0  501    0 -0.00000000000E+00 -0.00000000000E+00 -0.10218710027E+04  0.10218710027E+04  0.00000000000E+00 0. -1.
         25    2    1    2    0    0 -0.12685013238E+02 -0.10656356387E+03 -0.25072591415E+03  0.30000867486E+03  0.12500007304E+03 0.  0.
          2    1    1    2  501    0  0.29761116544E+02 -0.59815874192E+02 -0.62690635508E+03  0.63045637510E+03  0.00000000000E+00 0. -1.
          1    1    1    2  502    0 -0.17076103307E+02  0.16637943806E+03 -0.58466642861E+02  0.17717804334E+03  0.00000000000E+00 0. -1.
         22    1    3    3    0    0 -0.65439084184E+02 -0.73999508270E+02 -0.18458229854E+03  0.20935335177E+03  0.00000000000E+00 0.  1.
         22    1    3    3    0    0  0.52754070946E+02 -0.32564055598E+02 -0.66143615605E+02  0.90655323085E+02  0.00000000000E+00 0.  1.
</event>
<event>
 7    1  0.5993218E-006  0.3750183E+03  0.7818608E-02  0.1240945E+00
          2   -1    0    0  502    0  0.00000000000E+00  0.00000000000E+00  0.10959913886E+04  0.10959913886E+04  0.00000000000E+00 0. -1.
          1   -1    0    0  501    0 -0.00000000000E+00 -0.00000000000E+00 -0.91655396889E+03  0.91655396889E+03  0.00000000000E+00 0. -1.
         25    2    1    2    0    0  0.16330782202E+03  0.33858518855E+03  0.90741442490E+02  0.40640897573E+03  0.12499948613E+03 0.  0.
          2    1    1    2  501    0 -0.36454067375E+02  0.14531236092E+02 -0.71662397359E+03  0.71769769079E+03  0.00000000000E+00 0. -1.
          1    1    1    2  502    0 -0.12685375464E+03 -0.35311642464E+03  0.80531995076E+03  0.88843869091E+03  0.00000000000E+00 0. -1.
         22    1    3    3    0    0  0.10462632850E+03  0.12956591456E+03  0.90018297905E+02  0.18930739233E+03  0.00000000000E+00 0.  1.
         22    1    3    3    0    0  0.58681493518E+02  0.20901927398E+03  0.72314458491E+00  0.21710158340E+03  0.00000000000E+00 0.  1.
</event>
<event>
 7    1  0.5993218E-006  0.9472102E+02  0.7818608E-02  0.1437364E+00
          2   -1    0    0  502    0  0.00000000000E+00  0.00000000000E+00  0.69853839277E+03  0.69853839277E+03  0.00000000000E+00 0. -1.
          1   -1    0    0  501    0 -0.00000000000E+00 -0.00000000000E+00 -0.10986280696E+03  0.10986280696E+03  0.00000000000E+00 0. -1.
         25    2    1    2    0    0  0.10304804732E+03 -0.62105842755E+02  0.39930680242E+03  0.43537095578E+03  0.12500364362E+03 0.  0.
          2    1    1    2  501    0 -0.76382181512E+02  0.53528902207E+02 -0.67186417022E+02  0.11495040520E+03  0.00000000000E+00 0. -1.
          1    1    1    2  502    0 -0.26665865808E+02  0.85769405481E+01  0.25655520041E+03  0.25807983875E+03  0.00000000000E+00 0. -1.
         22    1    3    3    0    0  0.12982531820E+03 -0.64833964050E+02  0.31382247788E+03  0.34574933660E+03  0.00000000000E+00 0. -1.
         22    1    3    3    0    0 -0.26777270879E+02  0.27281212954E+01  0.85484324540E+02  0.89621619176E+02  0.00000000000E+00 0. -1.
</event>
<event>
 7    1  0.5993218E-006  0.4998051E+02  0.7818608E-02  0.1577601E+00
          2   -1    0    0  502    0  0.00000000000E+00  0.00000000000E+00  0.77389536222E+03  0.77389536222E+03  0.00000000000E+00 0. -1.
          1   -1    0    0  501    0 -0.00000000000E+00 -0.00000000000E+00 -0.12109460186E+04  0.12109460186E+04  0.00000000000E+00 0. -1.
         25    2    1    2    0    0  0.12262469323E+02 -0.52894212877E+02  0.31557230037E+03  0.34374275814E+03  0.12500016442E+03 0.  0.
          2    1    1    2  501    0 -0.28758555883E+02  0.40877164533E+02 -0.11961042233E+04  0.11971479901E+04  0.00000000000E+00 0. -1.
          1    1    1    2  502    0  0.16496086560E+02  0.12017048345E+02  0.44348126661E+03  0.44395063257E+03  0.00000000000E+00 0. -1.
         22    1    3    3    0    0 -0.18940358224E+02 -0.86493661426E+02  0.17945993196E+03  0.20011436184E+03  0.00000000000E+00 0.  1.
         22    1    3    3    0    0  0.31202827546E+02  0.33599448549E+02  0.13611236841E+03  0.14362839630E+03  0.00000000000E+00 0.  1.
</event>
<event>
 7    1  0.5993218E-006  0.6736578E+02  0.7818608E-02  0.1376106E+00
          2   -1    0    0  502    0  0.00000000000E+00  0.00000000000E+00  0.89841252447E+03  0.89841252447E+03  0.00000000000E+00 0. -1.
          1   -1    0    0  501    0 -0.00000000000E+00 -0.00000000000E+00 -0.75330601383E+03  0.75330601383E+03  0.00000000000E+00 0. -1.
         25    2    1    2    0    0  0.18186614180E+02 -0.62632172074E+02 -0.24087889405E+03  0.27910849404E+03  0.12500147173E+03 0.  0.
          2    1    1    2  501    0 -0.62588385929E+02  0.11757599702E+02 -0.48995216763E+03  0.49407355098E+03  0.00000000000E+00 0. -1.
          1    1    1    2  502    0  0.44401771749E+02  0.50874572371E+02  0.87593757231E+03  0.87853649329E+03  0.00000000000E+00 0. -1.
         22    1    3    3    0    0  0.17031401381E+02 -0.99116688545E+02 -0.14453312688E+03  0.17607955970E+03  0.00000000000E+00 0.  1.
         22    1    3    3    0    0  0.11552127985E+01  0.36484516471E+02 -0.96345767169E+02  0.10302893433E+03  0.00000000000E+00 0.  1.
</event>
<event>
 7    1  0.5993218E-006  0.1008491E+03  0.7818608E-02  0.1384088E+00
          2   -1    0    0  502    0  0.00000000000E+00  0.00000000000E+00  0.61439496082E+03  0.61439496082E+03  0.00000000000E+00 0. -1.
          1   -1    0    0  501    0 -0.00000000000E+00 -0.00000000000E+00 -0.27066582962E+03  0.27066582962E+03  0.00000000000E+00 0. -1.
         25    2    1    2    0    0  0.78773658855E+02  0.11416043837E+03  0.45206353795E+01  0.18677309386E+03  0.12500342967E+03 0.  0.
          2    1    1    2  501    0 -0.21350631309E+02 -0.33658165020E+02 -0.17253443972E+03  0.17707866732E+03  0.00000000000E+00 0. -1.
          1    1    1    2  502    0 -0.57423027546E+02 -0.80502273355E+02  0.51174293554E+03  0.52120902926E+03  0.00000000000E+00 0. -1.
         22    1    3    3    0    0  0.15916241155E+02  0.93204084590E+02 -0.44353224176E+02  0.10443915268E+03  0.00000000000E+00 0. -1.
         22    1    3    3    0    0  0.62857417700E+02  0.20956353784E+02  0.48873859555E+02  0.82333941189E+02  0.00000000000E+00 0. -1.
</event>
<event>
 7    1  0.5993218E-006  0.5861206E+02  0.7818608E-02  0.1428580E+00
          2   -1    0    0  502    0  0.00000000000E+00  0.00000000000E+00  0.18538476912E+04  0.18538476912E+04  0.00000000000E+00 0. -1.
          1   -1    0    0  501    0 -0.00000000000E+00 -0.00000000000E+00 -0.17643200643E+02  0.17643200643E+02  0.00000000000E+00 0. -1.
         25    2    1    2    0    0  0.44359536279E+02 -0.11177387730E+02  0.74186707084E+03  0.75371482438E+03  0.12500633282E+03 0.  0.
          2    1    1    2  501    0  0.68616546503E+01  0.47882411873E+02  0.43510037057E+02  0.65060979058E+02  0.00000000000E+00 0. -1.
          1    1    1    2  502    0 -0.51221190929E+02 -0.36705024143E+02  0.10508273827E+04  0.10527150884E+04  0.00000000000E+00 0. -1.
         22    1    3    3    0    0  0.87423563953E+02 -0.29108056330E+01  0.54907130370E+03  0.55599518781E+03  0.00000000000E+00 0. -1.
         22    1    3    3    0    0 -0.43064027675E+02 -0.82665820971E+01  0.19279576713E+03  0.19771963657E+03  0.00000000000E+00 0. -1.
</event>
<event>
 7    1  0.5993218E-006  0.7150169E+02  0.7818608E-02  0.1417596E+00
          2   -1    0    0  502    0  0.00000000000E+00  0.00000000000E+00  0.10746437263E+04  0.10746437263E+04  0.00000000000E+00 0. -1.
          1   -1    0    0  501    0 -0.00000000000E+00 -0.00000000000E+00 -0.21812556563E+03  0.21812556563E+03  0.00000000000E+00 0. -1.
         25    2    1    2    0    0  0.77415606705E+02  0.69365509379E+02  0.78198257017E+02  0.18040474449E+03  0.12500461744E+03 0.  0.
          2    1    1    2  501    0 -0.12422920647E+02 -0.41302416526E+02 -0.16288631461E+03  0.16849976277E+03  0.00000000000E+00 0. -1.
          1    1    1    2  502    0 -0.64992686058E+02 -0.28063092853E+02  0.94120621826E+03  0.94386478466E+03  0.00000000000E+00 0. -1.
         22    1    3    3    0    0  0.12888929082E+02  0.29655236417E+02  0.97077707906E+02  0.10232125347E+03  0.00000000000E+00 0.  1.
         22    1    3    3    0    0  0.64526677623E+02  0.39710272962E+02 -0.18879450889E+02  0.78083491019E+02  0.00000000000E+00 0.  1.
</event>
<event>
 7    1  0.5993218E-006  0.4836561E+02  0.7818608E-02  0.1529798E+00
          2   -1    0    0  502    0  0.00000000000E+00  0.00000000000E+00  0.14051053552E+04  0.14051053552E+04  0.00000000000E+00 0. -1.
          1   -1    0    0  501    0 -0.00000000000E+00 -0.00000000000E+00 -0.16499517838E+03  0.16499517838E+03  0.00000000000E+00 0. -1.
         25    2    1    2    0    0 -0.13988228424E+02 -0.71075817699E+02 -0.33447243415E+02  0.14829294505E+03  0.12499854825E+03 0.  0.
          2    1    1    2  501    0  0.16252575097E+02  0.42536191409E+02 -0.66964636249E+02  0.80979851104E+02  0.00000000000E+00 0. -1.
          1    1    1    2  502    0 -0.22643466729E+01  0.28539626290E+02  0.13405220565E+04  0.13408277374E+04  0.00000000000E+00 0. -1.
         22    1    3    3    0    0  0.26488228428E+02 -0.44648077685E+02  0.36361058752E+02  0.63381414310E+02  0.00000000000E+00 0.  1.
         22    1    3    3    0    0 -0.40476456852E+02 -0.26427740014E+02 -0.69808302167E+02  0.84911530743E+02  0.00000000000E+00 0.  1.
</event>
<event>
 7    1  0.5993218E-006  0.1082481E+03  0.7818608E-02  0.1329686E+00
          2   -1    0    0  502    0  0.00000000000E+00  0.00000000000E+00  0.23060208212E+04  0.23060208212E+04  0.00000000000E+00 0. -1.
          1   -1    0    0  501    0 -0.00000000000E+00 -0.00000000000E+00 -0.96678685811E+02  0.96678685811E+02  0.00000000000E+00 0. -1.
         25    2    1    2    0    0 -0.74143834784E+02 -0.94238283352E+02  0.53187157303E+03  0.55936711374E+03  0.12500414174E+03 0.  0.
          2    1    1    2  501    0  0.16777878660E+02  0.10711835100E+03 -0.46775800715E+02  0.11808392721E+03  0.00000000000E+00 0. -1.
          1    1    1    2  502    0  0.57365956124E+02 -0.12880067647E+02  0.17242463631E+04  0.17252484660E+04  0.00000000000E+00 0. -1.
         22    1    3    3    0    0 -0.38955691571E+02 -0.87516922861E+02  0.16532130338E+03  0.19107038244E+03  0.00000000000E+00 0.  1.
         22    1    3    3    0    0 -0.35188143213E+02 -0.67213604906E+01  0.36655026965E+03  0.36829673131E+03  0.00000000000E+00 0.  1.
</event>
<event>
 7    1  0.5993218E-006  0.2600050E+03  0.7818608E-02  0.1281784E+00
          2   -1    0    0  502    0  0.00000000000E+00  0.00000000000E+00  0.28616361756E+04  0.28616361756E+04  0.00000000000E+00 0. -1.
          1   -1    0    0  501    0 -0.00000000000E+00 -0.00000000000E+00 -0.24767927357E+03  0.24767927357E+03  0.00000000000E+00 0. -1.
         25    2    1    2    0    0  0.23202915058E+03  0.41879786963E+02  0.44110332359E+03  0.51554646335E+03  0.12499828205E+03 0.  0.
          2    1    1    2  501    0 -0.26356848041E+03 -0.20825949626E+02 -0.12720394211E+03  0.29339888707E+03  0.00000000000E+00 0. -1.
          1    1    1    2  502    0  0.31539329826E+02 -0.21053837337E+02  0.23000575205E+04  0.23003700987E+04  0.00000000000E+00 0. -1.
         22    1    3    3    0    0  0.86261410753E+02  0.74407990782E+02  0.14988828347E+03  0.18826597568E+03  0.00000000000E+00 0. -1.
         22    1    3    3    0    0  0.14576773983E+03 -0.32528203819E+02  0.29121504012E+03  0.32728048767E+03  0.00000000000E+00 0. -1.
</event>
<event>
 7    1  0.5993218E-006  0.5082576E+02  0.7818608E-02  0.1492354E+00
          2   -1    0    0  502    0  0.00000000000E+00  0.00000000000E+00  0.26259057156E+03  0.26259057156E+03  0.00000000000E+00 0. -1.
          1   -1    0    0  501    0 -0.00000000000E+00 -0.00000000000E+00 -0.40960232126E+03  0.40960232126E+03  0.00000000000E+00 0. -1.
         25    2    1    2    0    0 -0.30580434102E+02 -0.32009049646E+02 -0.24983790581E+03  0.28284587735E+03  0.12499227554E+03 0.  0.
          2    1    1    2  501    0  0.44552675576E+01  0.55454284583E+02 -0.13653053324E+03  0.14743002948E+03  0.00000000000E+00 0. -1.
          1    1    1    2  502    0  0.26125166544E+02 -0.23445234938E+02  0.23935668936E+03  0.24191698599E+03  0.00000000000E+00 0. -1.
         22    1    3    3    0    0 -0.15207136077E+02 -0.68196966079E+02 -0.70539017353E+02  0.99286636257E+02  0.00000000000E+00 0. -1.
         22    1    3    3    0    0 -0.15373298025E+02  0.36187916434E+02 -0.17929888846E+03  0.18355924109E+03  0.00000000000E+00 0. -1.
</event>
<event>
 7    1  0.5993218E-006  0.3544453E+02  0.7818608E-02  0.1544914E+00
          2   -1    0    0  502    0  0.00000000000E+00  0.00000000000E+00  0.10364036349E+04  0.10364036349E+04  0.00000000000E+00 0. -1.
          1   -1    0    0  501    0 -0.00000000000E+00 -0.00000000000E+00 -0.98032810404E+02  0.98032810404E+02  0.00000000000E+00 0. -1.
         25    2    1    2    0    0  0.35184952558E+02  0.19839847389E+02  0.41603728063E+03  0.43628342143E+03  0.12499841804E+03 0.  0.
          2    1    1    2  501    0 -0.32033193837E+02  0.15412404981E+02 -0.83778624589E+02  0.91008382431E+02  0.00000000000E+00 0. -1.
          1    1    1    2  502    0 -0.31517587207E+01 -0.35252252369E+02  0.60611216845E+03  0.60714464144E+03  0.00000000000E+00 0. -1.
         22    1    3    3    0    0  0.64310153316E+02 -0.20497689243E+02  0.33055786067E+03  0.33737879355E+03  0.00000000000E+00 0.  1.
         22    1    3    3    0    0 -0.29125200758E+02  0.40337536631E+02  0.85479419956E+02  0.98904627883E+02  0.00000000000E+00 0.  1.
</event>
<event>
 7    1  0.5993218E-006  0.6545289E+02  0.7818608E-02  0.1471631E+00
          2   -1    0    0  502    0  0.00000000000E+00  0.00000000000E+00  0.45757175403E+03  0.45757175403E+03  0.00000000000E+00 0. -1.
          1   -1    0    0  501    0 -0.00000000000E+00 -0.00000000000E+00 -0.11707616261E+04  0.11707616261E+04  0.00000000000E+00 0. -1.
         25    2    1    2    0    0  0.42476991914E+02  0.83391716505E+02 -0.19463843713E+03  0.24953339144E+03  0.12499727602E+03 0.  0.
          2    1    1    2  501    0 -0.20108364914E+02 -0.61153045274E+02 -0.94700324044E+03  0.94918869498E+03  0.00000000000E+00 0. -1.
          1    1    1    2  502    0 -0.22368627000E+02 -0.22238671230E+02  0.42845180554E+03  0.42961129366E+03  0.00000000000E+00 0. -1.
         22    1    3    3    0    0  0.15719650977E+02  0.11250500426E+03 -0.16404899839E+03  0.19954086620E+03  0.00000000000E+00 0.  1.
         22    1    3    3    0    0  0.26757340938E+02 -0.29113287756E+02 -0.30589438740E+02  0.49992525245E+02  0.00000000000E+00 0.  1.
</event>
<event>
 7    1  0.5993218E-006  0.4442828E+03  0.7818608E-02  0.1095638E+00
          2   -1    0    0  502    0  0.00000000000E+00  0.00000000000E+00  0.94409862656E+03  0.94409862656E+03  0.00000000000E+00 0. -1.
          1   -1    0    0  501    0 -0.00000000000E+00 -0.00000000000E+00 -0.23461435583E+04  0.23461435583E+04  0.00000000000E+00 0. -1.
         25    2    1    2    0    0  0.15731589407E+03 -0.56336172822E+03 -0.62772679138E+03  0.86705966948E+03  0.12500727366E+03 0.  0.
          2    1    1    2  501    0  0.33460119858E+02  0.17338361437E+03 -0.15361856779E+04  0.15463013595E+04  0.00000000000E+00 0. -1.
          1    1    1    2  502    0 -0.19077601393E+03  0.38997811385E+03  0.76186753755E+03  0.87688115588E+03  0.00000000000E+00 0. -1.
         22    1    3    3    0    0 -0.81479612664E+01 -0.18449947231E+03 -0.19753736648E+03  0.27042088623E+03  0.00000000000E+00 0. -1.
         22    1    3    3    0    0  0.16546385533E+03 -0.37886225591E+03 -0.43018942491E+03  0.59663878325E+03  0.00000000000E+00 0. -1.
</event>
<event>
 7    1  0.5993218E-006  0.5702774E+02  0.7818608E-02  0.1431151E+00
          2   -1    0    0  502    0  0.00000000000E+00  0.00000000000E+00  0.24643990679E+04  0.24643990679E+04  0.00000000000E+00 0. -1.
          1   -1    0    0  501    0 -0.00000000000E+00 -0.00000000000E+00 -0.45371452647E+02  0.45371452647E+02  0.00000000000E+00 0. -1.
         25    2    1    2    0    0  0.16972133954E+02  0.64707786513E+02  0.36067271606E+03  0.38753472396E+03  0.12499281260E+03 0.  0.
          2    1    1    2  501    0  0.29379691285E+02 -0.49588472456E+02 -0.54130646383E+01  0.57892004019E+02  0.00000000000E+00 0. -1.
          1    1    1    2  502    0 -0.46351825239E+02 -0.15119314057E+02  0.20637679639E+04  0.20643437926E+04  0.00000000000E+00 0. -1.
         22    1    3    3    0    0  0.17716283117E+02  0.65337981499E+02  0.37101800510E+03  0.37714357826E+03  0.00000000000E+00 0. -1.
         22    1    3    3    0    0 -0.74414916304E+00 -0.63019498549E+00 -0.10345289041E+02  0.10391145704E+02  0.00000000000E+00 0. -1.
</event>
<event>
 7    1  0.5993218E-006  0.1097219E+03  0.7818608E-02  0.1263690E+00
          2   -1    0    0  502    0  0.00000000000E+00  0.00000000000E+00  0.93839119214E+03  0.93839119214E+03  0.00000000000E+00 0. -1.
          1   -1    0    0  501    0 -0.00000000000E+00 -0.00000000000E+00 -0.16379318668E+04  0.16379318668E+04  0.00000000000E+00 0. -1.
         25    2    1    2    0    0  0.52750111020E+02 -0.22746680645E+02 -0.11954416658E+03  0.18228198717E+03  0.12504370992E+03 0.  0.
          2    1    1    2  501    0  0.23688953693E+02  0.10430402811E+03 -0.14816397528E+04  0.14854954910E+04  0.00000000000E+00 0. -1.
          1    1    1    2  502    0 -0.76439064714E+02 -0.81557347464E+02  0.90164324471E+03  0.90854558074E+03  0.00000000000E+00 0. -1.
         22    1    3    3    0    0  0.38500471239E+02  0.26159864814E+01  0.17364857212E+02  0.42316284536E+02  0.00000000000E+00 0.  1.
         22    1    3    3    0    0  0.14249639781E+02 -0.25362667126E+02 -0.13690902379E+03  0.13996570263E+03  0.00000000000E+00 0.  1.
</event>
<event>
 7    1  0.5993218E-006  0.8519302E+02  0.7818608E-02  0.1325250E+00
          2   -1    0    0  502    0  0.00000000000E+00  0.00000000000E+00  0.26245796786E+04  0.26245796786E+04  0.00000000000E+00 0. -1.
          1   -1    0    0  501    0 -0.00000000000E+00 -0.00000000000E+00 -0.94658903052E+02  0.94658903052E+02  0.00000000000E+00 0. -1.
         25    2    1    2    0    0  0.22294033261E+02  0.58825216108E+02  0.72859602548E+03  0.74191222001E+03  0.12499657553E+03 0.  0.
          2    1    1    2  501    0  0.54949990795E+02 -0.67136642998E+02 -0.65611948761E+02  0.10877388538E+03  0.00000000000E+00 0. -1.
          1    1    1    2  502    0 -0.77244024056E+02  0.83114268900E+01  0.18669366988E+04  0.18685524762E+04  0.00000000000E+00 0. -1.
         22    1    3    3    0    0  0.57178099222E+02 -0.62888467260E+01  0.45108356956E+03  0.45473648562E+03  0.00000000000E+00 0. -1.
         22    1    3    3    0    0 -0.34884065961E+02  0.65114062834E+02  0.27751245591E+03  0.28717573439E+03  0.00000000000E+00 0. -1.
</event>
<event>
 7    1  0.5993218E-006  0.4915362E+03  0.7818608E-02  0.1105796E+00
          2   -1    0    0  502    0  0.00000000000E+00  0.00000000000E+00  0.98739486521E+03  0.98739486521E+03  0.00000000000E+00 0. -1.
          1   -1    0    0  501    0 -0.00000000000E+00 -0.00000000000E+00 -0.78418687474E+03  0.78418687474E+03  0.00000000000E+00 0. -1.
         25    2    1    2    0    0  0.15468910262E+03 -0.51655302423E+03 -0.41520595064E+03  0.69193587432E+03  0.12499410950E+03 0.  0.
          2    1    1    2  501    0 -0.18957048482E+03  0.38104750447E+03 -0.20009608819E+02  0.42606871960E+03  0.00000000000E+00 0. -1.
          1    1    1    2  502    0  0.34881382197E+02  0.13550551976E+03  0.63842354993E+03  0.65357714603E+03  0.00000000000E+00 0. -1.
         22    1    3    3    0    0  0.35613479520E+02 -0.28679771203E+03 -0.16921646475E+03  0.33489619211E+03  0.00000000000E+00 0. -1.
         22    1    3    3    0    0  0.11907562310E+03 -0.22975531221E+03 -0.24598948589E+03  0.35703968221E+03  0.00000000000E+00 0. -1.
</event>
<event>
 7    1  0.5993218E-006  0.6569558E+02  0.7818608E-02  0.1393193E+00
          2   -1    0    0  502    0  0.00000000000E+00  0.00000000000E+00  0.10952700705E+04  0.10952700705E+04  0.00000000000E+00 0. -1.
          1   -1    0    0  501    0 -0.00000000000E+00 -0.00000000000E+00 -0.79171257955E+03  0.79171257955E+03  0.00000000000E+00 0. -1.
         25    2    1    2    0    0  0.41722514206E+02 -0.43829571913E+02  0.15324330065E+03  0.20680725384E+03  0.12499572584E+03 0.  0.
          2    1    1    2  501    0 -0.65459434492E+02 -0.78409626294E+01 -0.76262388186E+03  0.76546822498E+03  0.00000000000E+00 0. -1.
          1    1    1    2  502    0  0.23736920287E+02  0.51670534542E+02  0.91293807220E+03  0.91470717128E+03  0.00000000000E+00 0. -1.
         22    1    3    3    0    0  0.79490963537E+01 -0.70484110158E+02  0.14715006600E+03  0.16335342005E+03  0.00000000000E+00 0. -1.
         22    1    3    3    0    0  0.33773417852E+02  0.26654538245E+02  0.60932346536E+01  0.43453833790E+02  0.00000000000E+00 0. -1.
</event>
<event>
 7    1  0.5993218E-006  0.8600057E+02  0.7818608E-02  0.1367359E+00
          2   -1    0    0  502    0  0.00000000000E+00  0.00000000000E+00  0.14812845131E+04  0.14812845131E+04  0.00000000000E+00 0. -1.
          1   -1    0    0  501    0 -0.00000000000E+00 -0.00000000000E+00 -0.76992396847E+03  0.76992396847E+03  0.00000000000E+00 0. -1.
         25    2    1    2    0    0  0.95408519729E+02  0.39575912396E+02  0.97282779654E+02  0.18909586452E+03  0.12499707310E+03 0.  0.
          2    1    1    2  501    0 -0.10482834719E+02 -0.52585196127E+02 -0.72164262023E+03  0.72363192578E+03  0.00000000000E+00 0. -1.
          1    1    1    2  502    0 -0.84925685010E+02  0.13009283730E+02  0.13357203852E+04  0.13384806913E+04  0.00000000000E+00 0. -1.
         22    1    3    3    0    0  0.11624114643E+03  0.49736720378E+02  0.10532971721E+03  0.16456030750E+03  0.00000000000E+00 0. -1.
         22    1    3    3    0    0 -0.20832626703E+02 -0.10160807982E+02 -0.80469375555E+01  0.24535557019E+02  0.00000000000E+00 0. -1.
</event>
<event>
 7    1  0.5993218E-006  0.7822789E+02  0.7818608E-02  0.1378987E+00
          2   -1    0    0  502    0  0.00000000000E+00  0.00000000000E+00  0.62237474518E+03  0.62237474518E+03  0.00000000000E+00 0. -1.
          1   -1    0    0  501    0 -0.00000000000E+00 -0.00000000000E+00 -0.18322201194E+04  0.18322201194E+04  0.00000000000E+00 0. -1.
         25    2    1    2    0    0  0.51664699826E+02 -0.92711622051E+02 -0.13097859849E+03  0.20986873149E+03  0.12499922049E+03 0.  0.
          2    1    1    2  501    0 -0.51502582404E+02  0.14711376757E+02 -0.16587529747E+04  0.16596175377E+04  0.00000000000E+00 0. -1.
          1    1    1    2  502    0 -0.16211742178E+00  0.78000245294E+02  0.57988619898E+03  0.58510859532E+03  0.00000000000E+00 0. -1.
         22    1    3    3    0    0  0.40577873498E+01  0.22739371659E+02 -0.64253428440E+02  0.68279189567E+02  0.00000000000E+00 0. -1.
         22    1    3    3    0    0  0.47606912476E+02 -0.11545099371E+03 -0.66725170055E+02  0.14158954193E+03  0.00000000000E+00 0. -1.
</event>
<event>
 7    1  0.5993218E-006  0.1387205E+03  0.7818608E-02  0.1311055E+00
          2   -1    0    0  502    0  0.00000000000E+00  0.00000000000E+00  0.18623878536E+04  0.18623878536E+04  0.00000000000E+00 0. -1.
          1   -1    0    0  501    0 -0.00000000000E+00 -0.00000000000E+00 -0.79897191879E+03  0.79897191879E+03  0.00000000000E+00 0. -1.
         25    2    1    2    0    0 -0.14161073099E+02 -0.93556150213E+02 -0.28445387606E+03  0.32479495670E+03  0.12499786821E+03 0.  0.
          2    1    1    2  501    0  0.30802710471E+02 -0.44575571082E+02 -0.49022585114E+03  0.49321108426E+03  0.00000000000E+00 0. -1.
          1    1    1    2  502    0 -0.16641637372E+02  0.13813172130E+03  0.18380956620E+04  0.18433537314E+04  0.00000000000E+00 0. -1.
         22    1    3    3    0    0  0.20261776488E+02 -0.40729632723E+02 -0.14755674232E+02  0.47824392210E+02  0.00000000000E+00 0.  1.
         22    1    3    3    0    0 -0.34422849587E+02 -0.52826517490E+02 -0.26969820183E+03  0.27697056449E+03  0.00000000000E+00 0.  1.
</event>
<event>
 7    1  0.5993218E-006  0.6999975E+02  0.7818608E-02  0.1514569E+00
          2   -1    0    0  502    0  0.00000000000E+00  0.00000000000E+00  0.12738304809E+04  0.12738304809E+04  0.00000000000E+00 0. -1.
          1   -1    0    0  501    0 -0.00000000000E+00 -0.00000000000E+00 -0.90639593617E+02  0.90639593617E+02  0.00000000000E+00 0. -1.
         25    2    1    2    0    0  0.25942663199E+02  0.63457485792E+02  0.61672701076E+03  0.63299040842E+03  0.12499910832E+03 0.  0.
          2    1    1    2  501    0  0.19861890994E+02 -0.92138593755E+01 -0.79074088112E+02  0.82049383478E+02  0.00000000000E+00 0. -1.
          1    1    1    2  502    0 -0.45804554193E+02 -0.54243626417E+02  0.64553796468E+03  0.64943028266E+03  0.00000000000E+00 0. -1.
         22    1    3    3    0    0 -0.45291592300E+02  0.23274704717E+02  0.13332544872E+03  0.14271900886E+03  0.00000000000E+00 0.  1.
         22    1    3    3    0    0  0.71234255499E+02  0.40182781075E+02  0.48340156204E+03  0.49027139957E+03  0.00000000000E+00 0.  1.
</event>
<event>
 7    1  0.5993218E-006  0.9622979E+02  0.7818608E-02  0.1356674E+00
          2   -1    0    0  502    0  0.00000000000E+00  0.00000000000E+00  0.79956465056E+03  0.79956465056E+03  0.00000000000E+00 0. -1.
          1   -1    0    0  501    0 -0.00000000000E+00 -0.00000000000E+00 -0.86720978152E+03  0.86720978152E+03  0.00000000000E+00 0. -1.
         25    2    1    2    0    0  0.32818187002E+02 -0.13659310549E+03 -0.68547089388E+02  0.20015113192E+03  0.12500824885E+03 0.  0.
          2    1    1    2  501    0  0.99739755653E+01  0.51449784795E+02 -0.72882195761E+03  0.73070377475E+03  0.00000000000E+00 0. -1.
          1    1    1    2  502    0 -0.42792162567E+02  0.85143320696E+02  0.72972391604E+03  0.73591952541E+03  0.00000000000E+00 0. -1.
         22    1    3    3    0    0 -0.36262440481E+02 -0.15885033756E+02 -0.43532360814E+02  0.58841867111E+02  0.00000000000E+00 0.  1.
         22    1    3    3    0    0  0.69080627483E+02 -0.12070807174E+03 -0.25014728574E+02  0.14130926481E+03  0.00000000000E+00 0.  1.
</event>
<event>
 7    1  0.5993218E-006  0.8502541E+02  0.7818608E-02  0.1490488E+00
          2   -1    0    0  502    0  0.00000000000E+00  0.00000000000E+00  0.44556290011E+03  0.44556290011E+03  0.00000000000E+00 0. -1.
          1   -1    0    0  501    0 -0.00000000000E+00 -0.00000000000E+00 -0.21276739476E+03  0.21276739476E+03  0.00000000000E+00 0. -1.
         25    2    1    2    0    0  0.87984687226E+02 -0.24001854885E+02  0.80632921093E+02  0.17447981374E+03  0.12499657282E+03 0.  0.
          2    1    1    2  501    0 -0.84635746173E+02  0.30099611263E+01 -0.15464037297E+03  0.17631198016E+03  0.00000000000E+00 0. -1.
          1    1    1    2  502    0 -0.33489410538E+01  0.20991893759E+02  0.30680295723E+03  0.30753850096E+03  0.00000000000E+00 0. -1.
         22    1    3    3    0    0  0.52483866228E+02 -0.29686498035E+02 -0.23193377788E+02  0.64604776550E+02  0.00000000000E+00 0. -1.
         22    1    3    3    0    0  0.35500820999E+02  0.56846431500E+01  0.10382629888E+03  0.10987503719E+03  0.00000000000E+00 0. -1.
</event>
<event>
 7    1  0.5993218E-006  0.2440490E+03  0.7818608E-02  0.1259610E+00
          2   -1    0    0  502    0  0.00000000000E+00  0.00000000000E+00  0.69983725128E+03  0.69983725128E+03  0.00000000000E+00 0. -1.
          1   -1    0    0  501    0 -0.00000000000E+00 -0.00000000000E+00 -0.55711924780E+03  0.55711924780E+03  0.00000000000E+00 0. -1.
         25    2    1    2    0    0 -0.25097893378E+03 -0.96796741981E+01 -0.16025774810E+03  0.32310098630E+03  0.12501032049E+03 0.  0.
          2    1    1    2  501    0  0.10370708148E+02  0.48963994550E+02 -0.28917905562E+03  0.29347836472E+03  0.00000000000E+00 0. -1.
          1    1    1    2  502    0  0.24060822563E+03 -0.39284320352E+02  0.59215480720E+03  0.64037714806E+03  0.00000000000E+00 0. -1.
         22    1    3    3    0    0 -0.16275891026E+03  0.18941528252E+02 -0.35522803592E+02  0.16766369296E+03  0.00000000000E+00 0. -1.
         22    1    3    3    0    0 -0.88220023518E+02 -0.28621202450E+02 -0.12473494451E+03  0.15543729334E+03  0.00000000000E+00 0. -1.
</event>
<event>
 7    1  0.5993218E-006  0.1107166E+03  0.7818608E-02  0.1285400E+00
          2   -1    0    0  502    0  0.00000000000E+00  0.00000000000E+00  0.68590045284E+03  0.68590045284E+03  0.00000000000E+00 0. -1.
          1   -1    0    0  501    0 -0.00000000000E+00 -0.00000000000E+00 -0.42175907934E+03  0.42175907934E+03  0.00000000000E+00 0. -1.
         25    2    1    2    0    0  0.71471726918E+02  0.10146485945E+03  0.61423487024E+02  0.18654833171E+03  0.12499643936E+03 0.  0.
          2    1    1    2  501    0  0.38063971893E+02 -0.77182222637E+02 -0.34830665164E+03  0.35878055274E+03  0.00000000000E+00 0. -1.
          1    1    1    2  502    0 -0.10953569881E+03 -0.24282636814E+02  0.55102453812E+03  0.56233064773E+03  0.00000000000E+00 0. -1.
         22    1    3    3    0    0 -0.23970406991E+02 -0.95542283354E+01  0.24446992026E+02  0.35546013975E+02  0.00000000000E+00 0.  1.
         22    1    3    3    0    0  0.95442133909E+02  0.11101908779E+03  0.36976494998E+02  0.15100231773E+03  0.00000000000E+00 0.  1.
</event>
<event>
 7    1  0.5993218E-006  0.1576566E+03  0.7818608E-02  0.1347875E+00
          2   -1    0    0  502    0  0.00000000000E+00  0.00000000000E+00  0.55084698339E+03  0.55084698339E+03  0.00000000000E+00 0. -1.
          1   -1    0    0  501    0 -0.00000000000E+00 -0.00000000000E+00 -0.83515841809E+03  0.83515841809E+03  0.00000000000E+00 0. -1.
         25    2    1    2    0    0  0.64294389017E+02 -0.14309730297E+03  0.11644359204E+03  0.23193644384E+03  0.12499918911E+03 0.  0.
          2    1    1    2  501    0 -0.94485987692E+02  0.12645796217E+03 -0.76858421236E+03  0.78462787967E+03  0.00000000000E+00 0. -1.
          1    1    1    2  502    0  0.30191598675E+02  0.16639340802E+02  0.36782918562E+03  0.36944107796E+03  0.00000000000E+00 0. -1.
         22    1    3    3    0    0 -0.10735289430E+02 -0.63135215142E+02 -0.97278038647E+01  0.64776014066E+02  0.00000000000E+00 0. -1.
         22    1    3    3    0    0  0.75029678447E+02 -0.79962087829E+02  0.12617139590E+03  0.16716042977E+03  0.00000000000E+00 0. -1.
</event>
<event>
 7    1  0.5993218E-006  0.3808061E+02  0.7818608E-02  0.1552624E+00
          2   -1    0    0  502    0  0.00000000000E+00  0.00000000000E+00  0.30961983185E+03  0.30961983185E+03  0.00000000000E+00 0. -1.
          1   -1    0    0  501    0 -0.00000000000E+00 -0.00000000000E+00 -0.55066290832E+03  0.55066290832E+03  0.00000000000E+00 0. -1.
         25    2    1    2    0    0 -0.23452042852E+02  0.34771851598E+02 -0.91404770807E+02  0.16043107084E+03  0.12499686551E+03 0.  0.
          2    1    1    2  501    0  0.31240795300E+02  0.25973975424E+01 -0.42283780450E+03  0.42399828145E+03  0.00000000000E+00 0. -1.
          1    1    1    2  502    0 -0.77887524473E+01 -0.37369249140E+02  0.27319949883E+03  0.27585338788E+03  0.00000000000E+00 0. -1.
         22    1    3    3    0    0 -0.20162562386E+02  0.50663662472E+02  0.11939657562E+02  0.55820166963E+02  0.00000000000E+00 0. -1.
         22    1    3    3    0    0 -0.32894804662E+01 -0.15891810874E+02 -0.10334442837E+03  0.10461090387E+03  0.00000000000E+00 0. -1.
</event>
<event>
 7    1  0.5993218E-006  0.1143799E+03  0.7818608E-02  0.1369903E+00
          2   -1    0    0  502    0  0.00000000000E+00  0.00000000000E+00  0.10786420337E+04  0.10786420337E+04  0.00000000000E+00 0. -1.
          1   -1    0    0  501    0 -0.00000000000E+00 -0.00000000000E+00 -0.95978375578E+03  0.95978375578E+03  0.00000000000E+00 0. -1.
         25    2    1    2    0    0 -0.81123875096E+02  0.61325145543E+01  0.10833761206E+03  0.18433923938E+03  0.12500090456E+03 0.  0.
          2    1    1    2  501    0 -0.36182087481E+02 -0.15781975710E+02 -0.91764199280E+03  0.91849063205E+03  0.00000000000E+00 0. -1.
          1    1    1    2  502    0  0.11730596258E+03  0.96494611553E+01  0.92816265865E+03  0.93559591805E+03  0.00000000000E+00 0. -1.
         22    1    3    3    0    0 -0.17984985585E+02  0.88786705664E+01  0.11862513645E+03  0.12030882551E+03  0.00000000000E+00 0.  1.
         22    1    3    3    0    0 -0.63138889512E+02 -0.27461560121E+01 -0.10287524394E+02  0.64030413865E+02  0.00000000000E+00 0.  1.
</event>
<event>
 7    1  0.5993218E-006  0.5949023E+02  0.7818608E-02  0.1498133E+00
          2   -1    0    0  502    0  0.00000000000E+00  0.00000000000E+00  0.18554873744E+04  0.18554873744E+04  0.00000000000E+00 0. -1.
          1   -1    0    0  501    0 -0.00000000000E+00 -0.00000000000E+00 -0.15168683185E+03  0.15168683185E+03  0.00000000000E+00 0. -1.
         25    2    1    2    0    0  0.13705754299E+02 -0.82899111717E+02  0.43329567305E+02  0.15672464588E+03  0.12500021120E+03 0.  0.
          2    1    1    2  501    0 -0.16429421494E+02  0.23672286017E+02 -0.92291204211E+02  0.96684897428E+02  0.00000000000E+00 0. -1.
          1    1    1    2  502    0  0.27236671946E+01  0.59226825700E+02  0.17527621795E+04  0.17537646629E+04  0.00000000000E+00 0. -1.
         22    1    3    3    0    0  0.29708219582E+02 -0.11271949905E+03  0.36958855194E+02  0.12228745133E+03  0.00000000000E+00 0. -1.
         22    1    3    3    0    0 -0.16002465283E+02  0.29820387331E+02  0.63707121102E+01  0.34437194550E+02  0.00000000000E+00 0. -1.
</event>
<event>
 7    1  0.5993218E-006  0.5129545E+02  0.7818608E-02  0.1445528E+00
          2   -1    0    0  502    0  0.00000000000E+00  0.00000000000E+00  0.32386177883E+03  0.32386177883E+03  0.00000000000E+00 0. -1.
          1   -1    0    0  501    0 -0.00000000000E+00 -0.00000000000E+00 -0.27213594836E+03  0.27213594836E+03  0.00000000000E+00 0. -1.
         25    2    1    2    0    0  0.39445061265E+02 -0.31281753730E+02 -0.69483403489E+02  0.15161688814E+03  0.12500110574E+03 0.  0.
          2    1    1    2  501    0  0.96907825835E+01  0.47695576064E+02 -0.15546141257E+03  0.16290190312E+03  0.00000000000E+00 0. -1.
          1    1    1    2  502    0 -0.49135843849E+02 -0.16413822334E+02  0.27667064653E+03  0.28147893592E+03  0.00000000000E+00 0. -1.
         22    1    3    3    0    0  0.50268877154E+02 -0.74684224855E+02 -0.46556061163E+02  0.10135166641E+03  0.00000000000E+00 0. -1.
         22    1    3    3    0    0 -0.10823815888E+02  0.43402471125E+02 -0.22927342326E+02  0.50265221737E+02  0.00000000000E+00 0. -1.
</event>
<event>
 7    1  0.5993218E-006  0.2017392E+03  0.7818608E-02  0.1348971E+00
          2   -1    0    0  502    0  0.00000000000E+00  0.00000000000E+00  0.15566090676E+04  0.15566090676E+04  0.00000000000E+00 0. -1.
          1   -1    0    0  501    0 -0.00000000000E+00 -0.00000000000E+00 -0.56849877832E+03  0.56849877832E+03  0.00000000000E+00 0. -1.
         25    2    1    2    0    0  0.19459574071E+03  0.10126169631E+03 -0.48906529917E+02  0.25717063568E+03  0.12499381484E+03 0.  0.
          2    1    1    2  501    0 -0.18194336526E+03 -0.77762404349E+02 -0.39177006201E+03  0.43890108360E+03  0.00000000000E+00 0. -1.
          1    1    1    2  502    0 -0.12652375442E+02 -0.23499291962E+02  0.14287868812E+04  0.14290361266E+04  0.00000000000E+00 0. -1.
         22    1    3    3    0    0  0.17665539783E+03  0.30273761934E+02 -0.36426695150E+02  0.18289487244E+03  0.00000000000E+00 0.  1.
         22    1    3    3    0    0  0.17940342874E+02  0.70987934377E+02 -0.12479834767E+02  0.74275763243E+02  0.00000000000E+00 0.  1.
</event>
<event>
 7    1  0.5993218E-006  0.1450390E+03  0.7818608E-02  0.1220245E+00
          2   -1    0    0  502    0  0.00000000000E+00  0.00000000000E+00  0.71603425933E+03  0.71603425933E+03  0.00000000000E+00 0. -1.
          1   -1    0    0  501    0 -0.00000000000E+00 -0.00000000000E+00 -0.24285658259E+04  0.24285658259E+04  0.00000000000E+00 0. -1.
         25    2    1    2    0    0  0.87170461264E+02  0.21778244409E+03 -0.25409616572E+03  0.36772130226E+03  0.12500484962E+03 0.  0.
          2    1    1    2  501    0  0.12789416200E+02 -0.14169571018E+03 -0.21092541071E+04  0.21140468613E+04  0.00000000000E+00 0. -1.
          1    1    1    2  502    0 -0.99959877465E+02 -0.76086733913E+02  0.65081870618E+03  0.66283192175E+03  0.00000000000E+00 0. -1.
         22    1    3    3    0    0  0.10708116174E+03  0.15661055540E+03 -0.23201419234E+03  0.29970623402E+03  0.00000000000E+00 0. -1.
         22    1    3    3    0    0 -0.19910700475E+02  0.61171888690E+02 -0.22081973385E+02  0.68015068241E+02  0.00000000000E+00 0. -1.
</event>
<event>
 7    1  0.5993218E-006  0.5208435E+02  0.7818608E-02  0.1554192E+00
          2   -1    0    0  502    0  0.00000000000E+00  0.00000000000E+00  0.44112544078E+03  0.44112544078E+03  0.00000000000E+00 0. -1.
          1   -1    0    0  501    0 -0.00000000000E+00 -0.00000000000E+00 -0.55790629253E+03  0.55790629253E+03  0.00000000000E+00 0. -1.
         25    2    1    2    0    0  0.61113660417E+02  0.12731313549E+02 -0.16533426042E+03  0.21646669492E+03  0.12500178600E+03 0.  0.
          2    1    1    2  501    0 -0.51039698561E+02  0.76012260642E+01 -0.36487926749E+03  0.36851012104E+03  0.00000000000E+00 0. -1.
          1    1    1    2  502    0 -0.10073961856E+02 -0.20332539614E+02  0.41343267615E+03  0.41405491735E+03  0.00000000000E+00 0. -1.
         22    1    3    3    0    0  0.18148465280E+01  0.19517019459E+01 -0.15535217197E+03  0.15537503063E+03  0.00000000000E+00 0. -1.
         22    1    3    3    0    0  0.59298813889E+02  0.10779611604E+02 -0.99820884515E+01  0.61091664283E+02  0.00000000000E+00 0. -1.
</event>
<event>
 7    1  0.5993218E-006  0.2674585E+03  0.7818608E-02  0.1211098E+00
          2   -1    0    0  502    0  0.00000000000E+00  0.00000000000E+00  0.57366743802E+03  0.57366743802E+03  0.00000000000E+00 0. -1.
          1   -1    0    0  501    0 -0.00000000000E+00 -0.00000000000E+00 -0.57474719798E+03  0.57474719798E+03  0.00000000000E+00 0. -1.
         25    2    1    2    0    0 -0.97152782346E+02  0.18842998302E+03 -0.20780137904E+03  0.32211406600E+03  0.12502614432E+03 0.  0.
          2    1    1    2  501    0  0.12807954671E+02  0.73941321775E+02 -0.26749242442E+03  0.27781929359E+03  0.00000000000E+00 0. -1.
          1    1    1    2  502    0  0.84344827675E+02 -0.26237130479E+03  0.47421404350E+03  0.54848127642E+03  0.00000000000E+00 0. -1.
         22    1    3    3    0    0 -0.54886122170E+02  0.19557271984E+03 -0.16758471644E+03  0.26333593058E+03  0.00000000000E+00 0.  1.
         22    1    3    3    0    0 -0.42266660177E+02 -0.71427368210E+01 -0.40216662598E+02  0.58778135411E+02  0.00000000000E+00 0.  1.
</event>
<event>
 7    1  0.5993218E-006  0.9211218E+02  0.7818608E-02  0.1356573E+00
          2   -1    0    0  502    0  0.00000000000E+00  0.00000000000E+00  0.10201824514E+04  0.10201824514E+04  0.00000000000E+00 0. -1.
          1   -1    0    0  501    0 -0.00000000000E+00 -0.00000000000E+00 -0.12450498455E+04  0.12450498455E+04  0.00000000000E+00 0. -1.
         25    2    1    2    0    0  0.15076317730E+02  0.35397495121E+02  0.53438095483E+02  0.14128371552E+03  0.12500072082E+03 0.  0.
          2    1    1    2  501    0 -0.30359664124E+02 -0.88019985662E+02 -0.11985063629E+04  0.12021176020E+04  0.00000000000E+00 0. -1.
          1    1    1    2  502    0  0.15283346395E+02  0.52622490541E+02  0.92020087335E+03  0.92183097936E+03  0.00000000000E+00 0. -1.
         22    1    3    3    0    0  0.60333770189E+02 -0.92270942488E+01  0.47487434803E+01  0.61219716254E+02  0.00000000000E+00 0. -1.
         22    1    3    3    0    0 -0.45257452460E+02  0.44624589370E+02  0.48689352003E+02  0.80063999263E+02  0.00000000000E+00 0. -1.
</event>
<event>
 7    1  0.5993218E-006  0.7578382E+02  0.7818608E-02  0.1420870E+00
          2   -1    0    0  502    0  0.00000000000E+00  0.00000000000E+00  0.64052434418E+03  0.64052434418E+03  0.00000000000E+00 0. -1.
          1   -1    0    0  501    0 -0.00000000000E+00 -0.00000000000E+00 -0.37013038853E+03  0.37013038853E+03  0.00000000000E+00 0. -1.
         25    2    1    2    0    0  0.16832950851E+02  0.39733335267E+02  0.25757632726E+03  0.28953839007E+03  0.12499931519E+03 0.  0.
          2    1    1    2  501    0 -0.14453880222E+01 -0.76308616764E+02 -0.34893983287E+03  0.35718916712E+03  0.00000000000E+00 0. -1.
          1    1    1    2  502    0 -0.15387562828E+02  0.36575281497E+02  0.36175746126E+03  0.36392717552E+03  0.00000000000E+00 0. -1.
         22    1    3    3    0    0  0.63205141696E+02  0.48579511874E+02  0.19855131000E+03  0.21395672837E+03  0.00000000000E+00 0. -1.
         22    1    3    3    0    0 -0.46372190845E+02 -0.88461766071E+01  0.59025017257E+02  0.75581661707E+02  0.00000000000E+00 0. -1.
</event>
<event>
 7    1  0.5993218E-006  0.9226892E+02  0.7818608E-02  0.1364297E+00
          2   -1    0    0  502    0  0.00000000000E+00  0.00000000000E+00  0.11843002563E+04  0.11843002563E+04  0.00000000000E+00 0. -1.
          1   -1    0    0  501    0 -0.00000000000E+00 -0.00000000000E+00 -0.37464724613E+03  0.37464724613E+03  0.00000000000E+00 0. -1.
         25    2    1    2    0    0 -0.31139941034E+02 -0.12041132402E+03 -0.19328133300E+03  0.26162923487E+03  0.12499439977E+03 0.  0.
          2    1    1    2  501    0 -0.33592538815E+01  0.82487150774E+02 -0.13499349935E+03  0.15823608784E+03  0.00000000000E+00 0. -1.
          1    1    1    2  502    0  0.34499194916E+02  0.37924173243E+02  0.11379278425E+04  0.11390821797E+04  0.00000000000E+00 0. -1.
         22    1    3    3    0    0 -0.13297638974E+02 -0.11471363128E+03 -0.66069493914E+02  0.13304594105E+03  0.00000000000E+00 0. -1.
         22    1    3    3    0    0 -0.17842302060E+02 -0.56976927342E+01 -0.12721183909E+03  0.12858329382E+03  0.00000000000E+00 0. -1.
</event>
<event>
 7    1  0.5993218E-006  0.5823632E+02  0.7818608E-02  0.1515736E+00
          2   -1    0    0  502    0  0.00000000000E+00  0.00000000000E+00  0.11838180545E+04  0.11838180545E+04  0.00000000000E+00 0. -1.
          1   -1    0    0  501    0 -0.00000000000E+00 -0.00000000000E+00 -0.38634929842E+03  0.38634929842E+03  0.00000000000E+00 0. -1.
         25    2    1    2    0    0 -0.59693144610E+01 -0.39520873759E+02 -0.12104639104E+03  0.17853195669E+03  0.12499559431E+03 0.  0.
          2    1    1    2  501    0 -0.10036437015E+02  0.60151957733E+02 -0.23247930910E+03  0.24034478827E+03  0.00000000000E+00 0. -1.
          1    1    1    2  502    0  0.16005751476E+02 -0.20631083974E+02  0.11509944563E+04  0.11512906080E+04  0.00000000000E+00 0. -1.
         22    1    3    3    0    0  0.34801439814E+01 -0.41271939602E+01 -0.13804240713E+03  0.13814793266E+03  0.00000000000E+00 0.  1.
         22    1    3    3    0    0 -0.94494584424E+01 -0.35393679799E+02  0.16996016083E+02  0.40384024035E+02  0.00000000000E+00 0.  1.
</event>
<event>
 7    1  0.5993218E-006  0.8928441E+02  0.7818608E-02  0.1333359E+00
          2   -1    0    0  502    0  0.00000000000E+00  0.00000000000E+00  0.17230189801E+04  0.17230189801E+04  0.00000000000E+00 0. -1.
          1   -1    0    0  501    0 -0.00000000000E+00 -0.00000000000E+00 -0.56190773819E+03  0.56190773819E+03  0.00000000000E+00 0. -1.
         25    2    1    2    0    0  0.12687390137E+03 -0.90318884010E+02  0.45434317147E+03  0.49629365335E+03  0.12500074093E+03 0.  0.
          2    1    1    2  501    0 -0.64271024087E+02  0.61255325728E+02 -0.53632548367E+03  0.54362487425E+03  0.00000000000E+00 0. -1.
          1    1    1    2  502    0 -0.62602877284E+02  0.29063558282E+02  0.12430935541E+04  0.12450081907E+04  0.00000000000E+00 0. -1.
         22    1    3    3    0    0  0.76067086303E+02 -0.84477525962E+02  0.15282012628E+03  0.19046428801E+03  0.00000000000E+00 0.  1.
         22    1    3    3    0    0  0.50806815069E+02 -0.58413580480E+01  0.30152304519E+03  0.30582936534E+03  0.00000000000E+00 0.  1.
</event>
<event>
 7    1  0.5993218E-006  0.3348950E+02  0.7818608E-02  0.1562912E+00
          2   -1    0    0  502    0  0.00000000000E+00  0.00000000000E+00  0.19980600968E+03  0.19980600968E+03  0.00000000000E+00 0. -1.
          1   -1    0    0  501    0 -0.00000000000E+00 -0.00000000000E+00 -0.78501789392E+03  0.78501789392E+03  0.00000000000E+00 0. -1.
         25    2    1    2    0    0 -0.10681093458E+02 -0.19391001925E+02 -0.74069263246E+01  0.12716214983E+03  0.12500101231E+03 0.  0.
          2    1    1    2  501    0  0.33109843698E+02 -0.54786078156E+01 -0.71533051545E+03  0.71611732505E+03  0.00000000000E+00 0. -1.
          1    1    1    2  502    0 -0.22428750240E+02  0.24869609741E+02  0.13752555753E+03  0.14154442872E+03  0.00000000000E+00 0. -1.
         22    1    3    3    0    0  0.20137202155E+01  0.36227759508E+02  0.39258825100E+02  0.53458030046E+02  0.00000000000E+00 0. -1.
         22    1    3    3    0    0 -0.12694813674E+02 -0.55618761433E+02 -0.46665751425E+02  0.73704119787E+02  0.00000000000E+00 0. -1.
</event>
<event>
 7    1  0.5993218E-006  0.1951609E+03  0.7818608E-02  0.1309624E+00
          2   -1    0    0  502    0  0.00000000000E+00  0.00000000000E+00  0.37487986664E+03  0.37487986664E+03  0.00000000000E+00 0. -1.
          1   -1    0    0  501    0 -0.00000000000E+00 -0.00000000000E+00 -0.27826711936E+04  0.27826711936E+04  0.00000000000E+00 0. -1.
         25    2    1    2    0    0  0.19284487255E+02 -0.20795952357E+03 -0.39701061340E+03  0.46568839393E+03  0.12501679167E+03 0.  0.
          2    1    1    2  501    0  0.33095307391E+02  0.20662964346E+02 -0.23233772200E+04  0.23237047928E+04  0.00000000000E+00 0. -1.
          1    1    1    2  502    0 -0.52379794645E+02  0.18729655923E+03  0.31259650647E+03  0.36815787353E+03  0.00000000000E+00 0. -1.
         22    1    3    3    0    0  0.57030610757E+02 -0.15080991943E+03 -0.19871468195E+03  0.25589772798E+03  0.00000000000E+00 0. -1.
         22    1    3    3    0    0 -0.37746123503E+02 -0.57149604146E+02 -0.19829593145E+03  0.20979066595E+03  0.00000000000E+00 0. -1.
</event>
<event>
 7    1  0.5993218E-006  0.6073290E+02  0.7818608E-02  0.1484350E+00
          2   -1    0    0  502    0  0.00000000000E+00  0.00000000000E+00  0.14651178931E+04  0.14651178931E+04  0.00000000000E+00 0. -1.
          1   -1    0    0  501    0 -0.00000000000E+00 -0.00000000000E+00 -0.17253533499E+03  0.17253533499E+03  0.00000000000E+00 0. -1.
         25    2    1    2    0    0  0.65366117196E+02 -0.63159767606E+02  0.12699671263E+04  0.12793350363E+04  0.12497898855E+03 0.  0.
          2    1    1    2  501    0 -0.39488411200E+02  0.45973093096E+02 -0.16103369782E+03  0.17206019802E+03  0.00000000000E+00 0. -1.
          1    1    1    2  502    0 -0.25877705996E+02  0.17186674510E+02  0.18364912964E+03  0.18625799383E+03  0.00000000000E+00 0. -1.
         22    1    3    3    0    0  0.27366330097E+02  0.36649998205E+02  0.48153013603E+03  0.48369764346E+03  0.00000000000E+00 0.  1.
         22    1    3    3    0    0  0.37999787099E+02 -0.99809765811E+02  0.78843699030E+03  0.79563739282E+03  0.00000000000E+00 0.  1.
</event>
<event>
 7    1  0.5993218E-006  0.3613877E+03  0.7818608E-02  0.1145491E+00
          2   -1    0    0  502    0  0.00000000000E+00  0.00000000000E+00  0.66861091845E+03  0.66861091845E+03  0.00000000000E+00 0. -1.
          1   -1    0    0  501    0 -0.00000000000E+00 -0.00000000000E+00 -0.11128787478E+04  0.11128787478E+04  0.00000000000E+00 0. -1.
         25    2    1    2    0    0 -0.30544945332E+01 -0.43437295578E+03  0.20719469590E+03  0.49723569759E+03  0.12499800918E+03 0.  0.
          2    1    1    2  501    0 -0.19325465512E+02  0.11480777324E+03 -0.88195293478E+03  0.88960400043E+03  0.00000000000E+00 0. -1.
          1    1    1    2  502    0  0.22379960045E+02  0.31956518254E+03  0.23049040956E+03  0.39464996820E+03  0.00000000000E+00 0. -1.
         22    1    3    3    0    0  0.49689136033E+01 -0.31829114507E+03  0.87130497620E+02  0.33003888672E+03  0.00000000000E+00 0.  1.
         22    1    3    3    0    0 -0.80234081365E+01 -0.11608181071E+03  0.12006419828E+03  0.16719681087E+03  0.00000000000E+00 0.  1.
</event>
<event>
 7    1  0.5993218E-006  0.7097204E+02  0.7818608E-02  0.1367260E+00
          2   -1    0    0  502    0  0.00000000000E+00  0.00000000000E+00  0.11692087285E+04  0.11692087285E+04  0.00000000000E+00 0. -1.
          1   -1    0    0  501    0 -0.00000000000E+00 -0.00000000000E+00 -0.40630729212E+02  0.40630729212E+02  0.00000000000E+00 0. -1.
         25    2    1    2    0    0  0.48334945721E+02 -0.25957114040E+02  0.67490153280E+03  0.68856902898E+03  0.12500075979E+03 0.  0.
          2    1    1    2  501    0  0.22092291523E+02  0.67445984425E+02  0.11859734976E+02  0.71956121863E+02  0.00000000000E+00 0. -1.
          1    1    1    2  502    0 -0.70427237245E+02 -0.41488870386E+02  0.44181673147E+03  0.44931430683E+03  0.00000000000E+00 0. -1.
         22    1    3    3    0    0  0.38983944511E+02 -0.75500188026E+02  0.37953967385E+03  0.38893494359E+03  0.00000000000E+00 0. -1.
         22    1    3    3    0    0  0.93510012108E+01  0.49543073986E+02  0.29536185895E+03  0.29963408539E+03  0.00000000000E+00 0. -1.
</event>
<event>
 7    1  0.5993218E-006  0.1150248E+03  0.7818608E-02  0.1306586E+00
          2   -1    0    0  502    0  0.00000000000E+00  0.00000000000E+00  0.32635537178E+03  0.32635537178E+03  0.00000000000E+00 0. -1.
          1   -1    0    0  501    0 -0.00000000000E+00 -0.00000000000E+00 -0.10711892175E+04  0.10711892175E+04  0.00000000000E+00 0. -1.
         25    2    1    2    0    0  0.19259638919E+02  0.11799807289E+03 -0.29247089326E+02  0.17542952901E+03  0.12500259404E+03 0.  0.
          2    1    1    2  501    0  0.47629320559E+02 -0.10545917789E+03 -0.96074391899E+03  0.96768748481E+03  0.00000000000E+00 0. -1.
          1    1    1    2  502    0 -0.66888959478E+02 -0.12538895000E+02  0.24515716259E+03  0.25442757546E+03  0.00000000000E+00 0. -1.
         22    1    3    3    0    0  0.59001698521E+02  0.18933112398E+02  0.77773470775E+01  0.62451183343E+02  0.00000000000E+00 0. -1.
         22    1    3    3    0    0 -0.39742059602E+02  0.99064960492E+02 -0.37024436403E+02  0.11297834567E+03  0.00000000000E+00 0. -1.
</event>
<event>
 7    1  0.5993218E-006  0.8771729E+02  0.7818608E-02  0.1414421E+00
          2   -1    0    0  502    0  0.00000000000E+00  0.00000000000E+00  0.60649266806E+02  0.60649266806E+02  0.00000000000E+00 0. -1.
          1   -1    0    0  501    0 -0.00000000000E+00 -0.00000000000E+00 -0.10237748848E+04  0.10237748848E+04  0.00000000000E+00 0. -1.
         25    2    1    2    0    0  0.21523344782E+02  0.88335912058E+02 -0.41493419440E+03  0.44278896549E+03  0.12500077818E+03 0.  0.
          2    1    1    2  501    0  0.31286603691E+02 -0.17871580320E+02 -0.55230755341E+03  0.55348159727E+03  0.00000000000E+00 0. -1.
          1    1    1    2  502    0 -0.52809948473E+02 -0.70464331738E+02  0.41161298076E+01  0.88153588864E+02  0.00000000000E+00 0. -1.
         22    1    3    3    0    0  0.56281497013E+01 -0.30562121991E+02 -0.12943039280E+03  0.13310877488E+03  0.00000000000E+00 0. -1.
         22    1    3    3    0    0  0.15895195081E+02  0.11889803405E+03 -0.28550380160E+03  0.30968019061E+03  0.00000000000E+00 0. -1.
</event>
<event>
 7    1  0.5993218E-006  0.8523393E+02  0.7818608E-02  0.1372904E+00
          2   -1    0    0  502    0  0.00000000000E+00  0.00000000000E+00  0.52917459729E+03  0.52917459729E+03  0.00000000000E+00 0. -1.
          1   -1    0    0  501    0 -0.00000000000E+00 -0.00000000000E+00 -0.55169848539E+02  0.55169848539E+02  0.00000000000E+00 0. -1.
         25    2    1    2    0    0 -0.12867675505E+03 -0.80263881917E+01  0.19908986743E+03  0.26810848346E+03  0.12499301338E+03 0.  0.
          2    1    1    2  501    0  0.51041108582E+02  0.80734087954E+01  0.30993437438E+02  0.60257512885E+02  0.00000000000E+00 0. -1.
          1    1    1    2  502    0  0.77635646468E+02 -0.47020603697E-01  0.24392144389E+03  0.25597844949E+03  0.00000000000E+00 0. -1.
         22    1    3    3    0    0  0.52607846393E+01  0.33483878311E+02  0.68810848465E+02  0.76705793968E+02  0.00000000000E+00 0.  1.
         22    1    3    3    0    0 -0.13393753969E+03 -0.41510266503E+02  0.13027901896E+03  0.19140268949E+03  0.00000000000E+00 0.  1.
</event>
<event>
 7    1  0.5993218E-006  0.1609264E+03  0.7818608E-02  0.1341632E+00
          2   -1    0    0  502    0  0.00000000000E+00  0.00000000000E+00  0.89005543323E+03  0.89005543323E+03  0.00000000000E+00 0. -1.
          1   -1    0    0  501    0 -0.00000000000E+00 -0.00000000000E+00 -0.35178153935E+03  0.35178153935E+03  0.00000000000E+00 0. -1.
         25    2    1    2    0    0 -0.99884224009E+02 -0.83897136471E+02  0.46657426934E+03  0.50032785797E+03  0.12498331466E+03 0.  0.
          2    1    1    2  501    0  0.13501223657E+03  0.89890850587E+02 -0.31439706611E+03  0.35377137281E+03  0.00000000000E+00 0. -1.
          1    1    1    2  502    0 -0.35128012560E+02 -0.59937141160E+01  0.38609669066E+03  0.38773774179E+03  0.00000000000E+00 0. -1.
         22    1    3    3    0    0 -0.37422078782E+02 -0.64485708989E+02  0.84478526171E+02  0.11267404328E+03  0.00000000000E+00 0. -1.
         22    1    3    3    0    0 -0.62462145226E+02 -0.19411427482E+02  0.38209574317E+03  0.38765381470E+03  0.00000000000E+00 0. -1.
</event>
<event>
 7    1  0.5993218E-006  0.9924311E+02  0.7818608E-02  0.1343718E+00
          2   -1    0    0  502    0  0.00000000000E+00  0.00000000000E+00  0.96853478917E+02  0.96853478917E+02  0.00000000000E+00 0. -1.
          1   -1    0    0  501    0 -0.00000000000E+00 -0.00000000000E+00 -0.31724915439E+04  0.31724915439E+04  0.00000000000E+00 0. -1.
         25    2    1    2    0    0  0.11098004794E+02 -0.11370304135E+03 -0.15762446641E+04  0.15853151194E+04  0.12500095711E+03 0.  0.
          2    1    1    2  501    0 -0.56652806591E+02  0.79854412839E+02 -0.15813296608E+04  0.15843578396E+04  0.00000000000E+00 0. -1.
          1    1    1    2  502    0  0.45554801797E+02  0.33848628511E+02  0.81936259932E+02  0.99672063841E+02  0.00000000000E+00 0. -1.
         22    1    3    3    0    0  0.17968162201E+02  0.77860260442E+01 -0.42995879305E+02  0.47245345714E+02  0.00000000000E+00 0. -1.
         22    1    3    3    0    0 -0.68701574073E+01 -0.12148906739E+03 -0.15332487848E+04  0.15380697737E+04  0.00000000000E+00 0. -1.
</event>
<event>
 7    1  0.5993218E-006  0.1527070E+03  0.7818608E-02  0.1415240E+00
          2   -1    0    0  502    0  0.00000000000E+00  0.00000000000E+00  0.52738290220E+03  0.52738290220E+03  0.00000000000E+00 0. -1.
          1   -1    0    0  501    0 -0.00000000000E+00 -0.00000000000E+00 -0.20448153494E+03  0.20448153494E+03  0.00000000000E+00 0. -1.
         25    2    1    2    0    0 -0.97336066892E+02  0.10684428647E+03  0.68289251018E+02  0.20292183125E+03  0.12499534521E+03 0.  0.
          2    1    1    2  501    0  0.11736652720E+03 -0.10218133715E+03 -0.92626461700E+02  0.18109552390E+03  0.00000000000E+00 0. -1.
          1    1    1    2  502    0 -0.20030460312E+02 -0.46629493232E+01  0.34723857795E+03  0.34784708199E+03  0.00000000000E+00 0. -1.
         22    1    3    3    0    0 -0.97854032029E+02  0.15496377139E+02  0.27081455667E+02  0.10270810353E+03  0.00000000000E+00 0.  1.
         22    1    3    3    0    0  0.51796513719E+00  0.91347909334E+02  0.41207795351E+02  0.10021372773E+03  0.00000000000E+00 0.  1.
</event>
<event>
 7    1  0.5993218E-006  0.8939393E+02  0.7818608E-02  0.1394254E+00
          2   -1    0    0  502    0  0.00000000000E+00  0.00000000000E+00  0.74512949406E+03  0.74512949406E+03  0.00000000000E+00 0. -1.
          1   -1    0    0  501    0 -0.00000000000E+00 -0.00000000000E+00 -0.27411564501E+03  0.27411564501E+03  0.00000000000E+00 0. -1.
         25    2    1    2    0    0 -0.84181277947E+02 -0.94282014749E+02  0.41326616773E+03  0.44987719435E+03  0.12499991498E+03 0.  0.
          2    1    1    2  501    0  0.47524743749E+02  0.74964665887E+02 -0.24666478214E+03  0.26214846394E+03  0.00000000000E+00 0. -1.
          1    1    1    2  502    0  0.36656534199E+02  0.19317348863E+02  0.30441246346E+03  0.30721948079E+03  0.00000000000E+00 0. -1.
         22    1    3    3    0    0  0.30732964748E+02 -0.29063646596E+01  0.77030870407E+02  0.82986246290E+02  0.00000000000E+00 0. -1.
         22    1    3    3    0    0 -0.11491424270E+03 -0.91375650090E+02  0.33623529732E+03  0.36689094806E+03  0.00000000000E+00 0. -1.
</event>
<event>
 7    1  0.5993218E-006  0.8989356E+02  0.7818608E-02  0.1428902E+00
          2   -1    0    0  502    0  0.00000000000E+00  0.00000000000E+00  0.52361448919E+03  0.52361448919E+03  0.00000000000E+00 0. -1.
          1   -1    0    0  501    0 -0.00000000000E+00 -0.00000000000E+00 -0.22749082908E+03  0.22749082908E+03  0.00000000000E+00 0. -1.
         25    2    1    2    0    0  0.52793276297E+02  0.26664099064E+02 -0.15653384261E+03  0.20886818603E+03  0.12499988419E+03 0.  0.
          2    1    1    2  501    0  0.28517915979E+02  0.13288528648E+02 -0.34520629395E+02  0.46706855806E+02  0.00000000000E+00 0. -1.
          1    1    1    2  502    0 -0.81311192276E+02 -0.39952627712E+02  0.48717813212E+03  0.49553027643E+03  0.00000000000E+00 0. -1.
         22    1    3    3    0    0 -0.22909246453E+02  0.24506896029E+02 -0.12034387858E+03  0.12493226420E+03  0.00000000000E+00 0. -1.
         22    1    3    3    0    0  0.75702522751E+02  0.21572030345E+01 -0.36189964031E+02  0.83935921823E+02  0.00000000000E+00 0. -1.
</event>
<event>
 7    1  0.5993218E-006  0.1209280E+03  0.7818608E-02  0.1301960E+00
          2   -1    0    0  502    0  0.00000000000E+00  0.00000000000E+00  0.22092630639E+04  0.22092630639E+04  0.00000000000E+00 0. -1.
          1   -1    0    0  501    0 -0.00000000000E+00 -0.00000000000E+00 -0.53914062250E+02  0.53914062250E+02  0.00000000000E+00 0. -1.
         25    2    1    2    0    0 -0.24368757189E+02  0.64495442152E+02  0.19109595217E+03  0.23852932717E+03  0.12500031439E+03 0.  0.
          2    1    1    2  501    0 -0.61855344410E+02  0.27103258946E+02  0.12298022968E+02  0.68643365641E+02  0.00000000000E+00 0. -1.
          1    1    1    2  502    0  0.86224101599E+02 -0.91598701097E+02  0.19519550265E+04  0.19560044333E+04  0.00000000000E+00 0. -1.
         22    1    3    3    0    0  0.46255986424E+02  0.52952352204E+02  0.81484908064E+02  0.10762601045E+03  0.00000000000E+00 0. -1.
         22    1    3    3    0    0 -0.70624743613E+02  0.11543089948E+02  0.10961104411E+03  0.13090331671E+03  0.00000000000E+00 0. -1.
</event>
<event>
 7    1  0.5993218E-006  0.3104732E+03  0.7818608E-02  0.1204785E+00
          2   -1    0    0  502    0  0.00000000000E+00  0.00000000000E+00  0.11168960974E+04  0.11168960974E+04  0.00000000000E+00 0. -1.
          1   -1    0    0  501    0 -0.00000000000E+00 -0.00000000000E+00 -0.43797408608E+03  0.43797408608E+03  0.00000000000E+00 0. -1.
         25    2    1    2    0    0  0.32222785221E+03  0.26768241033E+02  0.35891590010E+02  0.34851150323E+03  0.12499893674E+03 0.  0.
          2    1    1    2  501    0 -0.15522732037E+02 -0.67405222205E+02 -0.25097526490E+03  0.26033248507E+03  0.00000000000E+00 0. -1.
          1    1    1    2  502    0 -0.30670512017E+03  0.40636981173E+02  0.89400568621E+03  0.94602619517E+03  0.00000000000E+00 0. -1.
         22    1    3    3    0    0  0.14541517255E+03 -0.43108219465E+02 -0.12938953297E+02  0.15222124525E+03  0.00000000000E+00 0. -1.
         22    1    3    3    0    0  0.17681267966E+03  0.69876460498E+02  0.48830543307E+02  0.19629025799E+03  0.00000000000E+00 0. -1.
</event>
<event>
 7    1  0.5993218E-006  0.1971264E+03  0.7818608E-02  0.1241015E+00
          2   -1    0    0  502    0  0.00000000000E+00  0.00000000000E+00  0.19923319133E+03  0.19923319133E+03  0.00000000000E+00 0. -1.
          1   -1    0    0  501    0 -0.00000000000E+00 -0.00000000000E+00 -0.88446333987E+03  0.88446333987E+03  0.00000000000E+00 0. -1.
         25    2    1    2    0    0 -0.40105618632E+02 -0.14266888710E+03 -0.13869775703E+03  0.23838131860E+03  0.12500285301E+03 0.  0.
          2    1    1    2  501    0 -0.47097480709E+02 -0.57860026738E+02 -0.61241044977E+03  0.61693801502E+03  0.00000000000E+00 0. -1.
          1    1    1    2  502    0  0.87203099341E+02  0.20052891384E+03  0.65878058259E+02  0.22837719759E+03  0.00000000000E+00 0. -1.
         22    1    3    3    0    0 -0.68426911795E+01  0.20929455907E+02 -0.36532748664E+02  0.42655671043E+02  0.00000000000E+00 0.  1.
         22    1    3    3    0    0 -0.33262927453E+02 -0.16359834300E+03 -0.10216500837E+03  0.19572564756E+03  0.00000000000E+00 0.  1.
</event>
<event>
 7    1  0.5993218E-006  0.9987123E+02  0.7818608E-02  0.1457144E+00
          2   -1    0    0  502    0  0.00000000000E+00  0.00000000000E+00  0.19848069568E+03  0.19848069568E+03  0.00000000000E+00 0. -1.
          1   -1    0    0  501    0 -0.00000000000E+00 -0.00000000000E+00 -0.12453650461E+04  0.12453650461E+04  0.00000000000E+00 0. -1.
         25    2    1    2    0    0  0.11093206222E+03  0.69668898223E+01  0.61895671256E+02  0.17835191679E+03  0.12499548840E+03 0.  0.
          2    1    1    2  501    0 -0.96559375035E+02 -0.24860418344E+02 -0.11833134065E+04  0.11875067879E+04  0.00000000000E+00 0. -1.
          1    1    1    2  502    0 -0.14372687184E+02  0.17893528521E+02  0.74533384827E+02  0.77987037087E+02  0.00000000000E+00 0. -1.
         22    1    3    3    0    0  0.98854859733E+02 -0.47177221461E+02  0.54632431186E+02  0.12240374200E+03  0.00000000000E+00 0. -1.
         22    1    3    3    0    0  0.12077202486E+02  0.54144111283E+02  0.72632400702E+01  0.55948174795E+02  0.00000000000E+00 0. -1.
</event>
<event>
 7    1  0.5993218E-006  0.7102911E+02  0.7818608E-02  0.1366752E+00
          2   -1    0    0  502    0  0.00000000000E+00  0.00000000000E+00  0.79930033619E+03  0.79930033619E+03  0.00000000000E+00 0. -1.
          1   -1    0    0  501    0 -0.00000000000E+00 -0.00000000000E+00 -0.76579613409E+03  0.76579613409E+03  0.00000000000E+00 0. -1.
         25    2    1    2    0    0 -0.76740810275E+02  0.83949390229E+02  0.37253309624E+03  0.40907551855E+03  0.12500088000E+03 0.  0.
          2    1    1    2  501    0  0.62421670836E+02 -0.19003840672E+02 -0.74337946669E+03  0.74623765816E+03  0.00000000000E+00 0. -1.
          1    1    1    2  502    0  0.14319139439E+02 -0.64945549557E+02  0.40435057255E+03  0.40978329356E+03  0.00000000000E+00 0. -1.
         22    1    3    3    0    0 -0.73357716113E+02 -0.10667401323E+02  0.15386946711E+03  0.17079508445E+03  0.00000000000E+00 0.  1.
         22    1    3    3    0    0 -0.33830941624E+01  0.94616791552E+02  0.21866362913E+03  0.23828043410E+03  0.00000000000E+00 0.  1.
</event>
<event>
 7    1  0.5993218E-006  0.6657834E+02  0.7818608E-02  0.1377234E+00
          2   -1    0    0  502    0  0.00000000000E+00  0.00000000000E+00  0.11684652352E+03  0.11684652352E+03  0.00000000000E+00 0. -1.
          1   -1    0    0  501    0 -0.00000000000E+00 -0.00000000000E+00 -0.14281465629E+04  0.14281465629E+04  0.00000000000E+00 0. -1.
         25    2    1    2    0    0 -0.11177923492E+03  0.55145451536E+02 -0.31595175331E+03  0.36191711289E+03  0.12499147170E+03 0.  0.
          2    1    1    2  501    0  0.49525141317E+02 -0.40989626664E+02 -0.10772858708E+04  0.10792023613E+04  0.00000000000E+00 0. -1.
          1    1    1    2  502    0  0.62254093605E+02 -0.14155824872E+02  0.81937584696E+02  0.10387361231E+03  0.00000000000E+00 0. -1.
         22    1    3    3    0    0 -0.78304220301E+02 -0.20128582301E+02 -0.87834894423E+02  0.11938039798E+03  0.00000000000E+00 0.  1.
         22    1    3    3    0    0 -0.33475014622E+02  0.75274033837E+02 -0.22811685888E+03  0.24253671491E+03  0.00000000000E+00 0.  1.
</event>
<event>
 7    1  0.5993218E-006  0.5806539E+02  0.7818608E-02  0.1520736E+00
          2   -1    0    0  502    0  0.00000000000E+00  0.00000000000E+00  0.95410843716E+03  0.95410843716E+03  0.00000000000E+00 0. -1.
          1   -1    0    0  501    0 -0.00000000000E+00 -0.00000000000E+00 -0.14485718761E+04  0.14485718761E+04  0.00000000000E+00 0. -1.
         25    2    1    2    0    0  0.23228519952E+02 -0.30884309979E+02  0.47936410520E+02  0.13934632176E+03  0.12500437269E+03 0.  0.
          2    1    1    2  501    0 -0.17424213432E+02  0.55535632613E+02 -0.14020766338E+04  0.14032842538E+04  0.00000000000E+00 0. -1.
          1    1    1    2  502    0 -0.58043065203E+01 -0.24651322634E+02  0.85967678441E+03  0.86004973771E+03  0.00000000000E+00 0. -1.
         22    1    3    3    0    0  0.24310081187E+01 -0.64606794524E+01  0.87860501033E+02  0.88131253374E+02  0.00000000000E+00 0. -1.
         22    1    3    3    0    0  0.20797511833E+02 -0.24423630527E+02 -0.39924090513E+02  0.51215068386E+02  0.00000000000E+00 0. -1.
</event>
<event>
 7    1  0.5993218E-006  0.1874086E+03  0.7818608E-02  0.1268055E+00
          2   -1    0    0  502    0  0.00000000000E+00  0.00000000000E+00  0.58198819394E+03  0.58198819394E+03  0.00000000000E+00 0. -1.
          1   -1    0    0  501    0 -0.00000000000E+00 -0.00000000000E+00 -0.48693143082E+03  0.48693143082E+03  0.00000000000E+00 0. -1.
         25    2    1    2    0    0  0.16861080817E+03 -0.14344513487E+03 -0.25298751458E+03  0.35865620902E+03  0.12500192953E+03 0.  0.
          2    1    1    2  501    0 -0.25137058413E+01  0.59963800821E+02 -0.15914190996E+03  0.17008269645E+03  0.00000000000E+00 0. -1.
          1    1    1    2  502    0 -0.16609710233E+03  0.83481334045E+02  0.50718618766E+03  0.54018071928E+03  0.00000000000E+00 0. -1.
         22    1    3    3    0    0  0.11559141165E+02 -0.70840669094E+02 -0.33605636797E+02  0.79254987014E+02  0.00000000000E+00 0. -1.
         22    1    3    3    0    0  0.15705166700E+03 -0.72604465772E+02 -0.21938187778E+03  0.27940122200E+03  0.00000000000E+00 0. -1.
</event>
<event>
 7    1  0.5993218E-006  0.1300111E+03  0.7818608E-02  0.1264860E+00
          2   -1    0    0  502    0  0.00000000000E+00  0.00000000000E+00  0.10203361075E+04  0.10203361075E+04  0.00000000000E+00 0. -1.
          1   -1    0    0  501    0 -0.00000000000E+00 -0.00000000000E+00 -0.12743457873E+04  0.12743457873E+04  0.00000000000E+00 0. -1.
         25    2    1    2    0    0  0.20695020994E+03  0.70614756633E+02 -0.92123446632E+03  0.95504440117E+03  0.12498813157E+03 0.  0.
          2    1    1    2  501    0 -0.85805157576E+02 -0.24532106740E+02 -0.32599828417E+03  0.33799294462E+03  0.00000000000E+00 0. -1.
          1    1    1    2  502    0 -0.12114505236E+03 -0.46082649894E+02  0.99322307072E+03  0.10016445490E+04  0.00000000000E+00 0. -1.
         22    1    3    3    0    0  0.32293363259E+02 -0.10333930902E+02 -0.36240439605E+03  0.36398708454E+03  0.00000000000E+00 0. -1.
         22    1    3    3    0    0  0.17465684668E+03  0.80948687536E+02 -0.55883007027E+03  0.59105731663E+03  0.00000000000E+00 0. -1.
</event>
<event>
 7    1  0.5993218E-006  0.4642432E+02  0.7818608E-02  0.1511136E+00
          2   -1    0    0  502    0  0.00000000000E+00  0.00000000000E+00  0.10995651854E+04  0.10995651854E+04  0.00000000000E+00 0. -1.
          1   -1    0    0  501    0 -0.00000000000E+00 -0.00000000000E+00 -0.11812888654E+03  0.11812888654E+03  0.00000000000E+00 0. -1.
         25    2    1    2    0    0  0.16628763136E+02  0.10818567519E+02  0.16015119627E+03  0.20412604377E+03  0.12500191563E+03 0.  0.
          2    1    1    2  501    0 -0.93010966493E+00  0.33775109706E+02 -0.92542829855E+02  0.98518011030E+02  0.00000000000E+00 0. -1.
          1    1    1    2  502    0 -0.15698653471E+02 -0.44593677225E+02  0.91382793240E+03  0.91505001710E+03  0.00000000000E+00 0. -1.
         22    1    3    3    0    0  0.67079104500E+02 -0.10344484012E+01  0.12385003045E+03  0.14085278267E+03  0.00000000000E+00 0.  1.
         22    1    3    3    0    0 -0.50450341363E+02  0.11853015920E+02  0.36301165822E+02  0.63273261099E+02  0.00000000000E+00 0.  1.
</event>
<event>
 7    1  0.5993218E-006  0.1493654E+03  0.7818608E-02  0.1246075E+00
          2   -1    0    0  502    0  0.00000000000E+00  0.00000000000E+00  0.85165213629E+03  0.85165213629E+03  0.00000000000E+00 0. -1.
          1   -1    0    0  501    0 -0.00000000000E+00 -0.00000000000E+00 -0.15476299729E+04  0.15476299729E+04  0.00000000000E+00 0. -1.
         25    2    1    2    0    0  0.21165459139E+02 -0.20537831843E+03 -0.11081384647E+03  0.26558047305E+03  0.12500019501E+03 0.  0.
          2    1    1    2  501    0 -0.67368352984E+02  0.64919553582E+02 -0.13507405615E+04  0.13539767753E+04  0.00000000000E+00 0. -1.
          1    1    1    2  502    0  0.46202893845E+02  0.14045876485E+03  0.76557657138E+03  0.77972486087E+03  0.00000000000E+00 0. -1.
         22    1    3    3    0    0  0.50818232132E+02 -0.17611401246E+03 -0.46759551941E+02  0.18916948433E+03  0.00000000000E+00 0.  1.
         22    1    3    3    0    0 -0.29652772993E+02 -0.29264305968E+02 -0.64054294524E+02  0.76410988719E+02  0.00000000000E+00 0.  1.
</event>
<event>
 7    1  0.5993218E-006  0.6574183E+02  0.7818608E-02  0.1427699E+00
          2   -1    0    0  502    0  0.00000000000E+00  0.00000000000E+00  0.14943513060E+03  0.14943513060E+03  0.00000000000E+00 0. -1.
          1   -1    0    0  501    0 -0.00000000000E+00 -0.00000000000E+00 -0.13848069971E+04  0.13848069971E+04  0.00000000000E+00 0. -1.
         25    2    1    2    0    0  0.60607677311E+02 -0.29460079684E+02 -0.84572502034E+01  0.14226091492E+03  0.12500182394E+03 0.  0.
          2    1    1    2  501    0  0.56556818325E+01  0.43045201990E+02 -0.12951636191E+04  0.12958910743E+04  0.00000000000E+00 0. -1.
          1    1    1    2  502    0 -0.66263359144E+02 -0.13585122305E+02  0.68249002872E+02  0.96090138444E+02  0.00000000000E+00 0. -1.
         22    1    3    3    0    0 -0.38053203871E+02  0.10512380098E+01  0.38371236525E+01  0.38260618710E+02  0.00000000000E+00 0.  1.
         22    1    3    3    0    0  0.98660881182E+02 -0.30511317694E+02 -0.12294373856E+02  0.10400029621E+03  0.00000000000E+00 0.  1.
</event>
<event>
 7    1  0.5993218E-006  0.5111738E+02  0.7818608E-02  0.1491524E+00
          2   -1    0    0  502    0  0.00000000000E+00  0.00000000000E+00  0.10995955218E+04  0.10995955218E+04  0.00000000000E+00 0. -1.
          1   -1    0    0  501    0 -0.00000000000E+00 -0.00000000000E+00 -0.22988249564E+04  0.22988249564E+04  0.00000000000E+00 0. -1.
         25    2    1    2    0    0 -0.32843199201E+01  0.29306398572E+02  0.50682097427E+03  0.52284043918E+03  0.12499989253E+03 0.  0.
          2    1    1    2  501    0  0.38051846428E+02 -0.34156882332E+02 -0.22900027228E+04  0.22905735321E+04  0.00000000000E+00 0. -1.
          1    1    1    2  502    0 -0.34767526508E+02  0.48504837592E+01  0.58395231399E+03  0.58500650689E+03  0.00000000000E+00 0. -1.
         22    1    3    3    0    0  0.15466152481E+02  0.35037275039E+02  0.39182951750E+02  0.54791570725E+02  0.00000000000E+00 0.  1.
         22    1    3    3    0    0 -0.18750472401E+02 -0.57308764666E+01  0.46763802252E+03  0.46804886846E+03  0.00000000000E+00 0.  1.
</event>
<event>
 7    1  0.5993218E-006  0.1357158E+03  0.7818608E-02  0.1280837E+00
          2   -1    0    0  502    0  0.00000000000E+00  0.00000000000E+00  0.63406002525E+03  0.63406002525E+03  0.00000000000E+00 0. -1.
          1   -1    0    0  501    0 -0.00000000000E+00 -0.00000000000E+00 -0.56587238602E+03  0.56587238602E+03  0.00000000000E+00 0. -1.
         25    2    1    2    0    0 -0.18144743416E+03 -0.53767401637E+02  0.81655460445E+02  0.24105665774E+03  0.12500637257E+03 0.  0.
          2    1    1    2  501    0  0.51095906174E+02  0.52563103927E+02 -0.47431520772E+03  0.47994644263E+03  0.00000000000E+00 0. -1.
          1    1    1    2  502    0  0.13035152798E+03  0.12042977099E+01  0.46084738650E+03  0.47892931089E+03  0.00000000000E+00 0. -1.
         22    1    3    3    0    0 -0.48189263559E+02 -0.54368688759E+02 -0.17770772466E+02  0.74792779022E+02  0.00000000000E+00 0. -1.
         22    1    3    3    0    0 -0.13325817060E+03  0.60128712202E+00  0.99426232911E+02  0.16626387872E+03  0.00000000000E+00 0. -1.
</event>
<event>
 7    1  0.5993218E-006  0.7259263E+02  0.7818608E-02  0.1387436E+00
          2   -1    0    0  502    0  0.00000000000E+00  0.00000000000E+00  0.49918131172E+03  0.49918131172E+03  0.00000000000E+00 0. -1.
          1   -1    0    0  501    0 -0.00000000000E+00 -0.00000000000E+00 -0.31625120306E+03  0.31625120306E+03  0.00000000000E+00 0. -1.
         25    2    1    2    0    0 -0.30501757954E+02 -0.10159875293E+03 -0.25740009326E+02  0.16596343923E+03  0.12501460412E+03 0.  0.
          2    1    1    2  501    0  0.49007975839E+02  0.50980820578E+02 -0.21296726065E+03  0.22440115836E+03  0.00000000000E+00 0. -1.
          1    1    1    2  502    0 -0.18506217884E+02  0.50617932353E+02  0.42163737863E+03  0.42506791720E+03  0.00000000000E+00 0. -1.
         22    1    3    3    0    0 -0.38003150097E+01 -0.90750037359E+02 -0.68941537131E+02  0.11403046618E+03  0.00000000000E+00 0. -1.
         22    1    3    3    0    0 -0.26701442945E+02 -0.10848715572E+02  0.43201527805E+02  0.51932973048E+02  0.00000000000E+00 0. -1.
</event>
<event>
 7    1  0.5993218E-006  0.1891232E+03  0.7818608E-02  0.1378058E+00
          2   -1    0    0  502    0  0.00000000000E+00  0.00000000000E+00  0.15315089160E+04  0.15315089160E+04  0.00000000000E+00 0. -1.
          1   -1    0    0  501    0 -0.00000000000E+00 -0.00000000000E+00 -0.94071153726E+03  0.94071153726E+03  0.00000000000E+00 0. -1.
         25    2    1    2    0    0  0.51385650469E+02  0.17956380800E+03  0.13180308132E+03  0.26053759596E+03  0.12499656174E+03 0.  0.
          2    1    1    2  501    0 -0.21033260804E+02  0.74809935881E+01 -0.86947783122E+03  0.86976437172E+03  0.00000000000E+00 0. -1.
          1    1    1    2  502    0 -0.30352389665E+02 -0.18704480159E+03  0.13284721286E+04  0.13419184856E+04  0.00000000000E+00 0. -1.
         22    1    3    3    0    0  0.23550587152E+02  0.16844415504E+03  0.56066277015E+02  0.17908514997E+03  0.00000000000E+00 0.  1.
         22    1    3    3    0    0  0.27835063318E+02  0.11119652960E+02  0.75736804303E+02  0.81452445990E+02  0.00000000000E+00 0.  1.
</event>
<event>
 7    1  0.5993218E-006  0.5151559E+02  0.7818608E-02  0.1452605E+00
          2   -1    0    0  502    0  0.00000000000E+00  0.00000000000E+00  0.21766931660E+04  0.21766931660E+04  0.00000000000E+00 0. -1.
          1   -1    0    0  501    0 -0.00000000000E+00 -0.00000000000E+00 -0.30465436761E+02  0.30465436761E+02  0.00000000000E+00 0. -1.
         25    2    1    2    0    0  0.72791104742E+02 -0.27146111264E+00  0.79486867534E+03  0.80792242880E+03  0.12499528515E+03 0.  0.
          2    1    1    2  501    0 -0.32921336899E+02  0.32123210481E+02 -0.90870845927E+00  0.46005878167E+02  0.00000000000E+00 0. -1.
          1    1    1    2  502    0 -0.39869767844E+02 -0.31851749369E+02  0.13522677624E+04  0.13532302958E+04  0.00000000000E+00 0. -1.
         22    1    3    3    0    0  0.74452128658E+02  0.38749302439E+02  0.30014521921E+03  0.31165971911E+03  0.00000000000E+00 0. -1.
         22    1    3    3    0    0 -0.16610239154E+01 -0.39020763552E+02  0.49472345613E+03  0.49626270969E+03  0.00000000000E+00 0. -1.
</event>
<event>
 7    1  0.5993218E-006  0.1244955E+03  0.7818608E-02  0.1402446E+00
          2   -1    0    0  502    0  0.00000000000E+00  0.00000000000E+00  0.17315803868E+04  0.17315803868E+04  0.00000000000E+00 0. -1.
          1   -1    0    0  501    0 -0.00000000000E+00 -0.00000000000E+00 -0.68248246594E+03  0.68248246594E+03  0.00000000000E+00 0. -1.
         25    2    1    2    0    0  0.10403111087E+03  0.17488951857E+02  0.24856777428E+01  0.16358125994E+03  0.12499725815E+03 0.  0.
          2    1    1    2  501    0  0.21067194395E+02 -0.18260444696E+02 -0.59923677858E+03  0.59988497841E+03  0.00000000000E+00 0. -1.
          1    1    1    2  502    0 -0.12509830526E+03  0.77149283956E+00  0.16458490217E+04  0.16505966143E+04  0.00000000000E+00 0. -1.
         22    1    3    3    0    0  0.82085032056E+02  0.49742778613E+02  0.44891532394E+02  0.10596011605E+03  0.00000000000E+00 0.  1.
         22    1    3    3    0    0  0.21946078810E+02 -0.32253826756E+02 -0.42405854651E+02  0.57621143899E+02  0.00000000000E+00 0.  1.
</event>
<event>
 7    1  0.5993218E-006  0.1046043E+03  0.7818608E-02  0.1401334E+00
          2   -1    0    0  502    0  0.00000000000E+00  0.00000000000E+00  0.25666625366E+04  0.25666625366E+04  0.00000000000E+00 0. -1.
          1   -1    0    0  501    0 -0.00000000000E+00 -0.00000000000E+00 -0.88617060756E+03  0.88617060756E+03  0.00000000000E+00 0. -1.
         25    2    1    2    0    0 -0.12211483177E+03  0.58169834108E+02  0.11343129816E+03  0.21630499510E+03  0.12500171905E+03 0.  0.
          2    1    1    2  501    0  0.88902489019E+02 -0.53995021990E+02 -0.83137622857E+03  0.83785771369E+03  0.00000000000E+00 0. -1.
          1    1    1    2  502    0  0.33212342749E+02 -0.41748121181E+01  0.23984368595E+04  0.23986704354E+04  0.00000000000E+00 0. -1.
         22    1    3    3    0    0 -0.57835392254E+02 -0.31776956955E+02  0.73457641031E+02  0.98745797968E+02  0.00000000000E+00 0. -1.
         22    1    3    3    0    0 -0.64279439514E+02  0.89946791064E+02  0.39973657133E+02  0.11755919714E+03  0.00000000000E+00 0. -1.
</event>
<event>
 7    1  0.5993218E-006  0.2942656E+03  0.7818608E-02  0.1164854E+00
          2   -1    0    0  502    0  0.00000000000E+00  0.00000000000E+00  0.28540058822E+03  0.28540058822E+03  0.00000000000E+00 0. -1.
          1   -1    0    0  501    0 -0.00000000000E+00 -0.00000000000E+00 -0.13583397808E+04  0.13583397808E+04  0.00000000000E+00 0. -1.
         25    2    1    2    0    0  0.32925457575E+03  0.70312388908E+02 -0.69926869401E+03  0.78609819532E+03  0.12498503343E+03 0.  0.
          2    1    1    2  501    0 -0.26918789756E+03  0.26469017102E+02 -0.56985299247E+03  0.63078931989E+03  0.00000000000E+00 0. -1.
          1    1    1    2  502    0 -0.60066678193E+02 -0.96781406011E+02  0.19618249389E+03  0.22685285382E+03  0.00000000000E+00 0. -1.
         22    1    3    3    0    0  0.25762979327E+03  0.67098948632E+02 -0.63969219378E+03  0.69287912515E+03  0.00000000000E+00 0. -1.
         22    1    3    3    0    0  0.71624782481E+02  0.32134402768E+01 -0.59576500227E+02  0.93219070169E+02  0.00000000000E+00 0. -1.
</event>
<event>
 7    1  0.5993218E-006  0.6038199E+02  0.7818608E-02  0.1438097E+00
          2   -1    0    0  502    0  0.00000000000E+00  0.00000000000E+00  0.26931212641E+03  0.26931212641E+03  0.00000000000E+00 0. -1.
          1   -1    0    0  501    0 -0.00000000000E+00 -0.00000000000E+00 -0.28218504024E+03  0.28218504024E+03  0.00000000000E+00 0. -1.
         25    2    1    2    0    0  0.15612954653E+02  0.19834226149E+02 -0.96538210639E+02  0.15994405228E+03  0.12500125145E+03 0.  0.
          2    1    1    2  501    0 -0.12918946872E+02  0.41747345801E+02 -0.14670670976E+03  0.15307710070E+03  0.00000000000E+00 0. -1.
          1    1    1    2  502    0 -0.26940077804E+01 -0.61581571950E+02  0.23037200658E+03  0.23847601367E+03  0.00000000000E+00 0. -1.
         22    1    3    3    0    0 -0.86798924132E+01  0.90688343831E+01 -0.12229523885E+03  0.12293782874E+03  0.00000000000E+00 0.  1.
         22    1    3    3    0    0  0.24292847066E+02  0.10765391766E+02  0.25757028210E+02  0.37006223539E+02  0.00000000000E+00 0.  1.
</event>
<event>
 7    1  0.5993218E-006  0.3374501E+02  0.7818608E-02  0.1628934E+00
          2   -1    0    0  502    0  0.00000000000E+00  0.00000000000E+00  0.85281198661E+03  0.85281198661E+03  0.00000000000E+00 0. -1.
          1   -1    0    0  501    0 -0.00000000000E+00 -0.00000000000E+00 -0.29179909579E+03  0.29179909579E+03  0.00000000000E+00 0. -1.
         25    2    1    2    0    0  0.38303942879E+02  0.20750188812E+01  0.14900128148E+03  0.19824584325E+03  0.12501413817E+03 0.  0.
          2    1    1    2  501    0 -0.26505562264E+02 -0.20908190348E+02 -0.26592758128E+03  0.26806188789E+03  0.00000000000E+00 0. -1.
          1    1    1    2  502    0 -0.11798380615E+02  0.18833171466E+02  0.67793919063E+03  0.67830335125E+03  0.00000000000E+00 0. -1.
         22    1    3    3    0    0  0.92706002659E+01 -0.58673318819E+02  0.94514929109E+02  0.11163142118E+03  0.00000000000E+00 0.  1.
         22    1    3    3    0    0  0.29033342613E+02  0.60748337701E+02  0.54486352367E+02  0.86614422072E+02  0.00000000000E+00 0.  1.
</event>
<event>
 7    1  0.5993218E-006  0.6014076E+02  0.7818608E-02  0.1434557E+00
          2   -1    0    0  502    0  0.00000000000E+00  0.00000000000E+00  0.13330438702E+04  0.13330438702E+04  0.00000000000E+00 0. -1.
          1   -1    0    0  501    0 -0.00000000000E+00 -0.00000000000E+00 -0.10379603727E+03  0.10379603727E+03  0.00000000000E+00 0. -1.
         25    2    1    2    0    0 -0.50321747254E+02  0.79102142976E+02  0.66848351339E+03  0.68650213514E+03  0.12500218644E+03 0.  0.
          2    1    1    2  501    0  0.10035631061E+02 -0.58921445440E+02 -0.84500005848E+02  0.10350218168E+03  0.00000000000E+00 0. -1.
          1    1    1    2  502    0  0.40286116193E+02 -0.20180697536E+02  0.64526432543E+03  0.64683559069E+03  0.00000000000E+00 0. -1.
         22    1    3    3    0    0  0.15001270328E+02 -0.20515941558E+02  0.25314757721E+03  0.25442019931E+03  0.00000000000E+00 0.  1.
         22    1    3    3    0    0 -0.65323017582E+02  0.99618084534E+02  0.41533593618E+03  0.43208193583E+03  0.00000000000E+00 0.  1.
</event>
<event>
 7    1  0.5993218E-006  0.1813840E+03  0.7818608E-02  0.1223861E+00
          2   -1    0    0  502    0  0.00000000000E+00  0.00000000000E+00  0.76052350052E+03  0.76052350052E+03  0.00000000000E+00 0. -1.
          1   -1    0    0  501    0 -0.00000000000E+00 -0.00000000000E+00 -0.62828051194E+03  0.62828051194E+03  0.00000000000E+00 0. -1.
         25    2    1    2    0    0  0.15932461255E+03 -0.15872942199E+03  0.25152992634E+03  0.35982229261E+03  0.12500166736E+03 0.  0.
          2    1    1    2  501    0  0.14745685579E+01  0.96710234525E+02 -0.55346281817E+03  0.56185063398E+03  0.00000000000E+00 0. -1.
          1    1    1    2  502    0 -0.16079918111E+03  0.62019187468E+02  0.43417588041E+03  0.46713108587E+03  0.00000000000E+00 0. -1.
         22    1    3    3    0    0  0.13564583951E+03 -0.17951452992E+03  0.22936436603E+03  0.32129935050E+03  0.00000000000E+00 0.  1.
         22    1    3    3    0    0  0.23678773043E+02  0.20785107932E+02  0.22165560316E+02  0.38522942109E+02  0.00000000000E+00 0.  1.
</event>
<event>
 7    1  0.5993218E-006  0.8338897E+02  0.7818608E-02  0.1437137E+00
          2   -1    0    0  502    0  0.00000000000E+00  0.00000000000E+00  0.20529779694E+03  0.20529779694E+03  0.00000000000E+00 0. -1.
          1   -1    0    0  501    0 -0.00000000000E+00 -0.00000000000E+00 -0.12778504418E+04  0.12778504418E+04  0.00000000000E+00 0. -1.
         25    2    1    2    0    0  0.55951342957E+02 -0.42773083127E+02 -0.75147947287E+03  0.76505330481E+03  0.12500028658E+03 0.  0.
          2    1    1    2  501    0  0.24569738005E+02  0.20301795563E+02 -0.51026345116E+03  0.51125788456E+03  0.00000000000E+00 0. -1.
          1    1    1    2  502    0 -0.80521080963E+02  0.22471287564E+02  0.18919027919E+03  0.20683704935E+03  0.00000000000E+00 0. -1.
         22    1    3    3    0    0  0.99114162561E+01  0.93650273736E+01 -0.38139532023E+01  0.14159313152E+02  0.00000000000E+00 0. -1.
         22    1    3    3    0    0  0.46039926701E+02 -0.52138110501E+02 -0.74766551967E+03  0.75089399166E+03  0.00000000000E+00 0. -1.
</event>
<event>
 7    1  0.5993218E-006  0.9459238E+02  0.7818608E-02  0.1350278E+00
          2   -1    0    0  502    0  0.00000000000E+00  0.00000000000E+00  0.13175718919E+04  0.13175718919E+04  0.00000000000E+00 0. -1.
          1   -1    0    0  501    0 -0.00000000000E+00 -0.00000000000E+00 -0.12258911337E+03  0.12258911337E+03  0.00000000000E+00 0. -1.
         25    2    1    2    0    0 -0.86994532887E+02 -0.83219502368E+02  0.31676201795E+03  0.36118765919E+03  0.12499925922E+03 0.  0.
          2    1    1    2  501    0  0.89730863701E+02  0.26997213468E+02 -0.77497381681E+02  0.12159901975E+03  0.00000000000E+00 0. -1.
          1    1    1    2  502    0 -0.27363308139E+01  0.56222288900E+02  0.95571814226E+03  0.95737432633E+03  0.00000000000E+00 0. -1.
         22    1    3    3    0    0  0.10190478271E+02  0.19312288810E+02  0.10069415502E+03  0.10303457284E+03  0.00000000000E+00 0. -1.
         22    1    3    3    0    0 -0.97185011158E+02 -0.10253179118E+03  0.21606786293E+03  0.25815308634E+03  0.00000000000E+00 0. -1.
</event>
<event>
 7    1  0.6322669E-006  0.1641604E+03  0.7818608E-02  0.1268471E+00
          2   -1    0    0  502    0  0.00000000000E+00  0.00000000000E+00  0.29066807208E+04  0.29066807208E+04  0.00000000000E+00 0. -1.
          1   -1    0    0  501    0 -0.00000000000E+00 -0.00000000000E+00 -0.84218319214E+03  0.84218319214E+03  0.00000000000E+00 0. -1.
         25    2    1    2    0    0  0.14006729195E+03  0.12266597258E+03 -0.21250624269E+03  0.30895136239E+03  0.12500501605E+03 0.  0.
          2    1    1    2  501    0 -0.74899385692E+02 -0.14291243286E+03 -0.56984419784E+03  0.59224681616E+03  0.00000000000E+00 0. -1.
          1    1    1    2  502    0 -0.65167906258E+02  0.20246460279E+02  0.28468479692E+04  0.28476657344E+04  0.00000000000E+00 0. -1.
         22    1    3    3    0    0  0.23837873609E+02  0.62232150112E+02 -0.14930104759E+03  0.16349889155E+03  0.00000000000E+00 0. -1.
         22    1    3    3    0    0  0.11622941834E+03  0.60433822465E+02 -0.63205195097E+02  0.14545247084E+03  0.00000000000E+00 0. -1.
</event>
<event>
 7    1  0.5993218E-006  0.9205970E+02  0.7818608E-02  0.1326228E+00
          2   -1    0    0  502    0  0.00000000000E+00  0.00000000000E+00  0.26452821176E+04  0.26452821176E+04  0.00000000000E+00 0. -1.
          1   -1    0    0  501    0 -0.00000000000E+00 -0.00000000000E+00 -0.11163952355E+03  0.11163952355E+03  0.00000000000E+00 0. -1.
         25    2    1    2    0    0 -0.11907106444E+03  0.99855312279E+02  0.37036124257E+03  0.42064443609E+03  0.12500115936E+03 0.  0.
          2    1    1    2  501    0  0.38446715708E+02 -0.60016177678E+02 -0.70755384534E+02  0.10043115041E+03  0.00000000000E+00 0. -1.
          1    1    1    2  502    0  0.80624348735E+02 -0.39839134600E+02  0.22340367361E+04  0.22358460547E+04  0.00000000000E+00 0. -1.
         22    1    3    3    0    0 -0.27125916320E+02  0.96238911423E+02  0.13547943206E+03  0.16838176837E+03  0.00000000000E+00 0. -1.
         22    1    3    3    0    0 -0.91945148124E+02  0.36164008561E+01  0.23488181051E+03  0.25226266772E+03  0.00000000000E+00 0. -1.
</event>
<event>
 7    1  0.5993218E-006  0.8920905E+02  0.7818608E-02  0.1466302E+00
          2   -1    0    0  502    0  0.00000000000E+00  0.00000000000E+00  0.42630143965E+04  0.42630143965E+04  0.00000000000E+00 0. -1.
          1   -1    0    0  501    0 -0.00000000000E+00 -0.00000000000E+00 -0.11313029951E+02  0.11313029951E+02  0.00000000000E+00 0. -1.
         25    2    1    2    0    0  0.56862831251E+02  0.76751838826E+02  0.14357079003E+04  0.14443014368E+04  0.12500095597E+03 0.  0.
          2    1    1    2  501    0  0.11903168103E+02 -0.20891338965E+02  0.16570113360E+02  0.29201063532E+02  0.00000000000E+00 0. -1.
          1    1    1    2  502    0 -0.68765999354E+02 -0.55860499861E+02  0.27994233529E+04  0.28008249261E+04  0.00000000000E+00 0. -1.
         22    1    3    3    0    0  0.60327572998E+02  0.67647468286E+02  0.47650547482E+03  0.48504954754E+03  0.00000000000E+00 0.  1.
         22    1    3    3    0    0 -0.34647417467E+01  0.91043705397E+01  0.95920242548E+03  0.95925188926E+03  0.00000000000E+00 0.  1.
</event>
<event>
 7    1  0.5993218E-006  0.5557811E+02  0.7818608E-02  0.1445493E+00
          2   -1    0    0  502    0  0.00000000000E+00  0.00000000000E+00  0.35977509865E+03  0.35977509865E+03  0.00000000000E+00 0. -1.
          1   -1    0    0  501    0 -0.00000000000E+00 -0.00000000000E+00 -0.64265130050E+02  0.64265130050E+02  0.00000000000E+00 0. -1.
         25    2    1    2    0    0 -0.58739615694E+01  0.46118181545E+02  0.95236045512E+02  0.16387471377E+03  0.12499450930E+03 0.  0.
          2    1    1    2  501    0  0.49641876729E+02 -0.35960309403E+02  0.69522332127E+01  0.61691112198E+02  0.00000000000E+00 0. -1.
          1    1    1    2  502    0 -0.43767915159E+02 -0.10157872142E+02  0.19332168987E+03  0.19847440273E+03  0.00000000000E+00 0. -1.
         22    1    3    3    0    0  0.59627929335E+02  0.22408735333E+02  0.45491082619E+02  0.78275666550E+02  0.00000000000E+00 0. -1.
         22    1    3    3    0    0 -0.65501890904E+02  0.23709446212E+02  0.49744962893E+02  0.85599047220E+02  0.00000000000E+00 0. -1.
</event>
<event>
 7    1  0.5993218E-006  0.3670172E+03  0.7818608E-02  0.1222084E+00
          2   -1    0    0  502    0  0.00000000000E+00  0.00000000000E+00  0.14906121400E+04  0.14906121400E+04  0.00000000000E+00 0. -1.
          1   -1    0    0  501    0 -0.00000000000E+00 -0.00000000000E+00 -0.12142526859E+04  0.12142526859E+04  0.00000000000E+00 0. -1.
         25    2    1    2    0    0  0.21195921890E+03  0.31790377518E+03  0.10189712957E+04  0.10954069982E+04  0.12499787852E+03 0.  0.
          2    1    1    2  501    0 -0.25399435102E+01 -0.48630410362E+02 -0.11082977591E+04  0.11093670678E+04  0.00000000000E+00 0. -1.
          1    1    1    2  502    0 -0.20941927539E+03 -0.26927336482E+03  0.36568591755E+03  0.50009075996E+03  0.00000000000E+00 0. -1.
         22    1    3    3    0    0  0.73287424176E+02  0.72379722416E+02  0.43350314713E+03  0.44557249616E+03  0.00000000000E+00 0.  1.
         22    1    3    3    0    0  0.13867179472E+03  0.24552405277E+03  0.58546814853E+03  0.64983450207E+03  0.00000000000E+00 0.  1.
</event>
<event>
 7    1  0.5993218E-006  0.5720352E+02  0.7818608E-02  0.1417331E+00
          2   -1    0    0  502    0  0.00000000000E+00  0.00000000000E+00  0.25956825956E+04  0.25956825956E+04  0.00000000000E+00 0. -1.
          1   -1    0    0  501    0 -0.00000000000E+00 -0.00000000000E+00 -0.13871130873E+03  0.13871130873E+03  0.00000000000E+00 0. -1.
         25    2    1    2    0    0 -0.31094341295E+02  0.86541507472E+01  0.21308988831E+02  0.13084782534E+03  0.12500131202E+03 0.  0.
          2    1    1    2  501    0  0.17551498459E+02 -0.60950350222E+02 -0.71627765841E+02  0.95674119435E+02  0.00000000000E+00 0. -1.
          1    1    1    2  502    0  0.13542842837E+02  0.52296199475E+02  0.25072900638E+04  0.25078719595E+04  0.00000000000E+00 0. -1.
         22    1    3    3    0    0 -0.18015912843E+02  0.25500909711E+02 -0.48595930896E+02  0.57761873337E+02  0.00000000000E+00 0.  1.
         22    1    3    3    0    0 -0.13078428452E+02 -0.16846758964E+02  0.69904919727E+02  0.73085952005E+02  0.00000000000E+00 0.  1.
</event>
<event>
 7    1  0.5993218E-006  0.1006328E+03  0.7818608E-02  0.1296281E+00
          2   -1    0    0  502    0  0.00000000000E+00  0.00000000000E+00  0.10580691499E+04  0.10580691499E+04  0.00000000000E+00 0. -1.
          1   -1    0    0  501    0 -0.00000000000E+00 -0.00000000000E+00 -0.14571489625E+04  0.14571489625E+04  0.00000000000E+00 0. -1.
         25    2    1    2    0    0  0.99088611734E+02 -0.11285941192E+03  0.35547434280E+03  0.40563939439E+03  0.12500204023E+03 0.  0.
          2    1    1    2  501    0 -0.66614203432E+01  0.85260227560E+02 -0.14273467611E+04  0.14299064506E+04  0.00000000000E+00 0. -1.
          1    1    1    2  502    0 -0.92427191391E+02  0.27599184363E+02  0.67279260580E+03  0.67967226742E+03  0.00000000000E+00 0. -1.
         22    1    3    3    0    0  0.12124828459E+03 -0.60590436790E+02  0.21541485253E+03  0.25451111221E+03  0.00000000000E+00 0. -1.
         22    1    3    3    0    0 -0.22159672855E+02 -0.52268975134E+02  0.14005949027E+03  0.15112828219E+03  0.00000000000E+00 0. -1.
</event>
<event>
 7    1  0.5993218E-006  0.1242038E+03  0.7818608E-02  0.1362775E+00
          2   -1    0    0  502    0  0.00000000000E+00  0.00000000000E+00  0.13344821616E+03  0.13344821616E+03  0.00000000000E+00 0. -1.
          1   -1    0    0  501    0 -0.00000000000E+00 -0.00000000000E+00 -0.94474211908E+03  0.94474211908E+03  0.00000000000E+00 0. -1.
         25    2    1    2    0    0 -0.66637124612E+02  0.13310020142E+03 -0.44209479987E+03  0.48293772224E+03  0.12499944598E+03 0.  0.
          2    1    1    2  501    0  0.67455946924E+02 -0.94534841874E+02 -0.47167257939E+03  0.48575936764E+03  0.00000000000E+00 0. -1.
          1    1    1    2  502    0 -0.81882231185E+00 -0.38565359543E+02  0.10247347634E+03  0.10949324536E+03  0.00000000000E+00 0. -1.
         22    1    3    3    0    0 -0.76586537698E+02  0.11161439801E+03 -0.43858793283E+03  0.45900179349E+03  0.00000000000E+00 0. -1.
         22    1    3    3    0    0  0.99494130861E+01  0.21485803410E+02 -0.35068670414E+01  0.23935928755E+02  0.00000000000E+00 0. -1.
</event>
<event>
 7    1  0.5993218E-006  0.1421808E+03  0.7818608E-02  0.1331805E+00
          2   -1    0    0  502    0  0.00000000000E+00  0.00000000000E+00  0.19518916874E+04  0.19518916874E+04  0.00000000000E+00 0. -1.
          1   -1    0    0  501    0 -0.00000000000E+00 -0.00000000000E+00 -0.38292792881E+03  0.38292792881E+03  0.00000000000E+00 0. -1.
         25    2    1    2    0    0  0.12799504919E+03 -0.10329256553E+03 -0.43132989403E+02  0.21103838320E+03  0.12499863079E+03 0.  0.
          2    1    1    2  501    0 -0.42770932607E+02 -0.10053670568E+02 -0.25124153052E+03  0.25505437778E+03  0.00000000000E+00 0. -1.
          1    1    1    2  502    0 -0.85224116579E+02  0.11334623610E+03  0.18633382785E+04  0.18687268552E+04  0.00000000000E+00 0. -1.
         22    1    3    3    0    0  0.80214635751E+02 -0.12620324086E+03 -0.13053097146E+02  0.15010672583E+03  0.00000000000E+00 0. -1.
         22    1    3    3    0    0  0.47780413434E+02  0.22910675332E+02 -0.30079892257E+02  0.60931657374E+02  0.00000000000E+00 0. -1.
</event>
<event>
 7    1  0.5993218E-006  0.8906990E+02  0.7818608E-02  0.1407896E+00
          2   -1    0    0  502    0  0.00000000000E+00  0.00000000000E+00  0.13846348214E+04  0.13846348214E+04  0.00000000000E+00 0. -1.
          1   -1    0    0  501    0 -0.00000000000E+00 -0.00000000000E+00 -0.22233686390E+03  0.22233686390E+03  0.00000000000E+00 0. -1.
         25    2    1    2    0    0 -0.11305956939E+03  0.20722332840E+02  0.14502344623E+02  0.17043168176E+03  0.12499903535E+03 0.  0.
          2    1    1    2  501    0  0.78488261720E+02 -0.34817486340E+02 -0.13130892895E+03  0.15689072440E+03  0.00000000000E+00 0. -1.
          1    1    1    2  502    0  0.34571307671E+02  0.14095153500E+02  0.12791045419E+04  0.12796492792E+04  0.00000000000E+00 0. -1.
         22    1    3    3    0    0 -0.41290889130E+02 -0.48554168056E+02  0.28290329495E+02  0.69733689876E+02  0.00000000000E+00 0.  1.
         22    1    3    3    0    0 -0.71768680260E+02  0.69276500896E+02 -0.13787984872E+02  0.10069799188E+03  0.00000000000E+00 0.  1.
</event>
<event>
 7    1  0.5993218E-006  0.3479704E+02  0.7818608E-02  0.1576574E+00
          2   -1    0    0  502    0  0.00000000000E+00  0.00000000000E+00  0.13102955688E+04  0.13102955688E+04  0.00000000000E+00 0. -1.
          1   -1    0    0  501    0 -0.00000000000E+00 -0.00000000000E+00 -0.13689603701E+04  0.13689603701E+04  0.00000000000E+00 0. -1.
         25    2    1    2    0    0  0.76868854789E+01 -0.86528472284E+01 -0.21000564896E+02  0.12727729501E+03  0.12499810449E+03 0.  0.
          2    1    1    2  501    0  0.27064222172E+02  0.11742132173E+02 -0.12944112813E+04  0.12947474329E+04  0.00000000000E+00 0. -1.
          1    1    1    2  502    0 -0.34751107651E+02 -0.30892849443E+01  0.12567470448E+04  0.12572312110E+04  0.00000000000E+00 0. -1.
         22    1    3    3    0    0 -0.48875280777E+02 -0.12573812518E+02  0.23046832187E+02  0.55480179399E+02  0.00000000000E+00 0.  1.
         22    1    3    3    0    0  0.56562166256E+02  0.39209652900E+01 -0.44047397083E+02  0.71797115612E+02  0.00000000000E+00 0.  1.
</event>
<event>
 7    1  0.5993218E-006  0.1459705E+03  0.7818608E-02  0.1264847E+00
          2   -1    0    0  502    0  0.00000000000E+00  0.00000000000E+00  0.15912254235E+04  0.15912254235E+04  0.00000000000E+00 0. -1.
          1   -1    0    0  501    0 -0.00000000000E+00 -0.00000000000E+00 -0.30489099285E+03  0.30489099285E+03  0.00000000000E+00 0. -1.
         25    2    1    2    0    0 -0.36850605115E+02  0.10659803648E+03 -0.12647107082E+02  0.16883559918E+03  0.12499760699E+03 0.  0.
          2    1    1    2  501    0  0.70041193384E+02  0.37600506107E+02 -0.20300921699E+03  0.21801905654E+03  0.00000000000E+00 0. -1.
          1    1    1    2  502    0 -0.33190588269E+02 -0.14419854259E+03  0.15019907547E+04  0.15092617606E+04  0.00000000000E+00 0. -1.
         22    1    3    3    0    0 -0.95775723068E+01 -0.28094058013E+02  0.55954194989E+01  0.30204547775E+02  0.00000000000E+00 0.  1.
         22    1    3    3    0    0 -0.27273032808E+02  0.13469209450E+03 -0.18242526581E+02  0.13863105141E+03  0.00000000000E+00 0.  1.
</event>
<event>
 7    1  0.5993218E-006  0.8465005E+02  0.7818608E-02  0.1360577E+00
          2   -1    0    0  502    0  0.00000000000E+00  0.00000000000E+00  0.13081386964E+04  0.13081386964E+04  0.00000000000E+00 0. -1.
          1   -1    0    0  501    0 -0.00000000000E+00 -0.00000000000E+00 -0.47405260507E+02  0.47405260507E+02  0.00000000000E+00 0. -1.
         25    2    1    2    0    0  0.39195632673E+02  0.30656897273E+02  0.12093935655E+03  0.18090702380E+03  0.12499952131E+03 0.  0.
          2    1    1    2  501    0  0.48066301838E+02 -0.31830833360E+02  0.37235236947E+02  0.68629688876E+02  0.00000000000E+00 0. -1.
          1    1    1    2  502    0 -0.87261934511E+02  0.11739360867E+01  0.11025588424E+04  0.11060072442E+04  0.00000000000E+00 0. -1.
         22    1    3    3    0    0  0.47404474222E+02 -0.40814359621E+02  0.53919121254E+02  0.82584912449E+02  0.00000000000E+00 0.  1.
         22    1    3    3    0    0 -0.82088415481E+01  0.71471256894E+02  0.67020235296E+02  0.98322111352E+02  0.00000000000E+00 0.  1.
</event>
<event>
 7    1  0.5993218E-006  0.1784636E+03  0.7818608E-02  0.1236870E+00
          2   -1    0    0  502    0  0.00000000000E+00  0.00000000000E+00  0.30523881570E+03  0.30523881570E+03  0.00000000000E+00 0. -1.
          1   -1    0    0  501    0 -0.00000000000E+00 -0.00000000000E+00 -0.40699189664E+03  0.40699189664E+03  0.00000000000E+00 0. -1.
         25    2    1    2    0    0  0.13700011625E+03  0.10344354521E+03 -0.16393597344E+03  0.26827026209E+03  0.12499732491E+03 0.  0.
          2    1    1    2  501    0 -0.87716792067E+02 -0.17386784671E+03 -0.12951271563E+03  0.23387562344E+03  0.00000000000E+00 0. -1.
          1    1    1    2  502    0 -0.49283324186E+02  0.70424301496E+02  0.19169560813E+03  0.21008482682E+03  0.00000000000E+00 0. -1.
         22    1    3    3    0    0 -0.12847932951E+02 -0.68108529212E+01 -0.45412875590E+02  0.47684236053E+02  0.00000000000E+00 0.  1.
         22    1    3    3    0    0  0.14984804920E+03  0.11025439814E+03 -0.11852309785E+03  0.22058602604E+03  0.00000000000E+00 0.  1.
</event>
<event>
 7    1  0.5993218E-006  0.7032404E+02  0.7818608E-02  0.1457974E+00
          2   -1    0    0  502    0  0.00000000000E+00  0.00000000000E+00  0.78582834556E+03  0.78582834556E+03  0.00000000000E+00 0. -1.
          1   -1    0    0  501    0 -0.00000000000E+00 -0.00000000000E+00 -0.66809988972E+03  0.66809988972E+03  0.00000000000E+00 0. -1.
         25    2    1    2    0    0 -0.40254673650E+02 -0.48147457442E+02  0.81101961281E+02  0.16167576632E+03  0.12499163525E+03 0.  0.
          2    1    1    2  501    0  0.15351666557E+02  0.68870379157E+02 -0.62543303595E+03  0.62940073502E+03  0.00000000000E+00 0. -1.
          1    1    1    2  502    0  0.24903007093E+02 -0.20722921714E+02  0.66205953051E+03  0.66285173394E+03  0.00000000000E+00 0. -1.
         22    1    3    3    0    0  0.92289412373E+01  0.35537584163E+02  0.44741740449E+02  0.57878463896E+02  0.00000000000E+00 0. -1.
         22    1    3    3    0    0 -0.49483614887E+02 -0.83685041606E+02  0.36360220832E+02  0.10379730242E+03  0.00000000000E+00 0. -1.
</event>
<event>
 7    1  0.5993218E-006  0.6965947E+02  0.7818608E-02  0.1496071E+00
          2   -1    0    0  502    0  0.00000000000E+00  0.00000000000E+00  0.77942542806E+03  0.77942542806E+03  0.00000000000E+00 0. -1.
          1   -1    0    0  501    0 -0.00000000000E+00 -0.00000000000E+00 -0.10463904737E+04  0.10463904737E+04  0.00000000000E+00 0. -1.
         25    2    1    2    0    0 -0.47181745258E+02  0.75602398098E+01 -0.21503112389E+03  0.25327347850E+03  0.12500318540E+03 0.  0.
          2    1    1    2  501    0  0.68455953029E+02 -0.20616303258E+02 -0.81045928124E+03  0.81360647490E+03  0.00000000000E+00 0. -1.
          1    1    1    2  502    0 -0.21274207771E+02  0.13056063448E+02  0.75852535948E+03  0.75893594834E+03  0.00000000000E+00 0. -1.
         22    1    3    3    0    0 -0.27057002303E+00  0.31150863863E+02  0.78447080230E+00  0.31161914607E+02  0.00000000000E+00 0. -1.
         22    1    3    3    0    0 -0.46911175235E+02 -0.23590624053E+02 -0.21581559469E+03  0.22211156389E+03  0.00000000000E+00 0. -1.
</event>
<event>
 7    1  0.5993218E-006  0.1172336E+03  0.7818608E-02  0.1249946E+00
          2   -1    0    0  502    0  0.00000000000E+00  0.00000000000E+00  0.17550118437E+04  0.17550118437E+04  0.00000000000E+00 0. -1.
          1   -1    0    0  501    0 -0.00000000000E+00 -0.00000000000E+00 -0.10012775508E+03  0.10012775508E+03  0.00000000000E+00 0. -1.
         25    2    1    2    0    0  0.38421307545E+02  0.14985365860E+02  0.17748485981E+03  0.22096328434E+03  0.12499255779E+03 0.  0.
          2    1    1    2  501    0 -0.14263727508E+03  0.32836893895E+02 -0.58658876617E+01  0.14648570743E+03  0.00000000000E+00 0. -1.
          1    1    1    2  502    0  0.10421596754E+03 -0.47822259754E+02  0.14832651164E+04  0.14876906070E+04  0.00000000000E+00 0. -1.
         22    1    3    3    0    0  0.33617213638E+02  0.65067463023E+02  0.14076027349E+03  0.15867371046E+03  0.00000000000E+00 0. -1.
         22    1    3    3    0    0  0.48040939075E+01 -0.50082097163E+02  0.36724586315E+02  0.62289573883E+02  0.00000000000E+00 0. -1.
</event>
<event>
 7    1  0.5993218E-006  0.3429459E+03  0.7818608E-02  0.1232689E+00
          2   -1    0    0  502    0  0.00000000000E+00  0.00000000000E+00  0.18929269202E+04  0.18929269202E+04  0.00000000000E+00 0. -1.
          1   -1    0    0  501    0 -0.00000000000E+00 -0.00000000000E+00 -0.16544054117E+04  0.16544054117E+04  0.00000000000E+00 0. -1.
         25    2    1    2    0    0  0.10269735739E+03 -0.30996796807E+03 -0.19858145742E+03  0.40210268192E+03  0.12500033254E+03 0.  0.
          2    1    1    2  501    0 -0.37514870359E+02 -0.27790819502E+02 -0.13371364374E+04  0.13379512500E+04  0.00000000000E+00 0. -1.
          1    1    1    2  502    0 -0.65182487031E+02  0.33775878757E+03  0.17742394032E+04  0.18072784000E+04  0.00000000000E+00 0. -1.
         22    1    3    3    0    0 -0.82663335963E+01 -0.14293115852E+03 -0.46873541094E+02  0.15064785827E+03  0.00000000000E+00 0. -1.
         22    1    3    3    0    0  0.11096369099E+03 -0.16703680955E+03 -0.15170791633E+03  0.25145482365E+03  0.00000000000E+00 0. -1.
</event>
<event>
 7    1  0.5993218E-006  0.1689952E+03  0.7818608E-02  0.1226069E+00
          2   -1    0    0  502    0  0.00000000000E+00  0.00000000000E+00  0.19091150169E+04  0.19091150169E+04  0.00000000000E+00 0. -1.
          1   -1    0    0  501    0 -0.00000000000E+00 -0.00000000000E+00 -0.43924018675E+03  0.43924018675E+03  0.00000000000E+00 0. -1.
         25    2    1    2    0    0  0.29341240775E+02 -0.10170892971E+03  0.54468336444E+02  0.17261868754E+03  0.12499918727E+03 0.  0.
          2    1    1    2  501    0  0.35186112611E+02  0.17999610222E+03 -0.35650948014E+03  0.40091853133E+03  0.00000000000E+00 0. -1.
          1    1    1    2  502    0 -0.64527353386E+02 -0.78287172506E+02  0.17719159739E+04  0.17748179848E+04  0.00000000000E+00 0. -1.
         22    1    3    3    0    0 -0.33626957061E+02 -0.28252996149E+02  0.61544663850E+02  0.75609190453E+02  0.00000000000E+00 0.  1.
         22    1    3    3    0    0  0.62968197836E+02 -0.73455933565E+02 -0.70763274063E+01  0.97009497083E+02  0.00000000000E+00 0.  1.
</event>
<event>
 7    1  0.5993218E-006  0.7352382E+02  0.7818608E-02  0.1432233E+00
          2   -1    0    0  502    0  0.00000000000E+00  0.00000000000E+00  0.18909317540E+04  0.18909317540E+04  0.00000000000E+00 0. -1.
          1   -1    0    0  501    0 -0.00000000000E+00 -0.00000000000E+00 -0.26242923753E+03  0.26242923753E+03  0.00000000000E+00 0. -1.
         25    2    1    2    0    0  0.45969084471E+02  0.36260826076E+02  0.12287800712E+03  0.18481246391E+03  0.12501455094E+03 0.  0.
          2    1    1    2  501    0 -0.27733258523E+02 -0.69037796431E+02 -0.22527489833E+03  0.23724276761E+03  0.00000000000E+00 0. -1.
          1    1    1    2  502    0 -0.18235825948E+02  0.32776970355E+02  0.17308994077E+04  0.17313057600E+04  0.00000000000E+00 0. -1.
         22    1    3    3    0    0 -0.17398043561E+02 -0.29286457044E+02  0.29875997399E+01  0.34195237068E+02  0.00000000000E+00 0. -1.
         22    1    3    3    0    0  0.63367128032E+02  0.65547283120E+02  0.11989040738E+03  0.15061722684E+03  0.00000000000E+00 0. -1.
</event>
<event>
 7    1  0.5993218E-006  0.8246773E+02  0.7818608E-02  0.1354899E+00
          2   -1    0    0  502    0  0.00000000000E+00  0.00000000000E+00  0.12687815090E+04  0.12687815090E+04  0.00000000000E+00 0. -1.
          1   -1    0    0  501    0 -0.00000000000E+00 -0.00000000000E+00 -0.45525906146E+03  0.45525906146E+03  0.00000000000E+00 0. -1.
         25    2    1    2    0    0  0.87302504083E+02  0.11248266760E+02 -0.25576673375E+03  0.29796992512E+03  0.12498481292E+03 0.  0.
          2    1    1    2  501    0 -0.34098461016E+02  0.51875110103E+02 -0.17157663328E+03  0.18246170332E+03  0.00000000000E+00 0. -1.
          1    1    1    2  502    0 -0.53204043066E+02 -0.63123376863E+02  0.12408658146E+04  0.12436089420E+04  0.00000000000E+00 0. -1.
         22    1    3    3    0    0  0.85900081697E+02 -0.10881425321E+02 -0.71270498532E+02  0.11214594693E+03  0.00000000000E+00 0.  1.
         22    1    3    3    0    0  0.14024223861E+01  0.22129692081E+02 -0.18449623522E+03  0.18582397819E+03  0.00000000000E+00 0.  1.
</event>
<event>
 7    1  0.5993218E-006  0.1514309E+03  0.7818608E-02  0.1232928E+00
          2   -1    0    0  502    0  0.00000000000E+00  0.00000000000E+00  0.99324758501E+03  0.99324758501E+03  0.00000000000E+00 0. -1.
          1   -1    0    0  501    0 -0.00000000000E+00 -0.00000000000E+00 -0.95688907310E+03  0.95688907310E+03  0.00000000000E+00 0. -1.
         25    2    1    2    0    0 -0.13359491832E+03  0.41905713271E+02  0.45354288525E+02  0.19309366108E+03  0.12499783779E+03 0.  0.
          2    1    1    2  501    0 -0.85450696983E+01 -0.10512626944E+03 -0.87289741340E+03  0.87924652121E+03  0.00000000000E+00 0. -1.
          1    1    1    2  502    0  0.14213998802E+03  0.63220556168E+02  0.86390163679E+03  0.87779647582E+03  0.00000000000E+00 0. -1.
         22    1    3    3    0    0 -0.55087333316E+02 -0.26777298523E+02  0.62355489679E+02  0.87406207452E+02  0.00000000000E+00 0. -1.
         22    1    3    3    0    0 -0.78507585007E+02  0.68683011794E+02 -0.17001201154E+02  0.10568745362E+03  0.00000000000E+00 0. -1.
</event>
<event>
 7    1  0.5993218E-006  0.1082065E+03  0.7818608E-02  0.1433851E+00
          2   -1    0    0  502    0  0.00000000000E+00  0.00000000000E+00  0.90049039093E+03  0.90049039093E+03  0.00000000000E+00 0. -1.
          1   -1    0    0  501    0 -0.00000000000E+00 -0.00000000000E+00 -0.65815348175E+02  0.65815348175E+02  0.00000000000E+00 0. -1.
         25    2    1    2    0    0 -0.46838538409E+02 -0.96708496702E+02  0.35432745462E+03  0.39079306172E+03  0.12499955991E+03 0.  0.
          2    1    1    2  501    0 -0.22082105329E+02  0.12093346953E+02 -0.38120155706E+02  0.45683855872E+02  0.00000000000E+00 0. -1.
          1    1    1    2  502    0  0.68920643738E+02  0.84615149749E+02  0.51846774384E+03  0.52982882151E+03  0.00000000000E+00 0. -1.
         22    1    3    3    0    0  0.26157519662E+01 -0.11193754451E+03  0.22025295344E+03  0.24707937900E+03  0.00000000000E+00 0. -1.
         22    1    3    3    0    0 -0.49454290375E+02  0.15229047808E+02  0.13407450118E+03  0.14371368272E+03  0.00000000000E+00 0. -1.
</event>
<event>
 7    1  0.5993218E-006  0.6163579E+02  0.7818608E-02  0.1419785E+00
          2   -1    0    0  502    0  0.00000000000E+00  0.00000000000E+00  0.39015382489E+04  0.39015382489E+04  0.00000000000E+00 0. -1.
          1   -1    0    0  501    0 -0.00000000000E+00 -0.00000000000E+00 -0.12538237137E+03  0.12538237137E+03  0.00000000000E+00 0. -1.
         25    2    1    2    0    0 -0.47930495477E+02  0.92820623103E+02  0.99010616467E+03  0.10034182856E+04  0.12500015210E+03 0.  0.
          2    1    1    2  501    0  0.76729649909E+01 -0.48595165431E+02 -0.11330815910E+03  0.12352774350E+03  0.00000000000E+00 0. -1.
          1    1    1    2  502    0  0.40257530486E+02 -0.44225457671E+02  0.28993578720E+04  0.28999745912E+04  0.00000000000E+00 0. -1.
         22    1    3    3    0    0 -0.32740737366E+02  0.11973101906E+03  0.63826973692E+03  0.65022744473E+03  0.00000000000E+00 0. -1.
         22    1    3    3    0    0 -0.15189758111E+02 -0.26910395956E+02  0.35183642775E+03  0.35319084084E+03  0.00000000000E+00 0. -1.
</event>
<event>
 7    1  0.5993218E-006  0.5604873E+02  0.7818608E-02  0.1498763E+00
          2   -1    0    0  502    0  0.00000000000E+00  0.00000000000E+00  0.44686475878E+03  0.44686475878E+03  0.00000000000E+00 0. -1.
          1   -1    0    0  501    0 -0.00000000000E+00 -0.00000000000E+00 -0.76996032439E+03  0.76996032439E+03  0.00000000000E+00 0. -1.
         25    2    1    2    0    0  0.32571854005E+02  0.77815645849E+02  0.21521192161E+03  0.26278683833E+03  0.12499820313E+03 0.  0.
          2    1    1    2  501    0 -0.13149751801E+02 -0.54361227784E+02 -0.74400229616E+03  0.74610151839E+03  0.00000000000E+00 0. -1.
          1    1    1    2  502    0 -0.19422102203E+02 -0.23454418065E+02  0.20569480894E+03  0.20793672645E+03  0.00000000000E+00 0. -1.
         22    1    3    3    0    0  0.66141767790E+02  0.79508367378E+02  0.20148665075E+03  0.22647998666E+03  0.00000000000E+00 0.  1.
         22    1    3    3    0    0 -0.33569913785E+02 -0.16927215295E+01  0.13725270861E+02  0.36306851666E+02  0.00000000000E+00 0.  1.
</event>
<event>
 7    1  0.5993218E-006  0.1507057E+03  0.7818608E-02  0.1322771E+00
          2   -1    0    0  502    0  0.00000000000E+00  0.00000000000E+00  0.28802305682E+03  0.28802305682E+03  0.00000000000E+00 0. -1.
          1   -1    0    0  501    0 -0.00000000000E+00 -0.00000000000E+00 -0.14969175931E+04  0.14969175931E+04  0.00000000000E+00 0. -1.
         25    2    1    2    0    0  0.15968339383E+03 -0.99200711801E+02 -0.16774789303E+03  0.28125565864E+03  0.12500328963E+03 0.  0.
          2    1    1    2  501    0 -0.27167718757E+02  0.35741725775E+02 -0.12486357726E+04  0.12494426151E+04  0.00000000000E+00 0. -1.
          1    1    1    2  502    0 -0.13251567507E+03  0.63458986026E+02  0.20748912933E+03  0.25424237616E+03  0.00000000000E+00 0. -1.
         22    1    3    3    0    0  0.13695000425E+03 -0.12484750828E+03 -0.11419658289E+03  0.21767651121E+03  0.00000000000E+00 0.  1.
         22    1    3    3    0    0  0.22733389572E+02  0.25646796476E+02 -0.53551310141E+02  0.63579147436E+02  0.00000000000E+00 0.  1.
</event>
<event>
 7    1  0.5993218E-006  0.8647130E+02  0.7818608E-02  0.1407500E+00
          2   -1    0    0  502    0  0.00000000000E+00  0.00000000000E+00  0.64366359416E+03  0.64366359416E+03  0.00000000000E+00 0. -1.
          1   -1    0    0  501    0 -0.00000000000E+00 -0.00000000000E+00 -0.18104794884E+03  0.18104794884E+03  0.00000000000E+00 0. -1.
         25    2    1    2    0    0 -0.68576209960E+01 -0.11484480095E+03  0.23445748708E+03  0.28953659784E+03  0.12499909187E+03 0.  0.
          2    1    1    2  501    0  0.19004632981E+02  0.33569294470E+02 -0.14655990949E+03  0.15155157761E+03  0.00000000000E+00 0. -1.
          1    1    1    2  502    0 -0.12147011985E+02  0.81275506475E+02  0.37471806773E+03  0.38362336756E+03  0.00000000000E+00 0. -1.
         22    1    3    3    0    0 -0.19078282682E+02  0.23363390433E+02  0.30820575412E+02  0.43124665232E+02  0.00000000000E+00 0. -1.
         22    1    3    3    0    0  0.12220661686E+02 -0.13820819138E+03  0.20363691167E+03  0.24641193261E+03  0.00000000000E+00 0. -1.
</event>
<event>
 7    1  0.5993218E-006  0.8694225E+02  0.7818608E-02  0.1441651E+00
          2   -1    0    0  502    0  0.00000000000E+00  0.00000000000E+00  0.25177599067E+04  0.25177599067E+04  0.00000000000E+00 0. -1.
          1   -1    0    0  501    0 -0.00000000000E+00 -0.00000000000E+00 -0.19094489177E+03  0.19094489177E+03  0.00000000000E+00 0. -1.
         25    2    1    2    0    0 -0.61675469238E+01 -0.61346040627E+02  0.12651033668E+03  0.18823443749E+03  0.12500385127E+03 0.  0.
          2    1    1    2  501    0  0.14191972398E+02 -0.25924292721E+02 -0.15789781041E+03  0.16063996877E+03  0.00000000000E+00 0. -1.
          1    1    1    2  502    0 -0.80244254744E+01  0.87270333348E+02  0.23582024887E+04  0.23598303922E+04  0.00000000000E+00 0. -1.
         22    1    3    3    0    0  0.44934148575E+02 -0.35132847925E+02  0.94118227626E+01  0.57809835835E+02  0.00000000000E+00 0.  1.
         22    1    3    3    0    0 -0.51101695499E+02 -0.26213192702E+02  0.11709851392E+03  0.13042460165E+03  0.00000000000E+00 0.  1.
</event>
<event>
 7    1  0.5993218E-006  0.5137270E+02  0.7818608E-02  0.1490870E+00
          2   -1    0    0  502    0  0.00000000000E+00  0.00000000000E+00  0.18078243423E+04  0.18078243423E+04  0.00000000000E+00 0. -1.
          1   -1    0    0  501    0 -0.00000000000E+00 -0.00000000000E+00 -0.74101764530E+01  0.74101764530E+01  0.00000000000E+00 0. -1.
         25    2    1    2    0    0  0.26119935180E+02 -0.13857169886E+02  0.90963673913E+03  0.91866077861E+03  0.12499742721E+03 0.  0.
          2    1    1    2  501    0  0.31756226627E+02  0.14925563081E+02  0.17647083961E+03  0.17992550569E+03  0.00000000000E+00 0. -1.
          1    1    1    2  502    0 -0.57876161807E+02 -0.10683931954E+01  0.71430658715E+03  0.71664823450E+03  0.00000000000E+00 0. -1.
         22    1    3    3    0    0 -0.17063342438E+02  0.47184138246E+02  0.47462646691E+03  0.47727118460E+03  0.00000000000E+00 0. -1.
         22    1    3    3    0    0  0.43183277618E+02 -0.61041308132E+02  0.43501027222E+03  0.44138959401E+03  0.00000000000E+00 0. -1.
</event>
<event>
 7    1  0.5993218E-006  0.9641756E+02  0.7818608E-02  0.1356592E+00
          2   -1    0    0  502    0  0.00000000000E+00  0.00000000000E+00  0.27782165845E+04  0.27782165845E+04  0.00000000000E+00 0. -1.
          1   -1    0    0  501    0 -0.00000000000E+00 -0.00000000000E+00 -0.75907828685E+03  0.75907828685E+03  0.00000000000E+00 0. -1.
         25    2    1    2    0    0  0.76207379874E+02  0.81161381072E+02  0.12817379037E+03  0.21081794622E+03  0.12498380449E+03 0.  0.
          2    1    1    2  501    0 -0.91246166279E+02 -0.31026636430E+02 -0.71425688834E+03  0.72072978124E+03  0.00000000000E+00 0. -1.
          1    1    1    2  502    0  0.15038786405E+02 -0.50134744642E+02  0.26052213957E+04  0.26057471439E+04  0.00000000000E+00 0. -1.
         22    1    3    3    0    0  0.30356364845E+02 -0.22416057503E+02  0.78566996932E+02  0.87159402978E+02  0.00000000000E+00 0. -1.
         22    1    3    3    0    0  0.45851015029E+02  0.10357743858E+03  0.49606793440E+02  0.12365854324E+03  0.00000000000E+00 0. -1.
</event>
<event>
 7    1  0.5993218E-006  0.8239190E+02  0.7818608E-02  0.1363990E+00
          2   -1    0    0  502    0  0.00000000000E+00  0.00000000000E+00  0.16057087488E+03  0.16057087488E+03  0.00000000000E+00 0. -1.
          1   -1    0    0  501    0 -0.00000000000E+00 -0.00000000000E+00 -0.13460138189E+04  0.13460138189E+04  0.00000000000E+00 0. -1.
         25    2    1    2    0    0 -0.18496341375E+02  0.98888970446E+02 -0.32129213141E+03  0.35912891443E+03  0.12499520132E+03 0.  0.
          2    1    1    2  501    0  0.58648170928E+02 -0.57643667449E+02 -0.99819419543E+03  0.10015757845E+04  0.00000000000E+00 0. -1.
          1    1    1    2  502    0 -0.40151829553E+02 -0.41245302997E+02  0.13404338279E+03  0.14587999487E+03  0.00000000000E+00 0. -1.
         22    1    3    3    0    0 -0.16204793400E+01  0.81752979082E+02 -0.32470026048E+03  0.33483792303E+03  0.00000000000E+00 0.  1.
         22    1    3    3    0    0 -0.16875862035E+02  0.17135991363E+02  0.34081290699E+01  0.24290991400E+02  0.00000000000E+00 0.  1.
</event>
<event>
 7    1  0.5993218E-006  0.4479046E+02  0.7818608E-02  0.1592651E+00
          2   -1    0    0  502    0  0.00000000000E+00  0.00000000000E+00  0.12526413288E+03  0.12526413288E+03  0.00000000000E+00 0. -1.
          1   -1    0    0  501    0 -0.00000000000E+00 -0.00000000000E+00 -0.10446465747E+04  0.10446465747E+04  0.00000000000E+00 0. -1.
         25    2    1    2    0    0  0.36681905719E+02  0.14193409622E+02 -0.62417773038E+03  0.63778491571E+03  0.12499897808E+03 0.  0.
          2    1    1    2  501    0 -0.46332913702E+02  0.41935634196E+01 -0.41143407892E+03  0.41405594569E+03  0.00000000000E+00 0. -1.
          1    1    1    2  502    0  0.96510079827E+01 -0.18386973042E+02  0.11622936744E+03  0.11806984622E+03  0.00000000000E+00 0. -1.
         22    1    3    3    0    0 -0.23116731394E+02  0.43339350934E+02 -0.12685320787E+03  0.13603094853E+03  0.00000000000E+00 0.  1.
         22    1    3    3    0    0  0.59798637113E+02 -0.29145941311E+02 -0.49732452251E+03  0.50175396719E+03  0.00000000000E+00 0.  1.
</event>
<event>
 7    1  0.5993218E-006  0.2091775E+03  0.7818608E-02  0.1177729E+00
          2   -1    0    0  502    0  0.00000000000E+00  0.00000000000E+00  0.51003830871E+03  0.51003830871E+03  0.00000000000E+00 0. -1.
          1   -1    0    0  501    0 -0.00000000000E+00 -0.00000000000E+00 -0.87221563810E+03  0.87221563810E+03  0.00000000000E+00 0. -1.
         25    2    1    2    0    0 -0.23649397518E+03  0.73714919699E+02 -0.98885031841E+02  0.29456236447E+03  0.12500178941E+03 0.  0.
          2    1    1    2  501    0  0.19996112927E+03  0.59720180722E+02 -0.64699042573E+03  0.67981436010E+03  0.00000000000E+00 0. -1.
          1    1    1    2  502    0  0.36532845903E+02 -0.13343510042E+03  0.38369812819E+03  0.40787722225E+03  0.00000000000E+00 0. -1.
         22    1    3    3    0    0 -0.59847675590E+02  0.70497152505E+02 -0.78426028372E+00  0.92478147954E+02  0.00000000000E+00 0.  1.
         22    1    3    3    0    0 -0.17664629959E+03  0.32177671938E+01 -0.98100771557E+02  0.20208421651E+03  0.00000000000E+00 0.  1.
</event>
<event>
 7    1  0.5993218E-006  0.2177556E+03  0.7818608E-02  0.1263933E+00
          2   -1    0    0  502    0  0.00000000000E+00  0.00000000000E+00  0.24368366209E+04  0.24368366209E+04  0.00000000000E+00 0. -1.
          1   -1    0    0  501    0 -0.00000000000E+00 -0.00000000000E+00 -0.62159835327E+03  0.62159835327E+03  0.00000000000E+00 0. -1.
         25    2    1    2    0    0  0.73038131061E+02  0.19092281317E+03  0.83563482686E+03  0.86930807875E+03  0.12499953097E+03 0.  0.
          2    1    1    2  501    0 -0.25836567928E+02 -0.21666888247E+03 -0.58460227080E+03  0.62399739414E+03  0.00000000000E+00 0. -1.
          1    1    1    2  502    0 -0.47201563133E+02  0.25746069304E+02  0.15642057115E+04  0.15651295012E+04  0.00000000000E+00 0. -1.
         22    1    3    3    0    0  0.92108008985E+01  0.16641186936E+03  0.50892508451E+03  0.53552076595E+03  0.00000000000E+00 0. -1.
         22    1    3    3    0    0  0.63827330163E+02  0.24510943807E+02  0.32670974234E+03  0.33378731280E+03  0.00000000000E+00 0. -1.
</event>
<event>
 7    1  0.5993218E-006  0.1262265E+03  0.7818608E-02  0.1387132E+00
          2   -1    0    0  502    0  0.00000000000E+00  0.00000000000E+00  0.13451478111E+03  0.13451478111E+03  0.00000000000E+00 0. -1.
          1   -1    0    0  501    0 -0.00000000000E+00 -0.00000000000E+00 -0.10886414868E+04  0.10886414868E+04  0.00000000000E+00 0. -1.
         25    2    1    2    0    0 -0.50386824726E+02 -0.85740507840E+02 -0.21975603013E+03  0.27167625517E+03  0.12500003222E+03 0.  0.
          2    1    1    2  501    0 -0.16398630741E+02 -0.26390934638E+02 -0.80328764616E+03  0.80388832496E+03  0.00000000000E+00 0. -1.
          1    1    1    2  502    0  0.66785455466E+02  0.11213144248E+03  0.68916970632E+02  0.14759168776E+03  0.00000000000E+00 0. -1.
         22    1    3    3    0    0 -0.81857964516E+02 -0.19159368725E+02 -0.13845017718E+03  0.16197610727E+03  0.00000000000E+00 0.  1.
         22    1    3    3    0    0  0.31471139790E+02 -0.66581139116E+02 -0.81305852949E+02  0.10970014790E+03  0.00000000000E+00 0.  1.
</event>
<event>
 7    1  0.5993218E-006  0.4285690E+03  0.7818608E-02  0.1290126E+00
          2   -1    0    0  502    0  0.00000000000E+00  0.00000000000E+00  0.13549635906E+04  0.13549635906E+04  0.00000000000E+00 0. -1.
          1   -1    0    0  501    0 -0.00000000000E+00 -0.00000000000E+00 -0.11081186969E+04  0.11081186969E+04  0.00000000000E+00 0. -1.
         25    2    1    2    0    0 -0.41242569705E+03  0.36036625146E+02  0.16762627668E+03  0.46380703845E+03  0.12499922536E+03 0.  0.
          2    1    1    2  501    0 -0.19699265093E+02 -0.80123117574E+01 -0.91479042354E+03  0.91503758239E+03  0.00000000000E+00 0. -1.
          1    1    1    2  502    0  0.43212496215E+03 -0.28024313389E+02  0.99400904060E+03  0.10842376667E+04  0.00000000000E+00 0. -1.
         22    1    3    3    0    0 -0.25759701775E+03  0.77135166532E+02  0.76759324841E+02  0.27963914501E+03  0.00000000000E+00 0.  1.
         22    1    3    3    0    0 -0.15482867930E+03 -0.41098541386E+02  0.90866951840E+02  0.18416789345E+03  0.00000000000E+00 0.  1.
</event>
<event>
 7    1  0.5993218E-006  0.9534942E+02  0.7818608E-02  0.1363228E+00
          2   -1    0    0  502    0  0.00000000000E+00  0.00000000000E+00  0.10016475236E+03  0.10016475236E+03  0.00000000000E+00 0. -1.
          1   -1    0    0  501    0 -0.00000000000E+00 -0.00000000000E+00 -0.10537659586E+04  0.10537659586E+04  0.00000000000E+00 0. -1.
         25    2    1    2    0    0 -0.15685904976E+02 -0.12861034783E+03 -0.47473806733E+02  0.18618470457E+03  0.12499725080E+03 0.  0.
          2    1    1    2  501    0  0.12227222776E+01  0.50042018736E+02 -0.88322109360E+03  0.88463845658E+03  0.00000000000E+00 0. -1.
          1    1    1    2  502    0  0.14463182698E+02  0.78568329091E+02 -0.22906305938E+02  0.83107549848E+02  0.00000000000E+00 0. -1.
         22    1    3    3    0    0 -0.45077709087E+02 -0.13070418914E+03 -0.10149886505E+02  0.13863118376E+03  0.00000000000E+00 0.  1.
         22    1    3    3    0    0  0.29391804111E+02  0.20938413092E+01 -0.37323920227E+02  0.47553520810E+02  0.00000000000E+00 0.  1.
</event>
<event>
 7    1  0.5993218E-006  0.2372344E+03  0.7818608E-02  0.1360481E+00
          2   -1    0    0  502    0  0.00000000000E+00  0.00000000000E+00  0.97025472572E+03  0.97025472572E+03  0.00000000000E+00 0. -1.
          1   -1    0    0  501    0 -0.00000000000E+00 -0.00000000000E+00 -0.13704244270E+03  0.13704244270E+03  0.00000000000E+00 0. -1.
         25    2    1    2    0    0  0.22142211156E+03  0.11653536542E+03  0.39042356686E+03  0.48028519393E+03  0.12504024581E+03 0.  0.
          2    1    1    2  501    0 -0.19763724350E+02 -0.57653934152E+01 -0.65722968329E+02  0.68872005397E+02  0.00000000000E+00 0. -1.
          1    1    1    2  502    0 -0.20165838721E+03 -0.11076997200E+03  0.50851168449E+03  0.55813996908E+03  0.00000000000E+00 0. -1.
         22    1    3    3    0    0  0.18691281262E+03  0.99509519091E+02  0.21913444358E+03  0.30472684206E+03  0.00000000000E+00 0.  1.
         22    1    3    3    0    0  0.34509298936E+02  0.17025846326E+02  0.17128912329E+03  0.17555835187E+03  0.00000000000E+00 0.  1.
</event>
<event>
 7    1  0.5993218E-006  0.1196276E+03  0.7818608E-02  0.1310655E+00
          2   -1    0    0  502    0  0.00000000000E+00  0.00000000000E+00  0.61925915642E+03  0.61925915642E+03  0.00000000000E+00 0. -1.
          1   -1    0    0  501    0 -0.00000000000E+00 -0.00000000000E+00 -0.76006250828E+03  0.76006250828E+03  0.00000000000E+00 0. -1.
         25    2    1    2    0    0  0.53714448157E+02 -0.24563049375E+02 -0.23628988606E+03  0.27376403451E+03  0.12500100399E+03 0.  0.
          2    1    1    2  501    0  0.48683499618E+02 -0.40079112788E+02 -0.49691800756E+03  0.50090310905E+03  0.00000000000E+00 0. -1.
          1    1    1    2  502    0 -0.10239794777E+03  0.64642162163E+02  0.59240454177E+03  0.60465452115E+03  0.00000000000E+00 0. -1.
         22    1    3    3    0    0  0.23117356229E+02  0.33938926964E+02 -0.18678317539E+03  0.19124386927E+03  0.00000000000E+00 0.  1.
         22    1    3    3    0    0  0.30597091928E+02 -0.58501976339E+02 -0.49506710669E+02  0.82520165240E+02  0.00000000000E+00 0.  1.
</event>
<event>
 7    1  0.5993218E-006  0.7799194E+02  0.7818608E-02  0.1473781E+00
          2   -1    0    0  502    0  0.00000000000E+00  0.00000000000E+00  0.15716741340E+04  0.15716741340E+04  0.00000000000E+00 0. -1.
          1   -1    0    0  501    0 -0.00000000000E+00 -0.00000000000E+00 -0.78886153972E+03  0.78886153972E+03  0.00000000000E+00 0. -1.
         25    2    1    2    0    0  0.49925985211E+01  0.90298149578E+02  0.44271069720E+03  0.46882599862E+03  0.12500549472E+03 0.  0.
          2    1    1    2  501    0 -0.21302909700E+02 -0.15024402379E+02 -0.77425526861E+03  0.77469398319E+03  0.00000000000E+00 0. -1.
          1    1    1    2  502    0  0.16310311178E+02 -0.75273747199E+02  0.11143571657E+04  0.11170156919E+04  0.00000000000E+00 0. -1.
         22    1    3    3    0    0  0.22018656838E+02  0.11704371219E+02  0.72025110492E+01  0.25955533514E+02  0.00000000000E+00 0.  1.
         22    1    3    3    0    0 -0.17026058317E+02  0.78593778359E+02  0.43550818615E+03  0.44287046511E+03  0.00000000000E+00 0.  1.
</event>
<event>
 7    1  0.5993218E-006  0.5624921E+02  0.7818608E-02  0.1425834E+00
          2   -1    0    0  502    0  0.00000000000E+00  0.00000000000E+00  0.16580227101E+04  0.16580227101E+04  0.00000000000E+00 0. -1.
          1   -1    0    0  501    0 -0.00000000000E+00 -0.00000000000E+00 -0.25227922319E+03  0.25227922319E+03  0.00000000000E+00 0. -1.
         25    2    1    2    0    0  0.42207374563E+02 -0.52594698041E+02  0.36130452470E+03  0.38821001220E+03  0.12497355430E+03 0.  0.
          2    1    1    2  501    0 -0.51356455101E+02 -0.33859370595E+01 -0.23541809815E+03  0.24097848657E+03  0.00000000000E+00 0. -1.
          1    1    1    2  502    0  0.91490805376E+01  0.55980635101E+02  0.12798570604E+04  0.12811134346E+04  0.00000000000E+00 0. -1.
         22    1    3    3    0    0  0.75452050680E+02 -0.40299889262E+01  0.26295844784E+03  0.27359897304E+03  0.00000000000E+00 0.  1.
         22    1    3    3    0    0 -0.33244676117E+02 -0.48564709115E+02  0.98346076861E+02  0.11461103915E+03  0.00000000000E+00 0.  1.
</event>
<event>
 7    1  0.5993218E-006  0.2346369E+03  0.7818608E-02  0.1312540E+00
          2   -1    0    0  502    0  0.00000000000E+00  0.00000000000E+00  0.12648103230E+04  0.12648103230E+04  0.00000000000E+00 0. -1.
          1   -1    0    0  501    0 -0.00000000000E+00 -0.00000000000E+00 -0.83105425795E+03  0.83105425795E+03  0.00000000000E+00 0. -1.
         25    2    1    2    0    0 -0.15382471986E+03 -0.21286956790E+03  0.21884965771E+03  0.36399985602E+03  0.12500090049E+03 0.  0.
          2    1    1    2  501    0  0.12804826780E+03  0.19457978825E+03 -0.74032792738E+03  0.77610765551E+03  0.00000000000E+00 0. -1.
          1    1    1    2  502    0  0.25776452065E+02  0.18289779653E+02  0.95523433473E+03  0.95575706943E+03  0.00000000000E+00 0. -1.
         22    1    3    3    0    0 -0.15974495220E+03 -0.22465406632E+03  0.19826905209E+03  0.33955635215E+03  0.00000000000E+00 0.  1.
         22    1    3    3    0    0  0.59202323330E+01  0.11784498422E+02  0.20580605616E+02  0.24443503870E+02  0.00000000000E+00 0.  1.
</event>
<event>
 7    1  0.5993218E-006  0.3440334E+02  0.7818608E-02  0.1607383E+00
          2   -1    0    0  502    0  0.00000000000E+00  0.00000000000E+00  0.79020593862E+03  0.79020593862E+03  0.00000000000E+00 0. -1.
          1   -1    0    0  501    0 -0.00000000000E+00 -0.00000000000E+00 -0.69141741796E+03  0.69141741796E+03  0.00000000000E+00 0. -1.
         25    2    1    2    0    0 -0.18534905347E+01 -0.10223864476E+02  0.23174015905E+02  0.12755469567E+03  0.12500081017E+03 0.  0.
          2    1    1    2  501    0  0.50012320574E+01 -0.24231704245E+02 -0.63856869847E+03  0.63904786243E+03  0.00000000000E+00 0. -1.
          1    1    1    2  502    0 -0.31477415227E+01  0.34455568721E+02  0.71418320323E+03  0.71502079848E+03  0.00000000000E+00 0. -1.
         22    1    3    3    0    0 -0.56675620830E+02  0.21148073728E+02  0.65351280105E+00  0.60496232096E+02  0.00000000000E+00 0. -1.
         22    1    3    3    0    0  0.54822130295E+02 -0.31371938205E+02  0.22520503104E+02  0.67058463573E+02  0.00000000000E+00 0. -1.
</event>
<event>
 7    1  0.5993218E-006  0.4696534E+02  0.7818608E-02  0.1464603E+00
          2   -1    0    0  502    0  0.00000000000E+00  0.00000000000E+00  0.12767867473E+04  0.12767867473E+04  0.00000000000E+00 0. -1.
          1   -1    0    0  501    0 -0.00000000000E+00 -0.00000000000E+00 -0.50750090430E+02  0.50750090430E+02  0.00000000000E+00 0. -1.
         25    2    1    2    0    0  0.27918378472E+01 -0.62561133239E+02  0.28819567457E+03  0.32031880491E+03  0.12500280072E+03 0.  0.
          2    1    1    2  501    0 -0.35932104191E+02  0.29094801802E+02 -0.18441343010E+02  0.49776568137E+02  0.00000000000E+00 0. -1.
          1    1    1    2  502    0  0.33140266344E+02  0.33466331437E+02  0.95628232531E+03  0.95744146469E+03  0.00000000000E+00 0. -1.
         22    1    3    3    0    0  0.49645457192E+02 -0.18067069817E+02  0.22048232095E+03  0.22672349742E+03  0.00000000000E+00 0. -1.
         22    1    3    3    0    0 -0.46853619345E+02 -0.44494063422E+02  0.67713353621E+02  0.93595307490E+02  0.00000000000E+00 0. -1.
</event>
<event>
 7    1  0.5993218E-006  0.4799749E+02  0.7818608E-02  0.1557134E+00
          2   -1    0    0  502    0  0.00000000000E+00  0.00000000000E+00  0.10982678617E+03  0.10982678617E+03  0.00000000000E+00 0. -1.
          1   -1    0    0  501    0 -0.00000000000E+00 -0.00000000000E+00 -0.23134443542E+03  0.23134443542E+03  0.00000000000E+00 0. -1.
         25    2    1    2    0    0 -0.53656293304E+02  0.45382464727E+02 -0.50534680624E+02  0.15204335595E+03  0.12499944891E+03 0.  0.
          2    1    1    2  501    0  0.36085472032E+02 -0.28791504107E+02 -0.12321352315E+03  0.13157767397E+03  0.00000000000E+00 0. -1.
          1    1    1    2  502    0  0.17570821272E+02 -0.16590960620E+02  0.52230554528E+02  0.57550191666E+02  0.00000000000E+00 0. -1.
         22    1    3    3    0    0 -0.32447428848E+02  0.66837617014E+02 -0.80483290310E+02  0.10953384274E+03  0.00000000000E+00 0.  1.
         22    1    3    3    0    0 -0.21208864456E+02 -0.21455152287E+02  0.29948609686E+02  0.42509513209E+02  0.00000000000E+00 0.  1.
</event>
<event>
 7    1  0.5993218E-006  0.6673862E+03  0.7818608E-02  0.1132036E+00
          2   -1    0    0  502    0  0.00000000000E+00  0.00000000000E+00  0.10175324630E+04  0.10175324630E+04  0.00000000000E+00 0. -1.
          1   -1    0    0  501    0 -0.00000000000E+00 -0.00000000000E+00 -0.80687810513E+03  0.80687810513E+03  0.00000000000E+00 0. -1.
         25    2    1    2    0    0  0.33216060588E+03  0.56889787040E+03  0.10596758999E+03  0.67885107620E+03  0.12503678850E+03 0.  0.
          2    1    1    2  501    0  0.69144096863E+02 -0.26855431608E+02 -0.33325802896E+03  0.34141328943E+03  0.00000000000E+00 0. -1.
          1    1    1    2  502    0 -0.40130470274E+03 -0.54204243880E+03  0.43794479681E+03  0.80414620247E+03  0.00000000000E+00 0. -1.
         22    1    3    3    0    0  0.40277452653E+02  0.17459809270E+02  0.22625438041E+02  0.49386522235E+02  0.00000000000E+00 0. -1.
         22    1    3    3    0    0  0.29188315322E+03  0.55143806113E+03  0.83342151950E+02  0.62946455396E+03  0.00000000000E+00 0. -1.
</event>
<event>
 7    1  0.5993218E-006  0.7229184E+02  0.7818608E-02  0.1382453E+00
          2   -1    0    0  502    0  0.00000000000E+00  0.00000000000E+00  0.32055489780E+04  0.32055489780E+04  0.00000000000E+00 0. -1.
          1   -1    0    0  501    0 -0.00000000000E+00 -0.00000000000E+00 -0.97690892650E+03  0.97690892650E+03  0.00000000000E+00 0. -1.
         25    2    1    2    0    0  0.98811060263E+02 -0.60276584552E+02  0.73911870632E+03  0.75849737904E+03  0.12499967883E+03 0.  0.
          2    1    1    2  501    0 -0.56187848760E+02  0.42321548494E+01 -0.96589384419E+03  0.96753599609E+03  0.00000000000E+00 0. -1.
          1    1    1    2  502    0 -0.42623211503E+02  0.56044429703E+02  0.24554151893E+04  0.24564245293E+04  0.00000000000E+00 0. -1.
         22    1    3    3    0    0  0.10891369852E+03 -0.48465256971E+02  0.36332056108E+03  0.38237796088E+03  0.00000000000E+00 0.  1.
         22    1    3    3    0    0 -0.10102638256E+02 -0.11811327581E+02  0.37579814523E+03  0.37611941817E+03  0.00000000000E+00 0.  1.
</event>
<event>
 7    1  0.5993218E-006  0.1557076E+03  0.7818608E-02  0.1283014E+00
          2   -1    0    0  502    0  0.00000000000E+00  0.00000000000E+00  0.18240035949E+04  0.18240035949E+04  0.00000000000E+00 0. -1.
          1   -1    0    0  501    0 -0.00000000000E+00 -0.00000000000E+00 -0.13798323731E+03  0.13798323731E+03  0.00000000000E+00 0. -1.
         25    2    1    2    0    0 -0.23503977860E+01 -0.20913473008E+03  0.14110348981E+03  0.28156495306E+03  0.12500307302E+03 0.  0.
          2    1    1    2  501    0 -0.22999976429E+02  0.58208102230E+02 -0.48806175060E+02  0.79367655912E+02  0.00000000000E+00 0. -1.
          1    1    1    2  502    0  0.25350374215E+02  0.15092662785E+03  0.15937230428E+04  0.16010542232E+04  0.00000000000E+00 0. -1.
         22    1    3    3    0    0  0.56387732748E+02 -0.11049374932E+03  0.10096669103E+03  0.15994598382E+03  0.00000000000E+00 0.  1.
         22    1    3    3    0    0 -0.58738130534E+02 -0.98640980755E+02  0.40136798782E+02  0.12161896924E+03  0.00000000000E+00 0.  1.
</event>
<event>
 7    1  0.5993218E-006  0.8197081E+02  0.7818608E-02  0.1469029E+00
          2   -1    0    0  502    0  0.00000000000E+00  0.00000000000E+00  0.18809557273E+04  0.18809557273E+04  0.00000000000E+00 0. -1.
          1   -1    0    0  501    0 -0.00000000000E+00 -0.00000000000E+00 -0.13926310056E+03  0.13926310056E+03  0.00000000000E+00 0. -1.
         25    2    1    2    0    0  0.10356661156E+03 -0.15921778349E+02  0.33703376769E+03  0.37442264422E+03  0.12498403852E+03 0.  0.
          2    1    1    2  501    0 -0.78387653696E+02  0.20865783584E+02 -0.10680374243E+03  0.13411578793E+03  0.00000000000E+00 0. -1.
          1    1    1    2  502    0 -0.25178957861E+02 -0.49440052344E+01  0.15114626015E+04  0.15116803957E+04  0.00000000000E+00 0. -1.
         22    1    3    3    0    0  0.63226877926E+02 -0.15968611996E+01  0.32335533806E+03  0.32948271990E+03  0.00000000000E+00 0.  1.
         22    1    3    3    0    0  0.40339733631E+02 -0.14324917150E+02  0.13678429627E+02  0.44939924319E+02  0.00000000000E+00 0.  1.
</event>
<event>
 7    1  0.5993218E-006  0.3151001E+03  0.7818608E-02  0.1208164E+00
          2   -1    0    0  502    0  0.00000000000E+00  0.00000000000E+00  0.80180975907E+03  0.80180975907E+03  0.00000000000E+00 0. -1.
          1   -1    0    0  501    0 -0.00000000000E+00 -0.00000000000E+00 -0.92189524487E+03  0.92189524487E+03  0.00000000000E+00 0. -1.
         25    2    1    2    0    0 -0.36408612643E+03  0.54395965016E+02  0.83874357316E+02  0.39771552985E+03  0.12500042562E+03 0.  0.
          2    1    1    2  501    0  0.30768147218E+03 -0.20658392899E+02 -0.73177576093E+03  0.79409723699E+03  0.00000000000E+00 0. -1.
          1    1    1    2  502    0  0.56404654252E+02 -0.33737572117E+02  0.52781591781E+03  0.53189223710E+03  0.00000000000E+00 0. -1.
         22    1    3    3    0    0 -0.17381540399E+03  0.49805401015E+02  0.10015147304E+03  0.20669467866E+03  0.00000000000E+00 0.  1.
         22    1    3    3    0    0 -0.19027072244E+03  0.45905640010E+01 -0.16277115724E+02  0.19102085119E+03  0.00000000000E+00 0.  1.
</event>
<event>
 7    1  0.6217718E-006  0.4262391E+02  0.7818608E-02  0.1494669E+00
          2   -1    0    0  502    0  0.00000000000E+00  0.00000000000E+00  0.22549612554E+04  0.22549612554E+04  0.00000000000E+00 0. -1.
          1   -1    0    0  501    0 -0.00000000000E+00 -0.00000000000E+00 -0.43654570756E+03  0.43654570756E+03  0.00000000000E+00 0. -1.
         25    2    1    2    0    0  0.11843370368E+02  0.28702612552E+02 -0.19675902107E+03  0.23516635724E+03  0.12499999127E+03 0.  0.
          2    1    1    2  501    0  0.30787701959E+02 -0.27364183047E+02 -0.21845469495E+03  0.22230414942E+03  0.00000000000E+00 0. -1.
          1    1    1    2  502    0 -0.42631072327E+02 -0.13384295047E+01  0.22336292639E+04  0.22340364563E+04  0.00000000000E+00 0. -1.
         22    1    3    3    0    0  0.43988787544E+02  0.17019263893E+02 -0.13951177138E+02  0.49186422075E+02  0.00000000000E+00 0. -1.
         22    1    3    3    0    0 -0.32145417175E+02  0.11683348658E+02 -0.18280784393E+03  0.18597993516E+03  0.00000000000E+00 0. -1.
</event>
<event>
 7    1  0.5993218E-006  0.8244278E+02  0.7818608E-02  0.1356052E+00
          2   -1    0    0  502    0  0.00000000000E+00  0.00000000000E+00  0.10132985151E+04  0.10132985151E+04  0.00000000000E+00 0. -1.
          1   -1    0    0  501    0 -0.00000000000E+00 -0.00000000000E+00 -0.13543042879E+04  0.13543042879E+04  0.00000000000E+00 0. -1.
         25    2    1    2    0    0  0.81360833423E+02 -0.31387539365E+02  0.39729308485E+03  0.42552468228E+03  0.12499878847E+03 0.  0.
          2    1    1    2  501    0 -0.36845671518E+02  0.73813001033E+02 -0.13373433954E+04  0.13398855622E+04  0.00000000000E+00 0. -1.
          1    1    1    2  502    0 -0.44515161905E+02 -0.42425461668E+02  0.59904453768E+03  0.60219255854E+03  0.00000000000E+00 0. -1.
         22    1    3    3    0    0 -0.64310356735E+01 -0.52233409903E+02  0.80862671706E+02  0.96480355541E+02  0.00000000000E+00 0. -1.
         22    1    3    3    0    0  0.87791869096E+02  0.20845870538E+02  0.31643041315E+03  0.32904432674E+03  0.00000000000E+00 0. -1.
</event>
<event>
 7    1  0.5993218E-006  0.4684391E+02  0.7818608E-02  0.1536076E+00
          2   -1    0    0  502    0  0.00000000000E+00  0.00000000000E+00  0.75395920729E+03  0.75395920729E+03  0.00000000000E+00 0. -1.
          1   -1    0    0  501    0 -0.00000000000E+00 -0.00000000000E+00 -0.94081854338E+02  0.94081854338E+02  0.00000000000E+00 0. -1.
         25    2    1    2    0    0 -0.63654362592E+02 -0.39226115543E+02  0.54018144253E+03  0.55947813124E+03  0.12501688873E+03 0.  0.
          2    1    1    2  501    0  0.40596762476E+02  0.22706352633E+02 -0.76931224404E+02  0.89900438606E+02  0.00000000000E+00 0. -1.
          1    1    1    2  502    0  0.23057600116E+02  0.16519762911E+02  0.19662713483E+03  0.19866249178E+03  0.00000000000E+00 0. -1.
         22    1    3    3    0    0 -0.12787828956E+01 -0.11702738572E+02 -0.29077735370E+01  0.12126191600E+02  0.00000000000E+00 0.  1.
         22    1    3    3    0    0 -0.62375579697E+02 -0.27523376971E+02  0.54308921607E+03  0.54735193964E+03  0.00000000000E+00 0.  1.
</event>
<event>
 7    1  0.5993218E-006  0.6887085E+02  0.7818608E-02  0.1397442E+00
          2   -1    0    0  502    0  0.00000000000E+00  0.00000000000E+00  0.59953850491E+03  0.59953850491E+03  0.00000000000E+00 0. -1.
          1   -1    0    0  501    0 -0.00000000000E+00 -0.00000000000E+00 -0.36292616766E+02  0.36292616766E+02  0.00000000000E+00 0. -1.
         25    2    1    2    0    0  0.32457274512E+02  0.37783291033E+02  0.17169191708E+03  0.21814035938E+03  0.12500420093E+03 0.  0.
          2    1    1    2  501    0  0.42018641256E+02 -0.31364826109E+02  0.69417441321E+02  0.86994825648E+02  0.00000000000E+00 0. -1.
          1    1    1    2  502    0 -0.74475915768E+02 -0.64184649239E+01  0.32213652974E+03  0.33069593664E+03  0.00000000000E+00 0. -1.
         22    1    3    3    0    0 -0.41229435272E+02 -0.14509796548E+02  0.47402548115E+02  0.64477919449E+02  0.00000000000E+00 0. -1.
         22    1    3    3    0    0  0.73686709784E+02  0.52293087581E+02  0.12428936897E+03  0.15366243993E+03  0.00000000000E+00 0. -1.
</event>
<event>
 7    1  0.7918580E-006  0.5663606E+02  0.7818608E-02  0.1491875E+00
          2   -1    0    0  502    0  0.00000000000E+00  0.00000000000E+00  0.26087564070E+04  0.26087564070E+04  0.00000000000E+00 0. -1.
          1   -1    0    0  501    0 -0.00000000000E+00 -0.00000000000E+00 -0.96181981870E+03  0.96181981870E+03  0.00000000000E+00 0. -1.
         25    2    1    2    0    0 -0.62090978001E+02 -0.19942021337E+00 -0.13986167727E+02  0.14027177508E+03  0.12500091471E+03 0.  0.
          2    1    1    2  501    0  0.13340597603E+02 -0.28653008406E+02 -0.88409326314E+03  0.88465804940E+03  0.00000000000E+00 0. -1.
          1    1    1    2  502    0  0.48750380397E+02  0.28852428619E+02  0.25450160191E+04  0.25456464012E+04  0.00000000000E+00 0. -1.
         22    1    3    3    0    0 -0.76586865841E+02  0.25185037443E+02  0.31205391166E+02  0.86450046664E+02  0.00000000000E+00 0.  1.
         22    1    3    3    0    0  0.14495887840E+02 -0.25384457656E+02 -0.45191558893E+02  0.53821728418E+02  0.00000000000E+00 0.  1.
</event>
<event>
 7    1  0.5993218E-006  0.7091737E+02  0.7818608E-02  0.1416696E+00
          2   -1    0    0  502    0  0.00000000000E+00  0.00000000000E+00  0.12265875060E+04  0.12265875060E+04  0.00000000000E+00 0. -1.
          1   -1    0    0  501    0 -0.00000000000E+00 -0.00000000000E+00 -0.22137854341E+02  0.22137854341E+02  0.00000000000E+00 0. -1.
         25    2    1    2    0    0  0.13594598172E+02  0.65167232335E+02  0.70315054044E+03  0.71727070012E+03  0.12499997384E+03 0.  0.
          2    1    1    2  501    0 -0.54259410142E+02 -0.48923753256E+02  0.81799369298E+02  0.10967567661E+03  0.00000000000E+00 0. -1.
          1    1    1    2  502    0  0.40664811970E+02 -0.16243479079E+02  0.41949974193E+03  0.42177898362E+03  0.00000000000E+00 0. -1.
         22    1    3    3    0    0  0.58769817891E+02  0.68242923954E+02  0.35761806858E+03  0.36878404404E+03  0.00000000000E+00 0. -1.
         22    1    3    3    0    0 -0.45175219719E+02 -0.30756916193E+01  0.34553247186E+03  0.34848665608E+03  0.00000000000E+00 0. -1.
</event>
<event>
 7    1  0.5993218E-006  0.5656496E+02  0.7818608E-02  0.1460099E+00
          2   -1    0    0  502    0  0.00000000000E+00  0.00000000000E+00  0.19853852993E+04  0.19853852993E+04  0.00000000000E+00 0. -1.
          1   -1    0    0  501    0 -0.00000000000E+00 -0.00000000000E+00 -0.81563088769E+02  0.81563088769E+02  0.00000000000E+00 0. -1.
         25    2    1    2    0    0  0.65517186357E+02  0.13290313311E+02  0.47151940909E+03  0.49236446329E+03  0.12499230948E+03 0.  0.
          2    1    1    2  501    0 -0.51389870553E+02  0.23768661419E+02 -0.59569167812E+02  0.82184875828E+02  0.00000000000E+00 0. -1.
          1    1    1    2  502    0 -0.14127315804E+02 -0.37058974731E+02  0.14918719692E+04  0.14923990489E+04  0.00000000000E+00 0. -1.
         22    1    3    3    0    0 -0.18688194726E+02 -0.23100431387E+02  0.26153673699E+03  0.26321919259E+03  0.00000000000E+00 0.  1.
         22    1    3    3    0    0  0.84205381083E+02  0.36390744698E+02  0.20998267210E+03  0.22914527070E+03  0.00000000000E+00 0.  1.
</event>
<event>
 7    1  0.5993218E-006  0.5799670E+02  0.7818608E-02  0.1521038E+00
          2   -1    0    0  502    0  0.00000000000E+00  0.00000000000E+00  0.22877420452E+04  0.22877420452E+04  0.00000000000E+00 0. -1.
          1   -1    0    0  501    0 -0.00000000000E+00 -0.00000000000E+00 -0.11703955550E+04  0.11703955550E+04  0.00000000000E+00 0. -1.
         25    2    1    2    0    0  0.29053953166E+02 -0.15989578864E+02  0.10551812872E+04  0.10630768986E+04  0.12500057823E+03 0.  0.
          2    1    1    2  501    0 -0.53562849065E+02  0.22284878220E+02 -0.11655959653E+04  0.11670387950E+04  0.00000000000E+00 0. -1.
          1    1    1    2  502    0  0.24508895899E+02 -0.62952993564E+01  0.12277611683E+04  0.12280219066E+04  0.00000000000E+00 0. -1.
         22    1    3    3    0    0  0.61136863012E+02  0.11923465650E+02  0.90063846188E+03  0.90278985598E+03  0.00000000000E+00 0.  1.
         22    1    3    3    0    0 -0.32082909846E+02 -0.27913044514E+02  0.15454282535E+03  0.16028704260E+03  0.00000000000E+00 0.  1.
</event>
<event>
 7    1  0.5993218E-006  0.9450103E+02  0.7818608E-02  0.1325545E+00
          2   -1    0    0  502    0  0.00000000000E+00  0.00000000000E+00  0.47648754945E+04  0.47648754945E+04  0.00000000000E+00 0. -1.
          1   -1    0    0  501    0 -0.00000000000E+00 -0.00000000000E+00 -0.30628220470E+03  0.30628220470E+03  0.00000000000E+00 0. -1.
         25    2    1    2    0    0 -0.13306242243E+03 -0.87599156526E+02  0.16130665918E+04  0.16257269333E+04  0.12500004586E+03 0.  0.
          2    1    1    2  501    0  0.66344223869E+02  0.66901861378E+02 -0.29215465340E+03  0.30697191500E+03  0.00000000000E+00 0. -1.
          1    1    1    2  502    0  0.66718198560E+02  0.20697295148E+02  0.31376813514E+04  0.31384588510E+04  0.00000000000E+00 0. -1.
         22    1    3    3    0    0 -0.13689121620E+03 -0.24766133711E+02  0.10600772175E+04  0.10691661580E+04  0.00000000000E+00 0.  1.
         22    1    3    3    0    0  0.38287937740E+01 -0.62833022815E+02  0.55298937432E+03  0.55656077523E+03  0.00000000000E+00 0.  1.
</event>
<event>
 7    1  0.5993218E-006  0.9346635E+02  0.7818608E-02  0.1308167E+00
          2   -1    0    0  502    0  0.00000000000E+00  0.00000000000E+00  0.83113207684E+03  0.83113207684E+03  0.00000000000E+00 0. -1.
          1   -1    0    0  501    0 -0.00000000000E+00 -0.00000000000E+00 -0.45178778423E+03  0.45178778423E+03  0.00000000000E+00 0. -1.
         25    2    1    2    0    0  0.15261284123E+02 -0.68299804869E+02  0.16673198114E+02  0.14423180022E+03  0.12500818582E+03 0.  0.
          2    1    1    2  501    0 -0.82552929270E+02 -0.32526323229E+00 -0.38048745964E+03  0.38934020968E+03  0.00000000000E+00 0. -1.
          1    1    1    2  502    0  0.67291645146E+02  0.68625068101E+02  0.74315855413E+03  0.74934785117E+03  0.00000000000E+00 0. -1.
         22    1    3    3    0    0  0.26151325093E+02 -0.89105920974E+02 -0.25200248241E+02  0.96222707653E+02  0.00000000000E+00 0. -1.
         22    1    3    3    0    0 -0.10890040970E+02  0.20806116105E+02  0.41873446355E+02  0.48009092570E+02  0.00000000000E+00 0. -1.
</event>
<event>
 7    1  0.5993218E-006  0.7991591E+02  0.7818608E-02  0.1378563E+00
          2   -1    0    0  502    0  0.00000000000E+00  0.00000000000E+00  0.90714992130E+03  0.90714992130E+03  0.00000000000E+00 0. -1.
          1   -1    0    0  501    0 -0.00000000000E+00 -0.00000000000E+00 -0.94881699291E+02  0.94881699291E+02  0.00000000000E+00 0. -1.
         25    2    1    2    0    0  0.49447964193E+02  0.40100703203E+02  0.41787180688E+02  0.14633158756E+03  0.12495438163E+03 0.  0.
          2    1    1    2  501    0 -0.92524917724E+02 -0.98932243141E+01  0.10210118698E+02  0.93610804991E+02  0.00000000000E+00 0. -1.
          1    1    1    2  502    0  0.43076953531E+02 -0.30207478888E+02  0.76027092263E+03  0.76208922804E+03  0.00000000000E+00 0. -1.
         22    1    3    3    0    0  0.42833318206E+02 -0.24600776767E+02 -0.23038206952E+02  0.54503672773E+02  0.00000000000E+00 0. -1.
         22    1    3    3    0    0  0.66146459870E+01  0.64701479970E+02  0.64825387640E+02  0.91827914789E+02  0.00000000000E+00 0. -1.
</event>
<event>
 7    1  0.1131193E-005  0.7269566E+02  0.7818608E-02  0.1375128E+00
          2   -1    0    0  502    0  0.00000000000E+00  0.00000000000E+00  0.13319853005E+04  0.13319853005E+04  0.00000000000E+00 0. -1.
          1   -1    0    0  501    0 -0.00000000000E+00 -0.00000000000E+00 -0.26970325658E+04  0.26970325658E+04  0.00000000000E+00 0. -1.
         25    2    1    2    0    0  0.98350761221E+02  0.49386128710E+02 -0.32798209392E+03  0.36784266430E+03  0.12499643918E+03 0.  0.
          2    1    1    2  501    0 -0.39823315898E+02 -0.60041207325E+02 -0.23478929973E+04  0.23489981630E+04  0.00000000000E+00 0. -1.
          1    1    1    2  502    0 -0.58527445323E+02  0.10655078615E+02  0.13108278259E+04  0.13121770390E+04  0.00000000000E+00 0. -1.
         22    1    3    3    0    0  0.67824075425E+02  0.50491365129E+02 -0.75003697439E+02  0.11302671272E+03  0.00000000000E+00 0.  1.
         22    1    3    3    0    0  0.30526685796E+02 -0.11052364195E+01 -0.25297839648E+03  0.25481595158E+03  0.00000000000E+00 0.  1.
</event>
<event>
 7    1  0.5993218E-006  0.1540940E+03  0.7818608E-02  0.1254390E+00
          2   -1    0    0  502    0  0.00000000000E+00  0.00000000000E+00  0.23180466004E+04  0.23180466004E+04  0.00000000000E+00 0. -1.
          1   -1    0    0  501    0 -0.00000000000E+00 -0.00000000000E+00 -0.17619359675E+03  0.17619359675E+03  0.00000000000E+00 0. -1.
         25    2    1    2    0    0  0.15775227687E+03 -0.14107213339E+03  0.27622768049E+03  0.36974760790E+03  0.12499773759E+03 0.  0.
          2    1    1    2  501    0 -0.13446105288E+03  0.60926606566E+02 -0.86159047762E+02  0.17092456711E+03  0.00000000000E+00 0. -1.
          1    1    1    2  502    0 -0.23291223995E+02  0.80145526822E+02  0.19517843710E+04  0.19535680222E+04  0.00000000000E+00 0. -1.
         22    1    3    3    0    0  0.23434244900E+02  0.23058921407E+02  0.27390736850E+02  0.42791706623E+02  0.00000000000E+00 0. -1.
         22    1    3    3    0    0  0.13431803197E+03 -0.16413105480E+03  0.24883694364E+03  0.32695590128E+03  0.00000000000E+00 0. -1.
</event>
<event>
 7    1  0.5993218E-006  0.1159926E+03  0.7818608E-02  0.1373468E+00
          2   -1    0    0  502    0  0.00000000000E+00  0.00000000000E+00  0.32352774060E+03  0.32352774060E+03  0.00000000000E+00 0. -1.
          1   -1    0    0  501    0 -0.00000000000E+00 -0.00000000000E+00 -0.23512975442E+03  0.23512975442E+03  0.00000000000E+00 0. -1.
         25    2    1    2    0    0 -0.92016732386E+02  0.32131892486E+02  0.17548275812E+02  0.15948247533E+03  0.12500872130E+03 0.  0.
          2    1    1    2  501    0  0.12122068759E+03 -0.81383378854E+01 -0.13976893042E+03  0.18519190467E+03  0.00000000000E+00 0. -1.
          1    1    1    2  502    0 -0.29203955203E+02 -0.23993554600E+02  0.21061864079E+03  0.21398311502E+03  0.00000000000E+00 0. -1.
         22    1    3    3    0    0 -0.11914982824E+03  0.34349776483E+02  0.32814318459E+02  0.12827068336E+03  0.00000000000E+00 0.  1.
         22    1    3    3    0    0  0.27133095854E+02 -0.22178839970E+01 -0.15266042647E+02  0.31211791973E+02  0.00000000000E+00 0.  1.
</event>
<event>
 7    1  0.5993218E-006  0.1215498E+03  0.7818608E-02  0.1409104E+00
          2   -1    0    0  502    0  0.00000000000E+00  0.00000000000E+00  0.72072893348E+03  0.72072893348E+03  0.00000000000E+00 0. -1.
          1   -1    0    0  501    0 -0.00000000000E+00 -0.00000000000E+00 -0.97321334439E+03  0.97321334439E+03  0.00000000000E+00 0. -1.
         25    2    1    2    0    0  0.14290395996E+03  0.38284952271E+02  0.12475265465E+03  0.23038179997E+03  0.12500107829E+03 0.  0.
          2    1    1    2  501    0 -0.11740626083E+03 -0.29102357531E+02 -0.91608262231E+03  0.92403384581E+03  0.00000000000E+00 0. -1.
          1    1    1    2  502    0 -0.25497699123E+02 -0.91825947395E+01  0.53884555676E+03  0.53952663210E+03  0.00000000000E+00 0. -1.
         22    1    3    3    0    0  0.67279460350E+02  0.76791354296E+02  0.97699971022E+02  0.14131072931E+03  0.00000000000E+00 0. -1.
         22    1    3    3    0    0  0.75624499605E+02 -0.38506402025E+02  0.27052683625E+02  0.89071070661E+02  0.00000000000E+00 0. -1.
</event>
<event>
 7    1  0.5993218E-006  0.7639486E+02  0.7818608E-02  0.1446155E+00
          2   -1    0    0  502    0  0.00000000000E+00  0.00000000000E+00  0.40128194117E+03  0.40128194117E+03  0.00000000000E+00 0. -1.
          1   -1    0    0  501    0 -0.00000000000E+00 -0.00000000000E+00 -0.16327412077E+04  0.16327412077E+04  0.00000000000E+00 0. -1.
         25    2    1    2    0    0 -0.83389107854E+02 -0.64524119217E+02  0.90048900369E+02  0.18668526809E+03  0.12500191836E+03 0.  0.
          2    1    1    2  501    0  0.22813487458E+02  0.23186447512E+02 -0.15791382532E+04  0.15794732316E+04  0.00000000000E+00 0. -1.
          1    1    1    2  502    0  0.60575620396E+02  0.41337671705E+02  0.25763008634E+03  0.26786464917E+03  0.00000000000E+00 0. -1.
         22    1    3    3    0    0 -0.78921482783E+01 -0.84652184934E+02  0.40576207882E+02  0.94205663655E+02  0.00000000000E+00 0.  1.
         22    1    3    3    0    0 -0.75496959576E+02  0.20128065717E+02  0.49472692486E+02  0.92479604435E+02  0.00000000000E+00 0.  1.
</event>
<event>
 7    1  0.8390149E-006  0.4965242E+02  0.7818608E-02  0.1493920E+00
          2   -1    0    0  502    0  0.00000000000E+00  0.00000000000E+00  0.19753094980E+04  0.19753094980E+04  0.00000000000E+00 0. -1.
          1   -1    0    0  501    0 -0.00000000000E+00 -0.00000000000E+00 -0.60173776790E+03  0.60173776790E+03  0.00000000000E+00 0. -1.
         25    2    1    2    0    0 -0.21118598961E+02 -0.48922566000E+02 -0.11687566592E+03  0.17923390189E+03  0.12500183046E+03 0.  0.
          2    1    1    2  501    0 -0.14410707152E+02  0.47902723893E+02 -0.45214101153E+03  0.45489980627E+03  0.00000000000E+00 0. -1.
          1    1    1    2  502    0  0.35529306113E+02  0.10198421071E+01  0.19425884075E+04  0.19429135577E+04  0.00000000000E+00 0. -1.
         22    1    3    3    0    0 -0.25996513149E+02 -0.89194756621E+02 -0.65030550080E+02  0.11340412580E+03  0.00000000000E+00 0. -1.
         22    1    3    3    0    0  0.48779141874E+01  0.40272190621E+02 -0.51845115836E+02  0.65829776092E+02  0.00000000000E+00 0. -1.
</event>
<event>
 7    1  0.5993218E-006  0.1358788E+03  0.7818608E-02  0.1351738E+00
          2   -1    0    0  502    0  0.00000000000E+00  0.00000000000E+00  0.34075162550E+04  0.34075162550E+04  0.00000000000E+00 0. -1.
          1   -1    0    0  501    0 -0.00000000000E+00 -0.00000000000E+00 -0.51075864404E+03  0.51075864404E+03  0.00000000000E+00 0. -1.
         25    2    1    2    0    0 -0.67357247188E+02 -0.11773075275E+03 -0.36641823031E+03  0.41022544783E+03  0.12500027861E+03 0.  0.
          2    1    1    2  501    0  0.35892144680E+02 -0.14475417731E+02 -0.11797904836E+03  0.12416456668E+03  0.00000000000E+00 0. -1.
          1    1    1    2  502    0  0.31465102508E+02  0.13220617048E+03  0.33811548896E+04  0.33838848846E+04  0.00000000000E+00 0. -1.
         22    1    3    3    0    0 -0.69355624589E+02 -0.12314772754E+03 -0.37450623090E+03  0.40028799938E+03  0.00000000000E+00 0. -1.
         22    1    3    3    0    0  0.19983774003E+01  0.54169747903E+01  0.80880005945E+01  0.99374484517E+01  0.00000000000E+00 0. -1.
</event>
<event>
 7    1  0.5993218E-006  0.6200750E+02  0.7818608E-02  0.1401789E+00
          2   -1    0    0  502    0  0.00000000000E+00  0.00000000000E+00  0.12672613937E+04  0.12672613937E+04  0.00000000000E+00 0. -1.
          1   -1    0    0  501    0 -0.00000000000E+00 -0.00000000000E+00 -0.63222733303E+03  0.63222733303E+03  0.00000000000E+00 0. -1.
         25    2    1    2    0    0  0.40128062765E+02  0.17545597988E+02  0.31749259430E+03  0.34401296170E+03  0.12500104381E+03 0.  0.
          2    1    1    2  501    0 -0.55729009821E+01 -0.61950750703E+02 -0.61655580239E+03  0.61968541229E+03  0.00000000000E+00 0. -1.
          1    1    1    2  502    0 -0.34555161783E+02  0.44405152715E+02  0.93409726872E+03  0.93579035271E+03  0.00000000000E+00 0. -1.
         22    1    3    3    0    0  0.33194675744E+02  0.30884276554E+02  0.32434010707E+03  0.32749386267E+03  0.00000000000E+00 0. -1.
         22    1    3    3    0    0  0.69333870208E+01 -0.13338678566E+02 -0.68475127706E+01  0.16519099025E+02  0.00000000000E+00 0. -1.
</event>
<event>
 7    1  0.5993218E-006  0.2412171E+02  0.7818608E-02  0.1680160E+00
          2   -1    0    0  502    0  0.00000000000E+00  0.00000000000E+00  0.12531922845E+04  0.12531922845E+04  0.00000000000E+00 0. -1.
          1   -1    0    0  501    0 -0.00000000000E+00 -0.00000000000E+00 -0.37828135625E+02  0.37828135625E+02  0.00000000000E+00 0. -1.
         25    2    1    2    0    0 -0.63002955910E+00  0.16011250670E+02  0.16803956457E+03  0.21004382688E+03  0.12499742743E+03 0.  0.
          2    1    1    2  501    0 -0.22223520775E+02 -0.11384714660E+02 -0.73617683348E+01  0.26032522670E+02  0.00000000000E+00 0. -1.
          1    1    1    2  502    0  0.22853550334E+02 -0.46265360102E+01  0.10546863527E+04  0.10549440706E+04  0.00000000000E+00 0. -1.
         22    1    3    3    0    0 -0.42477320866E+02 -0.28728636248E+02  0.12518722950E+03  0.13528303574E+03  0.00000000000E+00 0.  1.
         22    1    3    3    0    0  0.41847291307E+02  0.44739886919E+02  0.42852335069E+02  0.74760791142E+02  0.00000000000E+00 0.  1.
</event>
<event>
 7    1  0.5993218E-006  0.8358711E+02  0.7818608E-02  0.1408952E+00
          2   -1    0    0  502    0  0.00000000000E+00  0.00000000000E+00  0.57133784298E+03  0.57133784298E+03  0.00000000000E+00 0. -1.
          1   -1    0    0  501    0 -0.00000000000E+00 -0.00000000000E+00 -0.45915350998E+03  0.45915350998E+03  0.00000000000E+00 0. -1.
         25    2    1    2    0    0 -0.42941633926E+02  0.48740532015E+02  0.10358434284E+03  0.17484406005E+03  0.12498442251E+03 0.  0.
          2    1    1    2  501    0  0.21182780552E+02 -0.81654537349E+02 -0.41840451843E+03  0.42682375134E+03  0.00000000000E+00 0. -1.
          1    1    1    2  502    0  0.21758853373E+02  0.32914005334E+02  0.42700450859E+03  0.42882354157E+03  0.00000000000E+00 0. -1.
         22    1    3    3    0    0 -0.25038521831E+02 -0.24065031725E+02  0.92815943847E+02  0.99100215739E+02  0.00000000000E+00 0.  1.
         22    1    3    3    0    0 -0.17903112095E+02  0.72805563741E+02  0.10768398988E+02  0.75743844311E+02  0.00000000000E+00 0.  1.
</event>
<event>
 7    1  0.5993218E-006  0.1304117E+03  0.7818608E-02  0.1392053E+00
          2   -1    0    0  502    0  0.00000000000E+00  0.00000000000E+00  0.11093049236E+04  0.11093049236E+04  0.00000000000E+00 0. -1.
          1   -1    0    0  501    0 -0.00000000000E+00 -0.00000000000E+00 -0.12667505588E+04  0.12667505588E+04  0.00000000000E+00 0. -1.
         25    2    1    2    0    0  0.65417822443E+02  0.13022880244E+03 -0.67524687675E+02  0.20352860674E+03  0.12500111135E+03 0.  0.
          2    1    1    2  501    0 -0.37133916313E+02 -0.12425877143E+03 -0.11273048827E+04  0.11347402648E+04  0.00000000000E+00 0. -1.
          1    1    1    2  502    0 -0.28283906129E+02 -0.59700310124E+01  0.10373839352E+04  0.10377866109E+04  0.00000000000E+00 0. -1.
         22    1    3    3    0    0 -0.19178642661E+02  0.49173689509E+02 -0.68360288715E+02  0.86365509015E+02  0.00000000000E+00 0.  1.
         22    1    3    3    0    0  0.84596465104E+02  0.81055112929E+02  0.83560104024E+00  0.11716309773E+03  0.00000000000E+00 0.  1.
</event>
<event>
 7    1  0.5993218E-006  0.1364328E+03  0.7818608E-02  0.1277675E+00
          2   -1    0    0  502    0  0.00000000000E+00  0.00000000000E+00  0.20033153388E+04  0.20033153388E+04  0.00000000000E+00 0. -1.
          1   -1    0    0  501    0 -0.00000000000E+00 -0.00000000000E+00 -0.64466572556E+03  0.64466572556E+03  0.00000000000E+00 0. -1.
         25    2    1    2    0    0 -0.12484751902E+03  0.30187830306E+02  0.25505047898E+03  0.31172689925E+03  0.12499881913E+03 0.  0.
          2    1    1    2  501    0  0.28112203482E+02  0.69694314066E+02 -0.61121209955E+03  0.61581476438E+03  0.00000000000E+00 0. -1.
          1    1    1    2  502    0  0.96735315533E+02 -0.99882144372E+02  0.17148112338E+04  0.17204394007E+04  0.00000000000E+00 0. -1.
         22    1    3    3    0    0 -0.35458807130E+02  0.65435017330E+02  0.65197622740E+02  0.98943410630E+02  0.00000000000E+00 0. -1.
         22    1    3    3    0    0 -0.89388711886E+02 -0.35247187024E+02  0.18985285624E+03  0.21278348862E+03  0.00000000000E+00 0. -1.
</event>
<event>
 7    1  0.5993218E-006  0.8228552E+02  0.7818608E-02  0.1404404E+00
          2   -1    0    0  502    0  0.00000000000E+00  0.00000000000E+00  0.12427761572E+04  0.12427761572E+04  0.00000000000E+00 0. -1.
          1   -1    0    0  501    0 -0.00000000000E+00 -0.00000000000E+00 -0.34093982049E+02  0.34093982049E+02  0.00000000000E+00 0. -1.
         25    2    1    2    0    0 -0.50994936951E+01 -0.74234094758E+02  0.10149012485E+04  0.10252738451E+04  0.12500083024E+03 0.  0.
          2    1    1    2  501    0  0.26734839707E+02 -0.31787026340E+02  0.18193066110E+02  0.45344838210E+02  0.00000000000E+00 0. -1.
          1    1    1    2  502    0 -0.21635346012E+02  0.10602112110E+03  0.17558786062E+03  0.20625145603E+03  0.00000000000E+00 0. -1.
         22    1    3    3    0    0 -0.35447629877E+02 -0.64733435366E+02  0.95136757604E+03  0.95422597788E+03  0.00000000000E+00 0.  1.
         22    1    3    3    0    0  0.30348136182E+02 -0.95006593913E+01  0.63533672422E+02  0.71047867174E+02  0.00000000000E+00 0.  1.
</event>
<event>
 7    1  0.5993218E-006  0.5975139E+02  0.7818608E-02  0.1492478E+00
          2   -1    0    0  502    0  0.00000000000E+00  0.00000000000E+00  0.91444446053E+02  0.91444446053E+02  0.00000000000E+00 0. -1.
          1   -1    0    0  501    0 -0.00000000000E+00 -0.00000000000E+00 -0.23334580181E+03  0.23334580181E+03  0.00000000000E+00 0. -1.
         25    2    1    2    0    0  0.43429097660E+01  0.84656513832E+02 -0.91848023856E+02  0.17676848303E+03  0.12500180362E+03 0.  0.
          2    1    1    2  501    0 -0.43633734861E+01 -0.54823182792E+02 -0.85519253519E+02  0.10167675802E+03  0.00000000000E+00 0. -1.
          1    1    1    2  502    0  0.20463720049E-01 -0.29833331039E+02  0.35465921620E+02  0.46345006808E+02  0.00000000000E+00 0. -1.
         22    1    3    3    0    0 -0.46201505092E+02  0.27362768551E+02  0.44069862933E+01  0.53876912529E+02  0.00000000000E+00 0. -1.
         22    1    3    3    0    0  0.50544414858E+02  0.57293745281E+02 -0.96255010149E+02  0.12289157050E+03  0.00000000000E+00 0. -1.
</event>
<event>
 7    1  0.5993218E-006  0.8609134E+02  0.7818608E-02  0.1438706E+00
          2   -1    0    0  502    0  0.00000000000E+00  0.00000000000E+00  0.14586625277E+04  0.14586625277E+04  0.00000000000E+00 0. -1.
          1   -1    0    0  501    0 -0.00000000000E+00 -0.00000000000E+00 -0.71328405337E+02  0.71328405337E+02  0.00000000000E+00 0. -1.
         25    2    1    2    0    0  0.86545478553E+02 -0.51753981003E+01  0.13930279968E+03  0.20626986434E+03  0.12500032934E+03 0.  0.
          2    1    1    2  501    0 -0.83411734321E+02 -0.25174079492E+02  0.12741511362E+02  0.88054516139E+02  0.00000000000E+00 0. -1.
          1    1    1    2  502    0 -0.31337442321E+01  0.30349477592E+02  0.12352898113E+04  0.12356665526E+04  0.00000000000E+00 0. -1.
         22    1    3    3    0    0  0.49421739390E+02  0.57768973204E+02  0.50517527847E+02  0.91278602143E+02  0.00000000000E+00 0. -1.
         22    1    3    3    0    0  0.37123739163E+02 -0.62944371304E+02  0.88785271828E+02  0.11499126220E+03  0.00000000000E+00 0. -1.
</event>
<event>
 7    1  0.5993218E-006  0.3821694E+02  0.7818608E-02  0.1543529E+00
          2   -1    0    0  502    0  0.00000000000E+00  0.00000000000E+00  0.12184528260E+04  0.12184528260E+04  0.00000000000E+00 0. -1.
          1   -1    0    0  501    0 -0.00000000000E+00 -0.00000000000E+00 -0.32509966944E+02  0.32509966944E+02  0.00000000000E+00 0. -1.
         25    2    1    2    0    0 -0.25905918993E+02  0.88896358561E+01  0.18695006152E+03  0.22655071473E+03  0.12499903431E+03 0.  0.
          2    1    1    2  501    0  0.34779313771E+02  0.23020417031E+02  0.22561101530E+02  0.47418810286E+02  0.00000000000E+00 0. -1.
          1    1    1    2  502    0 -0.88733947783E+01 -0.31910052887E+02  0.97643169603E+03  0.97699326795E+03  0.00000000000E+00 0. -1.
         22    1    3    3    0    0 -0.32545036116E+02  0.35656005025E+02  0.19246511982E+03  0.19842719677E+03  0.00000000000E+00 0. -1.
         22    1    3    3    0    0  0.66391171231E+01 -0.26766369169E+02 -0.55150582973E+01  0.28123517964E+02  0.00000000000E+00 0. -1.
</event>
<event>
 7    1  0.5993218E-006  0.8408557E+02  0.7818608E-02  0.1473163E+00
          2   -1    0    0  502    0  0.00000000000E+00  0.00000000000E+00  0.11261809744E+04  0.11261809744E+04  0.00000000000E+00 0. -1.
          1   -1    0    0  501    0 -0.00000000000E+00 -0.00000000000E+00 -0.11139967000E+03  0.11139967000E+03  0.00000000000E+00 0. -1.
         25    2    1    2    0    0  0.11539357548E+02  0.10457898240E+03  0.26290100043E+03  0.30952674325E+03  0.12497979209E+03 0.  0.
          2    1    1    2  501    0  0.44835445978E+01 -0.23868237178E+02 -0.84354258248E+02  0.87780611769E+02  0.00000000000E+00 0. -1.
          1    1    1    2  502    0 -0.16022902145E+02 -0.80710745220E+02  0.83623456219E+03  0.84027328935E+03  0.00000000000E+00 0. -1.
         22    1    3    3    0    0  0.53293615502E+02  0.62506705130E+02  0.70649988025E+02  0.10834536652E+03  0.00000000000E+00 0. -1.
         22    1    3    3    0    0 -0.41754257954E+02  0.42072277268E+02  0.19225101240E+03  0.20118137673E+03  0.00000000000E+00 0. -1.
</event>
<event>
 7    1  0.5993218E-006  0.1036452E+03  0.7818608E-02  0.1451308E+00
          2   -1    0    0  502    0  0.00000000000E+00  0.00000000000E+00  0.48830212507E+03  0.48830212507E+03  0.00000000000E+00 0. -1.
          1   -1    0    0  501    0 -0.00000000000E+00 -0.00000000000E+00 -0.24436978990E+03  0.24436978990E+03  0.00000000000E+00 0. -1.
         25    2    1    2    0    0 -0.97298582591E+02 -0.48455650440E+02  0.64185114722E+02  0.17764280299E+03  0.12498908860E+03 0.  0.
          2    1    1    2  501    0  0.16620890884E+02 -0.16015086433E+02 -0.17963037049E+03  0.18110716996E+03  0.00000000000E+00 0. -1.
          1    1    1    2  502    0  0.80677691707E+02  0.64470736872E+02  0.35937759094E+03  0.37392194202E+03  0.00000000000E+00 0. -1.
         22    1    3    3    0    0 -0.96312302133E+02  0.83306247437E+01  0.68101070711E+01  0.96911487498E+02  0.00000000000E+00 0. -1.
         22    1    3    3    0    0 -0.98628045769E+00 -0.56786275184E+02  0.57375007651E+02  0.80731315493E+02  0.00000000000E+00 0. -1.
</event>
<event>
 7    1  0.5993218E-006  0.4366242E+02  0.7818608E-02  0.1490380E+00
          2   -1    0    0  502    0  0.00000000000E+00  0.00000000000E+00  0.72955334454E+03  0.72955334454E+03  0.00000000000E+00 0. -1.
          1   -1    0    0  501    0 -0.00000000000E+00 -0.00000000000E+00 -0.79315832637E+03  0.79315832637E+03  0.00000000000E+00 0. -1.
         25    2    1    2    0    0 -0.53406098470E+02  0.44346613259E+02  0.33458624961E+03  0.36385630514E+03  0.12499847559E+03 0.  0.
          2    1    1    2  501    0  0.12049536085E+02 -0.41941777880E+02 -0.77678101965E+03  0.77800582038E+03  0.00000000000E+00 0. -1.
          1    1    1    2  502    0  0.41356562385E+02 -0.24048353786E+01  0.37858978821E+03  0.38084954539E+03  0.00000000000E+00 0. -1.
         22    1    3    3    0    0 -0.45579249089E+02  0.16210099325E+02  0.33090262352E+03  0.33442006746E+03  0.00000000000E+00 0.  1.
         22    1    3    3    0    0 -0.78268493806E+01  0.28136513933E+02  0.36836260902E+01  0.29436237679E+02  0.00000000000E+00 0.  1.
</event>
<event>
 7    1  0.7198755E-006  0.1236247E+03  0.7818608E-02  0.1311663E+00
          2   -1    0    0  502    0  0.00000000000E+00  0.00000000000E+00  0.22754191153E+04  0.22754191153E+04  0.00000000000E+00 0. -1.
          1   -1    0    0  501    0 -0.00000000000E+00 -0.00000000000E+00 -0.48992837350E+03  0.48992837350E+03  0.00000000000E+00 0. -1.
         25    2    1    2    0    0  0.72944144403E+02 -0.60932471706E+02 -0.11819720020E+03  0.19653852430E+03  0.12499279615E+03 0.  0.
          2    1    1    2  501    0 -0.26771040711E+02 -0.54215767976E+02 -0.32807503520E+03  0.33360045989E+03  0.00000000000E+00 0. -1.
          1    1    1    2  502    0 -0.46173103693E+02  0.11514823968E+03  0.22317629772E+04  0.22352085046E+04  0.00000000000E+00 0. -1.
         22    1    3    3    0    0  0.35228859484E+02 -0.17380813440E+01 -0.12125757742E+03  0.12628338587E+03  0.00000000000E+00 0.  1.
         22    1    3    3    0    0  0.37715284920E+02 -0.59194390362E+02  0.30603772143E+01  0.70255138428E+02  0.00000000000E+00 0.  1.
</event>
<event>
 7    1  0.5993218E-006  0.7980021E+02  0.7818608E-02  0.1497718E+00
          2   -1    0    0  502    0  0.00000000000E+00  0.00000000000E+00  0.12077152425E+04  0.12077152425E+04  0.00000000000E+00 0. -1.
          1   -1    0    0  501    0 -0.00000000000E+00 -0.00000000000E+00 -0.42359623605E+03  0.42359623605E+03  0.00000000000E+00 0. -1.
         25    2    1    2    0    0 -0.42447992690E+02  0.67938113382E+02 -0.55717596561E+02  0.15857943068E+03  0.12500226373E+03 0.  0.
          2    1    1    2  501    0  0.19751412303E+02  0.86007572199E+01 -0.31470106088E+03  0.31543755172E+03  0.00000000000E+00 0. -1.
          1    1    1    2  502    0  0.22696580387E+02 -0.76538870602E+02  0.11545376639E+04  0.11572944961E+04  0.00000000000E+00 0. -1.
         22    1    3    3    0    0 -0.54782560422E+02  0.71405938267E+02 -0.86752452974E+02  0.12500370012E+03  0.00000000000E+00 0.  1.
         22    1    3    3    0    0  0.12334567732E+02 -0.34678248851E+01  0.31034856412E+02  0.33575730567E+02  0.00000000000E+00 0.  1.
</event>
<event>
 7    1  0.5993218E-006  0.4372917E+02  0.7818608E-02  0.1499873E+00
          2   -1    0    0  502    0  0.00000000000E+00  0.00000000000E+00  0.20833202764E+04  0.20833202764E+04  0.00000000000E+00 0. -1.
          1   -1    0    0  501    0 -0.00000000000E+00 -0.00000000000E+00 -0.65200273144E+02  0.65200273144E+02  0.00000000000E+00 0. -1.
         25    2    1    2    0    0 -0.45647942911E+02 -0.11008767560E+01  0.13031822086E+04  0.13099593554E+04  0.12499878887E+03 0.  0.
          2    1    1    2  501    0  0.28243574382E+02 -0.33502852771E+02 -0.53496031816E+02  0.69151761060E+02  0.00000000000E+00 0. -1.
          1    1    1    2  502    0  0.17404368529E+02  0.34603729527E+02  0.76843382643E+03  0.76940943310E+03  0.00000000000E+00 0. -1.
         22    1    3    3    0    0 -0.65465003382E+02 -0.40231992822E+02  0.53081913302E+03  0.53635177999E+03  0.00000000000E+00 0.  1.
         22    1    3    3    0    0  0.19817060472E+02  0.39131116066E+02  0.77236307563E+03  0.77360757541E+03  0.00000000000E+00 0.  1.
</event>
<event>
 7    1  0.5993218E-006  0.7497133E+02  0.7818608E-02  0.1433707E+00
          2   -1    0    0  502    0  0.00000000000E+00  0.00000000000E+00  0.47211391824E+03  0.47211391824E+03  0.00000000000E+00 0. -1.
          1   -1    0    0  501    0 -0.00000000000E+00 -0.00000000000E+00 -0.23671495780E+03  0.23671495780E+03  0.00000000000E+00 0. -1.
         25    2    1    2    0    0 -0.29758988791E+02  0.52268897713E+02 -0.91883734891E+02  0.16639580493E+03  0.12500923198E+03 0.  0.
          2    1    1    2  501    0  0.66077958410E+02 -0.50210046652E+02 -0.90660814020E+02  0.12290943239E+03  0.00000000000E+00 0. -1.
          1    1    1    2  502    0 -0.36318969619E+02 -0.20588510609E+01  0.41794350936E+03  0.41952363871E+03  0.00000000000E+00 0. -1.
         22    1    3    3    0    0 -0.19942300218E+02 -0.37085191833E+02 -0.54912294809E+02  0.69198026796E+02  0.00000000000E+00 0.  1.
         22    1    3    3    0    0 -0.98166885724E+01  0.89354089546E+02 -0.36971440083E+02  0.97197778138E+02  0.00000000000E+00 0.  1.
</event>
<event>
 7    1  0.5993218E-006  0.2766037E+02  0.7818608E-02  0.1656271E+00
          2   -1    0    0  502    0  0.00000000000E+00  0.00000000000E+00  0.80187481371E+03  0.80187481371E+03  0.00000000000E+00 0. -1.
          1   -1    0    0  501    0 -0.00000000000E+00 -0.00000000000E+00 -0.14074974751E+02  0.14074974751E+02  0.00000000000E+00 0. -1.
         25    2    1    2    0    0 -0.10340752545E+02 -0.32873685362E+02  0.64595562586E+03  0.65884045098E+03  0.12499783567E+03 0.  0.
          2    1    1    2  501    0  0.21893395845E+02  0.76775214082E+01  0.15839490040E+02  0.28091894941E+02  0.00000000000E+00 0. -1.
          1    1    1    2  502    0 -0.11552643300E+02  0.25196163954E+02  0.12600472306E+03  0.12901744254E+03  0.00000000000E+00 0. -1.
         22    1    3    3    0    0 -0.30505461644E+02 -0.10410725569E+02  0.61413336795E+03  0.61497866631E+03  0.00000000000E+00 0.  1.
         22    1    3    3    0    0  0.20164709099E+02 -0.22462959793E+02  0.31822257911E+02  0.43861784668E+02  0.00000000000E+00 0.  1.
</event>
<event>
 7    1  0.5993218E-006  0.3633938E+02  0.7818608E-02  0.1613824E+00
          2   -1    0    0  502    0  0.00000000000E+00  0.00000000000E+00  0.51328582770E+03  0.51328582770E+03  0.00000000000E+00 0. -1.
          1   -1    0    0  501    0 -0.00000000000E+00 -0.00000000000E+00 -0.15823374003E+04  0.15823374003E+04  0.00000000000E+00 0. -1.
         25    2    1    2    0    0  0.13208541638E+02 -0.34169019735E+02  0.13429162288E+03  0.18709105726E+03  0.12500734478E+03 0.  0.
          2    1    1    2  501    0 -0.22513884561E+02 -0.11979150426E+01 -0.15549074777E+04  0.15550709226E+04  0.00000000000E+00 0. -1.
          1    1    1    2  502    0  0.93053429231E+01  0.35366934778E+02  0.35156428219E+03  0.35346124822E+03  0.00000000000E+00 0. -1.
         22    1    3    3    0    0 -0.83277759135E+01  0.27679893441E+02 -0.83886928194E+01  0.30098148112E+02  0.00000000000E+00 0. -1.
         22    1    3    3    0    0  0.21536317551E+02 -0.61848913176E+02  0.14268031570E+03  0.15699290915E+03  0.00000000000E+00 0. -1.
</event>
<event>
 7    1  0.5993218E-006  0.3894071E+02  0.7818608E-02  0.1535001E+00
          2   -1    0    0  502    0  0.00000000000E+00  0.00000000000E+00  0.13029895541E+03  0.13029895541E+03  0.00000000000E+00 0. -1.
          1   -1    0    0  501    0 -0.00000000000E+00 -0.00000000000E+00 -0.53535396919E+03  0.53535396919E+03  0.00000000000E+00 0. -1.
         25    2    1    2    0    0  0.52968604836E+02 -0.48108701836E+02 -0.16028111662E+03  0.21548837790E+03  0.12500033750E+03 0.  0.
          2    1    1    2  501    0 -0.20685870156E+02  0.27438513273E+02 -0.34300343645E+03  0.34472037168E+03  0.00000000000E+00 0. -1.
          1    1    1    2  502    0 -0.32282734680E+02  0.20670188562E+02  0.98229539297E+02  0.10544417501E+03  0.00000000000E+00 0. -1.
         22    1    3    3    0    0  0.15115231023E+02 -0.34442652300E+02 -0.16997966710E+03  0.17409150966E+03  0.00000000000E+00 0. -1.
         22    1    3    3    0    0  0.37853373813E+02 -0.13666049536E+02  0.96985504836E+01  0.41396868244E+02  0.00000000000E+00 0. -1.
</event>
<event>
 7    1  0.5993218E-006  0.1202096E+03  0.7818608E-02  0.1305874E+00
          2   -1    0    0  502    0  0.00000000000E+00  0.00000000000E+00  0.15609640102E+03  0.15609640102E+03  0.00000000000E+00 0. -1.
          1   -1    0    0  501    0 -0.00000000000E+00 -0.00000000000E+00 -0.17095557959E+04  0.17095557959E+04  0.00000000000E+00 0. -1.
         25    2    1    2    0    0 -0.16064587865E+03  0.23985616843E+02 -0.32309811171E+03  0.38260646320E+03  0.12495162162E+03 0.  0.
          2    1    1    2  501    0  0.45377896219E+02 -0.47294490978E+02 -0.13283531792E+04  0.13299692068E+04  0.00000000000E+00 0. -1.
          1    1    1    2  502    0  0.11526798243E+03  0.23308874135E+02  0.97991896066E+02  0.15307652688E+03  0.00000000000E+00 0. -1.
         22    1    3    3    0    0 -0.10129035354E+03  0.72550992918E+02 -0.16372456553E+03  0.20574040841E+03  0.00000000000E+00 0.  1.
         22    1    3    3    0    0 -0.59355525106E+02 -0.48565376075E+02 -0.15937354618E+03  0.17686605478E+03  0.00000000000E+00 0.  1.
</event>
<event>
 7    1  0.5993218E-006  0.1699757E+03  0.7818608E-02  0.1302383E+00
          2   -1    0    0  502    0  0.00000000000E+00  0.00000000000E+00  0.29880639108E+03  0.29880639108E+03  0.00000000000E+00 0. -1.
          1   -1    0    0  501    0 -0.00000000000E+00 -0.00000000000E+00 -0.48331933542E+03  0.48331933542E+03  0.00000000000E+00 0. -1.
         25    2    1    2    0    0  0.16552098479E+03  0.10015561738E+03 -0.59371595046E+02  0.23785975504E+03  0.12499573061E+03 0.  0.
          2    1    1    2  501    0 -0.86979658959E+01 -0.47062343238E+02 -0.29980486764E+03  0.30360085215E+03  0.00000000000E+00 0. -1.
          1    1    1    2  502    0 -0.15682301890E+03 -0.53093274144E+02  0.17466351834E+03  0.24066511932E+03  0.00000000000E+00 0. -1.
         22    1    3    3    0    0  0.17204226106E+03  0.50264892298E+02 -0.54353797787E+02  0.18729504617E+03  0.00000000000E+00 0. -1.
         22    1    3    3    0    0 -0.65212762648E+01  0.49890725084E+02 -0.50177972595E+01  0.50564708867E+02  0.00000000000E+00 0. -1.
</event>
<event>
 7    1  0.7175781E-006  0.8423796E+02  0.7818608E-02  0.1394698E+00
          2   -1    0    0  502    0  0.00000000000E+00  0.00000000000E+00  0.17008635834E+04  0.17008635834E+04  0.00000000000E+00 0. -1.
          1   -1    0    0  501    0 -0.00000000000E+00 -0.00000000000E+00 -0.17112965261E+04  0.17112965261E+04  0.00000000000E+00 0. -1.
         25    2    1    2    0    0 -0.11304441026E+03  0.45539680432E+02 -0.81263148511E+02  0.19256504874E+03  0.12499879001E+03 0.  0.
          2    1    1    2  501    0  0.43774034030E+02  0.19139810919E+01 -0.15730058410E+04  0.15736159650E+04  0.00000000000E+00 0. -1.
          1    1    1    2  502    0  0.69270376235E+02 -0.47453661524E+02  0.16438360468E+04  0.16459790958E+04  0.00000000000E+00 0. -1.
         22    1    3    3    0    0 -0.12581783476E+03  0.58961199247E+02 -0.96003816983E+02  0.16888837567E+03  0.00000000000E+00 0.  1.
         22    1    3    3    0    0  0.12773424495E+02 -0.13421518815E+02  0.14740668472E+02  0.23676673069E+02  0.00000000000E+00 0.  1.
</event>
<event>
 7    1  0.5993218E-006  0.2299944E+03  0.7818608E-02  0.1255374E+00
          2   -1    0    0  502    0  0.00000000000E+00  0.00000000000E+00  0.16777241196E+04  0.16777241196E+04  0.00000000000E+00 0. -1.
          1   -1    0    0  501    0 -0.00000000000E+00 -0.00000000000E+00 -0.23671944685E+03  0.23671944685E+03  0.00000000000E+00 0. -1.
         25    2    1    2    0    0 -0.18507132746E+03 -0.11906117660E+03  0.55015416237E+03  0.60557624016E+03  0.12500408097E+03 0.  0.
          2    1    1    2  501    0  0.20999077782E+02 -0.51239410721E+02 -0.19234567525E+03  0.20015818061E+03  0.00000000000E+00 0. -1.
          1    1    1    2  502    0  0.16407224967E+03  0.17030058732E+03  0.10831961856E+04  0.11087091456E+04  0.00000000000E+00 0. -1.
         22    1    3    3    0    0 -0.83347950884E+02 -0.76121488464E+02  0.13491340148E+03  0.17590619040E+03  0.00000000000E+00 0. -1.
         22    1    3    3    0    0 -0.10172337657E+03 -0.42939688135E+02  0.41524076089E+03  0.42967004976E+03  0.00000000000E+00 0. -1.
</event>
<event>
 7    1  0.5993218E-006  0.9990151E+02  0.7818608E-02  0.1432858E+00
          2   -1    0    0  502    0  0.00000000000E+00  0.00000000000E+00  0.31515253367E+04  0.31515253367E+04  0.00000000000E+00 0. -1.
          1   -1    0    0  501    0 -0.00000000000E+00 -0.00000000000E+00 -0.12912062744E+04  0.12912062744E+04  0.00000000000E+00 0. -1.
         25    2    1    2    0    0  0.73404254323E+02 -0.10184291707E+03  0.58264631784E+03  0.60897872343E+03  0.12497275537E+03 0.  0.
          2    1    1    2  501    0 -0.15697425727E+02  0.22548831642E+02 -0.12769514517E+04  0.12772469883E+04  0.00000000000E+00 0. -1.
          1    1    1    2  502    0 -0.57706828596E+02  0.79294085431E+02  0.25546241962E+04  0.25565058994E+04  0.00000000000E+00 0. -1.
         22    1    3    3    0    0 -0.24633357204E+02 -0.68378918593E+02  0.27036557018E+03  0.27996431975E+03  0.00000000000E+00 0. -1.
         22    1    3    3    0    0  0.98037611527E+02 -0.33463998480E+02  0.31228074766E+03  0.32901440367E+03  0.00000000000E+00 0. -1.
</event>
<event>
 7    1  0.5993218E-006  0.1209284E+03  0.7818608E-02  0.1318182E+00
          2   -1    0    0  502    0  0.00000000000E+00  0.00000000000E+00  0.28069311129E+03  0.28069311129E+03  0.00000000000E+00 0. -1.
          1   -1    0    0  501    0 -0.00000000000E+00 -0.00000000000E+00 -0.19417515502E+04  0.19417515502E+04  0.00000000000E+00 0. -1.
         25    2    1    2    0    0  0.67102322101E+02  0.15720083656E+03 -0.59837313406E+03  0.63473634220E+03  0.12499996758E+03 0.  0.
          2    1    1    2  501    0 -0.34451489518E+02 -0.10891430657E+03 -0.13194625380E+04  0.13243982107E+04  0.00000000000E+00 0. -1.
          1    1    1    2  502    0 -0.32650832583E+02 -0.48286529991E+02  0.25677723313E+03  0.26331010862E+03  0.00000000000E+00 0. -1.
         22    1    3    3    0    0  0.88606021507E+02  0.51303642041E+02 -0.25600513825E+03  0.27572036839E+03  0.00000000000E+00 0.  1.
         22    1    3    3    0    0 -0.21503699407E+02  0.10589719452E+03 -0.34236799581E+03  0.35901597381E+03  0.00000000000E+00 0.  1.
</event>
<event>
 7    1  0.5993218E-006  0.8463795E+02  0.7818608E-02  0.1456246E+00
          2   -1    0    0  502    0  0.00000000000E+00  0.00000000000E+00  0.10836622002E+04  0.10836622002E+04  0.00000000000E+00 0. -1.
          1   -1    0    0  501    0 -0.00000000000E+00 -0.00000000000E+00 -0.75841783879E+03  0.75841783879E+03  0.00000000000E+00 0. -1.
         25    2    1    2    0    0 -0.75903680263E+02  0.14885333052E+02  0.47322268348E+03  0.49552756396E+03  0.12499966666E+03 0.  0.
          2    1    1    2  501    0  0.83955909135E+02  0.11158156900E+02 -0.74455337471E+03  0.74935494056E+03  0.00000000000E+00 0. -1.
          1    1    1    2  502    0 -0.80522288720E+01 -0.26043489952E+02  0.59657505264E+03  0.59719753448E+03  0.00000000000E+00 0. -1.
         22    1    3    3    0    0 -0.12596662204E+02  0.20693538480E+02  0.39024472551E+03  0.39099596446E+03  0.00000000000E+00 0. -1.
         22    1    3    3    0    0 -0.63307018058E+02 -0.58082054284E+01  0.82977957975E+02  0.10453159951E+03  0.00000000000E+00 0. -1.
</event>
<event>
 7    1  0.5993218E-006  0.5766846E+02  0.7818608E-02  0.1469983E+00
          2   -1    0    0  502    0  0.00000000000E+00  0.00000000000E+00  0.16185984405E+04  0.16185984405E+04  0.00000000000E+00 0. -1.
          1   -1    0    0  501    0 -0.00000000000E+00 -0.00000000000E+00 -0.65846842949E+03  0.65846842949E+03  0.00000000000E+00 0. -1.
         25    2    1    2    0    0  0.21377895127E+02  0.79307819019E+01  0.80182482339E+02  0.15029088708E+03  0.12505282310E+03 0.  0.
          2    1    1    2  501    0 -0.48547702319E+02 -0.31889779441E+02 -0.62184237226E+03  0.62454925616E+03  0.00000000000E+00 0. -1.
          1    1    1    2  502    0  0.27169807193E+02  0.23958997539E+02  0.15017899009E+04  0.15022267267E+04  0.00000000000E+00 0. -1.
         22    1    3    3    0    0  0.22389182269E+02 -0.47780446782E+02  0.78448903706E+02  0.94543519450E+02  0.00000000000E+00 0.  1.
         22    1    3    3    0    0 -0.10112871423E+01  0.55711228684E+02  0.17335786331E+01  0.55747367633E+02  0.00000000000E+00 0.  1.
</event>
<event>
 7    1  0.5993218E-006  0.6827515E+02  0.7818608E-02  0.1451014E+00
          2   -1    0    0  502    0  0.00000000000E+00  0.00000000000E+00  0.33583513552E+03  0.33583513552E+03  0.00000000000E+00 0. -1.
          1   -1    0    0  501    0 -0.00000000000E+00 -0.00000000000E+00 -0.97208411602E+03  0.97208411602E+03  0.00000000000E+00 0. -1.
         25    2    1    2    0    0  0.40892741214E+02  0.33217823610E+02  0.22071156221E+02  0.13741384290E+03  0.12497915104E+03 0.  0.
          2    1    1    2  501    0 -0.67807577664E+02 -0.10665824363E+02 -0.91191314932E+03  0.91449287548E+03  0.00000000000E+00 0. -1.
          1    1    1    2  502    0  0.26914836449E+02 -0.22551999247E+02  0.25359301260E+03  0.25601253316E+03  0.00000000000E+00 0. -1.
         22    1    3    3    0    0 -0.17122864344E+02  0.38628573372E+02 -0.35733753676E+02  0.55337693446E+02  0.00000000000E+00 0.  1.
         22    1    3    3    0    0  0.58015605559E+02 -0.54107497623E+01  0.57804909898E+02  0.82076149457E+02  0.00000000000E+00 0.  1.
</event>
<event>
 7    1  0.5993218E-006  0.7281953E+02  0.7818608E-02  0.1470429E+00
          2   -1    0    0  502    0  0.00000000000E+00  0.00000000000E+00  0.28745459271E+02  0.28745459271E+02  0.00000000000E+00 0. -1.
          1   -1    0    0  501    0 -0.00000000000E+00 -0.00000000000E+00 -0.12275209806E+04  0.12275209806E+04  0.00000000000E+00 0. -1.
         25    2    1    2    0    0 -0.74859345237E+02  0.68369562021E+01 -0.75035198508E+03  0.76439718771E+03  0.12499717407E+03 0.  0.
          2    1    1    2  501    0  0.65252055958E+02 -0.33770959488E+02 -0.45632451783E+03  0.46220165955E+03  0.00000000000E+00 0. -1.
          1    1    1    2  502    0  0.96072892795E+01  0.26934003286E+02  0.79009816010E+01  0.29667592598E+02  0.00000000000E+00 0. -1.
         22    1    3    3    0    0 -0.92494775239E+02  0.30830426159E+02 -0.36182396073E+03  0.37472973885E+03  0.00000000000E+00 0.  1.
         22    1    3    3    0    0  0.17635430002E+02 -0.23993469957E+02 -0.38852802435E+03  0.38966744886E+03  0.00000000000E+00 0.  1.
</event>
<event>
 7    1  0.7067369E-006  0.9911695E+02  0.7818608E-02  0.1356188E+00
          2   -1    0    0  502    0  0.00000000000E+00  0.00000000000E+00  0.12090547484E+04  0.12090547484E+04  0.00000000000E+00 0. -1.
          1   -1    0    0  501    0 -0.00000000000E+00 -0.00000000000E+00 -0.10230726976E+04  0.10230726976E+04  0.00000000000E+00 0. -1.
         25    2    1    2    0    0  0.55737775256E+02 -0.29507012622E+01 -0.22965869467E+02  0.13880967865E+03  0.12500115799E+03 0.  0.
          2    1    1    2  501    0  0.40650441479E+02  0.30947906478E+02 -0.93930142924E+03  0.94068985659E+03  0.00000000000E+00 0. -1.
          1    1    1    2  502    0 -0.96388216735E+02 -0.27997205216E+02  0.11482493496E+04  0.11526279107E+04  0.00000000000E+00 0. -1.
         22    1    3    3    0    0  0.52556272164E+02  0.20778594058E+02 -0.67629195720E+02  0.88134101394E+02  0.00000000000E+00 0. -1.
         22    1    3    3    0    0  0.31815030914E+01 -0.23729295320E+02  0.44663326253E+02  0.50675577257E+02  0.00000000000E+00 0. -1.
</event>
<event>
 7    1  0.5993218E-006  0.5299029E+02  0.7818608E-02  0.1464341E+00
          2   -1    0    0  502    0  0.00000000000E+00  0.00000000000E+00  0.13998976594E+04  0.13998976594E+04  0.00000000000E+00 0. -1.
          1   -1    0    0  501    0 -0.00000000000E+00 -0.00000000000E+00 -0.33781201881E+03  0.33781201881E+03  0.00000000000E+00 0. -1.
         25    2    1    2    0    0  0.66700539919E+02 -0.65836548375E+02  0.45947750371E+03  0.48531169859E+03  0.12499782098E+03 0.  0.
          2    1    1    2  501    0 -0.39328137788E+02  0.35238066440E+02 -0.32229090452E+03  0.32658819771E+03  0.00000000000E+00 0. -1.
          1    1    1    2  502    0 -0.27372402132E+02  0.30598481935E+02  0.92489904141E+03  0.92580978192E+03  0.00000000000E+00 0. -1.
         22    1    3    3    0    0  0.40848792568E+01 -0.69683058321E+02  0.36690011829E+03  0.37348107269E+03  0.00000000000E+00 0.  1.
         22    1    3    3    0    0  0.62615660663E+02  0.38465099467E+01  0.92577385419E+02  0.11183062590E+03  0.00000000000E+00 0.  1.
</event>
<event>
 7    1  0.5993218E-006  0.6610371E+02  0.7818608E-02  0.1377878E+00
          2   -1    0    0  502    0  0.00000000000E+00  0.00000000000E+00  0.29850498650E+03  0.29850498650E+03  0.00000000000E+00 0. -1.
          1   -1    0    0  501    0 -0.00000000000E+00 -0.00000000000E+00 -0.22864821323E+04  0.22864821323E+04  0.00000000000E+00 0. -1.
         25    2    1    2    0    0  0.34193771930E+02 -0.65394888035E+01  0.47249284920E+02  0.13809183699E+03  0.12499952626E+03 0.  0.
          2    1    1    2  501    0 -0.33335662646E+02 -0.57418390536E+02 -0.22355868667E+04  0.22365725512E+04  0.00000000000E+00 0. -1.
          1    1    1    2  502    0 -0.85810928422E+00  0.63957879339E+02  0.20036043604E+03  0.21032273061E+03  0.00000000000E+00 0. -1.
         22    1    3    3    0    0  0.23673982425E+02 -0.10805305232E+01  0.90342205517E+02  0.93398817378E+02  0.00000000000E+00 0. -1.
         22    1    3    3    0    0  0.10519789505E+02 -0.54589582803E+01 -0.43092920596E+02  0.44693019614E+02  0.00000000000E+00 0. -1.
</event>
<event>
 7    1  0.5993218E-006  0.1316100E+03  0.7818608E-02  0.1226581E+00
          2   -1    0    0  502    0  0.00000000000E+00  0.00000000000E+00  0.52600673932E+03  0.52600673932E+03  0.00000000000E+00 0. -1.
          1   -1    0    0  501    0 -0.00000000000E+00 -0.00000000000E+00 -0.72798013138E+03  0.72798013138E+03  0.00000000000E+00 0. -1.
         25    2    1    2    0    0  0.25630360423E+02 -0.80807169564E+02 -0.10861615822E+02  0.15142488038E+03  0.12499922269E+03 0.  0.
          2    1    1    2  501    0 -0.13908235595E+03  0.14100109017E+02 -0.62950452802E+03  0.64484003102E+03  0.00000000000E+00 0. -1.
          1    1    1    2  502    0  0.11345199553E+03  0.66707060548E+02  0.43839275178E+03  0.45772195930E+03  0.00000000000E+00 0. -1.
         22    1    3    3    0    0  0.48064202312E+02 -0.48298083623E+02  0.45984365905E+02  0.82203615086E+02  0.00000000000E+00 0.  1.
         22    1    3    3    0    0 -0.22433841889E+02 -0.32509085941E+02 -0.56845981727E+02  0.69221265296E+02  0.00000000000E+00 0.  1.
</event>
<event>
 7    1  0.5993218E-006  0.1067860E+03  0.7818608E-02  0.1322833E+00
          2   -1    0    0  502    0  0.00000000000E+00  0.00000000000E+00  0.23425839522E+04  0.23425839522E+04  0.00000000000E+00 0. -1.
          1   -1    0    0  501    0 -0.00000000000E+00 -0.00000000000E+00 -0.25824409239E+04  0.25824409239E+04  0.00000000000E+00 0. -1.
         25    2    1    2    0    0  0.46003991085E+02 -0.28909828667E+02  0.15169325817E+03  0.20393001627E+03  0.12499784628E+03 0.  0.
          2    1    1    2  501    0  0.17047316739E+02 -0.60986791380E+02 -0.25545375191E+04  0.25553222764E+04  0.00000000000E+00 0. -1.
          1    1    1    2  502    0 -0.63051307824E+02  0.89896620047E+02  0.21629872892E+04  0.21657725834E+04  0.00000000000E+00 0. -1.
         22    1    3    3    0    0 -0.41203783032E+02 -0.22797846835E+02  0.37989156595E+02  0.60503467465E+02  0.00000000000E+00 0.  1.
         22    1    3    3    0    0  0.87207774117E+02 -0.61119818316E+01  0.11370410158E+03  0.14342654881E+03  0.00000000000E+00 0.  1.
</event>
<event>
 7    1  0.5993218E-006  0.9170612E+02  0.7818608E-02  0.1483943E+00
          2   -1    0    0  502    0  0.00000000000E+00  0.00000000000E+00  0.12231004713E+04  0.12231004713E+04  0.00000000000E+00 0. -1.
          1   -1    0    0  501    0 -0.00000000000E+00 -0.00000000000E+00 -0.88158165386E+03  0.88158165386E+03  0.00000000000E+00 0. -1.
         25    2    1    2    0    0 -0.57757867641E+00  0.10695713535E+03  0.42624981942E+03  0.45689597965E+03  0.12499946105E+03 0.  0.
          2    1    1    2  501    0 -0.95677500868E+01 -0.18279300180E+02 -0.86358652664E+03  0.86383294893E+03  0.00000000000E+00 0. -1.
          1    1    1    2  502    0  0.10145328763E+02 -0.88677835174E+02  0.77885552463E+03  0.78395319655E+03  0.00000000000E+00 0. -1.
         22    1    3    3    0    0  0.26894291511E+01  0.48427011195E+02  0.37764155631E+03  0.38074342213E+03  0.00000000000E+00 0.  1.
         22    1    3    3    0    0 -0.32670078275E+01  0.58530124159E+02  0.48608263113E+02  0.76152557522E+02  0.00000000000E+00 0.  1.
</event>
<event>
 7    1  0.5993218E-006  0.9468101E+02  0.7818608E-02  0.1322312E+00
          2   -1    0    0  502    0  0.00000000000E+00  0.00000000000E+00  0.58764605608E+03  0.58764605608E+03  0.00000000000E+00 0. -1.
          1   -1    0    0  501    0 -0.00000000000E+00 -0.00000000000E+00 -0.15447618717E+04  0.15447618717E+04  0.00000000000E+00 0. -1.
         25    2    1    2    0    0 -0.21864501825E+02 -0.57474989389E+02 -0.35294486663E+03  0.37944245214E+03  0.12500025906E+03 0.  0.
          2    1    1    2  501    0 -0.39189326111E+02  0.95169354577E+02 -0.11740672909E+04  0.11785699016E+04  0.00000000000E+00 0. -1.
          1    1    1    2  502    0  0.61053827936E+02 -0.37694365188E+02  0.56989634187E+03  0.57439557410E+03  0.00000000000E+00 0. -1.
         22    1    3    3    0    0  0.47987991530E+02 -0.36683901949E+02 -0.21631000891E+03  0.22458534224E+03  0.00000000000E+00 0. -1.
         22    1    3    3    0    0 -0.69852493354E+02 -0.20791087440E+02 -0.13663485772E+03  0.15485710991E+03  0.00000000000E+00 0. -1.
</event>
<event>
 7    1  0.5993218E-006  0.2123151E+02  0.7818608E-02  0.1732811E+00
          2   -1    0    0  502    0  0.00000000000E+00  0.00000000000E+00  0.12646931551E+04  0.12646931551E+04  0.00000000000E+00 0. -1.
          1   -1    0    0  501    0 -0.00000000000E+00 -0.00000000000E+00 -0.39208945595E+02  0.39208945595E+02  0.00000000000E+00 0. -1.
         25    2    1    2    0    0 -0.53225833318E+01 -0.51262495629E+01  0.31997695286E+03  0.34360620952E+03  0.12500147411E+03 0.  0.
          2    1    1    2  501    0 -0.13999731433E+02  0.14385616291E+02 -0.23576938182E+02  0.30964664543E+02  0.00000000000E+00 0. -1.
          1    1    1    2  502    0  0.19322314765E+02 -0.92593667278E+01  0.92908419484E+03  0.92933122665E+03  0.00000000000E+00 0. -1.
         22    1    3    3    0    0 -0.40520374886E+02 -0.42686085696E+02  0.87186269153E+02  0.10519243424E+03  0.00000000000E+00 0. -1.
         22    1    3    3    0    0  0.35197791554E+02  0.37559836133E+02  0.23279068371E+03  0.23841377528E+03  0.00000000000E+00 0. -1.
</event>
<event>
 7    1  0.5993218E-006  0.1962221E+03  0.7818608E-02  0.1186830E+00
          2   -1    0    0  502    0  0.00000000000E+00  0.00000000000E+00  0.13335889918E+04  0.13335889918E+04  0.00000000000E+00 0. -1.
          1   -1    0    0  501    0 -0.00000000000E+00 -0.00000000000E+00 -0.58613433028E+03  0.58613433028E+03  0.00000000000E+00 0. -1.
         25    2    1    2    0    0 -0.73156933324E+02 -0.32247937473E+02 -0.31251649901E+03  0.34595172817E+03  0.12499667878E+03 0.  0.
          2    1    1    2  501    0 -0.12559656085E+03  0.44338574032E+02 -0.23147761687E+03  0.26706233796E+03  0.00000000000E+00 0. -1.
          1    1    1    2  502    0  0.19875349417E+03 -0.12090636558E+02  0.12914487774E+04  0.13067092560E+04  0.00000000000E+00 0. -1.
         22    1    3    3    0    0 -0.29720958633E+02 -0.70877427757E+02 -0.10295864730E+03  0.12848123676E+03  0.00000000000E+00 0.  1.
         22    1    3    3    0    0 -0.43435974691E+02  0.38629490284E+02 -0.20955785172E+03  0.21747049141E+03  0.00000000000E+00 0.  1.
</event>
<event>
 7    1  0.5993218E-006  0.8290675E+02  0.7818608E-02  0.1459651E+00
          2   -1    0    0  502    0  0.00000000000E+00  0.00000000000E+00  0.14233863162E+03  0.14233863162E+03  0.00000000000E+00 0. -1.
          1   -1    0    0  501    0 -0.00000000000E+00 -0.00000000000E+00 -0.61976199630E+03  0.61976199630E+03  0.00000000000E+00 0. -1.
         25    2    1    2    0    0  0.37006798397E+02 -0.88447006898E+02 -0.16368428653E+03  0.22717822643E+03  0.12500009899E+03 0.  0.
          2    1    1    2  501    0 -0.10924701424E+02  0.80916913026E+02 -0.41865919444E+03  0.42654708651E+03  0.00000000000E+00 0. -1.
          1    1    1    2  502    0 -0.26082096973E+02  0.75300938719E+01  0.10492011629E+03  0.10837531499E+03  0.00000000000E+00 0. -1.
         22    1    3    3    0    0  0.78074188278E+02 -0.83019680371E+02 -0.10242523779E+03  0.15322785498E+03  0.00000000000E+00 0. -1.
         22    1    3    3    0    0 -0.41067389881E+02 -0.54273265270E+01 -0.61259048743E+02  0.73950371451E+02  0.00000000000E+00 0. -1.
</event>
<event>
 7    1  0.5993218E-006  0.6004849E+02  0.7818608E-02  0.1493578E+00
          2   -1    0    0  502    0  0.00000000000E+00  0.00000000000E+00  0.14241900919E+03  0.14241900919E+03  0.00000000000E+00 0. -1.
          1   -1    0    0  501    0 -0.00000000000E+00 -0.00000000000E+00 -0.10570049317E+04  0.10570049317E+04  0.00000000000E+00 0. -1.
         25    2    1    2    0    0  0.12580761029E+02  0.74733710327E+02  0.18746149004E+02  0.14737567631E+03  0.12499907543E+03 0.  0.
          2    1    1    2  501    0 -0.30676151743E+02 -0.51486049344E+02 -0.98807007484E+03  0.98988600978E+03  0.00000000000E+00 0. -1.
          1    1    1    2  502    0  0.18095390714E+02 -0.23247660983E+02  0.54738003355E+02  0.62162254766E+02  0.00000000000E+00 0. -1.
         22    1    3    3    0    0  0.54598577720E+02  0.34763577535E+02  0.49730631037E+02  0.81625037063E+02  0.00000000000E+00 0.  1.
         22    1    3    3    0    0 -0.42017816691E+02  0.39970132792E+02 -0.30984482033E+02  0.65750639250E+02  0.00000000000E+00 0.  1.
</event>
<event>
 7    1  0.5993218E-006  0.9124584E+02  0.7818608E-02  0.1412539E+00
          2   -1    0    0  502    0  0.00000000000E+00  0.00000000000E+00  0.65127787224E+03  0.65127787224E+03  0.00000000000E+00 0. -1.
          1   -1    0    0  501    0 -0.00000000000E+00 -0.00000000000E+00 -0.94915683716E+03  0.94915683716E+03  0.00000000000E+00 0. -1.
         25    2    1    2    0    0 -0.90986730461E+02 -0.54723244429E+02  0.17061202796E+03  0.23665729327E+03  0.12499996709E+03 0.  0.
          2    1    1    2  501    0  0.32472131454E+02 -0.13450617106E+02 -0.91128416042E+03  0.91196172039E+03  0.00000000000E+00 0. -1.
          1    1    1    2  502    0  0.58514599007E+02  0.68173861535E+02  0.44279316754E+03  0.45181569574E+03  0.00000000000E+00 0. -1.
         22    1    3    3    0    0  0.14583323168E+02  0.16025660739E+02 -0.26020297159E+01  0.21823511985E+02  0.00000000000E+00 0. -1.
         22    1    3    3    0    0 -0.10557005363E+03 -0.70748905168E+02  0.17321405767E+03  0.21483378128E+03  0.00000000000E+00 0. -1.
</event>
<event>
 7    1  0.5993218E-006  0.9311162E+02  0.7818608E-02  0.1360902E+00
          2   -1    0    0  502    0  0.00000000000E+00  0.00000000000E+00  0.69008347868E+03  0.69008347868E+03  0.00000000000E+00 0. -1.
          1   -1    0    0  501    0 -0.00000000000E+00 -0.00000000000E+00 -0.63132149355E+03  0.63132149355E+03  0.00000000000E+00 0. -1.
         25    2    1    2    0    0  0.45858888866E+02 -0.11175360457E+03 -0.27712701911E+03  0.32713581000E+03  0.12500619041E+03 0.  0.
          2    1    1    2  501    0 -0.62576403561E+02  0.62230383733E+02 -0.32222036235E+03  0.33408739703E+03  0.00000000000E+00 0. -1.
          1    1    1    2  502    0  0.16717514696E+02  0.49523220840E+02  0.65810936660E+03  0.66018176520E+03  0.00000000000E+00 0. -1.
         22    1    3    3    0    0  0.79346455879E+02 -0.75997540517E+02 -0.12070194894E+03  0.16321901453E+03  0.00000000000E+00 0. -1.
         22    1    3    3    0    0 -0.33487567013E+02 -0.35756064056E+02 -0.15642507017E+03  0.16391679547E+03  0.00000000000E+00 0. -1.
</event>
<event>
 7    1  0.5993218E-006  0.1156347E+03  0.7818608E-02  0.1344092E+00
          2   -1    0    0  502    0  0.00000000000E+00  0.00000000000E+00  0.24391244527E+02  0.24391244527E+02  0.00000000000E+00 0. -1.
          1   -1    0    0  501    0 -0.00000000000E+00 -0.00000000000E+00 -0.14388104707E+04  0.14388104707E+04  0.00000000000E+00 0. -1.
         25    2    1    2    0    0  0.81898027012E+02  0.76768146684E+01 -0.44872981836E+03  0.47302202749E+03  0.12500067316E+03 0.  0.
          2    1    1    2  501    0 -0.12485845382E+03 -0.30297689609E+02 -0.89646960560E+03  0.90562980144E+03  0.00000000000E+00 0. -1.
          1    1    1    2  502    0  0.42960426813E+02  0.22620874941E+02 -0.69219802210E+02  0.84549886298E+02  0.00000000000E+00 0. -1.
         22    1    3    3    0    0  0.47396721150E+02 -0.57265525697E+02 -0.18934066797E+03  0.20341012304E+03  0.00000000000E+00 0.  1.
         22    1    3    3    0    0  0.34501305862E+02  0.64942340365E+02 -0.25938915039E+03  0.26961190445E+03  0.00000000000E+00 0.  1.
</event>
<event>
 7    1  0.5993218E-006  0.9718601E+02  0.7818608E-02  0.1385176E+00
          2   -1    0    0  502    0  0.00000000000E+00  0.00000000000E+00  0.19957830386E+03  0.19957830386E+03  0.00000000000E+00 0. -1.
          1   -1    0    0  501    0 -0.00000000000E+00 -0.00000000000E+00 -0.17301083483E+04  0.17301083483E+04  0.00000000000E+00 0. -1.
         25    2    1    2    0    0 -0.12121425959E+03  0.54761275779E+02 -0.48229696362E+03  0.51566897435E+03  0.12494973363E+03 0.  0.
          2    1    1    2  501    0  0.40971126298E+02 -0.14890897645E+01 -0.12180757337E+04  0.12187654999E+04  0.00000000000E+00 0. -1.
          1    1    1    2  502    0  0.80243133292E+02 -0.53272186014E+02  0.16984265291E+03  0.19525217794E+03  0.00000000000E+00 0. -1.
         22    1    3    3    0    0  0.13965863429E+02 -0.21081124728E+02 -0.43709954553E+02  0.50497715673E+02  0.00000000000E+00 0. -1.
         22    1    3    3    0    0 -0.13518012302E+03  0.75842400507E+02 -0.43858700907E+03  0.46517125868E+03  0.00000000000E+00 0. -1.
</event>
<event>
 7    1  0.5993218E-006  0.5877770E+02  0.7818608E-02  0.1458447E+00
          2   -1    0    0  502    0  0.00000000000E+00  0.00000000000E+00  0.36003857225E+03  0.36003857225E+03  0.00000000000E+00 0. -1.
          1   -1    0    0  501    0 -0.00000000000E+00 -0.00000000000E+00 -0.32950640812E+03  0.32950640812E+03  0.00000000000E+00 0. -1.
         25    2    1    2    0    0  0.11364503848E+02 -0.63131519848E+02  0.85654244855E+02  0.16454809938E+03  0.12499874640E+03 0.  0.
          2    1    1    2  501    0  0.31609718613E+02  0.22203398195E+02 -0.28498786938E+03  0.28759389927E+03  0.00000000000E+00 0. -1.
          1    1    1    2  502    0 -0.42974222461E+02  0.40928121653E+02  0.22986578865E+03  0.23740298172E+03  0.00000000000E+00 0. -1.
         22    1    3    3    0    0  0.34531384469E+02 -0.56444702011E+02  0.11121363981E+03  0.12940979320E+03  0.00000000000E+00 0. -1.
         22    1    3    3    0    0 -0.23166880620E+02 -0.66868178371E+01 -0.25559394950E+02  0.35138306173E+02  0.00000000000E+00 0. -1.
</event>
<event>
 7    1  0.5993218E-006  0.1064614E+03  0.7818608E-02  0.1392446E+00
          2   -1    0    0  502    0  0.00000000000E+00  0.00000000000E+00  0.98204239687E+03  0.98204239687E+03  0.00000000000E+00 0. -1.
          1   -1    0    0  501    0 -0.00000000000E+00 -0.00000000000E+00 -0.77412677814E+03  0.77412677814E+03  0.00000000000E+00 0. -1.
         25    2    1    2    0    0 -0.38898589024E+02 -0.61510722224E+02 -0.44407594853E+03  0.46703899655E+03  0.12500122822E+03 0.  0.
          2    1    1    2  501    0 -0.27807421941E+02 -0.21743156791E+02 -0.31464788100E+03  0.31662170898E+03  0.00000000000E+00 0. -1.
          1    1    1    2  502    0  0.66706010964E+02  0.83253879014E+02  0.96663944826E+03  0.97250846947E+03  0.00000000000E+00 0. -1.
         22    1    3    3    0    0  0.37032202787E+02 -0.45087272227E+01 -0.54398562271E+02  0.65961475435E+02  0.00000000000E+00 0. -1.
         22    1    3    3    0    0 -0.75930791811E+02 -0.57001995001E+02 -0.38967738626E+03  0.40107752111E+03  0.00000000000E+00 0. -1.
</event>
<event>
 7    1  0.5993218E-006  0.1575838E+03  0.7818608E-02  0.1351471E+00
          2   -1    0    0  502    0  0.00000000000E+00  0.00000000000E+00  0.49656461750E+02  0.49656461750E+02  0.00000000000E+00 0. -1.
          1   -1    0    0  501    0 -0.00000000000E+00 -0.00000000000E+00 -0.14785930064E+04  0.14785930064E+04  0.00000000000E+00 0. -1.
         25    2    1    2    0    0 -0.86073623229E+02 -0.10407716345E+03 -0.88117240039E+03  0.90018380924E+03  0.12500146656E+03 0.  0.
          2    1    1    2  501    0 -0.32939027998E+02 -0.58041564302E+01 -0.42113749602E+03  0.42246355861E+03  0.00000000000E+00 0. -1.
          1    1    1    2  502    0  0.11901265123E+03  0.10988131988E+03 -0.12662664828E+03  0.20560210034E+03  0.00000000000E+00 0. -1.
         22    1    3    3    0    0 -0.95971250825E+02 -0.11335005029E+03 -0.87007267772E+03  0.88265801951E+03  0.00000000000E+00 0. -1.
         22    1    3    3    0    0  0.98976275959E+01  0.92728868404E+01 -0.11099722668E+02  0.17525789731E+02  0.00000000000E+00 0. -1.
</event>
<event>
 7    1  0.5993218E-006  0.1015193E+03  0.7818608E-02  0.1437544E+00
          2   -1    0    0  502    0  0.00000000000E+00  0.00000000000E+00  0.39843392569E+02  0.39843392569E+02  0.00000000000E+00 0. -1.
          1   -1    0    0  501    0 -0.00000000000E+00 -0.00000000000E+00 -0.13245319883E+04  0.13245319883E+04  0.00000000000E+00 0. -1.
         25    2    1    2    0    0  0.72165915674E+02 -0.88289597334E+02 -0.81896088985E+03  0.83625689719E+03  0.12500274638E+03 0.  0.
          2    1    1    2  501    0  0.61899207573E+01  0.25355587738E+02 -0.41448927962E+03  0.41531022606E+03  0.00000000000E+00 0. -1.
          1    1    1    2  502    0 -0.78355836431E+02  0.62934009596E+02 -0.51238426291E+02  0.11280825766E+03  0.00000000000E+00 0. -1.
         22    1    3    3    0    0  0.76188098189E+01 -0.29641769070E+02 -0.31277822196E+02  0.43760517570E+02  0.00000000000E+00 0.  1.
         22    1    3    3    0    0  0.64547105855E+02 -0.58647828264E+02 -0.78768306766E+03  0.79249637962E+03  0.00000000000E+00 0.  1.
</event>
<event>
 7    1  0.5993218E-006  0.4113512E+02  0.7818608E-02  0.1542802E+00
          2   -1    0    0  502    0  0.00000000000E+00  0.00000000000E+00  0.85894128172E+02  0.85894128172E+02  0.00000000000E+00 0. -1.
          1   -1    0    0  501    0 -0.00000000000E+00 -0.00000000000E+00 -0.39852091421E+03  0.39852091421E+03  0.00000000000E+00 0. -1.
         25    2    1    2    0    0  0.34713714077E+02 -0.48304347472E+02 -0.61450305582E+02  0.15146135772E+03  0.12500420351E+03 0.  0.
          2    1    1    2  501    0 -0.36844077484E+02  0.17461311123E+02 -0.28455251849E+03  0.28745872610E+03  0.00000000000E+00 0. -1.
          1    1    1    2  502    0  0.21303634068E+01  0.30843036349E+02  0.33376038036E+02  0.45494958561E+02  0.00000000000E+00 0. -1.
         22    1    3    3    0    0  0.59730687914E+02 -0.40525400251E+02 -0.88232704303E+02  0.11399593525E+03  0.00000000000E+00 0.  1.
         22    1    3    3    0    0 -0.25016973837E+02 -0.77789472210E+01  0.26782398721E+02  0.37465422473E+02  0.00000000000E+00 0.  1.
</event>
<event>
 7    1  0.5993218E-006  0.5663032E+03  0.7818608E-02  0.1205948E+00
          2   -1    0    0  502    0  0.00000000000E+00  0.00000000000E+00  0.14318194048E+04  0.14318194048E+04  0.00000000000E+00 0. -1.
          1   -1    0    0  501    0 -0.00000000000E+00 -0.00000000000E+00 -0.15841684829E+04  0.15841684829E+04  0.00000000000E+00 0. -1.
         25    2    1    2    0    0 -0.42767152439E+03  0.36041253978E+03 -0.24790440427E+03  0.62440490571E+03  0.12499904404E+03 0.  0.
          2    1    1    2  501    0 -0.29072726726E+02 -0.23606580223E+02 -0.10829294966E+04  0.10835768494E+04  0.00000000000E+00 0. -1.
          1    1    1    2  502    0  0.45674425112E+03 -0.33680595956E+03  0.11784848228E+04  0.13080061326E+04  0.00000000000E+00 0. -1.
         22    1    3    3    0    0 -0.50053680708E+02  0.72987640369E+02  0.10477891007E+01  0.88507990944E+02  0.00000000000E+00 0.  1.
         22    1    3    3    0    0 -0.37761784369E+03  0.28742489941E+03 -0.24895219337E+03  0.53589691477E+03  0.00000000000E+00 0.  1.
</event>
<event>
 7    1  0.5993218E-006  0.7960908E+02  0.7818608E-02  0.1355582E+00
          2   -1    0    0  502    0  0.00000000000E+00  0.00000000000E+00  0.67718785124E+03  0.67718785124E+03  0.00000000000E+00 0. -1.
          1   -1    0    0  501    0 -0.00000000000E+00 -0.00000000000E+00 -0.32420692781E+03  0.32420692781E+03  0.00000000000E+00 0. -1.
         25    2    1    2    0    0 -0.95168027863E+02 -0.76912420774E+02 -0.46999616915E+01  0.17498357248E+03  0.12499874800E+03 0.  0.
          2    1    1    2  501    0  0.75602906209E+02  0.16042725015E+02 -0.22620061128E+03  0.23903950510E+03  0.00000000000E+00 0. -1.
          1    1    1    2  502    0  0.19565121653E+02  0.60869695759E+02  0.58388149640E+03  0.58737170147E+03  0.00000000000E+00 0. -1.
         22    1    3    3    0    0 -0.69435590306E+02 -0.10814078435E+03 -0.23030519215E+02  0.13056084887E+03  0.00000000000E+00 0.  1.
         22    1    3    3    0    0 -0.25732437556E+02  0.31228363576E+02  0.18330557524E+02  0.44422723615E+02  0.00000000000E+00 0.  1.
</event>
<event>
 7    1  0.5993218E-006  0.1265302E+03  0.7818608E-02  0.1262124E+00
          2   -1    0    0  502    0  0.00000000000E+00  0.00000000000E+00  0.24282345797E+04  0.24282345797E+04  0.00000000000E+00 0. -1.
          1   -1    0    0  501    0 -0.00000000000E+00 -0.00000000000E+00 -0.30346196770E+03  0.30346196770E+03  0.00000000000E+00 0. -1.
         25    2    1    2    0    0  0.38471366910E+02  0.32491607520E+02  0.14615750253E+03  0.19880231829E+03  0.12499838231E+03 0.  0.
          2    1    1    2  501    0  0.13335147545E+01  0.94173583701E+02 -0.26712003204E+03  0.28323762752E+03  0.00000000000E+00 0. -1.
          1    1    1    2  502    0 -0.39804881665E+02 -0.12666519122E+03  0.22457351415E+04  0.22496566016E+04  0.00000000000E+00 0. -1.
         22    1    3    3    0    0  0.74393092029E+02  0.29180534569E+02  0.45681975981E+02  0.92047154594E+02  0.00000000000E+00 0. -1.
         22    1    3    3    0    0 -0.35921725119E+02  0.33110729517E+01  0.10047552655E+03  0.10675516369E+03  0.00000000000E+00 0. -1.
</event>
<event>
 7    1  0.5993218E-006  0.4922663E+02  0.7818608E-02  0.1477692E+00
          2   -1    0    0  502    0  0.00000000000E+00  0.00000000000E+00  0.45332831918E+03  0.45332831918E+03  0.00000000000E+00 0. -1.
          1   -1    0    0  501    0 -0.00000000000E+00 -0.00000000000E+00 -0.12875956831E+04  0.12875956831E+04  0.00000000000E+00 0. -1.
         25    2    1    2    0    0  0.33388982418E+02  0.82705032551E+02  0.72552701848E+02  0.16983384713E+03  0.12499877812E+03 0.  0.
          2    1    1    2  501    0 -0.19666237686E+02 -0.44952785838E+02 -0.12372525316E+04  0.12382250768E+04  0.00000000000E+00 0. -1.
          1    1    1    2  502    0 -0.13722744731E+02 -0.37752246713E+02  0.33043246587E+03  0.33286507830E+03  0.00000000000E+00 0. -1.
         22    1    3    3    0    0  0.33950856209E+02  0.28267613850E+02 -0.30224991090E+02  0.53528204869E+02  0.00000000000E+00 0. -1.
         22    1    3    3    0    0 -0.56187379149E+00  0.54437418701E+02  0.10277769294E+03  0.11630564226E+03  0.00000000000E+00 0. -1.
</event>
<event>
 7    1  0.5993218E-006  0.1115560E+03  0.7818608E-02  0.1426563E+00
          2   -1    0    0  502    0  0.00000000000E+00  0.00000000000E+00  0.20123999218E+04  0.20123999218E+04  0.00000000000E+00 0. -1.
          1   -1    0    0  501    0 -0.00000000000E+00 -0.00000000000E+00 -0.41898489489E+02  0.41898489489E+02  0.00000000000E+00 0. -1.
         25    2    1    2    0    0 -0.59943320801E+02 -0.10770567368E+03  0.42036246403E+03  0.45554742185E+03  0.12500055415E+03 0.  0.
          2    1    1    2  501    0  0.25668813223E+02  0.26719667472E+01 -0.14911395188E+02  0.29805655253E+02  0.00000000000E+00 0. -1.
          1    1    1    2  502    0  0.34274507578E+02  0.10503370694E+03  0.15650503635E+04  0.15689453342E+04  0.00000000000E+00 0. -1.
         22    1    3    3    0    0 -0.78932171197E+02 -0.12619911634E+03  0.36421302525E+03  0.39345601072E+03  0.00000000000E+00 0. -1.
         22    1    3    3    0    0  0.18988850396E+02  0.18493442653E+02  0.56149438783E+02  0.62091411131E+02  0.00000000000E+00 0. -1.
</event>
<event>
 7    1  0.5993218E-006  0.8162187E+02  0.7818608E-02  0.1374348E+00
          2   -1    0    0  502    0  0.00000000000E+00  0.00000000000E+00  0.95578587143E+03  0.95578587143E+03  0.00000000000E+00 0. -1.
          1   -1    0    0  501    0 -0.00000000000E+00 -0.00000000000E+00 -0.10999266533E+04  0.10999266533E+04  0.00000000000E+00 0. -1.
         25    2    1    2    0    0 -0.38741169244E+02  0.66279902107E+01 -0.16168326299E+02  0.13202918437E+03  0.12500192920E+03 0.  0.
          2    1    1    2  501    0  0.62905249046E+02 -0.54163499001E+02 -0.10233540427E+04  0.10267152729E+04  0.00000000000E+00 0. -1.
          1    1    1    2  502    0 -0.24164079802E+02  0.47535508791E+02  0.89538158714E+03  0.89696806740E+03  0.00000000000E+00 0. -1.
         22    1    3    3    0    0 -0.34261217568E+02 -0.37587073381E+02 -0.53625830281E+02  0.73907704523E+02  0.00000000000E+00 0.  1.
         22    1    3    3    0    0 -0.44799516768E+01  0.44215063592E+02  0.37457503982E+02  0.58121479851E+02  0.00000000000E+00 0.  1.
</event>
<event>
 7    1  0.5993218E-006  0.4656683E+02  0.7818608E-02  0.1516213E+00
          2   -1    0    0  502    0  0.00000000000E+00  0.00000000000E+00  0.26347882792E+02  0.26347882792E+02  0.00000000000E+00 0. -1.
          1   -1    0    0  501    0 -0.00000000000E+00 -0.00000000000E+00 -0.16685237804E+04  0.16685237804E+04  0.00000000000E+00 0. -1.
         25    2    1    2    0    0 -0.69374627289E+02 -0.21980385837E+02 -0.40733753282E+03  0.43225541105E+03  0.12499959385E+03 0.  0.
          2    1    1    2  501    0  0.24858830837E+02  0.21013946735E+02 -0.12122520502E+04  0.12126889876E+04  0.00000000000E+00 0. -1.
          1    1    1    2  502    0  0.44515796452E+02  0.96643910184E+00 -0.22586314584E+02  0.49927264543E+02  0.00000000000E+00 0. -1.
         22    1    3    3    0    0 -0.41383625731E+01  0.46415786214E+02 -0.18256247371E+03  0.18841605043E+03  0.00000000000E+00 0. -1.
         22    1    3    3    0    0 -0.65236264716E+02 -0.68396172051E+02 -0.22477505912E+03  0.24383936062E+03  0.00000000000E+00 0. -1.
</event>
<event>
 7    1  0.5993218E-006  0.8221552E+02  0.7818608E-02  0.1448502E+00
          2   -1    0    0  502    0  0.00000000000E+00  0.00000000000E+00  0.55937619132E+03  0.55937619132E+03  0.00000000000E+00 0. -1.
          1   -1    0    0  501    0 -0.00000000000E+00 -0.00000000000E+00 -0.30430641289E+03  0.30430641289E+03  0.00000000000E+00 0. -1.
         25    2    1    2    0    0 -0.98744785273E+02  0.49589181961E+02 -0.45125108318E+02  0.17283264381E+03  0.12500091111E+03 0.  0.
          2    1    1    2  501    0  0.23966546041E+02 -0.17549862850E+02 -0.19083165806E+03  0.19312978728E+03  0.00000000000E+00 0. -1.
          1    1    1    2  502    0  0.74778239232E+02 -0.32039319111E+02  0.49102654481E+03  0.49772017313E+03  0.00000000000E+00 0. -1.
         22    1    3    3    0    0 -0.86560990757E+02 -0.22945391074E+02 -0.65750103143E+01  0.89791574510E+02  0.00000000000E+00 0.  1.
         22    1    3    3    0    0 -0.12183794516E+02  0.72534573036E+02 -0.38550098004E+02  0.83041069299E+02  0.00000000000E+00 0.  1.
</event>
<event>
 7    1  0.5993218E-006  0.1184462E+03  0.7818608E-02  0.1299332E+00
          2   -1    0    0  502    0  0.00000000000E+00  0.00000000000E+00  0.74963724215E+03  0.74963724215E+03  0.00000000000E+00 0. -1.
          1   -1    0    0  501    0 -0.00000000000E+00 -0.00000000000E+00 -0.10162901498E+03  0.10162901498E+03  0.00000000000E+00 0. -1.
         25    2    1    2    0    0  0.45356159562E+00  0.12329106551E+03  0.27315846162E+03  0.32472029772E+03  0.12500733597E+03 0.  0.
          2    1    1    2  501    0 -0.67197486939E+02 -0.10016532893E+03 -0.22729543591E+02  0.12274048852E+03  0.00000000000E+00 0. -1.
          1    1    1    2  502    0  0.66743925343E+02 -0.23125736571E+02  0.39757930914E+03  0.40380547089E+03  0.00000000000E+00 0. -1.
         22    1    3    3    0    0 -0.25706955952E+02  0.45989322949E+02  0.22253207309E+03  0.22868403740E+03  0.00000000000E+00 0.  1.
         22    1    3    3    0    0  0.26160517548E+02  0.77301742556E+02  0.50626388531E+02  0.96036260320E+02  0.00000000000E+00 0.  1.
</event>
<event>
 7    1  0.5993218E-006  0.5113370E+02  0.7818608E-02  0.1491050E+00
          2   -1    0    0  502    0  0.00000000000E+00  0.00000000000E+00  0.13175685155E+03  0.13175685155E+03  0.00000000000E+00 0. -1.
          1   -1    0    0  501    0 -0.00000000000E+00 -0.00000000000E+00 -0.31187392701E+04  0.31187392701E+04  0.00000000000E+00 0. -1.
         25    2    1    2    0    0  0.12303607268E+02  0.74924854376E+02 -0.12748579320E+04  0.12832206942E+04  0.12500996241E+03 0.  0.
          2    1    1    2  501    0 -0.24452613191E+02 -0.25332565126E+02 -0.18344155248E+04  0.18347533858E+04  0.00000000000E+00 0. -1.
          1    1    1    2  502    0  0.12149005923E+02 -0.49592289251E+02  0.12229103821E+03  0.13252204166E+03  0.00000000000E+00 0. -1.
         22    1    3    3    0    0  0.22047607196E+02 -0.11465978982E+02 -0.80523194373E+03  0.80561532313E+03  0.00000000000E+00 0. -1.
         22    1    3    3    0    0 -0.97439999285E+01  0.86390833358E+02 -0.46962598823E+03  0.47760537104E+03  0.00000000000E+00 0. -1.
</event>
<event>
 7    1  0.5993218E-006  0.1399241E+03  0.7818608E-02  0.1267204E+00
          2   -1    0    0  502    0  0.00000000000E+00  0.00000000000E+00  0.25839445605E+03  0.25839445605E+03  0.00000000000E+00 0. -1.
          1   -1    0    0  501    0 -0.00000000000E+00 -0.00000000000E+00 -0.22718790293E+04  0.22718790293E+04  0.00000000000E+00 0. -1.
         25    2    1    2    0    0  0.13192266612E+03 -0.12738631082E+03 -0.27550161502E+03  0.35377438505E+03  0.12499725443E+03 0.  0.
          2    1    1    2  501    0 -0.13014547613E+03  0.46355035361E+02 -0.19472187634E+04  0.19521136101E+04  0.00000000000E+00 0. -1.
          1    1    1    2  502    0 -0.17771899890E+01  0.81031275455E+02  0.20923580521E+03  0.22438549015E+03  0.00000000000E+00 0. -1.
         22    1    3    3    0    0  0.11714344696E+03 -0.79981014142E+02 -0.26845100179E+03  0.30362063525E+03  0.00000000000E+00 0.  1.
         22    1    3    3    0    0  0.14779219161E+02 -0.47405296674E+02 -0.70506132373E+01  0.50153749797E+02  0.00000000000E+00 0.  1.
</event>
<event>
 7    1  0.5993218E-006  0.2291336E+03  0.7818608E-02  0.1154325E+00
          2   -1    0    0  502    0  0.00000000000E+00  0.00000000000E+00  0.15605113979E+04  0.15605113979E+04  0.00000000000E+00 0. -1.
          1   -1    0    0  501    0 -0.00000000000E+00 -0.00000000000E+00 -0.73209504072E+03  0.73209504072E+03  0.00000000000E+00 0. -1.
         25    2    1    2    0    0  0.26298282111E+03 -0.65448004612E+02  0.38940309879E+02  0.30098165430E+03  0.12502081021E+03 0.  0.
          2    1    1    2  501    0 -0.21105282826E+03 -0.91559008105E+02 -0.57388011360E+03  0.61827561254E+03  0.00000000000E+00 0. -1.
          1    1    1    2  502    0 -0.51929992843E+02  0.15700701272E+03  0.13633561609E+04  0.13733491718E+04  0.00000000000E+00 0. -1.
         22    1    3    3    0    0  0.25833219789E+03 -0.82314688120E+02  0.55657107965E+02  0.27678321123E+03  0.00000000000E+00 0. -1.
         22    1    3    3    0    0  0.46506232111E+01  0.16866683508E+02 -0.16716798086E+02  0.24198443071E+02  0.00000000000E+00 0. -1.
</event>
<event>
 7    1  0.5993218E-006  0.1259377E+03  0.7818608E-02  0.1291256E+00
          2   -1    0    0  502    0  0.00000000000E+00  0.00000000000E+00  0.90453608408E+03  0.90453608408E+03  0.00000000000E+00 0. -1.
          1   -1    0    0  501    0 -0.00000000000E+00 -0.00000000000E+00 -0.13015026400E+03  0.13015026400E+03  0.00000000000E+00 0. -1.
         25    2    1    2    0    0 -0.12586589052E+03  0.38577395457E+02  0.85065557660E+02  0.20047567634E+03  0.12499563939E+03 0.  0.
          2    1    1    2  501    0  0.12515493989E+03  0.33027836767E+02 -0.11307930658E+02  0.12993254510E+03  0.00000000000E+00 0. -1.
          1    1    1    2  502    0  0.71095062663E+00 -0.71605232224E+02  0.70062819307E+03  0.70427812664E+03  0.00000000000E+00 0. -1.
         22    1    3    3    0    0 -0.10398402543E+01 -0.26537874812E+02 -0.12330672751E+02  0.29281146798E+02  0.00000000000E+00 0.  1.
         22    1    3    3    0    0 -0.12482605026E+03  0.65115270269E+02  0.97396230411E+02  0.17119452954E+03  0.00000000000E+00 0.  1.
</event>
<event>
 7    1  0.5993218E-006  0.8610062E+02  0.7818608E-02  0.1406190E+00
          2   -1    0    0  502    0  0.00000000000E+00  0.00000000000E+00  0.57214545399E+03  0.57214545399E+03  0.00000000000E+00 0. -1.
          1   -1    0    0  501    0 -0.00000000000E+00 -0.00000000000E+00 -0.81169957456E+03  0.81169957456E+03  0.00000000000E+00 0. -1.
         25    2    1    2    0    0  0.56125648370E+02  0.61858525250E+02  0.71367727951E+02  0.16641334559E+03  0.12499393364E+03 0.  0.
          2    1    1    2  501    0 -0.80487656091E+02 -0.31222502348E+02 -0.76088615678E+03  0.76576814443E+03  0.00000000000E+00 0. -1.
          1    1    1    2  502    0  0.24362007721E+02 -0.30636022902E+02  0.44996430827E+03  0.45166353853E+03  0.00000000000E+00 0. -1.
         22    1    3    3    0    0 -0.20532882465E+02  0.62147556401E+02  0.61037448586E+01  0.65735635162E+02  0.00000000000E+00 0.  1.
         22    1    3    3    0    0  0.76658530834E+02 -0.28903115076E+00  0.65263983093E+02  0.10067771043E+03  0.00000000000E+00 0.  1.
</event>
<event>
 7    1  0.5993218E-006  0.4246183E+02  0.7818608E-02  0.1546605E+00
          2   -1    0    0  502    0  0.00000000000E+00  0.00000000000E+00  0.14324827893E+02  0.14324827893E+02  0.00000000000E+00 0. -1.
          1   -1    0    0  501    0 -0.00000000000E+00 -0.00000000000E+00 -0.21020486991E+04  0.21020486991E+04  0.00000000000E+00 0. -1.
         25    2    1    2    0    0 -0.70379210373E+02  0.17839416428E+01 -0.11274968207E+04  0.11365881339E+04  0.12500835856E+03 0.  0.
          2    1    1    2  501    0  0.29043498919E+02 -0.32325966007E+01 -0.92498430551E+03  0.92544580606E+03  0.00000000000E+00 0. -1.
          1    1    1    2  502    0  0.41335711454E+02  0.14486549579E+01 -0.35242744925E+02  0.54339586974E+02  0.00000000000E+00 0. -1.
         22    1    3    3    0    0  0.13801274919E+02 -0.70974813735E+00 -0.13191485750E+02  0.19104822116E+02  0.00000000000E+00 0. -1.
         22    1    3    3    0    0 -0.84180485292E+02  0.24936897802E+01 -0.11143053350E+04  0.11174833118E+04  0.00000000000E+00 0. -1.
</event>
<event>
 7    1  0.5993218E-006  0.5966276E+02  0.7818608E-02  0.1487963E+00
          2   -1    0    0  502    0  0.00000000000E+00  0.00000000000E+00  0.33008096873E+03  0.33008096873E+03  0.00000000000E+00 0. -1.
          1   -1    0    0  501    0 -0.00000000000E+00 -0.00000000000E+00 -0.30497422933E+03  0.30497422933E+03  0.00000000000E+00 0. -1.
         25    2    1    2    0    0  0.31989597929E+02 -0.83812245494E+02 -0.10287609890E+03  0.18508489664E+03  0.12500040147E+03 0.  0.
          2    1    1    2  501    0 -0.13292743470E+02  0.27819383726E+02 -0.15645871165E+03  0.15946768823E+03  0.00000000000E+00 0. -1.
          1    1    1    2  502    0 -0.18696854460E+02  0.55992861768E+02  0.28444154995E+03  0.29050261319E+03  0.00000000000E+00 0. -1.
         22    1    3    3    0    0 -0.28061448637E+02  0.17555565652E+02 -0.86277973778E+01  0.34206456592E+02  0.00000000000E+00 0.  1.
         22    1    3    3    0    0  0.60051046567E+02 -0.10136781115E+03 -0.94248301522E+02  0.15087844004E+03  0.00000000000E+00 0.  1.
</event>
<event>
 7    1  0.5993218E-006  0.6366170E+02  0.7818608E-02  0.1446107E+00
          2   -1    0    0  502    0  0.00000000000E+00  0.00000000000E+00  0.63868297361E+03  0.63868297361E+03  0.00000000000E+00 0. -1.
          1   -1    0    0  501    0 -0.00000000000E+00 -0.00000000000E+00 -0.44003593442E+03  0.44003593442E+03  0.00000000000E+00 0. -1.
         25    2    1    2    0    0 -0.62743699424E+02 -0.31362129787E+02 -0.77840625289E+02  0.16310932396E+03  0.12500053445E+03 0.  0.
          2    1    1    2  501    0  0.31985797477E+02  0.55418035859E+02 -0.31570849462E+03  0.32212746470E+03  0.00000000000E+00 0. -1.
          1    1    1    2  502    0  0.30757901947E+02 -0.24055906072E+02  0.59219615911E+03  0.59348211937E+03  0.00000000000E+00 0. -1.
         22    1    3    3    0    0  0.23893064530E+02  0.26850907440E+02 -0.35354349592E+02  0.50416066864E+02  0.00000000000E+00 0. -1.
         22    1    3    3    0    0 -0.86636763954E+02 -0.58213037227E+02 -0.42486275697E+02  0.11269325709E+03  0.00000000000E+00 0. -1.
</event>
<event>
 7    1  0.5993218E-006  0.9900509E+02  0.7818608E-02  0.1380310E+00
          2   -1    0    0  502    0  0.00000000000E+00  0.00000000000E+00  0.78671723400E+03  0.78671723400E+03  0.00000000000E+00 0. -1.
          1   -1    0    0  501    0 -0.00000000000E+00 -0.00000000000E+00 -0.92014906125E+03  0.92014906125E+03  0.00000000000E+00 0. -1.
         25    2    1    2    0    0 -0.90288617494E+02  0.52522261335E+01  0.45210192480E+03  0.47770263282E+03  0.12499613860E+03 0.  0.
          2    1    1    2  501    0 -0.12020151716E+02 -0.40104793146E+02 -0.89777215090E+03  0.89874785864E+03  0.00000000000E+00 0. -1.
          1    1    1    2  502    0  0.10230876921E+03  0.34852567013E+02  0.31223839885E+03  0.33041580380E+03  0.00000000000E+00 0. -1.
         22    1    3    3    0    0 -0.10889723641E+03  0.25442737401E+02  0.42365373555E+03  0.43816484185E+03  0.00000000000E+00 0. -1.
         22    1    3    3    0    0  0.18608618919E+02 -0.20190511268E+02  0.28448189248E+02  0.39537790970E+02  0.00000000000E+00 0. -1.
</event>
<event>
 7    1  0.5993218E-006  0.1308765E+03  0.7818608E-02  0.1394643E+00
          2   -1    0    0  502    0  0.00000000000E+00  0.00000000000E+00  0.35145332539E+04  0.35145332539E+04  0.00000000000E+00 0. -1.
          1   -1    0    0  501    0 -0.00000000000E+00 -0.00000000000E+00 -0.14721923083E+02  0.14721923083E+02  0.00000000000E+00 0. -1.
         25    2    1    2    0    0 -0.46918246384E+02 -0.10019438449E+03  0.19264959258E+04  0.19337147044E+04  0.12500307744E+03 0.  0.
          2    1    1    2  501    0  0.70601646509E+02  0.11552841187E+03  0.40789723210E+03  0.42978082600E+03  0.00000000000E+00 0. -1.
          1    1    1    2  502    0 -0.23683400125E+02 -0.15334027381E+02  0.11654181730E+04  0.11657596467E+04  0.00000000000E+00 0. -1.
         22    1    3    3    0    0 -0.23953288934E+02 -0.11887675771E+03  0.10954448094E+04  0.11021364589E+04  0.00000000000E+00 0. -1.
         22    1    3    3    0    0 -0.22964957450E+02  0.18682373214E+02  0.83105111631E+03  0.83157824543E+03  0.00000000000E+00 0. -1.
</event>
<event>
 7    1  0.5993218E-006  0.1514645E+03  0.7818608E-02  0.1331274E+00
          2   -1    0    0  502    0  0.00000000000E+00  0.00000000000E+00  0.15617699373E+04  0.15617699373E+04  0.00000000000E+00 0. -1.
          1   -1    0    0  501    0 -0.00000000000E+00 -0.00000000000E+00 -0.94843821044E+03  0.94843821044E+03  0.00000000000E+00 0. -1.
         25    2    1    2    0    0 -0.12475414891E+03  0.69232344714E+02  0.54574598053E+03  0.57777324826E+03  0.12500614350E+03 0.  0.
          2    1    1    2  501    0 -0.26842742658E+02 -0.31566128199E+02 -0.92585834197E+03  0.92678510060E+03  0.00000000000E+00 0. -1.
          1    1    1    2  502    0  0.15159689157E+03 -0.37666216515E+02  0.99344408831E+03  0.10056497989E+04  0.00000000000E+00 0. -1.
         22    1    3    3    0    0 -0.56540019400E+01  0.11575777185E+02  0.28576754514E+03  0.28605778474E+03  0.00000000000E+00 0. -1.
         22    1    3    3    0    0 -0.11910014697E+03  0.57656567529E+02  0.25997843539E+03  0.29171546352E+03  0.00000000000E+00 0. -1.
</event>
<event>
 7    1  0.5993218E-006  0.6801961E+02  0.7818608E-02  0.1396940E+00
          2   -1    0    0  502    0  0.00000000000E+00  0.00000000000E+00  0.56246060191E+03  0.56246060191E+03  0.00000000000E+00 0. -1.
          1   -1    0    0  501    0 -0.00000000000E+00 -0.00000000000E+00 -0.36376940428E+02  0.36376940428E+02  0.00000000000E+00 0. -1.
         25    2    1    2    0    0 -0.81956953628E+02 -0.13237015009E+02  0.20020706197E+03  0.25020054324E+03  0.12500113343E+03 0.  0.
          2    1    1    2  501    0  0.43032984455E+02  0.49652262001E+02  0.13032818836E+03  0.14595417621E+03  0.00000000000E+00 0. -1.
          1    1    1    2  502    0  0.38923969172E+02 -0.36415246992E+02  0.19554841115E+03  0.20268282289E+03  0.00000000000E+00 0. -1.
         22    1    3    3    0    0 -0.24697912579E+02  0.54965349119E+02  0.68752962701E+02  0.91422898498E+02  0.00000000000E+00 0. -1.
         22    1    3    3    0    0 -0.57259041049E+02 -0.68202364128E+02  0.13145409927E+03  0.15877764474E+03  0.00000000000E+00 0. -1.
</event>
<event>
 7    1  0.5993218E-006  0.9509986E+02  0.7818608E-02  0.1373613E+00
          2   -1    0    0  502    0  0.00000000000E+00  0.00000000000E+00  0.17458810059E+04  0.17458810059E+04  0.00000000000E+00 0. -1.
          1   -1    0    0  501    0 -0.00000000000E+00 -0.00000000000E+00 -0.32987155791E+03  0.32987155791E+03  0.00000000000E+00 0. -1.
         25    2    1    2    0    0 -0.54628687659E+02  0.76565570539E+02 -0.40418281299E+02  0.16157059292E+03  0.12499935570E+03 0.  0.
          2    1    1    2  501    0  0.12892212620E+02 -0.96012667382E+02 -0.21829575834E+03  0.23882562583E+03  0.00000000000E+00 0. -1.
          1    1    1    2  502    0  0.41736475039E+02  0.19447096843E+02  0.16747234877E+04  0.16753563451E+04  0.00000000000E+00 0. -1.
         22    1    3    3    0    0  0.10027294244E+02 -0.67515457760E+00 -0.58391201361E+02  0.59249766750E+02  0.00000000000E+00 0.  1.
         22    1    3    3    0    0 -0.64655981904E+02  0.77240725117E+02  0.17972920062E+02  0.10232082617E+03  0.00000000000E+00 0.  1.
</event>
<event>
 7    1  0.6503463E-006  0.3695994E+02  0.7818608E-02  0.1537065E+00
          2   -1    0    0  502    0  0.00000000000E+00  0.00000000000E+00  0.14212932404E+04  0.14212932404E+04  0.00000000000E+00 0. -1.
          1   -1    0    0  501    0 -0.00000000000E+00 -0.00000000000E+00 -0.84940407904E+03  0.84940407904E+03  0.00000000000E+00 0. -1.
         25    2    1    2    0    0  0.30002829774E+01  0.71444277459E+01 -0.34595886411E+03  0.36793590760E+03  0.12501700644E+03 0.  0.
          2    1    1    2  501    0  0.33675527062E+02 -0.11906381815E+02 -0.49156612604E+03  0.49286210985E+03  0.00000000000E+00 0. -1.
          1    1    1    2  502    0 -0.36675810039E+02  0.47619540690E+01  0.14094141516E+04  0.14098993020E+04  0.00000000000E+00 0. -1.
         22    1    3    3    0    0  0.46168900207E+02 -0.25328209628E+02 -0.74976254826E+02  0.91621636839E+02  0.00000000000E+00 0.  1.
         22    1    3    3    0    0 -0.43168617230E+02  0.32472637374E+02 -0.27098260929E+03  0.27631427076E+03  0.00000000000E+00 0.  1.
</event>
<event>
 7    1  0.5993218E-006  0.8739832E+02  0.7818608E-02  0.1420772E+00
          2   -1    0    0  502    0  0.00000000000E+00  0.00000000000E+00  0.84562009488E+03  0.84562009488E+03  0.00000000000E+00 0. -1.
          1   -1    0    0  501    0 -0.00000000000E+00 -0.00000000000E+00 -0.43599409741E+04  0.43599409741E+04  0.00000000000E+00 0. -1.
         25    2    1    2    0    0 -0.66077489191E+02  0.10075037953E+03 -0.35269734196E+04  0.35312438766E+04  0.12499975927E+03 0.  0.
          2    1    1    2  501    0  0.11632891683E+02 -0.32408587407E+02 -0.82821074977E+03  0.82892622515E+03  0.00000000000E+00 0. -1.
          1    1    1    2  502    0  0.54444597509E+02 -0.68341792125E+02  0.84086329016E+03  0.84539096724E+03  0.00000000000E+00 0. -1.
         22    1    3    3    0    0  0.21795186619E+02  0.18586882973E+02 -0.19432146655E+03  0.19642131946E+03  0.00000000000E+00 0. -1.
         22    1    3    3    0    0 -0.87872675810E+02  0.82163496559E+02 -0.33326519531E+04  0.33348225572E+04  0.00000000000E+00 0. -1.
</event>
<event>
 7    1  0.5993218E-006  0.2874707E+03  0.7818608E-02  0.1268430E+00
          2   -1    0    0  502    0  0.00000000000E+00  0.00000000000E+00  0.83981343613E+03  0.83981343613E+03  0.00000000000E+00 0. -1.
          1   -1    0    0  501    0 -0.00000000000E+00 -0.00000000000E+00 -0.14133427861E+03  0.14133427861E+03  0.00000000000E+00 0. -1.
         25    2    1    2    0    0  0.10672708329E+03 -0.27233488299E+03  0.33933189167E+03  0.46511093171E+03  0.12500034918E+03 0.  0.
          2    1    1    2  501    0 -0.13824819784E+03  0.24939583962E+03  0.19047089630E+03  0.34291399996E+03  0.00000000000E+00 0. -1.
          1    1    1    2  502    0  0.31521114552E+02  0.22939043364E+02  0.16867636955E+03  0.17312278307E+03  0.00000000000E+00 0. -1.
         22    1    3    3    0    0 -0.26105285924E+02 -0.26006189561E+02  0.54579809396E+02  0.65854107255E+02  0.00000000000E+00 0. -1.
         22    1    3    3    0    0  0.13283236922E+03 -0.24632869343E+03  0.28475208227E+03  0.39925682446E+03  0.00000000000E+00 0. -1.
</event>
<event>
 7    1  0.5993218E-006  0.8231653E+02  0.7818608E-02  0.1416563E+00
          2   -1    0    0  502    0  0.00000000000E+00  0.00000000000E+00  0.68982083842E+03  0.68982083842E+03  0.00000000000E+00 0. -1.
          1   -1    0    0  501    0 -0.00000000000E+00 -0.00000000000E+00 -0.78776331665E+03  0.78776331665E+03  0.00000000000E+00 0. -1.
         25    2    1    2    0    0 -0.22826656425E+02 -0.10168444800E+03 -0.10225874810E+03  0.19220557743E+03  0.12500139688E+03 0.  0.
          2    1    1    2  501    0  0.42436051914E+02  0.69411004457E+02 -0.63739051524E+03  0.64256157289E+03  0.00000000000E+00 0. -1.
          1    1    1    2  502    0 -0.19609395489E+02  0.32273443542E+02  0.64170678511E+03  0.64281700475E+03  0.00000000000E+00 0. -1.
         22    1    3    3    0    0  0.31367753944E+02  0.10531321119E+01  0.76379594880E+01  0.32301447334E+02  0.00000000000E+00 0. -1.
         22    1    3    3    0    0 -0.54194410369E+02 -0.10273758011E+03 -0.10989670759E+03  0.15990413009E+03  0.00000000000E+00 0. -1.
</event>
<event>
 7    1  0.5993218E-006  0.2496034E+03  0.7818608E-02  0.1267103E+00
          2   -1    0    0  502    0  0.00000000000E+00  0.00000000000E+00  0.47099552369E+03  0.47099552369E+03  0.00000000000E+00 0. -1.
          1   -1    0    0  501    0 -0.00000000000E+00 -0.00000000000E+00 -0.33287081421E+03  0.33287081421E+03  0.00000000000E+00 0. -1.
         25    2    1    2    0    0  0.15653354863E+03  0.19100840275E+03  0.31983153785E+03  0.42297074941E+03  0.12500032196E+03 0.  0.
          2    1    1    2  501    0 -0.27073641317E+02  0.36544320210E+02 -0.94631061163E+02  0.10499289086E+03  0.00000000000E+00 0. -1.
          1    1    1    2  502    0 -0.12945990731E+03 -0.22755272296E+03 -0.87075767200E+02  0.27590269764E+03  0.00000000000E+00 0. -1.
         22    1    3    3    0    0  0.10194890512E+03  0.55956582270E+02  0.21176073229E+03  0.24159330722E+03  0.00000000000E+00 0.  1.
         22    1    3    3    0    0  0.54584643510E+02  0.13505182048E+03  0.10807080555E+03  0.18137744219E+03  0.00000000000E+00 0.  1.
</event>
<event>
 7    1  0.5993218E-006  0.1082143E+03  0.7818608E-02  0.1322898E+00
          2   -1    0    0  502    0  0.00000000000E+00  0.00000000000E+00  0.12345245790E+04  0.12345245790E+04  0.00000000000E+00 0. -1.
          1   -1    0    0  501    0 -0.00000000000E+00 -0.00000000000E+00 -0.20719450650E+03  0.20719450650E+03  0.00000000000E+00 0. -1.
         25    2    1    2    0    0 -0.37575389436E+01  0.74171364137E+02  0.12018023271E+03  0.18864049586E+03  0.12500575182E+03 0.  0.
          2    1    1    2  501    0  0.62789978202E+02 -0.94554372009E+02 -0.15332522441E+03  0.19076617905E+03  0.00000000000E+00 0. -1.
          1    1    1    2  502    0 -0.59032439258E+02  0.20383007873E+02  0.10604750642E+04  0.10623124106E+04  0.00000000000E+00 0. -1.
         22    1    3    3    0    0  0.53153961394E+02  0.63593403720E+01  0.26448581119E+02  0.59710235848E+02  0.00000000000E+00 0.  1.
         22    1    3    3    0    0 -0.56911500337E+02  0.67812023765E+02  0.93731651588E+02  0.12893026001E+03  0.00000000000E+00 0.  1.
</event>
<event>
 7    1  0.5993218E-006  0.5272884E+02  0.7818608E-02  0.1439170E+00
          2   -1    0    0  502    0  0.00000000000E+00  0.00000000000E+00  0.76124138067E+03  0.76124138067E+03  0.00000000000E+00 0. -1.
          1   -1    0    0  501    0 -0.00000000000E+00 -0.00000000000E+00 -0.26547997252E+03  0.26547997252E+03  0.00000000000E+00 0. -1.
         25    2    1    2    0    0 -0.38940187987E+02  0.29059777897E+02 -0.13933304579E+03  0.19338937669E+03  0.12499977775E+03 0.  0.
          2    1    1    2  501    0  0.43666692483E+02  0.23614325950E+02 -0.91881559242E+02  0.10443484740E+03  0.00000000000E+00 0. -1.
          1    1    1    2  502    0 -0.47265044962E+01 -0.52674103847E+02  0.72697601318E+03  0.72889712909E+03  0.00000000000E+00 0. -1.
         22    1    3    3    0    0 -0.43320397421E+02 -0.22930765258E+02 -0.13186865560E+03  0.14068340044E+03  0.00000000000E+00 0.  1.
         22    1    3    3    0    0  0.43802094339E+01  0.51990543155E+02 -0.74643901845E+01  0.52705976256E+02  0.00000000000E+00 0.  1.
</event>
<event>
 7    1  0.5993218E-006  0.5260922E+02  0.7818608E-02  0.1490321E+00
          2   -1    0    0  502    0  0.00000000000E+00  0.00000000000E+00  0.18752997355E+04  0.18752997355E+04  0.00000000000E+00 0. -1.
          1   -1    0    0  501    0 -0.00000000000E+00 -0.00000000000E+00 -0.97198485878E+03  0.97198485878E+03  0.00000000000E+00 0. -1.
         25    2    1    2    0    0 -0.86333579900E+02 -0.98411406894E+01  0.19763406194E+03  0.24946849600E+03  0.12499989196E+03 0.  0.
          2    1    1    2  501    0  0.52172669692E+02  0.58310619050E+01 -0.94516009003E+03  0.94661691541E+03  0.00000000000E+00 0. -1.
          1    1    1    2  502    0  0.34160910208E+02  0.40100787844E+01  0.16508409048E+04  0.16511991829E+04  0.00000000000E+00 0. -1.
         22    1    3    3    0    0  0.19911049509E+02  0.29514879663E+02  0.27168865583E+02  0.44785324284E+02  0.00000000000E+00 0. -1.
         22    1    3    3    0    0 -0.10624462941E+03 -0.39356020353E+02  0.17046519636E+03  0.20468317172E+03  0.00000000000E+00 0. -1.
</event>
<event>
 7    1  0.5993218E-006  0.8134057E+02  0.7818608E-02  0.1336448E+00
          2   -1    0    0  502    0  0.00000000000E+00  0.00000000000E+00  0.12111507286E+04  0.12111507286E+04  0.00000000000E+00 0. -1.
          1   -1    0    0  501    0 -0.00000000000E+00 -0.00000000000E+00 -0.17222420325E+04  0.17222420325E+04  0.00000000000E+00 0. -1.
         25    2    1    2    0    0 -0.49110675632E+02  0.90616425900E+01  0.14086060101E+03  0.19483470769E+03  0.12499953030E+03 0.  0.
          2    1    1    2  501    0  0.49887152740E+02  0.64679696462E+02 -0.16929658735E+04  0.16949352908E+04  0.00000000000E+00 0. -1.
          1    1    1    2  502    0 -0.77647710789E+00 -0.73741339052E+02  0.10410139686E+04  0.10436227627E+04  0.00000000000E+00 0. -1.
         22    1    3    3    0    0 -0.23747739042E+02  0.46728037062E+02  0.13991951626E+03  0.14941531243E+03  0.00000000000E+00 0.  1.
         22    1    3    3    0    0 -0.25362936590E+02 -0.37666394472E+02  0.94108474543E+00  0.45419395257E+02  0.00000000000E+00 0.  1.
</event>
<event>
 7    1  0.5993218E-006  0.2422929E+03  0.7818608E-02  0.1131959E+00
          2   -1    0    0  502    0  0.00000000000E+00  0.00000000000E+00  0.40908202927E+03  0.40908202927E+03  0.00000000000E+00 0. -1.
          1   -1    0    0  501    0 -0.00000000000E+00 -0.00000000000E+00 -0.59083037125E+03  0.59083037125E+03  0.00000000000E+00 0. -1.
         25    2    1    2    0    0 -0.90675890694E+02  0.14135272216E+03  0.31566327369E+02  0.21171425890E+03  0.12499514064E+03 0.  0.
          2    1    1    2  501    0  0.28562980927E+02  0.20250474002E+03 -0.35616486847E+03  0.41070357576E+03  0.00000000000E+00 0. -1.
          1    1    1    2  502    0  0.62112909768E+02 -0.34385746219E+03  0.14285019913E+03  0.37749456586E+03  0.00000000000E+00 0. -1.
         22    1    3    3    0    0 -0.72263036439E+02  0.43336667861E+02 -0.35601672692E+02  0.91473998028E+02  0.00000000000E+00 0. -1.
         22    1    3    3    0    0 -0.18412854255E+02  0.98016054302E+02  0.67168000061E+02  0.12024026087E+03  0.00000000000E+00 0. -1.
</event>
<event>
 7    1  0.5993218E-006  0.9165424E+02  0.7818608E-02  0.1334986E+00
          2   -1    0    0  502    0  0.00000000000E+00  0.00000000000E+00  0.97994292569E+03  0.97994292569E+03  0.00000000000E+00 0. -1.
          1   -1    0    0  501    0 -0.00000000000E+00 -0.00000000000E+00 -0.22328313642E+03  0.22328313642E+03  0.00000000000E+00 0. -1.
         25    2    1    2    0    0 -0.99034359092E+02  0.96938922111E+01  0.20508912820E+03  0.25997908334E+03  0.12500318973E+03 0.  0.
          2    1    1    2  501    0  0.22327176876E+02 -0.62413089216E+02 -0.18722414202E+03  0.19861212422E+03  0.00000000000E+00 0. -1.
          1    1    1    2  502    0  0.76707182217E+02  0.52719197005E+02  0.73879480309E+03  0.74463485455E+03  0.00000000000E+00 0. -1.
         22    1    3    3    0    0 -0.23197118383E+02  0.55881525665E+02  0.13113534959E+03  0.14442067415E+03  0.00000000000E+00 0.  1.
         22    1    3    3    0    0 -0.75837240709E+02 -0.46187633454E+02  0.73953778611E+02  0.11555840918E+03  0.00000000000E+00 0.  1.
</event>
<event>
 7    1  0.5993218E-006  0.1904224E+03  0.7818608E-02  0.1278278E+00
          2   -1    0    0  502    0  0.00000000000E+00  0.00000000000E+00  0.36954749570E+03  0.36954749570E+03  0.00000000000E+00 0. -1.
          1   -1    0    0  501    0 -0.00000000000E+00 -0.00000000000E+00 -0.45387787815E+03  0.45387787815E+03  0.00000000000E+00 0. -1.
         25    2    1    2    0    0 -0.20740235713E+03  0.15566919983E+02 -0.93376570243E+02  0.26000240829E+03  0.12499600676E+03 0.  0.
          2    1    1    2  501    0  0.18273083483E+03  0.31943442022E+02 -0.24302368783E+03  0.30573101631E+03  0.00000000000E+00 0. -1.
          1    1    1    2  502    0  0.24671522300E+02 -0.47510362005E+02  0.25206987563E+03  0.25769194926E+03  0.00000000000E+00 0. -1.
         22    1    3    3    0    0 -0.20205319303E+03 -0.17601761549E+02 -0.99404838599E+02  0.22586862721E+03  0.00000000000E+00 0. -1.
         22    1    3    3    0    0 -0.53491641001E+01  0.33168681532E+02  0.60282683567E+01  0.34133781075E+02  0.00000000000E+00 0. -1.
</event>
<event>
 7    1  0.5993218E-006  0.1363753E+03  0.7818608E-02  0.1246510E+00
          2   -1    0    0  502    0  0.00000000000E+00  0.00000000000E+00  0.15050770858E+03  0.15050770858E+03  0.00000000000E+00 0. -1.
          1   -1    0    0  501    0 -0.00000000000E+00 -0.00000000000E+00 -0.95608223335E+03  0.95608223335E+03  0.00000000000E+00 0. -1.
         25    2    1    2    0    0  0.99358972280E+02 -0.99873099906E+02 -0.38239612901E+03  0.42626067788E+03  0.12499809826E+03 0.  0.
          2    1    1    2  501    0  0.39792681616E+02  0.93941857069E+02 -0.50740776196E+03  0.51756271786E+03  0.00000000000E+00 0. -1.
          1    1    1    2  502    0 -0.13915165390E+03  0.59312428371E+01  0.84229366203E+02  0.16276654618E+03  0.00000000000E+00 0. -1.
         22    1    3    3    0    0  0.64831549419E+02  0.16015799533E+02 -0.15316610034E+03  0.16709126227E+03  0.00000000000E+00 0. -1.
         22    1    3    3    0    0  0.34527422861E+02 -0.11588889944E+03 -0.22923002867E+03  0.25916941561E+03  0.00000000000E+00 0. -1.
</event>
<event>
 7    1  0.5993218E-006  0.7000871E+02  0.7818608E-02  0.1485186E+00
          2   -1    0    0  502    0  0.00000000000E+00  0.00000000000E+00  0.81445319239E+03  0.81445319239E+03  0.00000000000E+00 0. -1.
          1   -1    0    0  501    0 -0.00000000000E+00 -0.00000000000E+00 -0.87952781989E+03  0.87952781989E+03  0.00000000000E+00 0. -1.
         25    2    1    2    0    0 -0.81586608001E+01  0.59904722000E+02 -0.45617462843E+03  0.47683671848E+03  0.12499129971E+03 0.  0.
          2    1    1    2  501    0  0.25585363396E+02  0.79476751220E+01 -0.41105946575E+03  0.41193162144E+03  0.00000000000E+00 0. -1.
          1    1    1    2  502    0 -0.17426702596E+02 -0.67852397122E+02  0.80215946668E+03  0.80521267237E+03  0.00000000000E+00 0. -1.
         22    1    3    3    0    0 -0.54808728197E+02  0.69202034859E+02 -0.24639061034E+03  0.26172743681E+03  0.00000000000E+00 0.  1.
         22    1    3    3    0    0  0.46650067397E+02 -0.92973128596E+01 -0.20978401808E+03  0.21510928166E+03  0.00000000000E+00 0.  1.
</event>
<event>
 7    1  0.5993218E-006  0.4085964E+02  0.7818608E-02  0.1528830E+00
          2   -1    0    0  502    0  0.00000000000E+00  0.00000000000E+00  0.19407847274E+04  0.19407847274E+04  0.00000000000E+00 0. -1.
          1   -1    0    0  501    0 -0.00000000000E+00 -0.00000000000E+00 -0.49052143013E+03  0.49052143013E+03  0.00000000000E+00 0. -1.
         25    2    1    2    0    0 -0.22409249407E+02 -0.28516242710E+02  0.21210002622E+03  0.24884602585E+03  0.12499029122E+03 0.  0.
          2    1    1    2  501    0  0.40930683435E+02 -0.12212710566E+00 -0.47109091379E+03  0.47286571541E+03  0.00000000000E+00 0. -1.
          1    1    1    2  502    0 -0.18521434028E+02  0.28638369816E+02  0.17092541848E+04  0.17095944163E+04  0.00000000000E+00 0. -1.
         22    1    3    3    0    0 -0.52382728892E+02 -0.64214872656E+02  0.14748209649E+03  0.16916994101E+03  0.00000000000E+00 0.  1.
         22    1    3    3    0    0  0.29973479484E+02  0.35698629946E+02  0.64617929732E+02  0.79676084839E+02  0.00000000000E+00 0.  1.
</event>
<event>
 7    1  0.5993218E-006  0.1418331E+03  0.7818608E-02  0.1215885E+00
          2   -1    0    0  502    0  0.00000000000E+00  0.00000000000E+00  0.31789205320E+03  0.31789205320E+03  0.00000000000E+00 0. -1.
          1   -1    0    0  501    0 -0.00000000000E+00 -0.00000000000E+00 -0.14651069705E+04  0.14651069705E+04  0.00000000000E+00 0. -1.
         25    2    1    2    0    0 -0.40499126379E+02  0.21320779336E+02 -0.58910219248E+02  0.14556496856E+03  0.12499596502E+03 0.  0.
          2    1    1    2  501    0  0.13372521833E+03  0.75626245456E+02 -0.13417475215E+04  0.13505140408E+04  0.00000000000E+00 0. -1.
          1    1    1    2  502    0 -0.93226091954E+02 -0.96947024792E+02  0.25344282347E+03  0.28692001430E+03  0.00000000000E+00 0. -1.
         22    1    3    3    0    0 -0.53833026088E+02  0.45462121567E+02  0.10162098157E+02  0.71190360542E+02  0.00000000000E+00 0. -1.
         22    1    3    3    0    0  0.13333899709E+02 -0.24141342231E+02 -0.69072317405E+02  0.74374608018E+02  0.00000000000E+00 0. -1.
</event>
<event>
 7    1  0.5993218E-006  0.3827979E+02  0.7818608E-02  0.1547414E+00
          2   -1    0    0  502    0  0.00000000000E+00  0.00000000000E+00  0.11674183567E+04  0.11674183567E+04  0.00000000000E+00 0. -1.
          1   -1    0    0  501    0 -0.00000000000E+00 -0.00000000000E+00 -0.12687330209E+03  0.12687330209E+03  0.00000000000E+00 0. -1.
         25    2    1    2    0    0 -0.18328354015E+02 -0.63886473188E+01  0.19090958475E+03  0.22901561474E+03  0.12499975548E+03 0.  0.
          2    1    1    2  501    0  0.83361616705E+01 -0.31150515686E+02 -0.10500533785E+03  0.10984519651E+03  0.00000000000E+00 0. -1.
          1    1    1    2  502    0  0.99921923448E+01  0.37539163005E+02  0.95464080776E+03  0.95543084758E+03  0.00000000000E+00 0. -1.
         22    1    3    3    0    0  0.17936582040E+01  0.57636441244E+02  0.10719248378E+03  0.12171854891E+03  0.00000000000E+00 0. -1.
         22    1    3    3    0    0 -0.20122012219E+02 -0.64025088563E+02  0.83717100969E+02  0.10729706583E+03  0.00000000000E+00 0. -1.
</event>
<event>
 7    1  0.5993218E-006  0.7850195E+02  0.7818608E-02  0.1474290E+00
          2   -1    0    0  502    0  0.00000000000E+00  0.00000000000E+00  0.85548539222E+02  0.85548539222E+02  0.00000000000E+00 0. -1.
          1   -1    0    0  501    0 -0.00000000000E+00 -0.00000000000E+00 -0.12164258096E+04  0.12164258096E+04  0.00000000000E+00 0. -1.
         25    2    1    2    0    0 -0.81612854369E+02 -0.42364816094E+01 -0.50199289378E+03  0.52374204193E+03  0.12502101945E+03 0.  0.
          2    1    1    2  501    0  0.59065618836E+01  0.25120013137E+02 -0.68259859997E+03  0.68308619604E+03  0.00000000000E+00 0. -1.
          1    1    1    2  502    0  0.75706292486E+02 -0.20883531528E+02  0.53714223399E+02  0.95146110831E+02  0.00000000000E+00 0. -1.
         22    1    3    3    0    0 -0.67993309633E+01  0.40374240295E+02 -0.31271008052E+03  0.31537898573E+03  0.00000000000E+00 0. -1.
         22    1    3    3    0    0 -0.74813523406E+02 -0.44610721905E+02 -0.18928281327E+03  0.20836305621E+03  0.00000000000E+00 0. -1.
</event>
<event>
 7    1  0.5993218E-006  0.6913610E+02  0.7818608E-02  0.1414379E+00
          2   -1    0    0  502    0  0.00000000000E+00  0.00000000000E+00  0.60089468097E+03  0.60089468097E+03  0.00000000000E+00 0. -1.
          1   -1    0    0  501    0 -0.00000000000E+00 -0.00000000000E+00 -0.10894501879E+03  0.10894501879E+03  0.00000000000E+00 0. -1.
         25    2    1    2    0    0 -0.45517981905E+02  0.58316248514E+02  0.49100034803E+02  0.15330273281E+03  0.12497296889E+03 0.  0.
          2    1    1    2  501    0  0.44323199908E+02  0.11255110002E+02 -0.44758836913E+02  0.63988882105E+02  0.00000000000E+00 0. -1.
          1    1    1    2  502    0  0.11947819970E+01 -0.69571358516E+02  0.48760846429E+03  0.49254808484E+03  0.00000000000E+00 0. -1.
         22    1    3    3    0    0  0.34787502599E+01 -0.32322985803E+02 -0.10634229491E+02  0.34204735805E+02  0.00000000000E+00 0.  1.
         22    1    3    3    0    0 -0.48996732165E+02  0.90639234317E+02  0.59734264294E+02  0.11909799701E+03  0.00000000000E+00 0.  1.
</event>
<event>
 7    1  0.5993218E-006  0.8777053E+02  0.7818608E-02  0.1318765E+00
          2   -1    0    0  502    0  0.00000000000E+00  0.00000000000E+00  0.18037242050E+04  0.18037242050E+04  0.00000000000E+00 0. -1.
          1   -1    0    0  501    0 -0.00000000000E+00 -0.00000000000E+00 -0.27763385335E+03  0.27763385335E+03  0.00000000000E+00 0. -1.
         25    2    1    2    0    0 -0.14281150637E+03 -0.52974949960E+02  0.89370909458E+02  0.21636491278E+03  0.12500057739E+03 0.  0.
          2    1    1    2  501    0  0.56084068445E+02  0.56896365644E+02 -0.20549858776E+03  0.22048194649E+03  0.00000000000E+00 0. -1.
          1    1    1    2  502    0  0.86727437925E+02 -0.39214156840E+01  0.16422180300E+04  0.16445111991E+04  0.00000000000E+00 0. -1.
         22    1    3    3    0    0 -0.33815358778E+02 -0.11742151998E+02 -0.32065876808E+02  0.48058059452E+02  0.00000000000E+00 0.  1.
         22    1    3    3    0    0 -0.10899614759E+03 -0.41232797962E+02  0.12143678627E+03  0.16830685332E+03  0.00000000000E+00 0.  1.
</event>
<event>
 7    1  0.5993218E-006  0.1171162E+03  0.7818608E-02  0.1326212E+00
          2   -1    0    0  502    0  0.00000000000E+00  0.00000000000E+00  0.72833696447E+03  0.72833696447E+03  0.00000000000E+00 0. -1.
          1   -1    0    0  501    0 -0.00000000000E+00 -0.00000000000E+00 -0.38339385250E+03  0.38339385250E+03  0.00000000000E+00 0. -1.
         25    2    1    2    0    0  0.71596808761E+02 -0.73585602640E+02 -0.26570467940E+02  0.16392539344E+03  0.12499840362E+03 0.  0.
          2    1    1    2  501    0 -0.35462366513E+02  0.11641219774E+03 -0.27402904162E+03  0.29983544632E+03  0.00000000000E+00 0. -1.
          1    1    1    2  502    0 -0.36134442248E+02 -0.42826595104E+02  0.64554262152E+03  0.64796997721E+03  0.00000000000E+00 0. -1.
         22    1    3    3    0    0  0.10458273583E+03 -0.33617244723E+02 -0.15605274699E+02  0.11095581271E+03  0.00000000000E+00 0.  1.
         22    1    3    3    0    0 -0.32985927069E+02 -0.39968357918E+02 -0.10965193241E+02  0.52969580724E+02  0.00000000000E+00 0.  1.
</event>
<event>
 7    1  0.5993218E-006  0.6842238E+02  0.7818608E-02  0.1444863E+00
          2   -1    0    0  502    0  0.00000000000E+00  0.00000000000E+00  0.64840795419E+03  0.64840795419E+03  0.00000000000E+00 0. -1.
          1   -1    0    0  501    0 -0.00000000000E+00 -0.00000000000E+00 -0.15591328367E+04  0.15591328367E+04  0.00000000000E+00 0. -1.
         25    2    1    2    0    0  0.15004295432E+02 -0.30885418884E+02 -0.16655337118E+03  0.21105497817E+03  0.12500056152E+03 0.  0.
          2    1    1    2  501    0 -0.18097847923E+02  0.67422375864E+02 -0.13689016591E+04  0.13706805102E+04  0.00000000000E+00 0. -1.
          1    1    1    2  502    0  0.30935524909E+01 -0.36536956981E+02  0.62473014768E+03  0.62580530256E+03  0.00000000000E+00 0. -1.
         22    1    3    3    0    0 -0.32248728584E+01  0.30293716912E+02 -0.13764713617E+03  0.14097816563E+03  0.00000000000E+00 0.  1.
         22    1    3    3    0    0  0.18229168291E+02 -0.61179135796E+02 -0.28906235004E+02  0.70076812537E+02  0.00000000000E+00 0.  1.
</event>
<event>
 7    1  0.5993218E-006  0.3542439E+03  0.7818608E-02  0.1274064E+00
          2   -1    0    0  502    0  0.00000000000E+00  0.00000000000E+00  0.10263334167E+04  0.10263334167E+04  0.00000000000E+00 0. -1.
          1   -1    0    0  501    0 -0.00000000000E+00 -0.00000000000E+00 -0.11076313173E+04  0.11076313173E+04  0.00000000000E+00 0. -1.
         25    2    1    2    0    0  0.29195814741E+03  0.22453844299E+03  0.18773887800E+03  0.43188924674E+03  0.12500145167E+03 0.  0.
          2    1    1    2  501    0 -0.29434271204E+03 -0.19467171666E+03 -0.95362799889E+03  0.10168289284E+04  0.00000000000E+00 0. -1.
          1    1    1    2  502    0  0.23845646295E+01 -0.29866726325E+02  0.68459122027E+03  0.68524655881E+03  0.00000000000E+00 0. -1.
         22    1    3    3    0    0  0.15104524718E+03  0.55659769317E+02  0.12307874199E+03  0.20263527172E+03  0.00000000000E+00 0.  1.
         22    1    3    3    0    0  0.14091290023E+03  0.16887867367E+03  0.64660136005E+02  0.22925397501E+03  0.00000000000E+00 0.  1.
</event>
<event>
 7    1  0.5993218E-006  0.9182435E+02  0.7818608E-02  0.1329061E+00
          2   -1    0    0  502    0  0.00000000000E+00  0.00000000000E+00  0.46341016082E+03  0.46341016082E+03  0.00000000000E+00 0. -1.
          1   -1    0    0  501    0 -0.00000000000E+00 -0.00000000000E+00 -0.43980915463E+03  0.43980915463E+03  0.00000000000E+00 0. -1.
         25    2    1    2    0    0  0.68989278501E+02  0.30881084661E+02  0.90896077313E+02  0.17204599308E+03  0.12499825969E+03 0.  0.
          2    1    1    2  501    0 -0.33808854357E+02  0.60942378256E+02 -0.38878470377E+03  0.39498171855E+03  0.00000000000E+00 0. -1.
          1    1    1    2  502    0 -0.35180424144E+02 -0.91823462917E+02  0.32148963265E+03  0.33619160383E+03  0.00000000000E+00 0. -1.
         22    1    3    3    0    0  0.97425844614E+02 -0.79068879947E+01  0.56303200637E+02  0.11280232479E+03  0.00000000000E+00 0. -1.
         22    1    3    3    0    0 -0.28436566113E+02  0.38787972656E+02  0.34592876675E+02  0.59243668283E+02  0.00000000000E+00 0. -1.
</event>
<event>
 7    1  0.5993218E-006  0.1212000E+03  0.7818608E-02  0.1303845E+00
          2   -1    0    0  502    0  0.00000000000E+00  0.00000000000E+00  0.19368261402E+03  0.19368261402E+03  0.00000000000E+00 0. -1.
          1   -1    0    0  501    0 -0.00000000000E+00 -0.00000000000E+00 -0.33660164152E+03  0.33660164152E+03  0.00000000000E+00 0. -1.
         25    2    1    2    0    0 -0.78050543566E+02 -0.60402881372E+02 -0.87332817668E+01  0.15953639982E+03  0.12504078226E+03 0.  0.
          2    1    1    2  501    0  0.20487623066E+02 -0.62976756692E+02 -0.20630861061E+03  0.21667731167E+03  0.00000000000E+00 0. -1.
          1    1    1    2  502    0  0.57562920500E+02  0.12337963806E+03  0.72122864877E+02  0.15407054405E+03  0.00000000000E+00 0. -1.
         22    1    3    3    0    0 -0.10572071484E+02  0.33177535175E+00  0.50198365596E+02  0.51300630394E+02  0.00000000000E+00 0.  1.
         22    1    3    3    0    0 -0.67478472083E+02 -0.60734656724E+02 -0.58931647363E+02  0.10823576942E+03  0.00000000000E+00 0.  1.
</event>
<event>
 7    1  0.5993218E-006  0.1379986E+03  0.7818608E-02  0.1327947E+00
          2   -1    0    0  502    0  0.00000000000E+00  0.00000000000E+00  0.31881011950E+04  0.31881011950E+04  0.00000000000E+00 0. -1.
          1   -1    0    0  501    0 -0.00000000000E+00 -0.00000000000E+00 -0.35389588331E+03  0.35389588331E+03  0.00000000000E+00 0. -1.
         25    2    1    2    0    0  0.41076544699E+02  0.17579584265E+03  0.48199174612E+03  0.52965252412E+03  0.12499716862E+03 0.  0.
          2    1    1    2  501    0 -0.19637543313E+02 -0.42515088269E+02 -0.32669618017E+03  0.33003569500E+03  0.00000000000E+00 0. -1.
          1    1    1    2  502    0 -0.21439001386E+02 -0.13328075438E+03  0.26789097457E+04  0.26823088592E+04  0.00000000000E+00 0. -1.
         22    1    3    3    0    0 -0.11924605476E+01  0.84116478541E+02  0.83341105176E+02  0.11841766649E+03  0.00000000000E+00 0.  1.
         22    1    3    3    0    0  0.42269005247E+02  0.91679364112E+02  0.39865064094E+03  0.41123485763E+03  0.00000000000E+00 0.  1.
</event>
<event>
 7    1  0.5993218E-006  0.2582676E+03  0.7818608E-02  0.1229002E+00
          2   -1    0    0  502    0  0.00000000000E+00  0.00000000000E+00  0.16797557848E+04  0.16797557848E+04  0.00000000000E+00 0. -1.
          1   -1    0    0  501    0 -0.00000000000E+00 -0.00000000000E+00 -0.75611556686E+03  0.75611556686E+03  0.00000000000E+00 0. -1.
         25    2    1    2    0    0 -0.67789241209E+02 -0.22116167811E+03  0.60489321548E+02  0.26979973702E+03  0.12500028395E+03 0.  0.
          2    1    1    2  501    0  0.13180934459E+03  0.22811250307E+03 -0.62409916168E+03  0.67742806333E+03  0.00000000000E+00 0. -1.
          1    1    1    2  502    0 -0.64020103385E+02 -0.69508249620E+01  0.14872500581E+04  0.14886435513E+04  0.00000000000E+00 0. -1.
         22    1    3    3    0    0 -0.52139915542E+02 -0.12414991773E+02  0.11979733812E+02  0.54920095008E+02  0.00000000000E+00 0. -1.
         22    1    3    3    0    0 -0.15649325667E+02 -0.20874668633E+03  0.48509587736E+02  0.21487964201E+03  0.00000000000E+00 0. -1.
</event>
<event>
 7    1  0.5993218E-006  0.1094533E+03  0.7818608E-02  0.1410694E+00
          2   -1    0    0  502    0  0.00000000000E+00  0.00000000000E+00  0.30112967385E+04  0.30112967385E+04  0.00000000000E+00 0. -1.
          1   -1    0    0  501    0 -0.00000000000E+00 -0.00000000000E+00 -0.63640217031E+02  0.63640217031E+02  0.00000000000E+00 0. -1.
         25    2    1    2    0    0  0.11852055109E+01 -0.80652828977E+02  0.15673220408E+04  0.15743663639E+04  0.12499913777E+03 0.  0.
          2    1    1    2  501    0 -0.20076611267E+01  0.11036621028E+03 -0.91547580646E+01  0.11076344464E+03  0.00000000000E+00 0. -1.
          1    1    1    2  502    0  0.82245561577E+00 -0.29713381300E+02  0.13894892387E+04  0.13898071470E+04  0.00000000000E+00 0. -1.
         22    1    3    3    0    0  0.92965040624E+01 -0.89706444454E+02  0.58003474351E+03  0.58700423750E+03  0.00000000000E+00 0.  1.
         22    1    3    3    0    0 -0.81112985515E+01  0.90536154774E+01  0.98728729732E+03  0.98736212636E+03  0.00000000000E+00 0.  1.
</event>
<event>
 7    1  0.5993218E-006  0.1559507E+03  0.7818608E-02  0.1312882E+00
          2   -1    0    0  502    0  0.00000000000E+00  0.00000000000E+00  0.74143334280E+03  0.74143334280E+03  0.00000000000E+00 0. -1.
          1   -1    0    0  501    0 -0.00000000000E+00 -0.00000000000E+00 -0.51324652486E+03  0.51324652486E+03  0.00000000000E+00 0. -1.
         25    2    1    2    0    0 -0.16989498113E+02  0.16817632810E+03 -0.75152444692E+02  0.22324287316E+03  0.12497027684E+03 0.  0.
          2    1    1    2  501    0 -0.27484687248E+02 -0.15176314047E+03 -0.34681168421E+03  0.37956001257E+03  0.00000000000E+00 0. -1.
          1    1    1    2  502    0  0.44474185361E+02 -0.16413187625E+02  0.65015094684E+03  0.65187698193E+03  0.00000000000E+00 0. -1.
         22    1    3    3    0    0  0.21311511202E+01  0.17843060761E+03 -0.87000058738E+02  0.19852212410E+03  0.00000000000E+00 0. -1.
         22    1    3    3    0    0 -0.19120649233E+02 -0.10254279511E+02  0.11847614046E+02  0.24720749057E+02  0.00000000000E+00 0. -1.
</event>
<event>
 7    1  0.5993218E-006  0.8025070E+02  0.7818608E-02  0.1381181E+00
          2   -1    0    0  502    0  0.00000000000E+00  0.00000000000E+00  0.49390220960E+03  0.49390220960E+03  0.00000000000E+00 0. -1.
          1   -1    0    0  501    0 -0.00000000000E+00 -0.00000000000E+00 -0.19773527025E+03  0.19773527025E+03  0.00000000000E+00 0. -1.
         25    2    1    2    0    0 -0.16312412800E+02  0.27169379832E+02  0.17956906631E+03  0.22107636358E+03  0.12500175578E+03 0.  0.
          2    1    1    2  501    0  0.50473539751E+02 -0.65422715531E+02 -0.16489204210E+03  0.18443723992E+03  0.00000000000E+00 0. -1.
          1    1    1    2  502    0 -0.34161126950E+02  0.38253335699E+02  0.28148991514E+03  0.28612387634E+03  0.00000000000E+00 0. -1.
         22    1    3    3    0    0  0.22461173806E+02  0.12483630179E+02 -0.95887252269E+01  0.27427887317E+02  0.00000000000E+00 0. -1.
         22    1    3    3    0    0 -0.38773586607E+02  0.14685749654E+02  0.18915779154E+03  0.19364847626E+03  0.00000000000E+00 0. -1.
</event>
<event>
 7    1  0.5993218E-006  0.7001599E+02  0.7818608E-02  0.1525008E+00
          2   -1    0    0  502    0  0.00000000000E+00  0.00000000000E+00  0.41329975714E+03  0.41329975714E+03  0.00000000000E+00 0. -1.
          1   -1    0    0  501    0 -0.00000000000E+00 -0.00000000000E+00 -0.66892078849E+03  0.66892078849E+03  0.00000000000E+00 0. -1.
         25    2    1    2    0    0  0.57997036168E+02 -0.60822834774E+02  0.21906185296E+03  0.26584759275E+03  0.12499509476E+03 0.  0.
          2    1    1    2  501    0 -0.57042730538E+02  0.40431529237E+02 -0.64301623250E+03  0.64680635195E+03  0.00000000000E+00 0. -1.
          1    1    1    2  502    0 -0.95430562992E+00  0.20391305538E+02  0.16833334819E+03  0.16956660093E+03  0.00000000000E+00 0. -1.
         22    1    3    3    0    0  0.12793296226E+02 -0.88974916878E+02  0.17497112625E+03  0.19671069946E+03  0.00000000000E+00 0.  1.
         22    1    3    3    0    0  0.45203739941E+02  0.28152082104E+02  0.44090726713E+02  0.69136893288E+02  0.00000000000E+00 0.  1.
</event>
<event>
 7    1  0.5993218E-006  0.7205945E+02  0.7818608E-02  0.1427067E+00
          2   -1    0    0  502    0  0.00000000000E+00  0.00000000000E+00  0.17911884768E+04  0.17911884768E+04  0.00000000000E+00 0. -1.
          1   -1    0    0  501    0 -0.00000000000E+00 -0.00000000000E+00 -0.20043169543E+02  0.20043169543E+02  0.00000000000E+00 0. -1.
         25    2    1    2    0    0  0.70404076513E+02  0.54613757404E+02  0.78704714855E+03  0.80187037942E+03  0.12495397100E+03 0.  0.
          2    1    1    2  501    0 -0.31587924981E+02 -0.63407972642E+02  0.90744014895E+02  0.11512099825E+03  0.00000000000E+00 0. -1.
          1    1    1    2  502    0 -0.38816151533E+02  0.87942152382E+01  0.89335414384E+03  0.89424026870E+03  0.00000000000E+00 0. -1.
         22    1    3    3    0    0 -0.36198038571E+02  0.11696793238E+02  0.22537168489E+03  0.22855964061E+03  0.00000000000E+00 0.  1.
         22    1    3    3    0    0  0.10660211508E+03  0.42916964166E+02  0.56167546367E+03  0.57331073881E+03  0.00000000000E+00 0.  1.
</event>
<event>
 7    1  0.5993218E-006  0.1078937E+03  0.7818608E-02  0.1375302E+00
          2   -1    0    0  502    0  0.00000000000E+00  0.00000000000E+00  0.21490238136E+02  0.21490238136E+02  0.00000000000E+00 0. -1.
          1   -1    0    0  501    0 -0.00000000000E+00 -0.00000000000E+00 -0.17069887707E+04  0.17069887707E+04  0.00000000000E+00 0. -1.
         25    2    1    2    0    0  0.90307121056E+02 -0.98981301077E+02 -0.66710270762E+03  0.69181432062E+03  0.12501342980E+03 0.  0.
          2    1    1    2  501    0 -0.51618548973E+02  0.88724692771E+02 -0.96226874147E+03  0.96772810051E+03  0.00000000000E+00 0. -1.
          1    1    1    2  502    0 -0.38688572083E+02  0.10256608306E+02 -0.56127083432E+02  0.68936587661E+02  0.00000000000E+00 0. -1.
         22    1    3    3    0    0  0.44450283314E+02 -0.16255791542E+02 -0.55498317882E+02  0.72939301704E+02  0.00000000000E+00 0. -1.
         22    1    3    3    0    0  0.45856837742E+02 -0.82725509535E+02 -0.61160438974E+03  0.61887501892E+03  0.00000000000E+00 0. -1.
</event>
<event>
 7    1  0.5993218E-006  0.1144017E+03  0.7818608E-02  0.1352057E+00
          2   -1    0    0  502    0  0.00000000000E+00  0.00000000000E+00  0.77172202464E+03  0.77172202464E+03  0.00000000000E+00 0. -1.
          1   -1    0    0  501    0 -0.00000000000E+00 -0.00000000000E+00 -0.12509527006E+04  0.12509527006E+04  0.00000000000E+00 0. -1.
         25    2    1    2    0    0  0.60011261325E+02  0.13226790710E+03 -0.21852670117E+02  0.19285614443E+03  0.12497920834E+03 0.  0.
          2    1    1    2  501    0  0.11435527344E+02 -0.44392983830E+02 -0.11384609237E+04  0.11393835101E+04  0.00000000000E+00 0. -1.
          1    1    1    2  502    0 -0.71446788669E+02 -0.87874923275E+02  0.68108291789E+03  0.69043507066E+03  0.00000000000E+00 0. -1.
         22    1    3    3    0    0  0.97015834106E+01  0.11381941196E+03 -0.58103900539E+02  0.12816022206E+03  0.00000000000E+00 0.  1.
         22    1    3    3    0    0  0.50309677914E+02  0.18448495145E+02  0.36251230422E+02  0.64695922375E+02  0.00000000000E+00 0.  1.
</event>
<event>
 7    1  0.5993218E-006  0.8150986E+02  0.7818608E-02  0.1464811E+00
          2   -1    0    0  502    0  0.00000000000E+00  0.00000000000E+00  0.13143967254E+04  0.13143967254E+04  0.00000000000E+00 0. -1.
          1   -1    0    0  501    0 -0.00000000000E+00 -0.00000000000E+00 -0.23276534169E+03  0.23276534169E+03  0.00000000000E+00 0. -1.
         25    2    1    2    0    0  0.76145105959E+02 -0.16436420497E+02  0.28927639942E+03  0.32461210678E+03  0.12499580603E+03 0.  0.
          2    1    1    2  501    0 -0.69907411810E+02  0.42294591608E+02 -0.20715502465E+03  0.22268606365E+03  0.00000000000E+00 0. -1.
          1    1    1    2  502    0 -0.62376941488E+01 -0.25858171111E+02  0.99951000899E+03  0.99986389669E+03  0.00000000000E+00 0. -1.
         22    1    3    3    0    0 -0.28074513966E+02 -0.21307850175E+02  0.34586013201E+02  0.49380108573E+02  0.00000000000E+00 0.  1.
         22    1    3    3    0    0  0.10421961993E+03  0.48714296778E+01  0.25469038622E+03  0.27523199821E+03  0.00000000000E+00 0.  1.
</event>
<event>
 7    1  0.5993218E-006  0.8238700E+02  0.7818608E-02  0.1373600E+00
          2   -1    0    0  502    0  0.00000000000E+00  0.00000000000E+00  0.13356256413E+04  0.13356256413E+04  0.00000000000E+00 0. -1.
          1   -1    0    0  501    0 -0.00000000000E+00 -0.00000000000E+00 -0.18827761171E+02  0.18827761171E+02  0.00000000000E+00 0. -1.
         25    2    1    2    0    0  0.39120510252E+02  0.17996243527E+01  0.31997852415E+03  0.34575183880E+03  0.12499770057E+03 0.  0.
          2    1    1    2  501    0  0.51581456478E+02 -0.12840538617E+02  0.21119749566E+03  0.21778408633E+03  0.00000000000E+00 0. -1.
          1    1    1    2  502    0 -0.90701966730E+02  0.11040914264E+02  0.78562186034E+03  0.79091747736E+03  0.00000000000E+00 0. -1.
         22    1    3    3    0    0  0.11732208250E+02 -0.39283521380E+02  0.28045715806E+02  0.49672949757E+02  0.00000000000E+00 0. -1.
         22    1    3    3    0    0  0.27388302001E+02  0.41083145733E+02  0.29193280834E+03  0.29607888904E+03  0.00000000000E+00 0. -1.
</event>
<event>
 7    1  0.5993218E-006  0.5688606E+02  0.7818608E-02  0.1446992E+00
          2   -1    0    0  502    0  0.00000000000E+00  0.00000000000E+00  0.11069741002E+04  0.11069741002E+04  0.00000000000E+00 0. -1.
          1   -1    0    0  501    0 -0.00000000000E+00 -0.00000000000E+00 -0.22519986472E+03  0.22519986472E+03  0.00000000000E+00 0. -1.
         25    2    1    2    0    0  0.39521667166E+01  0.31675080755E+02  0.72573770264E+03  0.73711168050E+03  0.12497794256E+03 0.  0.
          2    1    1    2  501    0  0.24529475960E+02  0.35819647945E+02 -0.21373717181E+03  0.21810162994E+03  0.00000000000E+00 0. -1.
          1    1    1    2  502    0 -0.28481642676E+02 -0.67494728700E+02  0.36977370461E+03  0.37696065444E+03  0.00000000000E+00 0. -1.
         22    1    3    3    0    0  0.58642571625E+02  0.72401250705E+01  0.21846885980E+03  0.22631838927E+03  0.00000000000E+00 0.  1.
         22    1    3    3    0    0 -0.54690404908E+02  0.24434955685E+02  0.50726884284E+03  0.51079329123E+03  0.00000000000E+00 0.  1.
</event>
<event>
 7    1  0.5993218E-006  0.1171444E+03  0.7818608E-02  0.1293104E+00
          2   -1    0    0  502    0  0.00000000000E+00  0.00000000000E+00  0.15704251612E+04  0.15704251612E+04  0.00000000000E+00 0. -1.
          1   -1    0    0  501    0 -0.00000000000E+00 -0.00000000000E+00 -0.32136528265E+02  0.32136528265E+02  0.00000000000E+00 0. -1.
         25    2    1    2    0    0  0.15011053486E+02  0.90113319121E+02  0.61389322507E+03  0.63311420573E+03  0.12499185453E+03 0.  0.
          2    1    1    2  501    0  0.74332928816E+02  0.14149088333E+02  0.66815009204E+02  0.10094467030E+03  0.00000000000E+00 0. -1.
          1    1    1    2  502    0 -0.89343982302E+02 -0.10426240745E+03  0.85758039871E+03  0.86850281348E+03  0.00000000000E+00 0. -1.
         22    1    3    3    0    0  0.42636942089E+02  0.55162133705E+02  0.13303682990E+03  0.15019842854E+03  0.00000000000E+00 0.  1.
         22    1    3    3    0    0 -0.27625888603E+02  0.34951185416E+02  0.48085639517E+03  0.48291577719E+03  0.00000000000E+00 0.  1.
</event>
<event>
 7    1  0.5993218E-006  0.7017103E+02  0.7818608E-02  0.1437217E+00
          2   -1    0    0  502    0  0.00000000000E+00  0.00000000000E+00  0.94713187224E+02  0.94713187224E+02  0.00000000000E+00 0. -1.
          1   -1    0    0  501    0 -0.00000000000E+00 -0.00000000000E+00 -0.76247411378E+03  0.76247411378E+03  0.00000000000E+00 0. -1.
         25    2    1    2    0    0 -0.39841476480E+02 -0.12613326827E+02 -0.18802797683E+03  0.22962075742E+03  0.12499893163E+03 0.  0.
          2    1    1    2  501    0 -0.32785808920E+02  0.18919562352E+02 -0.53484210400E+03  0.53617994677E+03  0.00000000000E+00 0. -1.
          1    1    1    2  502    0  0.72627285400E+02 -0.63062355245E+01  0.55109154276E+02  0.91386596807E+02  0.00000000000E+00 0. -1.
         22    1    3    3    0    0 -0.38087890141E+02 -0.24416557853E+02 -0.20440810134E+03  0.20935502756E+03  0.00000000000E+00 0.  1.
         22    1    3    3    0    0 -0.17535863389E+01  0.11803231025E+02  0.16380124512E+02  0.20265729859E+02  0.00000000000E+00 0.  1.
</event>
<event>
 7    1  0.5993218E-006  0.6743495E+02  0.7818608E-02  0.1443183E+00
          2   -1    0    0  502    0  0.00000000000E+00  0.00000000000E+00  0.30484104446E+03  0.30484104446E+03  0.00000000000E+00 0. -1.
          1   -1    0    0  501    0 -0.00000000000E+00 -0.00000000000E+00 -0.55698771818E+03  0.55698771818E+03  0.00000000000E+00 0. -1.
         25    2    1    2    0    0  0.29742129248E+02 -0.10422840421E+02  0.13793608754E+03  0.18879529292E+03  0.12499627405E+03 0.  0.
          2    1    1    2  501    0 -0.58026724798E+02  0.35305772011E+02 -0.52683074874E+03  0.53119133666E+03  0.00000000000E+00 0. -1.
          1    1    1    2  502    0  0.28284595550E+02 -0.24882931590E+02  0.13674798748E+03  0.14184213306E+03  0.00000000000E+00 0. -1.
         22    1    3    3    0    0  0.69577035076E+02 -0.29407133652E+02  0.50522126809E+02  0.90874796379E+02  0.00000000000E+00 0.  1.
         22    1    3    3    0    0 -0.39834905828E+02  0.18984293230E+02  0.87413960734E+02  0.97920496542E+02  0.00000000000E+00 0.  1.
</event>
<event>
 7    1  0.5993218E-006  0.1002436E+03  0.7818608E-02  0.1405324E+00
          2   -1    0    0  502    0  0.00000000000E+00  0.00000000000E+00  0.50747837227E+03  0.50747837227E+03  0.00000000000E+00 0. -1.
          1   -1    0    0  501    0 -0.00000000000E+00 -0.00000000000E+00 -0.15590550113E+04  0.15590550113E+04  0.00000000000E+00 0. -1.
         25    2    1    2    0    0 -0.81830836583E+02 -0.14616669894E+02  0.29332778514E+03  0.32950889120E+03  0.12499994795E+03 0.  0.
          2    1    1    2  501    0 -0.33825185979E+02 -0.12642966911E+01 -0.15233817813E+04  0.15237577869E+04  0.00000000000E+00 0. -1.
          1    1    1    2  502    0  0.11565602256E+03  0.15880966586E+02  0.17847735711E+03  0.21326670545E+03  0.00000000000E+00 0. -1.
         22    1    3    3    0    0 -0.11056785390E+03  0.62002697908E+01  0.18604167849E+03  0.21650681236E+03  0.00000000000E+00 0.  1.
         22    1    3    3    0    0  0.28737017315E+02 -0.20816939685E+02  0.10728610665E+03  0.11300207884E+03  0.00000000000E+00 0.  1.
</event>
<event>
 7    1  0.5993218E-006  0.3788825E+02  0.7818608E-02  0.1571654E+00
          2   -1    0    0  502    0  0.00000000000E+00  0.00000000000E+00  0.28974546938E+03  0.28974546938E+03  0.00000000000E+00 0. -1.
          1   -1    0    0  501    0 -0.00000000000E+00 -0.00000000000E+00 -0.41723079401E+03  0.41723079401E+03  0.00000000000E+00 0. -1.
         25    2    1    2    0    0 -0.18652559883E+02 -0.20544159958E+02 -0.65188909876E+01  0.12820861847E+03  0.12499989365E+03 0.  0.
          2    1    1    2  501    0 -0.19676499614E+02  0.19832088939E+02 -0.34769773974E+03  0.34881828307E+03  0.00000000000E+00 0. -1.
          1    1    1    2  502    0  0.38329059497E+02  0.71207101903E+00  0.22673130610E+03  0.22994936184E+03  0.00000000000E+00 0. -1.
         22    1    3    3    0    0 -0.31648838721E+02  0.15706504270E+02 -0.55567217225E+02  0.65848757763E+02  0.00000000000E+00 0. -1.
         22    1    3    3    0    0  0.12996278838E+02 -0.36250664228E+02  0.49048326237E+02  0.62359860706E+02  0.00000000000E+00 0. -1.
</event>
<event>
 7    1  0.5993218E-006  0.8364463E+02  0.7818608E-02  0.1363532E+00
          2   -1    0    0  502    0  0.00000000000E+00  0.00000000000E+00  0.77571750635E+03  0.77571750635E+03  0.00000000000E+00 0. -1.
          1   -1    0    0  501    0 -0.00000000000E+00 -0.00000000000E+00 -0.71020327596E+03  0.71020327596E+03  0.00000000000E+00 0. -1.
         25    2    1    2    0    0 -0.88082420941E+02  0.50210616194E+02  0.22995977627E+03  0.28068887044E+03  0.12500049772E+03 0.  0.
          2    1    1    2  501    0  0.51343364922E+02  0.24563825896E+02 -0.68030822511E+03  0.68268499604E+03  0.00000000000E+00 0. -1.
          1    1    1    2  502    0  0.36739056019E+02 -0.74774442090E+02  0.51586267922E+03  0.52254691583E+03  0.00000000000E+00 0. -1.
         22    1    3    3    0    0 -0.45743613956E+02 -0.16422658873E+02  0.18186210695E+03  0.18824454278E+03  0.00000000000E+00 0.  1.
         22    1    3    3    0    0 -0.42338806985E+02  0.66633275067E+02  0.48097669325E+02  0.92444327666E+02  0.00000000000E+00 0.  1.
</event>
<event>
 7    1  0.5993218E-006  0.6843534E+02  0.7818608E-02  0.1481444E+00
          2   -1    0    0  502    0  0.00000000000E+00  0.00000000000E+00  0.14273746113E+03  0.14273746113E+03  0.00000000000E+00 0. -1.
          1   -1    0    0  501    0 -0.00000000000E+00 -0.00000000000E+00 -0.25034712717E+04  0.25034712717E+04  0.00000000000E+00 0. -1.
         25    2    1    2    0    0 -0.49565861646E+02  0.76793160984E+02 -0.41724748575E+03  0.44506025556E+03  0.12501680887E+03 0.  0.
          2    1    1    2  501    0  0.21555983464E+01 -0.28055284093E+02 -0.20632435153E+04  0.20634353755E+04  0.00000000000E+00 0. -1.
          1    1    1    2  502    0  0.47410263299E+02 -0.48737876892E+02  0.11975719049E+03  0.13771310172E+03  0.00000000000E+00 0. -1.
         22    1    3    3    0    0 -0.78906368572E+01 -0.34251852338E+02 -0.74613479121E+02  0.82478014071E+02  0.00000000000E+00 0.  1.
         22    1    3    3    0    0 -0.41675224789E+02  0.11104501332E+03 -0.34263400663E+03  0.36258224149E+03  0.00000000000E+00 0.  1.
</event>
<event>
 7    1  0.5993218E-006  0.4244153E+03  0.7818608E-02  0.1176520E+00
          2   -1    0    0  502    0  0.00000000000E+00  0.00000000000E+00  0.68672397313E+03  0.68672397313E+03  0.00000000000E+00 0. -1.
          1   -1    0    0  501    0 -0.00000000000E+00 -0.00000000000E+00 -0.20942195623E+04  0.20942195623E+04  0.00000000000E+00 0. -1.
         25    2    1    2    0    0  0.15031963101E+03 -0.39739797272E+03 -0.13357713299E+02  0.44308489943E+03  0.12499863763E+03 0.  0.
          2    1    1    2  501    0 -0.66139449636E+02 -0.20086903910E+02 -0.17690873638E+04  0.17704372373E+04  0.00000000000E+00 0. -1.
          1    1    1    2  502    0 -0.84180181377E+02  0.41748487663E+03  0.37494948794E+03  0.56742139866E+03  0.00000000000E+00 0. -1.
         22    1    3    3    0    0 -0.20056667981E+02 -0.52568509020E+02  0.12345674643E+02  0.57603244296E+02  0.00000000000E+00 0.  1.
         22    1    3    3    0    0  0.17037629899E+03 -0.34482946370E+03 -0.25703387942E+02  0.38548165514E+03  0.00000000000E+00 0.  1.
</event>
<event>
 7    1  0.1127818E-005  0.1192524E+03  0.7818608E-02  0.1375702E+00
          2   -1    0    0  502    0  0.00000000000E+00  0.00000000000E+00  0.29948362769E+04  0.29948362769E+04  0.00000000000E+00 0. -1.
          1   -1    0    0  501    0 -0.00000000000E+00 -0.00000000000E+00 -0.11946685460E+04  0.11946685460E+04  0.00000000000E+00 0. -1.
         25    2    1    2    0    0  0.33470822076E+02 -0.12814490897E+03 -0.25301017176E+03  0.31173771939E+03  0.12499938020E+03 0.  0.
          2    1    1    2  501    0 -0.34969896987E+02  0.89379511533E+01 -0.91073881110E+03  0.91145376334E+03  0.00000000000E+00 0. -1.
          1    1    1    2  502    0  0.14990749116E+01  0.11920695782E+03  0.29639167138E+04  0.29663133402E+04  0.00000000000E+00 0. -1.
         22    1    3    3    0    0  0.62163644187E+02 -0.53088789821E+02 -0.19840462343E+03  0.21458595682E+03  0.00000000000E+00 0. -1.
         22    1    3    3    0    0 -0.28692822111E+02 -0.75056119150E+02 -0.54605548327E+02  0.97151762571E+02  0.00000000000E+00 0. -1.
</event>
<event>
 7    1  0.5993218E-006  0.2401330E+03  0.7818608E-02  0.1251399E+00
          2   -1    0    0  502    0  0.00000000000E+00  0.00000000000E+00  0.75692929638E+03  0.75692929638E+03  0.00000000000E+00 0. -1.
          1   -1    0    0  501    0 -0.00000000000E+00 -0.00000000000E+00 -0.12064443931E+04  0.12064443931E+04  0.00000000000E+00 0. -1.
         25    2    1    2    0    0  0.12232535380E+03  0.19472381584E+03 -0.28879722126E+03  0.38975550048E+03  0.12499863402E+03 0.  0.
          2    1    1    2  501    0 -0.43994616520E+02  0.33295390819E+02 -0.84567225313E+03  0.84747015821E+03  0.00000000000E+00 0. -1.
          1    1    1    2  502    0 -0.78330737278E+02 -0.22801920666E+03  0.68495437772E+03  0.72614803075E+03  0.00000000000E+00 0. -1.
         22    1    3    3    0    0  0.57961869647E+02  0.17213393588E+01 -0.71945416815E+02  0.92405001719E+02  0.00000000000E+00 0.  1.
         22    1    3    3    0    0  0.64363484151E+02  0.19300247648E+03 -0.21685180444E+03  0.29735049876E+03  0.00000000000E+00 0.  1.
</event>
<event>
 7    1  0.5993218E-006  0.6567647E+02  0.7818608E-02  0.1429628E+00
          2   -1    0    0  502    0  0.00000000000E+00  0.00000000000E+00  0.48592175853E+03  0.48592175853E+03  0.00000000000E+00 0. -1.
          1   -1    0    0  501    0 -0.00000000000E+00 -0.00000000000E+00 -0.10894499993E+03  0.10894499993E+03  0.00000000000E+00 0. -1.
         25    2    1    2    0    0 -0.14999220338E+02  0.84632352141E+02  0.31184995432E+03  0.34678953856E+03  0.12499991362E+03 0.  0.
          2    1    1    2  501    0 -0.21213935724E+02 -0.61769829361E+02 -0.76226114087E+02  0.10037909821E+03  0.00000000000E+00 0. -1.
          1    1    1    2  502    0  0.36213156062E+02 -0.22862522780E+02  0.14135291837E+03  0.14769812170E+03  0.00000000000E+00 0. -1.
         22    1    3    3    0    0  0.28931115546E+02 -0.17720164866E+02  0.36848632776E+02  0.50088276344E+02  0.00000000000E+00 0.  1.
         22    1    3    3    0    0 -0.43930335885E+02  0.10235251701E+03  0.27500132154E+03  0.29670126221E+03  0.00000000000E+00 0.  1.
</event>
<event>
 7    1  0.5993218E-006  0.5367110E+02  0.7818608E-02  0.1497095E+00
          2   -1    0    0  502    0  0.00000000000E+00  0.00000000000E+00  0.52382936301E+03  0.52382936301E+03  0.00000000000E+00 0. -1.
          1   -1    0    0  501    0 -0.00000000000E+00 -0.00000000000E+00 -0.86696284185E+03  0.86696284185E+03  0.00000000000E+00 0. -1.
         25    2    1    2    0    0  0.32136346419E+01  0.51302775014E+02  0.76824423936E+02  0.15546618933E+03  0.12500176695E+03 0.  0.
          2    1    1    2  501    0  0.30840830881E+02 -0.91464541576E+01 -0.82552637053E+03  0.82615289319E+03  0.00000000000E+00 0. -1.
          1    1    1    2  502    0 -0.34054465523E+02 -0.42156320856E+02  0.40556846776E+03  0.40917312235E+03  0.00000000000E+00 0. -1.
         22    1    3    3    0    0  0.63493996311E+02  0.34369844929E+02  0.35591427337E+02  0.80495487500E+02  0.00000000000E+00 0. -1.
         22    1    3    3    0    0 -0.60280361669E+02  0.16932930085E+02  0.41232996598E+02  0.74970701829E+02  0.00000000000E+00 0. -1.
</event>
<event>
 7    1  0.5993218E-006  0.9839159E+02  0.7818608E-02  0.1290167E+00
          2   -1    0    0  502    0  0.00000000000E+00  0.00000000000E+00  0.10921445723E+04  0.10921445723E+04  0.00000000000E+00 0. -1.
          1   -1    0    0  501    0 -0.00000000000E+00 -0.00000000000E+00 -0.13954595328E+03  0.13954595328E+03  0.00000000000E+00 0. -1.
         25    2    1    2    0    0 -0.41517879009E+02 -0.75104455880E+02  0.19110141073E+03  0.24394477857E+03  0.12499956895E+03 0.  0.
          2    1    1    2  501    0 -0.62569997307E+02  0.68256533185E+02 -0.90446748772E+02  0.12943945785E+03  0.00000000000E+00 0. -1.
          1    1    1    2  502    0  0.10408787632E+03  0.68479226948E+01  0.85194395704E+03  0.85830628915E+03  0.00000000000E+00 0. -1.
         22    1    3    3    0    0  0.44194685470E+02 -0.14320202996E+02  0.62450294960E+02  0.77834939315E+02  0.00000000000E+00 0. -1.
         22    1    3    3    0    0 -0.85712564479E+02 -0.60784252884E+02  0.12865111577E+03  0.16610983926E+03  0.00000000000E+00 0. -1.
</event>
<event>
 7    1  0.5993218E-006  0.4852761E+02  0.7818608E-02  0.1512554E+00
          2   -1    0    0  502    0  0.00000000000E+00  0.00000000000E+00  0.72630037467E+03  0.72630037467E+03  0.00000000000E+00 0. -1.
          1   -1    0    0  501    0 -0.00000000000E+00 -0.00000000000E+00 -0.79536951926E+03  0.79536951926E+03  0.00000000000E+00 0. -1.
         25    2    1    2    0    0 -0.33582952277E+02  0.26492728424E+02 -0.21471397981E+03  0.25210426960E+03  0.12499916111E+03 0.  0.
          2    1    1    2  501    0  0.10191945052E+02 -0.48351964721E+02 -0.56051072988E+03  0.56268469549E+03  0.00000000000E+00 0. -1.
          1    1    1    2  502    0  0.23391007225E+02  0.21859236297E+02  0.70615556511E+03  0.70688092884E+03  0.00000000000E+00 0. -1.
         22    1    3    3    0    0  0.20088541132E+02  0.63544536227E+02 -0.10072411854E+03  0.12077584868E+03  0.00000000000E+00 0. -1.
         22    1    3    3    0    0 -0.53671493409E+02 -0.37051807803E+02 -0.11398986128E+03  0.13132842091E+03  0.00000000000E+00 0. -1.
</event>
<event>
 7    1  0.5993218E-006  0.8034112E+02  0.7818608E-02  0.1369755E+00
          2   -1    0    0  502    0  0.00000000000E+00  0.00000000000E+00  0.47586172721E+03  0.47586172721E+03  0.00000000000E+00 0. -1.
          1   -1    0    0  501    0 -0.00000000000E+00 -0.00000000000E+00 -0.53137392450E+03  0.53137392450E+03  0.00000000000E+00 0. -1.
         25    2    1    2    0    0  0.94040643475E+02 -0.12447957581E+02 -0.14173874107E+03  0.21145513719E+03  0.12499924020E+03 0.  0.
          2    1    1    2  501    0 -0.23531694280E+02  0.51110783676E+02 -0.34883803202E+03  0.35334689107E+03  0.00000000000E+00 0. -1.
          1    1    1    2  502    0 -0.70508949195E+02 -0.38662826095E+02  0.43506457581E+03  0.44243362345E+03  0.00000000000E+00 0. -1.
         22    1    3    3    0    0  0.83204398798E+02 -0.24721492841E+01 -0.15885980422E+02  0.84743423788E+02  0.00000000000E+00 0. -1.
         22    1    3    3    0    0  0.10836244677E+02 -0.99758082967E+01 -0.12585276065E+03  0.12671171340E+03  0.00000000000E+00 0. -1.
</event>
<event>
 7    1  0.5993218E-006  0.8312516E+02  0.7818608E-02  0.1453039E+00
          2   -1    0    0  502    0  0.00000000000E+00  0.00000000000E+00  0.15544129660E+03  0.15544129660E+03  0.00000000000E+00 0. -1.
          1   -1    0    0  501    0 -0.00000000000E+00 -0.00000000000E+00 -0.99056324900E+03  0.99056324900E+03  0.00000000000E+00 0. -1.
         25    2    1    2    0    0 -0.57911065358E+02 -0.53892004827E+02  0.61046741243E+02  0.16002966155E+03  0.12499899314E+03 0.  0.
          2    1    1    2  501    0  0.76652343020E+02  0.32533467678E+02 -0.93453184755E+03  0.93823439625E+03  0.00000000000E+00 0. -1.
          1    1    1    2  502    0 -0.18741277662E+02  0.21358537148E+02  0.38363153906E+02  0.47740487797E+02  0.00000000000E+00 0. -1.
         22    1    3    3    0    0  0.25917291579E+02  0.20333779110E+01 -0.18280909064E+02  0.31781004778E+02  0.00000000000E+00 0.  1.
         22    1    3    3    0    0 -0.83828356937E+02 -0.55925382738E+02  0.79327650308E+02  0.12824865677E+03  0.00000000000E+00 0.  1.
</event>
<event>
 7    1  0.5993218E-006  0.4334244E+02  0.7818608E-02  0.1553704E+00
          2   -1    0    0  502    0  0.00000000000E+00  0.00000000000E+00  0.76257710320E+03  0.76257710320E+03  0.00000000000E+00 0. -1.
          1   -1    0    0  501    0 -0.00000000000E+00 -0.00000000000E+00 -0.73339343235E+02  0.73339343235E+02  0.00000000000E+00 0. -1.
         25    2    1    2    0    0  0.50914902718E+02 -0.24035237780E+02  0.13443826768E+03  0.19201089322E+03  0.12499806128E+03 0.  0.
          2    1    1    2  501    0 -0.25200921155E+02 -0.10635309743E+02 -0.39496825255E+02  0.48043682682E+02  0.00000000000E+00 0. -1.
          1    1    1    2  502    0 -0.25713981563E+02  0.34670547523E+02  0.59429631754E+03  0.59586187053E+03  0.00000000000E+00 0. -1.
         22    1    3    3    0    0  0.80355651691E+02 -0.39969621419E+02  0.53648005593E+02  0.10455959975E+03  0.00000000000E+00 0. -1.
         22    1    3    3    0    0 -0.29440748973E+02  0.15934383639E+02  0.80790262091E+02  0.87451293477E+02  0.00000000000E+00 0. -1.
</event>
<event>
 7    1  0.5993218E-006  0.1533917E+03  0.7818608E-02  0.1272250E+00
          2   -1    0    0  502    0  0.00000000000E+00  0.00000000000E+00  0.24644483853E+04  0.24644483853E+04  0.00000000000E+00 0. -1.
          1   -1    0    0  501    0 -0.00000000000E+00 -0.00000000000E+00 -0.49814024781E+03  0.49814024781E+03  0.00000000000E+00 0. -1.
         25    2    1    2    0    0 -0.10866193543E+03  0.57740848482E+01  0.43561136124E+03  0.46607235069E+03  0.12500168705E+03 0.  0.
          2    1    1    2  501    0 -0.44021744664E+02  0.54953853189E+02 -0.47696861316E+03  0.48213784121E+03  0.00000000000E+00 0. -1.
          1    1    1    2  502    0  0.15268368009E+03 -0.60727938037E+02  0.20076653894E+04  0.20143784412E+04  0.00000000000E+00 0. -1.
         22    1    3    3    0    0 -0.72184653433E+02  0.38704204527E+02  0.39169223429E+03  0.40016427382E+03  0.00000000000E+00 0.  1.
         22    1    3    3    0    0 -0.36477281996E+02 -0.32930119679E+02  0.43919126948E+02  0.65908076862E+02  0.00000000000E+00 0.  1.
</event>
<event>
 7    1  0.5993218E-006  0.1894072E+03  0.7818608E-02  0.1298316E+00
          2   -1    0    0  502    0  0.00000000000E+00  0.00000000000E+00  0.86450084414E+03  0.86450084414E+03  0.00000000000E+00 0. -1.
          1   -1    0    0  501    0 -0.00000000000E+00 -0.00000000000E+00 -0.15038321334E+03  0.15038321334E+03  0.00000000000E+00 0. -1.
         25    2    1    2    0    0  0.44076530169E+02 -0.21635222339E+03  0.35593321447E+03  0.43711012163E+03  0.12500312070E+03 0.  0.
          2    1    1    2  501    0 -0.12637895131E+02  0.42760911456E+02 -0.87630726966E+02  0.98322714825E+02  0.00000000000E+00 0. -1.
          1    1    1    2  502    0 -0.31438635037E+02  0.17359131194E+03  0.44581514330E+03  0.47945122103E+03  0.00000000000E+00 0. -1.
         22    1    3    3    0    0 -0.10626903648E+02 -0.72500371080E+02  0.21961651331E+03  0.23151813710E+03  0.00000000000E+00 0. -1.
         22    1    3    3    0    0  0.54703433816E+02 -0.14385185231E+03  0.13631670116E+03  0.20559198453E+03  0.00000000000E+00 0. -1.
</event>
<event>
 7    1  0.5993218E-006  0.1506416E+03  0.7818608E-02  0.1312136E+00
          2   -1    0    0  502    0  0.00000000000E+00  0.00000000000E+00  0.10523357910E+03  0.10523357910E+03  0.00000000000E+00 0. -1.
          1   -1    0    0  501    0 -0.00000000000E+00 -0.00000000000E+00 -0.15668481372E+04  0.15668481372E+04  0.00000000000E+00 0. -1.
         25    2    1    2    0    0 -0.66348199214E+01  0.16635339731E+03 -0.84967305496E+03  0.87480684838E+03  0.12500099203E+03 0.  0.
          2    1    1    2  501    0  0.44607136129E+02 -0.21247490722E+02 -0.64233659313E+03  0.64423408116E+03  0.00000000000E+00 0. -1.
          1    1    1    2  502    0 -0.37972316207E+02 -0.14510590658E+03  0.30395089975E+02  0.15304078678E+03  0.00000000000E+00 0. -1.
         22    1    3    3    0    0  0.19278381202E+02  0.33876832934E+01 -0.16953376065E+02  0.25894967462E+02  0.00000000000E+00 0.  1.
         22    1    3    3    0    0 -0.25913201123E+02  0.16296571401E+03 -0.83271967890E+03  0.84891188092E+03  0.00000000000E+00 0.  1.
</event>
<event>
 7    1  0.5993218E-006  0.7193416E+02  0.7818608E-02  0.1358135E+00
          2   -1    0    0  502    0  0.00000000000E+00  0.00000000000E+00  0.13105996094E+04  0.13105996094E+04  0.00000000000E+00 0. -1.
          1   -1    0    0  501    0 -0.00000000000E+00 -0.00000000000E+00 -0.54096411471E+03  0.54096411471E+03  0.00000000000E+00 0. -1.
         25    2    1    2    0    0  0.37208406160E+02 -0.10557963206E+03  0.22148229597E+03  0.27786764787E+03  0.12499799242E+03 0.  0.
          2    1    1    2  501    0  0.21289823179E+02  0.68519893683E+02 -0.50912317200E+03  0.51415429267E+03  0.00000000000E+00 0. -1.
          1    1    1    2  502    0 -0.58498229339E+02  0.37059738373E+02  0.10572763707E+04  0.10595417836E+04  0.00000000000E+00 0. -1.
         22    1    3    3    0    0  0.57606621828E+02 -0.12620593300E+03  0.18586454066E+03  0.23193121368E+03  0.00000000000E+00 0.  1.
         22    1    3    3    0    0 -0.20398215668E+02  0.20626300940E+02  0.35617755312E+02  0.45936434193E+02  0.00000000000E+00 0.  1.
</event>
<event>
 7    1  0.5993218E-006  0.4609401E+03  0.7818608E-02  0.1170705E+00
          2   -1    0    0  502    0  0.00000000000E+00  0.00000000000E+00  0.17554999074E+04  0.17554999074E+04  0.00000000000E+00 0. -1.
          1   -1    0    0  501    0 -0.00000000000E+00 -0.00000000000E+00 -0.54364563550E+03  0.54364563550E+03  0.00000000000E+00 0. -1.
         25    2    1    2    0    0 -0.37702276494E+03 -0.35308649798E+03  0.20225544828E+03  0.56863779275E+03  0.12500173058E+03 0.  0.
          2    1    1    2  501    0  0.56946066623E+02  0.37151641426E+02 -0.31987663792E+03  0.32702318335E+03  0.00000000000E+00 0. -1.
          1    1    1    2  502    0  0.32007669831E+03  0.31593485655E+03  0.13294754615E+04  0.14034845668E+04  0.00000000000E+00 0. -1.
         22    1    3    3    0    0 -0.36195093047E+03 -0.36316206851E+03  0.19023913794E+03  0.54688764264E+03  0.00000000000E+00 0. -1.
         22    1    3    3    0    0 -0.15071834464E+02  0.10075570526E+02  0.12016310339E+02  0.21750150108E+02  0.00000000000E+00 0. -1.
</event>
<event>
 7    1  0.5993218E-006  0.1615318E+03  0.7818608E-02  0.1351543E+00
          2   -1    0    0  502    0  0.00000000000E+00  0.00000000000E+00  0.13742136889E+03  0.13742136889E+03  0.00000000000E+00 0. -1.
          1   -1    0    0  501    0 -0.00000000000E+00 -0.00000000000E+00 -0.17055871504E+04  0.17055871504E+04  0.00000000000E+00 0. -1.
         25    2    1    2    0    0  0.38340182189E+02 -0.18151862098E+03 -0.48288874612E+01  0.22375739933E+03  0.12500030507E+03 0.  0.
          2    1    1    2  501    0 -0.52162409039E+02  0.15198394082E+03 -0.15760730335E+04  0.15842431133E+04  0.00000000000E+00 0. -1.
          1    1    1    2  502    0  0.13822226850E+02  0.29534680159E+02  0.12736139381E+02  0.35008006706E+02  0.00000000000E+00 0. -1.
         22    1    3    3    0    0  0.19695152886E+02 -0.17452054870E+03  0.35133133528E+02  0.17910795079E+03  0.00000000000E+00 0.  1.
         22    1    3    3    0    0  0.18645029303E+02 -0.69980722825E+01 -0.39962020989E+02  0.44649448540E+02  0.00000000000E+00 0.  1.
</event>
<event>
 7    1  0.5993218E-006  0.5643671E+02  0.7818608E-02  0.1537846E+00
          2   -1    0    0  502    0  0.00000000000E+00  0.00000000000E+00  0.25996132224E+03  0.25996132224E+03  0.00000000000E+00 0. -1.
          1   -1    0    0  501    0 -0.00000000000E+00 -0.00000000000E+00 -0.88003853934E+03  0.88003853934E+03  0.00000000000E+00 0. -1.
         25    2    1    2    0    0  0.90872016488E+01  0.59708449590E+02 -0.38816108712E+03  0.41224011706E+03  0.12500083348E+03 0.  0.
          2    1    1    2  501    0 -0.29334092105E+02 -0.48233322626E+02 -0.47762576407E+03  0.48095042663E+03  0.00000000000E+00 0. -1.
          1    1    1    2  502    0  0.20246890456E+02 -0.11475126963E+02  0.24570963409E+03  0.24680931789E+03  0.00000000000E+00 0. -1.
         22    1    3    3    0    0 -0.45590512772E+02  0.38819098109E+02 -0.30327814619E+03  0.30913274041E+03  0.00000000000E+00 0. -1.
         22    1    3    3    0    0  0.54677714421E+02  0.20889351481E+02 -0.84882940927E+02  0.10310737665E+03  0.00000000000E+00 0. -1.
</event>
<event>
 7    1  0.5993218E-006  0.8241079E+02  0.7818608E-02  0.1447183E+00
          2   -1    0    0  502    0  0.00000000000E+00  0.00000000000E+00  0.50756673184E+03  0.50756673184E+03  0.00000000000E+00 0. -1.
          1   -1    0    0  501    0 -0.00000000000E+00 -0.00000000000E+00 -0.39696278279E+03  0.39696278279E+03  0.00000000000E+00 0. -1.
         25    2    1    2    0    0 -0.22408716201E+02  0.49587159491E+02 -0.14210301079E+03  0.19692382537E+03  0.12499876149E+03 0.  0.
          2    1    1    2  501    0 -0.21377111734E+02  0.20940773313E+02 -0.22285368829E+03  0.22485387094E+03  0.00000000000E+00 0. -1.
          1    1    1    2  502    0  0.43785827934E+02 -0.70527932804E+02  0.47556064814E+03  0.48275181832E+03  0.00000000000E+00 0. -1.
         22    1    3    3    0    0 -0.46744771990E+02 -0.27910544659E+02 -0.47690207035E+02  0.72376985697E+02  0.00000000000E+00 0. -1.
         22    1    3    3    0    0  0.24336055789E+02  0.77497704149E+02 -0.94412803755E+02  0.12454683967E+03  0.00000000000E+00 0. -1.
</event>
<event>
 7    1  0.5993218E-006  0.5052945E+02  0.7818608E-02  0.1499503E+00
          2   -1    0    0  502    0  0.00000000000E+00  0.00000000000E+00  0.15238033000E+04  0.15238033000E+04  0.00000000000E+00 0. -1.
          1   -1    0    0  501    0 -0.00000000000E+00 -0.00000000000E+00 -0.13537256243E+04  0.13537256243E+04  0.00000000000E+00 0. -1.
         25    2    1    2    0    0  0.20037640847E+02  0.51009571546E+02  0.99510636388E+03  0.10044224955E+04  0.12499756216E+03 0.  0.
          2    1    1    2  501    0  0.23846604956E+02 -0.23680242365E+02 -0.13475824974E+04  0.13480014843E+04  0.00000000000E+00 0. -1.
          1    1    1    2  502    0 -0.43884245803E+02 -0.27329329181E+02  0.52255380921E+03  0.52510494454E+03  0.00000000000E+00 0. -1.
         22    1    3    3    0    0  0.62252306354E+02  0.33669359381E+02  0.83339433130E+03  0.83639409781E+03  0.00000000000E+00 0.  1.
         22    1    3    3    0    0 -0.42214665506E+02  0.17340212165E+02  0.16171203258E+03  0.16802839767E+03  0.00000000000E+00 0.  1.
</event>
<event>
 7    1  0.5993218E-006  0.6259210E+02  0.7818608E-02  0.1501494E+00
          2   -1    0    0  502    0  0.00000000000E+00  0.00000000000E+00  0.12061938211E+03  0.12061938211E+03  0.00000000000E+00 0. -1.
          1   -1    0    0  501    0 -0.00000000000E+00 -0.00000000000E+00 -0.20377954856E+04  0.20377954856E+04  0.00000000000E+00 0. -1.
         25    2    1    2    0    0  0.26962625024E+02  0.39863757631E+02  0.54808505098E+02  0.14472449380E+03  0.12500041822E+03 0.  0.
          2    1    1    2  501    0 -0.11403584614E+02 -0.61637765642E+02 -0.19835473271E+04  0.19845375418E+04  0.00000000000E+00 0. -1.
          1    1    1    2  502    0 -0.15559040410E+02  0.21774008011E+02  0.11562718490E+02  0.29152832148E+02  0.00000000000E+00 0. -1.
         22    1    3    3    0    0  0.34393113320E+02  0.45331340168E+02  0.91027501816E+02  0.10734906954E+03  0.00000000000E+00 0. -1.
         22    1    3    3    0    0 -0.74304882957E+01 -0.54675825367E+01 -0.36218996718E+02  0.37375424257E+02  0.00000000000E+00 0. -1.
</event>
<event>
 7    1  0.5993218E-006  0.7319125E+02  0.7818608E-02  0.1370944E+00
          2   -1    0    0  502    0  0.00000000000E+00  0.00000000000E+00  0.18445345241E+04  0.18445345241E+04  0.00000000000E+00 0. -1.
          1   -1    0    0  501    0 -0.00000000000E+00 -0.00000000000E+00 -0.21651286565E+03  0.21651286565E+03  0.00000000000E+00 0. -1.
         25    2    1    2    0    0  0.38292893888E+02  0.75140094790E+01  0.11489560752E+03  0.17420863713E+03  0.12499937026E+03 0.  0.
          2    1    1    2  501    0 -0.32713560661E+02 -0.68418314429E+02 -0.17858620739E+03  0.19402132942E+03  0.00000000000E+00 0. -1.
          1    1    1    2  502    0 -0.55793332273E+01  0.60904304950E+02  0.16917122583E+04  0.16928174232E+04  0.00000000000E+00 0. -1.
         22    1    3    3    0    0  0.32412113756E+02  0.57628826993E+02  0.10295315964E+03  0.12235595571E+03  0.00000000000E+00 0.  1.
         22    1    3    3    0    0  0.58807801326E+01 -0.50114817514E+02  0.11942447880E+02  0.51852681423E+02  0.00000000000E+00 0.  1.
</event>
<event>
 7    1  0.5993218E-006  0.4410419E+02  0.7818608E-02  0.1482119E+00
          2   -1    0    0  502    0  0.00000000000E+00  0.00000000000E+00  0.18469188018E+04  0.18469188018E+04  0.00000000000E+00 0. -1.
          1   -1    0    0  501    0 -0.00000000000E+00 -0.00000000000E+00 -0.11687213947E+03  0.11687213947E+03  0.00000000000E+00 0. -1.
         25    2    1    2    0    0  0.11300428808E+02  0.23595929466E+02  0.69039223976E+02  0.14517248179E+03  0.12499666973E+03 0.  0.
          2    1    1    2  501    0  0.31887827083E+02 -0.32537650837E+02 -0.71917058693E+02  0.85132811354E+02  0.00000000000E+00 0. -1.
          1    1    1    2  502    0 -0.43188255891E+02  0.89417213708E+01  0.17329244970E+04  0.17334856481E+04  0.00000000000E+00 0. -1.
         22    1    3    3    0    0 -0.33533433880E+02  0.47366559783E+02 -0.17641658646E+01  0.58061988035E+02  0.00000000000E+00 0. -1.
         22    1    3    3    0    0  0.44833862688E+02 -0.23770630317E+02  0.70803389841E+02  0.87110493754E+02  0.00000000000E+00 0. -1.
</event>
<event>
 7    1  0.5993218E-006  0.7283947E+02  0.7818608E-02  0.1351344E+00
          2   -1    0    0  502    0  0.00000000000E+00  0.00000000000E+00  0.54246581613E+03  0.54246581613E+03  0.00000000000E+00 0. -1.
          1   -1    0    0  501    0 -0.00000000000E+00 -0.00000000000E+00 -0.10308846557E+04  0.10308846557E+04  0.00000000000E+00 0. -1.
         25    2    1    2    0    0 -0.71408676291E+01  0.67927934639E+02 -0.12660666864E+03  0.19057797984E+03  0.12500208622E+03 0.  0.
          2    1    1    2  501    0  0.67575926954E+02 -0.26091770225E+02 -0.86813015004E+03  0.87114708505E+03  0.00000000000E+00 0. -1.
          1    1    1    2  502    0 -0.60435059325E+02 -0.41836164414E+02  0.50631797912E+03  0.51162540694E+03  0.00000000000E+00 0. -1.
         22    1    3    3    0    0  0.12128179597E+02 -0.11545186834E+02 -0.10454649388E+03  0.10587895665E+03  0.00000000000E+00 0. -1.
         22    1    3    3    0    0 -0.19269047226E+02  0.79473121473E+02 -0.22060174762E+02  0.84699023183E+02  0.00000000000E+00 0. -1.
</event>
<event>
 7    1  0.5993218E-006  0.5749726E+02  0.7818608E-02  0.1470970E+00
          2   -1    0    0  502    0  0.00000000000E+00  0.00000000000E+00  0.72513071186E+03  0.72513071186E+03  0.00000000000E+00 0. -1.
          1   -1    0    0  501    0 -0.00000000000E+00 -0.00000000000E+00 -0.19771539436E+03  0.19771539436E+03  0.00000000000E+00 0. -1.
         25    2    1    2    0    0  0.18215377278E+01  0.22844832991E+02  0.39464032483E+03  0.41459709722E+03  0.12499825057E+03 0.  0.
          2    1    1    2  501    0 -0.18403576316E+02 -0.54884923687E+02 -0.18222036735E+03  0.19119442655E+03  0.00000000000E+00 0. -1.
          1    1    1    2  502    0  0.16582038589E+02  0.32040090696E+02  0.31499536002E+03  0.31705458244E+03  0.00000000000E+00 0. -1.
         22    1    3    3    0    0  0.45820143621E+02 -0.27732383722E+02  0.24247202152E+03  0.24831683771E+03  0.00000000000E+00 0.  1.
         22    1    3    3    0    0 -0.43998605893E+02  0.50577216713E+02  0.15216830331E+03  0.16628025951E+03  0.00000000000E+00 0.  1.
</event>
<event>
 7    1  0.5993218E-006  0.1581820E+03  0.7818608E-02  0.1231860E+00
          2   -1    0    0  502    0  0.00000000000E+00  0.00000000000E+00  0.56189797172E+02  0.56189797172E+02  0.00000000000E+00 0. -1.
          1   -1    0    0  501    0 -0.00000000000E+00 -0.00000000000E+00 -0.27568408015E+04  0.27568408015E+04  0.00000000000E+00 0. -1.
         25    2    1    2    0    0  0.43854318837E+02  0.72115870188E+02 -0.61456506192E+03  0.63280214707E+03  0.12499776795E+03 0.  0.
          2    1    1    2  501    0  0.16238531241E+01  0.10207420915E+03 -0.19546772153E+04  0.19573412572E+04  0.00000000000E+00 0. -1.
          1    1    1    2  502    0 -0.45478171961E+02 -0.17419007933E+03 -0.13140872705E+03  0.22288719436E+03  0.00000000000E+00 0. -1.
         22    1    3    3    0    0  0.72071411741E+02  0.81342496295E+02 -0.34764181060E+03  0.36423305530E+03  0.00000000000E+00 0. -1.
         22    1    3    3    0    0 -0.28217092905E+02 -0.92266261070E+01 -0.26692325132E+03  0.26856909178E+03  0.00000000000E+00 0. -1.
</event>
<event>
 7    1  0.5993218E-006  0.7168694E+02  0.7818608E-02  0.1370689E+00
          2   -1    0    0  502    0  0.00000000000E+00  0.00000000000E+00  0.27225279415E+03  0.27225279415E+03  0.00000000000E+00 0. -1.
          1   -1    0    0  501    0 -0.00000000000E+00 -0.00000000000E+00 -0.91777046459E+03  0.91777046459E+03  0.00000000000E+00 0. -1.
         25    2    1    2    0    0 -0.65937252764E+02  0.10963727007E+03 -0.13297913353E+03  0.22288294529E+03  0.12500122021E+03 0.  0.
          2    1    1    2  501    0  0.15954443439E+02 -0.60506639627E+02 -0.73307200090E+03  0.73573783116E+03  0.00000000000E+00 0. -1.
          1    1    1    2  502    0  0.49982809325E+02 -0.49130630441E+02  0.22053346399E+03  0.23140248230E+03  0.00000000000E+00 0. -1.
         22    1    3    3    0    0 -0.43268475160E+02  0.18750418354E+02  0.13466939935E+02  0.49041794444E+02  0.00000000000E+00 0. -1.
         22    1    3    3    0    0 -0.22668777604E+02  0.90886851713E+02 -0.14644607347E+03  0.17384115084E+03  0.00000000000E+00 0. -1.
</event>
<event>
 7    1  0.6441266E-006  0.1442549E+03  0.7818608E-02  0.1266933E+00
          2   -1    0    0  502    0  0.00000000000E+00  0.00000000000E+00  0.14634239434E+04  0.14634239434E+04  0.00000000000E+00 0. -1.
          1   -1    0    0  501    0 -0.00000000000E+00 -0.00000000000E+00 -0.72728732923E+03  0.72728732923E+03  0.00000000000E+00 0. -1.
         25    2    1    2    0    0 -0.94804602355E+02 -0.11198461733E+03 -0.18099733611E+03  0.26441046419E+03  0.12499756297E+03 0.  0.
          2    1    1    2  501    0 -0.42400432761E+02  0.66449501396E+02 -0.49779941582E+03  0.50400157869E+03  0.00000000000E+00 0. -1.
          1    1    1    2  502    0  0.13720503512E+03  0.45535115937E+02  0.14149333661E+04  0.14222992297E+04  0.00000000000E+00 0. -1.
         22    1    3    3    0    0 -0.47929298325E+02 -0.10925970853E+03 -0.57810092402E+02  0.13257793304E+03  0.00000000000E+00 0. -1.
         22    1    3    3    0    0 -0.46875304029E+02 -0.27249087992E+01 -0.12318724371E+03  0.13183253115E+03  0.00000000000E+00 0. -1.
</event>
<event>
 7    1  0.5993218E-006  0.5604281E+02  0.7818608E-02  0.1561470E+00
          2   -1    0    0  502    0  0.00000000000E+00  0.00000000000E+00  0.14192827253E+04  0.14192827253E+04  0.00000000000E+00 0. -1.
          1   -1    0    0  501    0 -0.00000000000E+00 -0.00000000000E+00 -0.10790793618E+02  0.10790793618E+02  0.00000000000E+00 0. -1.
         25    2    1    2    0    0 -0.38684874601E+02 -0.13733943920E+02  0.82536173757E+03  0.83578267608E+03  0.12500217225E+03 0.  0.
          2    1    1    2  501    0 -0.20031249561E+02 -0.20435038623E+01  0.21793905387E+02  0.29671555049E+02  0.00000000000E+00 0. -1.
          1    1    1    2  502    0  0.58716124162E+02  0.15777447783E+02  0.56133628876E+03  0.56461928781E+03  0.00000000000E+00 0. -1.
         22    1    3    3    0    0 -0.42983221809E+02 -0.44454314331E+02  0.76872139615E+03  0.77120446597E+03  0.00000000000E+00 0.  1.
         22    1    3    3    0    0  0.42983472081E+01  0.30720370411E+02  0.56640341410E+02  0.64578210117E+02  0.00000000000E+00 0.  1.
</event>
<event>
 7    1  0.7702845E-006  0.1087706E+03  0.7818608E-02  0.1422551E+00
          2   -1    0    0  502    0  0.00000000000E+00  0.00000000000E+00  0.23502284200E+04  0.23502284200E+04  0.00000000000E+00 0. -1.
          1   -1    0    0  501    0 -0.00000000000E+00 -0.00000000000E+00 -0.12979940738E+04  0.12979940738E+04  0.00000000000E+00 0. -1.
         25    2    1    2    0    0 -0.21614753224E+02 -0.13351653174E+03 -0.11380365694E+03  0.21649183892E+03  0.12499432860E+03 0.  0.
          2    1    1    2  501    0 -0.76267714027E+00  0.27281613657E+02 -0.11313998934E+04  0.11317290254E+04  0.00000000000E+00 0. -1.
          1    1    1    2  502    0  0.22377430364E+02  0.10623491808E+03  0.22974378966E+04  0.23000016295E+04  0.00000000000E+00 0. -1.
         22    1    3    3    0    0  0.15879875000E+02 -0.13053457266E+03 -0.12041650241E+03  0.17830193252E+03  0.00000000000E+00 0. -1.
         22    1    3    3    0    0 -0.37494628224E+02 -0.29819590809E+01  0.66128454638E+01  0.38189906399E+02  0.00000000000E+00 0. -1.
</event>
<event>
 7    1  0.5993218E-006  0.8519686E+02  0.7818608E-02  0.1383970E+00
          2   -1    0    0  502    0  0.00000000000E+00  0.00000000000E+00  0.54726732341E+03  0.54726732341E+03  0.00000000000E+00 0. -1.
          1   -1    0    0  501    0 -0.00000000000E+00 -0.00000000000E+00 -0.72258122496E+03  0.72258122496E+03  0.00000000000E+00 0. -1.
         25    2    1    2    0    0  0.36871653028E+02  0.31571437974E+02  0.21924203226E+03  0.25699899642E+03  0.12500056383E+03 0.  0.
          2    1    1    2  501    0 -0.33808469965E+02 -0.78698790768E+02 -0.69927056622E+03  0.70449686805E+03  0.00000000000E+00 0. -1.
          1    1    1    2  502    0 -0.30631830630E+01  0.47127352794E+02  0.30471463241E+03  0.30835268391E+03  0.00000000000E+00 0. -1.
         22    1    3    3    0    0  0.44662863752E+02 -0.37931500284E+02  0.64247128602E+02  0.86955526828E+02  0.00000000000E+00 0. -1.
         22    1    3    3    0    0 -0.77912107242E+01  0.69502938258E+02  0.15499490366E+03  0.17004346959E+03  0.00000000000E+00 0. -1.
</event>
<event>
 7    1  0.5993218E-006  0.8794168E+02  0.7818608E-02  0.1469063E+00
          2   -1    0    0  502    0  0.00000000000E+00  0.00000000000E+00  0.97369806416E+02  0.97369806416E+02  0.00000000000E+00 0. -1.
          1   -1    0    0  501    0 -0.00000000000E+00 -0.00000000000E+00 -0.57932242659E+03  0.57932242659E+03  0.00000000000E+00 0. -1.
         25    2    1    2    0    0 -0.25016110234E+02  0.10732535987E+03 -0.68908226132E+02  0.18032558454E+03  0.12499773664E+03 0.  0.
          2    1    1    2  501    0  0.19813830687E+02 -0.83986396914E+02 -0.44676841317E+03  0.45502562319E+03  0.00000000000E+00 0. -1.
          1    1    1    2  502    0  0.52022795474E+01 -0.23338962960E+02  0.33724019131E+02  0.41341025277E+02  0.00000000000E+00 0. -1.
         22    1    3    3    0    0  0.11581557701E+02  0.10760366101E+03 -0.87595181075E+02  0.13923216615E+03  0.00000000000E+00 0.  1.
         22    1    3    3    0    0 -0.36597667935E+02 -0.27830113964E+00  0.18686954943E+02  0.41093418389E+02  0.00000000000E+00 0.  1.
</event>
<event>
 7    1  0.5993218E-006  0.1581261E+03  0.7818608E-02  0.1307952E+00
          2   -1    0    0  502    0  0.00000000000E+00  0.00000000000E+00  0.11590188410E+04  0.11590188410E+04  0.00000000000E+00 0. -1.
          1   -1    0    0  501    0 -0.00000000000E+00 -0.00000000000E+00 -0.53340537388E+02  0.53340537388E+02  0.00000000000E+00 0. -1.
         25    2    1    2    0    0  0.29370585505E+02  0.13158853351E+03  0.28929944392E+03  0.34277843104E+03  0.12499884436E+03 0.  0.
          2    1    1    2  501    0 -0.52266091843E+02 -0.17478834678E+03  0.30159232717E+03  0.35247786077E+03  0.00000000000E+00 0. -1.
          1    1    1    2  502    0  0.22895506338E+02  0.43199813275E+02  0.51478653257E+03  0.51710308662E+03  0.00000000000E+00 0. -1.
         22    1    3    3    0    0  0.34363886493E+02  0.10930803543E+03  0.99927612644E+02  0.15203503239E+03  0.00000000000E+00 0.  1.
         22    1    3    3    0    0 -0.49933009876E+01  0.22280498076E+02  0.18937183128E+03  0.19074339865E+03  0.00000000000E+00 0.  1.
</event>
<event>
 7    1  0.5993218E-006  0.2381722E+03  0.7818608E-02  0.1173461E+00
          2   -1    0    0  502    0  0.00000000000E+00  0.00000000000E+00  0.19213525162E+04  0.19213525162E+04  0.00000000000E+00 0. -1.
          1   -1    0    0  501    0 -0.00000000000E+00 -0.00000000000E+00 -0.19694780625E+03  0.19694780625E+03  0.00000000000E+00 0. -1.
         25    2    1    2    0    0 -0.75803815471E+02  0.21648489816E+03  0.33525068514E+02  0.26336362624E+03  0.12499815933E+03 0.  0.
          2    1    1    2  501    0  0.12604311511E+03  0.19354766207E+02 -0.18304024774E+02  0.12882744724E+03  0.00000000000E+00 0. -1.
          1    1    1    2  502    0 -0.50239299634E+02 -0.23583966436E+03  0.17091836662E+04  0.17261092490E+04  0.00000000000E+00 0. -1.
         22    1    3    3    0    0  0.19469478941E+02  0.36943330571E+02  0.42932390660E+02  0.59892073363E+02  0.00000000000E+00 0. -1.
         22    1    3    3    0    0 -0.95273294412E+02  0.17954156759E+03 -0.94073221469E+01  0.20347155288E+03  0.00000000000E+00 0. -1.
</event>
<event>
 7    1  0.5993218E-006  0.5058817E+02  0.7818608E-02  0.1478837E+00
          2   -1    0    0  502    0  0.00000000000E+00  0.00000000000E+00  0.94772582391E+03  0.94772582391E+03  0.00000000000E+00 0. -1.
          1   -1    0    0  501    0 -0.00000000000E+00 -0.00000000000E+00 -0.15120144728E+02  0.15120144728E+02  0.00000000000E+00 0. -1.
         25    2    1    2    0    0  0.26246489650E+02  0.37606268571E+01  0.38525573012E+03  0.40589303056E+03  0.12499661650E+03 0.  0.
          2    1    1    2  501    0  0.12019584338E+02  0.36862060967E+02  0.12345822229E+03  0.12940330211E+03  0.00000000000E+00 0. -1.
          1    1    1    2  502    0 -0.38266073988E+02 -0.40622687824E+02  0.42389172678E+03  0.42754963597E+03  0.00000000000E+00 0. -1.
         22    1    3    3    0    0 -0.25672337203E+02  0.48144316567E+01  0.32623627097E+03  0.32728023488E+03  0.00000000000E+00 0. -1.
         22    1    3    3    0    0  0.51918826853E+02 -0.10538047996E+01  0.59019459151E+02  0.78612795681E+02  0.00000000000E+00 0. -1.
</event>
<event>
 7    1  0.5993218E-006  0.6161233E+02  0.7818608E-02  0.1435063E+00
          2   -1    0    0  502    0  0.00000000000E+00  0.00000000000E+00  0.16763616549E+02  0.16763616549E+02  0.00000000000E+00 0. -1.
          1   -1    0    0  501    0 -0.00000000000E+00 -0.00000000000E+00 -0.14863908824E+04  0.14863908824E+04  0.00000000000E+00 0. -1.
         25    2    1    2    0    0 -0.27534582767E+02  0.27631081453E+02 -0.72501577022E+03  0.73674573385E+03  0.12499911748E+03 0.  0.
          2    1    1    2  501    0  0.12856695932E+02 -0.68914186926E+02 -0.70131726547E+03  0.70481229177E+03  0.00000000000E+00 0. -1.
          1    1    1    2  502    0  0.14677886836E+02  0.41283105473E+02 -0.43294230127E+02  0.61596473290E+02  0.00000000000E+00 0. -1.
         22    1    3    3    0    0 -0.69768661078E+02  0.44684376199E+02 -0.39448361624E+03  0.40309016737E+03  0.00000000000E+00 0. -1.
         22    1    3    3    0    0  0.42234078311E+02 -0.17053294746E+02 -0.33053215397E+03  0.33365556648E+03  0.00000000000E+00 0. -1.
</event>
<event>
 7    1  0.5993218E-006  0.1621942E+03  0.7818608E-02  0.1247445E+00
          2   -1    0    0  502    0  0.00000000000E+00  0.00000000000E+00  0.29363403207E+03  0.29363403207E+03  0.00000000000E+00 0. -1.
          1   -1    0    0  501    0 -0.00000000000E+00 -0.00000000000E+00 -0.25520164276E+04  0.25520164276E+04  0.00000000000E+00 0. -1.
         25    2    1    2    0    0  0.16539127713E+03  0.64259202049E+02 -0.34827799932E+03  0.41037208755E+03  0.12499666328E+03 0.  0.
          2    1    1    2  501    0 -0.10506958667E+03 -0.12411626405E+03 -0.21626825086E+04  0.21687877024E+04  0.00000000000E+00 0. -1.
          1    1    1    2  502    0 -0.60321690458E+02  0.59857062003E+02  0.25257811237E+03  0.26649066974E+03  0.00000000000E+00 0. -1.
         22    1    3    3    0    0  0.14215710520E+03  0.93972188507E+02 -0.32228640465E+03  0.36456541442E+03  0.00000000000E+00 0.  1.
         22    1    3    3    0    0  0.23234171931E+02 -0.29712986458E+02 -0.25991594668E+02  0.45806673127E+02  0.00000000000E+00 0.  1.
</event>
<event>
 7    1  0.5993218E-006  0.9164681E+02  0.7818608E-02  0.1358488E+00
          2   -1    0    0  502    0  0.00000000000E+00  0.00000000000E+00  0.10507317244E+04  0.10507317244E+04  0.00000000000E+00 0. -1.
          1   -1    0    0  501    0 -0.00000000000E+00 -0.00000000000E+00 -0.12276941458E+04  0.12276941458E+04  0.00000000000E+00 0. -1.
         25    2    1    2    0    0 -0.56201034422E+02  0.65728851471E+02  0.18625722497E+03  0.24040602082E+03  0.12499785121E+03 0.  0.
          2    1    1    2  501    0  0.88997442247E+02 -0.22586681511E+02 -0.11979843527E+04  0.12014979035E+04  0.00000000000E+00 0. -1.
          1    1    1    2  502    0 -0.32796407825E+02 -0.43142169961E+02  0.83476470622E+03  0.83652194588E+03  0.00000000000E+00 0. -1.
         22    1    3    3    0    0 -0.25185136907E+02 -0.27215379520E+02  0.11048971233E+03  0.11654589025E+03  0.00000000000E+00 0. -1.
         22    1    3    3    0    0 -0.31015897515E+02  0.92944230991E+02  0.75767512636E+02  0.12386013057E+03  0.00000000000E+00 0. -1.
</event>
<event>
 7    1  0.5993218E-006  0.1738893E+03  0.7818608E-02  0.1260533E+00
          2   -1    0    0  502    0  0.00000000000E+00  0.00000000000E+00  0.59835431439E+03  0.59835431439E+03  0.00000000000E+00 0. -1.
          1   -1    0    0  501    0 -0.00000000000E+00 -0.00000000000E+00 -0.15726183099E+04  0.15726183099E+04  0.00000000000E+00 0. -1.
         25    2    1    2    0    0 -0.11034673240E+03  0.66241551382E+02 -0.43402519918E+03  0.46964423940E+03  0.12499397425E+03 0.  0.
          2    1    1    2  501    0  0.15557801767E+03 -0.11915315096E+03 -0.11100835633E+04  0.11272477591E+04  0.00000000000E+00 0. -1.
          1    1    1    2  502    0 -0.45231285269E+02  0.52911599575E+02  0.56984476692E+03  0.57408062581E+03  0.00000000000E+00 0. -1.
         22    1    3    3    0    0  0.17679667535E+02  0.46113150946E+02 -0.13465770569E+03  0.14342834809E+03  0.00000000000E+00 0. -1.
         22    1    3    3    0    0 -0.12802639994E+03  0.20128400436E+02 -0.29936749349E+03  0.32621589131E+03  0.00000000000E+00 0. -1.
</event>
<event>
 7    1  0.5993218E-006  0.8741169E+02  0.7818608E-02  0.1324112E+00
          2   -1    0    0  502    0  0.00000000000E+00  0.00000000000E+00  0.14044033412E+04  0.14044033412E+04  0.00000000000E+00 0. -1.
          1   -1    0    0  501    0 -0.00000000000E+00 -0.00000000000E+00 -0.20730967251E+03  0.20730967251E+03  0.00000000000E+00 0. -1.
         25    2    1    2    0    0 -0.29474563107E+02 -0.25033663557E+02  0.80323791865E+03  0.81382534412E+03  0.12500041041E+03 0.  0.
          2    1    1    2  501    0 -0.80928046678E+02 -0.33037184007E+02 -0.18560146798E+03  0.20515532940E+03  0.00000000000E+00 0. -1.
          1    1    1    2  502    0  0.11040260978E+03  0.58070847564E+02  0.57945721803E+03  0.59273234020E+03  0.00000000000E+00 0. -1.
         22    1    3    3    0    0 -0.14562545758E+02  0.68782616883E+01  0.83199187841E+01  0.18127307340E+02  0.00000000000E+00 0. -1.
         22    1    3    3    0    0 -0.14912017349E+02 -0.31911925246E+02  0.79491799986E+03  0.79569803678E+03  0.00000000000E+00 0. -1.
</event>
<event>
 7    1  0.5993218E-006  0.9346310E+02  0.7818608E-02  0.1408962E+00
          2   -1    0    0  502    0  0.00000000000E+00  0.00000000000E+00  0.28070480605E+03  0.28070480605E+03  0.00000000000E+00 0. -1.
          1   -1    0    0  501    0 -0.00000000000E+00 -0.00000000000E+00 -0.11847956501E+04  0.11847956501E+04  0.00000000000E+00 0. -1.
         25    2    1    2    0    0  0.61415316593E+02  0.41459978781E+02 -0.11906275914E+03  0.18786069767E+03  0.12499972065E+03 0.  0.
          2    1    1    2  501    0  0.30453441195E+02 -0.17820019696E+02 -0.10218844500E+04  0.10224934202E+04  0.00000000000E+00 0. -1.
          1    1    1    2  502    0 -0.91868757788E+02 -0.23639959086E+02  0.23685636502E+03  0.25514633835E+03  0.00000000000E+00 0. -1.
         22    1    3    3    0    0  0.11047127647E+02 -0.23753542710E+02  0.15230890767E+02  0.30302637741E+02  0.00000000000E+00 0.  1.
         22    1    3    3    0    0  0.50368188946E+02  0.65213521492E+02 -0.13429364991E+03  0.15755805993E+03  0.00000000000E+00 0.  1.
</event>
<event>
 7    1  0.5993218E-006  0.4651432E+03  0.7818608E-02  0.1175591E+00
          2   -1    0    0  502    0  0.00000000000E+00  0.00000000000E+00  0.10343699163E+04  0.10343699163E+04  0.00000000000E+00 0. -1.
          1   -1    0    0  501    0 -0.00000000000E+00 -0.00000000000E+00 -0.56937648164E+03  0.56937648164E+03  0.00000000000E+00 0. -1.
         25    2    1    2    0    0 -0.18082948616E+03 -0.37614723073E+03  0.32160139679E+03  0.54151498152E+03  0.12499989816E+03 0.  0.
          2    1    1    2  501    0  0.19217977538E+03  0.43886543655E+03 -0.33180547180E+03  0.58277852447E+03  0.00000000000E+00 0. -1.
          1    1    1    2  502    0 -0.11350289220E+02 -0.62718205820E+02  0.47519750967E+03  0.47945289196E+03  0.00000000000E+00 0. -1.
         22    1    3    3    0    0 -0.21904403551E+02 -0.16655476532E+02  0.69014396090E+02  0.74298012497E+02  0.00000000000E+00 0. -1.
         22    1    3    3    0    0 -0.15892508261E+03 -0.35949175420E+03  0.25258700070E+03  0.46721696902E+03  0.00000000000E+00 0. -1.
</event>
<event>
 7    1  0.5993218E-006  0.6077838E+02  0.7818608E-02  0.1516212E+00
          2   -1    0    0  502    0  0.00000000000E+00  0.00000000000E+00  0.56396601663E+03  0.56396601663E+03  0.00000000000E+00 0. -1.
          1   -1    0    0  501    0 -0.00000000000E+00 -0.00000000000E+00 -0.62464488156E+03  0.62464488156E+03  0.00000000000E+00 0. -1.
         25    2    1    2    0    0 -0.20461238684E+02  0.81554498530E+02 -0.22829794275E+03  0.27352321666E+03  0.12500080348E+03 0.  0.
          2    1    1    2  501    0  0.12775426135E+02 -0.21419077200E+02 -0.37161773485E+03  0.37245366052E+03  0.00000000000E+00 0. -1.
          1    1    1    2  502    0  0.76858125486E+01 -0.60135421330E+02  0.53923681267E+03  0.54263402100E+03  0.00000000000E+00 0. -1.
         22    1    3    3    0    0 -0.35914187112E+02  0.10958728424E+03 -0.19966401786E+03  0.23057519756E+03  0.00000000000E+00 0.  1.
         22    1    3    3    0    0  0.15452948428E+02 -0.28032785711E+02 -0.28633924896E+02  0.42948019102E+02  0.00000000000E+00 0.  1.
</event>
<event>
 7    1  0.1220351E-005  0.8438842E+02  0.7818608E-02  0.1343751E+00
          2   -1    0    0  502    0  0.00000000000E+00  0.00000000000E+00  0.25521877292E+04  0.25521877292E+04  0.00000000000E+00 0. -1.
          1   -1    0    0  501    0 -0.00000000000E+00 -0.00000000000E+00 -0.20187211783E+04  0.20187211783E+04  0.00000000000E+00 0. -1.
         25    2    1    2    0    0 -0.37181615450E+02  0.16618314816E+02 -0.41542832504E+03  0.43573476394E+03  0.12500180135E+03 0.  0.
          2    1    1    2  501    0 -0.38246354335E+02 -0.54675819179E+02 -0.15917385038E+04  0.15931364328E+04  0.00000000000E+00 0. -1.
          1    1    1    2  502    0  0.75427969785E+02  0.38057504363E+02  0.25406333798E+04  0.25420377108E+04  0.00000000000E+00 0. -1.
         22    1    3    3    0    0  0.10019691063E+02 -0.47419062332E+02 -0.20806003667E+03  0.21363038300E+03  0.00000000000E+00 0.  1.
         22    1    3    3    0    0 -0.47201306513E+02  0.64037377149E+02 -0.20736828837E+03  0.22210438093E+03  0.00000000000E+00 0.  1.
</event>
<event>
 7    1  0.5993218E-006  0.4931988E+02  0.7818608E-02  0.1540116E+00
          2   -1    0    0  502    0  0.00000000000E+00  0.00000000000E+00  0.56772278555E+03  0.56772278555E+03  0.00000000000E+00 0. -1.
          1   -1    0    0  501    0 -0.00000000000E+00 -0.00000000000E+00 -0.13475053041E+03  0.13475053041E+03  0.00000000000E+00 0. -1.
         25    2    1    2    0    0 -0.36927408294E+02 -0.51438689792E+02  0.13337670654E+03  0.19345506391E+03  0.12500377441E+03 0.  0.
          2    1    1    2  501    0 -0.46742531615E+01  0.25820091153E+02 -0.10156178205E+03  0.10489671741E+03  0.00000000000E+00 0. -1.
          1    1    1    2  502    0  0.41601661455E+02  0.25618598639E+02  0.40115733064E+03  0.40412153464E+03  0.00000000000E+00 0. -1.
         22    1    3    3    0    0 -0.14430221777E+01  0.38432091459E+02  0.63405356671E+02  0.74157583709E+02  0.00000000000E+00 0. -1.
         22    1    3    3    0    0 -0.35484386116E+02 -0.89870781251E+02  0.69971349870E+02  0.11929748021E+03  0.00000000000E+00 0. -1.
</event>
<event>
 7    1  0.5993218E-006  0.7054725E+02  0.7818608E-02  0.1482990E+00
          2   -1    0    0  502    0  0.00000000000E+00  0.00000000000E+00  0.57976360467E+03  0.57976360467E+03  0.00000000000E+00 0. -1.
          1   -1    0    0  501    0 -0.00000000000E+00 -0.00000000000E+00 -0.77834721075E+03  0.77834721075E+03  0.00000000000E+00 0. -1.
         25    2    1    2    0    0  0.14250794807E+02  0.41837112426E+02  0.35565101297E+02  0.13727228976E+03  0.12500150390E+03 0.  0.
          2    1    1    2  501    0 -0.25945529030E+02 -0.66173098763E+02 -0.72538589080E+03  0.72885989054E+03  0.00000000000E+00 0. -1.
          1    1    1    2  502    0  0.11694734224E+02  0.24335986337E+02  0.49123718342E+03  0.49197863512E+03  0.00000000000E+00 0. -1.
         22    1    3    3    0    0 -0.20424512061E+02 -0.38484264905E+02  0.21494846254E+01  0.43621320732E+02  0.00000000000E+00 0. -1.
         22    1    3    3    0    0  0.34675306868E+02  0.80321377332E+02  0.33415616672E+02  0.93650969031E+02  0.00000000000E+00 0. -1.
</event>
<event>
 7    1  0.5993218E-006  0.1220974E+03  0.7818608E-02  0.1257531E+00
          2   -1    0    0  502    0  0.00000000000E+00  0.00000000000E+00  0.74006828432E+03  0.74006828432E+03  0.00000000000E+00 0. -1.
          1   -1    0    0  501    0 -0.00000000000E+00 -0.00000000000E+00 -0.47064750542E+03  0.47064750542E+03  0.00000000000E+00 0. -1.
         25    2    1    2    0    0 -0.95592861961E+02 -0.81408183888E+02  0.13700120213E+01  0.17717936593E+03  0.12500145245E+03 0.  0.
          2    1    1    2  501    0  0.12504574210E+03 -0.16362443616E+02 -0.36817185067E+03  0.38917178572E+03  0.00000000000E+00 0. -1.
          1    1    1    2  502    0 -0.29452880136E+02  0.97770627504E+02  0.63622261755E+03  0.64436463809E+03  0.00000000000E+00 0. -1.
         22    1    3    3    0    0 -0.20421089106E+02  0.33400955443E+02  0.72912189376E+01  0.39822187011E+02  0.00000000000E+00 0. -1.
         22    1    3    3    0    0 -0.75171772856E+02 -0.11480913933E+03 -0.59212069163E+01  0.13735717892E+03  0.00000000000E+00 0. -1.
</event>
<event>
 7    1  0.5993218E-006  0.5945245E+02  0.7818608E-02  0.1407788E+00
          2   -1    0    0  502    0  0.00000000000E+00  0.00000000000E+00  0.15841833652E+03  0.15841833652E+03  0.00000000000E+00 0. -1.
          1   -1    0    0  501    0 -0.00000000000E+00 -0.00000000000E+00 -0.17225053919E+04  0.17225053919E+04  0.00000000000E+00 0. -1.
         25    2    1    2    0    0 -0.81091540972E+01  0.28227852867E+02 -0.30290998138E+03  0.32900176299E+03  0.12500053270E+03 0.  0.
          2    1    1    2  501    0 -0.46406111996E+02 -0.40951974748E+02 -0.14004512909E+04  0.14018182512E+04  0.00000000000E+00 0. -1.
          1    1    1    2  502    0  0.54515266093E+02  0.12724121881E+02  0.13927421688E+03  0.15010371415E+03  0.00000000000E+00 0. -1.
         22    1    3    3    0    0 -0.44210015936E+01  0.15391633067E+01  0.12031417705E+02  0.12910046118E+02  0.00000000000E+00 0. -1.
         22    1    3    3    0    0 -0.36881525036E+01  0.26688689560E+02 -0.31494139908E+03  0.31609171687E+03  0.00000000000E+00 0. -1.
</event>
<event>
 7    1  0.5993218E-006  0.1838011E+03  0.7818608E-02  0.1287949E+00
          2   -1    0    0  502    0  0.00000000000E+00  0.00000000000E+00  0.23429746132E+04  0.23429746132E+04  0.00000000000E+00 0. -1.
          1   -1    0    0  501    0 -0.00000000000E+00 -0.00000000000E+00 -0.26350329216E+03  0.26350329216E+03  0.00000000000E+00 0. -1.
         25    2    1    2    0    0  0.11356758722E+03  0.92191372773E+02 -0.84867199882E+01  0.19259726940E+03  0.12499935074E+03 0.  0.
          2    1    1    2  501    0  0.50297481013E+02 -0.56138173158E+01 -0.15511589465E+03  0.16316339147E+03  0.00000000000E+00 0. -1.
          1    1    1    2  502    0 -0.16386506823E+03 -0.86577555457E+02  0.22430739356E+04  0.22507172444E+04  0.00000000000E+00 0. -1.
         22    1    3    3    0    0  0.13317009483E+03  0.58913739062E+02 -0.29575493437E+02  0.14859277445E+03  0.00000000000E+00 0. -1.
         22    1    3    3    0    0 -0.19602507614E+02  0.33277633711E+02  0.21088773448E+02  0.44004494949E+02  0.00000000000E+00 0. -1.
</event>
<event>
 7    1  0.5993218E-006  0.6523355E+02  0.7818608E-02  0.1449513E+00
          2   -1    0    0  502    0  0.00000000000E+00  0.00000000000E+00  0.67702489965E+02  0.67702489965E+02  0.00000000000E+00 0. -1.
          1   -1    0    0  501    0 -0.00000000000E+00 -0.00000000000E+00 -0.50565351962E+03  0.50565351962E+03  0.00000000000E+00 0. -1.
         25    2    1    2    0    0 -0.93773552954E+02 -0.25562522764E+02 -0.20626663519E+03  0.26003310128E+03  0.12499746864E+03 0.  0.
          2    1    1    2  501    0  0.56726621030E+02  0.22670029998E+02 -0.25969840182E+03  0.26678661830E+03  0.00000000000E+00 0. -1.
          1    1    1    2  502    0  0.37046931924E+02  0.28924927659E+01  0.28014007355E+02  0.46536290006E+02  0.00000000000E+00 0. -1.
         22    1    3    3    0    0 -0.91520655577E+02  0.57635666494E+01 -0.58063297778E+02  0.10853845239E+03  0.00000000000E+00 0.  1.
         22    1    3    3    0    0 -0.22528973775E+01 -0.31326089413E+02 -0.14820333741E+03  0.15149464890E+03  0.00000000000E+00 0.  1.
</event>
<event>
 7    1  0.5993218E-006  0.6284712E+02  0.7818608E-02  0.1388126E+00
          2   -1    0    0  502    0  0.00000000000E+00  0.00000000000E+00  0.15534581489E+04  0.15534581489E+04  0.00000000000E+00 0. -1.
          1   -1    0    0  501    0 -0.00000000000E+00 -0.00000000000E+00 -0.56967921639E+02  0.56967921639E+02  0.00000000000E+00 0. -1.
         25    2    1    2    0    0 -0.30489456943E+02  0.13274403154E+02  0.49959204161E+03  0.51606580188E+03  0.12500354821E+03 0.  0.
          2    1    1    2  501    0  0.45127521832E+02  0.46876856346E+02 -0.25648555307E+02  0.69941270198E+02  0.00000000000E+00 0. -1.
          1    1    1    2  502    0 -0.14638064890E+02 -0.60151259500E+02  0.10225467410E+04  0.10244189985E+04  0.00000000000E+00 0. -1.
         22    1    3    3    0    0 -0.40810851268E+02  0.62536674090E+02  0.36035253111E+03  0.36800857037E+03  0.00000000000E+00 0. -1.
         22    1    3    3    0    0  0.10321394325E+02 -0.49262270935E+02  0.13923951050E+03  0.14805723151E+03  0.00000000000E+00 0. -1.
</event>
<event>
 7    1  0.5993218E-006  0.6733401E+02  0.7818608E-02  0.1525508E+00
          2   -1    0    0  502    0  0.00000000000E+00  0.00000000000E+00  0.59073297834E+03  0.59073297834E+03  0.00000000000E+00 0. -1.
          1   -1    0    0  501    0 -0.00000000000E+00 -0.00000000000E+00 -0.37477111400E+03  0.37477111400E+03  0.00000000000E+00 0. -1.
         25    2    1    2    0    0 -0.34819508216E+02  0.80374460035E+02  0.27706434351E+02  0.15511772294E+03  0.12498563712E+03 0.  0.
          2    1    1    2  501    0  0.28165103586E+02 -0.60291747303E+02 -0.30727814076E+03  0.31440137347E+03  0.00000000000E+00 0. -1.
          1    1    1    2  502    0  0.66544046296E+01 -0.20082712732E+02  0.49553357074E+03  0.49598499593E+03  0.00000000000E+00 0. -1.
         22    1    3    3    0    0  0.32608875258E+02  0.27706421391E+02  0.50873944896E+02  0.66476633498E+02  0.00000000000E+00 0.  1.
         22    1    3    3    0    0 -0.67428383473E+02  0.52668038644E+02 -0.23167510546E+02  0.88641089441E+02  0.00000000000E+00 0.  1.
</event>
<event>
 7    1  0.5993218E-006  0.2904150E+03  0.7818608E-02  0.1170812E+00
          2   -1    0    0  502    0  0.00000000000E+00  0.00000000000E+00  0.12336700450E+04  0.12336700450E+04  0.00000000000E+00 0. -1.
          1   -1    0    0  501    0 -0.00000000000E+00 -0.00000000000E+00 -0.99967867814E+03  0.99967867814E+03  0.00000000000E+00 0. -1.
         25    2    1    2    0    0 -0.65713194648E+02 -0.22364332764E+03  0.84583110803E+01  0.26463088638E+03  0.12499360403E+03 0.  0.
          2    1    1    2  501    0 -0.68806695610E+01  0.30331670512E+03 -0.84239480717E+03  0.89536438301E+03  0.00000000000E+00 0. -1.
          1    1    1    2  502    0  0.72593864209E+02 -0.79673377480E+02  0.10679278630E+04  0.10733534538E+04  0.00000000000E+00 0. -1.
         22    1    3    3    0    0 -0.83519876899E+01  0.15169015558E+02 -0.66801085453E+01  0.18560134201E+02  0.00000000000E+00 0.  1.
         22    1    3    3    0    0 -0.57361206959E+02 -0.23881234320E+03  0.15138419626E+02  0.24607075218E+03  0.00000000000E+00 0.  1.
</event>
<event>
 7    1  0.5993218E-006  0.7928225E+02  0.7818608E-02  0.1335879E+00
          2   -1    0    0  502    0  0.00000000000E+00  0.00000000000E+00  0.32280124066E+04  0.32280124066E+04  0.00000000000E+00 0. -1.
          1   -1    0    0  501    0 -0.00000000000E+00 -0.00000000000E+00 -0.73406540103E+02  0.73406540103E+02  0.00000000000E+00 0. -1.
         25    2    1    2    0    0  0.10105349603E+03  0.10542815455E+03  0.51010138607E+03  0.54512003466E+03  0.12500209311E+03 0.  0.
          2    1    1    2  501    0 -0.35034995318E+02 -0.67705094404E+02 -0.29111349895E+02  0.81602091872E+02  0.00000000000E+00 0. -1.
          1    1    1    2  502    0 -0.66018500715E+02 -0.37723060141E+02  0.26736158304E+04  0.26746968202E+04  0.00000000000E+00 0. -1.
         22    1    3    3    0    0 -0.20916204121E+02  0.54087850334E+02  0.12209681472E+03  0.13516884002E+03  0.00000000000E+00 0. -1.
         22    1    3    3    0    0  0.12196970015E+03  0.51340304212E+02  0.38800457135E+03  0.40995119464E+03  0.00000000000E+00 0. -1.
</event>
<event>
 7    1  0.5993218E-006  0.4640964E+02  0.7818608E-02  0.1490385E+00
          2   -1    0    0  502    0  0.00000000000E+00  0.00000000000E+00  0.44192275853E+03  0.44192275853E+03  0.00000000000E+00 0. -1.
          1   -1    0    0  501    0 -0.00000000000E+00 -0.00000000000E+00 -0.12501451263E+03  0.12501451263E+03  0.00000000000E+00 0. -1.
         25    2    1    2    0    0 -0.76941543668E+00 -0.23035350634E+02  0.67571219727E+02  0.14395101310E+03  0.12499922023E+03 0.  0.
          2    1    1    2  501    0  0.39386068941E+02  0.28291880782E+02 -0.78808972650E+02  0.92534032198E+02  0.00000000000E+00 0. -1.
          1    1    1    2  502    0 -0.38616653504E+02 -0.52565301477E+01  0.32814599882E+03  0.33045222586E+03  0.00000000000E+00 0. -1.
         22    1    3    3    0    0 -0.40204116697E+02  0.14793074431E+02 -0.14608519295E+02  0.45261627086E+02  0.00000000000E+00 0.  1.
         22    1    3    3    0    0  0.39434701260E+02 -0.37828425065E+02  0.82179739022E+02  0.98689386016E+02  0.00000000000E+00 0.  1.
</event>
<event>
 7    1  0.5993218E-006  0.5691762E+02  0.7818608E-02  0.1467427E+00
          2   -1    0    0  502    0  0.00000000000E+00  0.00000000000E+00  0.25218070576E+03  0.25218070576E+03  0.00000000000E+00 0. -1.
          1   -1    0    0  501    0 -0.00000000000E+00 -0.00000000000E+00 -0.26802821628E+03  0.26802821628E+03  0.00000000000E+00 0. -1.
         25    2    1    2    0    0 -0.62694508932E+02  0.49359020522E+02 -0.79771567626E+02  0.16838971530E+03  0.12499871543E+03 0.  0.
          2    1    1    2  501    0  0.53303448366E+02 -0.13175843986E+02 -0.13692345508E+03  0.14752251701E+03  0.00000000000E+00 0. -1.
          1    1    1    2  502    0  0.93910605666E+01 -0.36183176536E+02  0.20084751219E+03  0.20429668973E+03  0.00000000000E+00 0. -1.
         22    1    3    3    0    0 -0.62673738976E+02  0.85458272669E+02 -0.36611074261E+02  0.11212263234E+03  0.00000000000E+00 0.  1.
         22    1    3    3    0    0 -0.20769956148E-01 -0.36099252147E+02 -0.43160493365E+02  0.56267082957E+02  0.00000000000E+00 0.  1.
</event>
<event>
 7    1  0.5993218E-006  0.7401412E+02  0.7818608E-02  0.1457272E+00
          2   -1    0    0  502    0  0.00000000000E+00  0.00000000000E+00  0.10396391976E+04  0.10396391976E+04  0.00000000000E+00 0. -1.
          1   -1    0    0  501    0 -0.00000000000E+00 -0.00000000000E+00 -0.15530633263E+04  0.15530633263E+04  0.00000000000E+00 0. -1.
         25    2    1    2    0    0  0.82306046264E+02 -0.19262720722E+02  0.20581398979E+03  0.25520500617E+03  0.12499943646E+03 0.  0.
          2    1    1    2  501    0 -0.73270930517E+02 -0.10328921018E+02 -0.15271759215E+04  0.15289674984E+04  0.00000000000E+00 0. -1.
          1    1    1    2  502    0 -0.90351157473E+01  0.29591641740E+02  0.80793780307E+03  0.80853001936E+03  0.00000000000E+00 0. -1.
         22    1    3    3    0    0  0.16137751636E+02 -0.66230517323E+02  0.11253821671E+03  0.13157415655E+03  0.00000000000E+00 0. -1.
         22    1    3    3    0    0  0.66168294628E+02  0.46967796601E+02  0.93275773086E+02  0.12363084961E+03  0.00000000000E+00 0. -1.
</event>
<event>
 7    1  0.5993218E-006  0.9246207E+02  0.7818608E-02  0.1348900E+00
          2   -1    0    0  502    0  0.00000000000E+00  0.00000000000E+00  0.12817567853E+04  0.12817567853E+04  0.00000000000E+00 0. -1.
          1   -1    0    0  501    0 -0.00000000000E+00 -0.00000000000E+00 -0.18949558330E+03  0.18949558330E+03  0.00000000000E+00 0. -1.
         25    2    1    2    0    0  0.18603657638E+02  0.73829203346E+02  0.22952913995E+03  0.27222239696E+03  0.12499823990E+03 0.  0.
          2    1    1    2  501    0  0.38383925541E+02 -0.85973790353E+02 -0.15406918469E+03  0.18056060489E+03  0.00000000000E+00 0. -1.
          1    1    1    2  502    0 -0.56987583179E+02  0.12144587007E+02  0.10168012467E+04  0.10184693667E+04  0.00000000000E+00 0. -1.
         22    1    3    3    0    0 -0.17341587286E+02 -0.19772568353E+02  0.56271583800E+01  0.26895167230E+02  0.00000000000E+00 0. -1.
         22    1    3    3    0    0  0.35945244924E+02  0.93601771699E+02  0.22390198157E+03  0.24532722973E+03  0.00000000000E+00 0. -1.
</event>
<event>
 7    1  0.5993218E-006  0.2426021E+03  0.7818608E-02  0.1223736E+00
          2   -1    0    0  502    0  0.00000000000E+00  0.00000000000E+00  0.11233887588E+04  0.11233887588E+04  0.00000000000E+00 0. -1.
          1   -1    0    0  501    0 -0.00000000000E+00 -0.00000000000E+00 -0.14802557001E+03  0.14802557001E+03  0.00000000000E+00 0. -1.
         25    2    1    2    0    0  0.23519606168E+03 -0.16804064974E+03  0.32440294242E+03  0.45212424349E+03  0.12499686039E+03 0.  0.
          2    1    1    2  501    0 -0.28923430926E+02  0.66381592192E+02 -0.45721407529E+02  0.85636018970E+02  0.00000000000E+00 0. -1.
          1    1    1    2  502    0 -0.20627263076E+03  0.10165905754E+03  0.69668165390E+03  0.73365406634E+03  0.00000000000E+00 0. -1.
         22    1    3    3    0    0  0.17237689683E+03 -0.49037943622E+02  0.16604906693E+03  0.24431702173E+03  0.00000000000E+00 0.  1.
         22    1    3    3    0    0  0.62819164847E+02 -0.11900270611E+03  0.15835387549E+03  0.20780722176E+03  0.00000000000E+00 0.  1.
</event>
<event>
 7    1  0.5993218E-006  0.7295138E+02  0.7818608E-02  0.1398567E+00
          2   -1    0    0  502    0  0.00000000000E+00  0.00000000000E+00  0.10804854576E+03  0.10804854576E+03  0.00000000000E+00 0. -1.
          1   -1    0    0  501    0 -0.00000000000E+00 -0.00000000000E+00 -0.11997857794E+04  0.11997857794E+04  0.00000000000E+00 0. -1.
         25    2    1    2    0    0 -0.13798979871E+02  0.54664838225E+02 -0.57203814365E+03  0.58824415703E+03  0.12499957641E+03 0.  0.
          2    1    1    2  501    0 -0.30607873347E+02 -0.75520888309E+02 -0.61075036404E+03  0.61616252211E+03  0.00000000000E+00 0. -1.
          1    1    1    2  502    0  0.44406853218E+02  0.20856050084E+02  0.91051274097E+02  0.10342764598E+03  0.00000000000E+00 0. -1.
         22    1    3    3    0    0 -0.21414870228E+02  0.25234694258E+01 -0.49166180834E+03  0.49213443118E+03  0.00000000000E+00 0. -1.
         22    1    3    3    0    0  0.76158903573E+01  0.52141368799E+02 -0.80376335306E+02  0.96109725852E+02  0.00000000000E+00 0. -1.
</event>
<event>
 7    1  0.5993218E-006  0.1049054E+03  0.7818608E-02  0.1449912E+00
          2   -1    0    0  502    0  0.00000000000E+00  0.00000000000E+00  0.54489786461E+03  0.54489786461E+03  0.00000000000E+00 0. -1.
          1   -1    0    0  501    0 -0.00000000000E+00 -0.00000000000E+00 -0.50564494575E+03  0.50564494575E+03  0.00000000000E+00 0. -1.
         25    2    1    2    0    0 -0.72562117417E+02  0.10385195558E+03  0.28303857164E+03  0.33435541129E+03  0.12502887051E+03 0.  0.
          2    1    1    2  501    0  0.64398215796E+02 -0.82307650681E+02 -0.47371546229E+03  0.48510619329E+03  0.00000000000E+00 0. -1.
          1    1    1    2  502    0  0.81639016212E+01 -0.21544304900E+02  0.22992980951E+03  0.23108120578E+03  0.00000000000E+00 0. -1.
         22    1    3    3    0    0 -0.80783667421E+02  0.45633307771E+02  0.25055636496E+03  0.26718325495E+03  0.00000000000E+00 0.  1.
         22    1    3    3    0    0  0.82215500041E+01  0.58218647811E+02  0.32482206680E+02  0.67172156346E+02  0.00000000000E+00 0.  1.
</event>
<event>
 7    1  0.5993218E-006  0.7646454E+02  0.7818608E-02  0.1371186E+00
          2   -1    0    0  502    0  0.00000000000E+00  0.00000000000E+00  0.34322427836E+02  0.34322427836E+02  0.00000000000E+00 0. -1.
          1   -1    0    0  501    0 -0.00000000000E+00 -0.00000000000E+00 -0.15415149499E+04  0.15415149499E+04  0.00000000000E+00 0. -1.
         25    2    1    2    0    0 -0.53342686023E+02  0.62331197757E+02 -0.59592710860E+03  0.61439526919E+03  0.12498723001E+03 0.  0.
          2    1    1    2  501    0 -0.24077528602E+02 -0.53232104477E+02 -0.87236993976E+03  0.87432413677E+03  0.00000000000E+00 0. -1.
          1    1    1    2  502    0  0.77420214625E+02 -0.90990932809E+01 -0.38895473676E+02  0.87117971760E+02  0.00000000000E+00 0. -1.
         22    1    3    3    0    0 -0.89813155437E+02  0.60719236479E+02 -0.37065468200E+03  0.38618405179E+03  0.00000000000E+00 0.  1.
         22    1    3    3    0    0  0.36470469414E+02  0.16119612782E+01 -0.22527242660E+03  0.22821121740E+03  0.00000000000E+00 0.  1.
</event>
<event>
 7    1  0.5993218E-006  0.5299764E+02  0.7818608E-02  0.1559185E+00
          2   -1    0    0  502    0  0.00000000000E+00  0.00000000000E+00  0.70245708098E+03  0.70245708098E+03  0.00000000000E+00 0. -1.
          1   -1    0    0  501    0 -0.00000000000E+00 -0.00000000000E+00 -0.21382219270E+03  0.21382219270E+03  0.00000000000E+00 0. -1.
         25    2    1    2    0    0 -0.66255820912E+02  0.29691774921E+02  0.10815197123E+03  0.18053614774E+03  0.12500006583E+03 0.  0.
          2    1    1    2  501    0  0.16235619826E+02 -0.14250648486E+02 -0.17573971172E+03  0.17706248222E+03  0.00000000000E+00 0. -1.
          1    1    1    2  502    0  0.50020201086E+02 -0.15441126436E+02  0.55622262878E+03  0.55868064372E+03  0.00000000000E+00 0. -1.
         22    1    3    3    0    0 -0.10346594877E+03  0.28463200849E+02  0.81463828654E+02  0.13472828855E+03  0.00000000000E+00 0.  1.
         22    1    3    3    0    0  0.37210127855E+02  0.12285740724E+01  0.26688142577E+02  0.45807859189E+02  0.00000000000E+00 0.  1.
</event>
<event>
 7    1  0.5993218E-006  0.7779830E+02  0.7818608E-02  0.1387371E+00
          2   -1    0    0  502    0  0.00000000000E+00  0.00000000000E+00  0.95319400472E+03  0.95319400472E+03  0.00000000000E+00 0. -1.
          1   -1    0    0  501    0 -0.00000000000E+00 -0.00000000000E+00 -0.15580872331E+04  0.15580872331E+04  0.00000000000E+00 0. -1.
         25    2    1    2    0    0 -0.31900525966E+02 -0.29952191034E+02  0.10723446102E+03  0.17041039741E+03  0.12500278641E+03 0.  0.
          2    1    1    2  501    0  0.13826871565E+02 -0.48377777934E+02 -0.15240992936E+04  0.15249295881E+04  0.00000000000E+00 0. -1.
          1    1    1    2  502    0  0.18073654402E+02  0.78329968968E+02  0.81197160427E+03  0.81594125227E+03  0.00000000000E+00 0. -1.
         22    1    3    3    0    0  0.11682403250E+02 -0.24593788731E+02  0.12128699202E+03  0.12430554060E+03  0.00000000000E+00 0.  1.
         22    1    3    3    0    0 -0.43582929216E+02 -0.53584023032E+01 -0.14052530997E+02  0.46104856813E+02  0.00000000000E+00 0.  1.
</event>
<event>
 7    1  0.5993218E-006  0.5289725E+02  0.7818608E-02  0.1526877E+00
          2   -1    0    0  502    0  0.00000000000E+00  0.00000000000E+00  0.48288074616E+03  0.48288074616E+03  0.00000000000E+00 0. -1.
          1   -1    0    0  501    0 -0.00000000000E+00 -0.00000000000E+00 -0.48551045037E+03  0.48551045037E+03  0.00000000000E+00 0. -1.
         25    2    1    2    0    0  0.25850511847E+02  0.13316295119E+02 -0.12525808592E+03  0.17933215834E+03  0.12499944899E+03 0.  0.
          2    1    1    2  501    0 -0.52319958804E+02 -0.16717346619E+02 -0.33055667637E+03  0.33508888979E+03  0.00000000000E+00 0. -1.
          1    1    1    2  502    0  0.26469446956E+02  0.34010515007E+01  0.45318505808E+03  0.45397014840E+03  0.00000000000E+00 0. -1.
         22    1    3    3    0    0  0.37254376385E+01 -0.33917218551E+02 -0.12243113160E+03  0.12709696528E+03  0.00000000000E+00 0. -1.
         22    1    3    3    0    0  0.22125074209E+02  0.47233513670E+02 -0.28269543203E+01  0.52235193051E+02  0.00000000000E+00 0. -1.
</event>
<event>
 7    1  0.5993218E-006  0.4562767E+02  0.7818608E-02  0.1588657E+00
          2   -1    0    0  502    0  0.00000000000E+00  0.00000000000E+00  0.39927879746E+03  0.39927879746E+03  0.00000000000E+00 0. -1.
          1   -1    0    0  501    0 -0.00000000000E+00 -0.00000000000E+00 -0.11055217763E+03  0.11055217763E+03  0.00000000000E+00 0. -1.
         25    2    1    2    0    0  0.21912203818E+02  0.15809462492E+02  0.91131391155E+02  0.15703403608E+03  0.12499869701E+03 0.  0.
          2    1    1    2  501    0  0.10168690577E+02  0.18244243465E+02 -0.74159337026E+02  0.77044545270E+02  0.00000000000E+00 0. -1.
          1    1    1    2  502    0 -0.32080894395E+02 -0.34053705957E+02  0.27175456570E+03  0.27575239374E+03  0.00000000000E+00 0. -1.
         22    1    3    3    0    0 -0.27353660723E+02  0.35428743180E+02  0.93806564055E+02  0.10393791444E+03  0.00000000000E+00 0. -1.
         22    1    3    3    0    0  0.49265864541E+02 -0.19619280688E+02 -0.26751729002E+01  0.53096121645E+02  0.00000000000E+00 0. -1.
</event>
<event>
 7    1  0.5993218E-006  0.7811174E+02  0.7818608E-02  0.1353310E+00
          2   -1    0    0  502    0  0.00000000000E+00  0.00000000000E+00  0.19463335267E+04  0.19463335267E+04  0.00000000000E+00 0. -1.
          1   -1    0    0  501    0 -0.00000000000E+00 -0.00000000000E+00 -0.12461289245E+04  0.12461289245E+04  0.00000000000E+00 0. -1.
         25    2    1    2    0    0 -0.25174478287E+02 -0.46630780815E+02  0.78411190132E+03  0.79577871954E+03  0.12499645034E+03 0.  0.
          2    1    1    2  501    0  0.77936808923E+02  0.62702878472E+01 -0.12381072761E+04  0.12405736938E+04  0.00000000000E+00 0. -1.
          1    1    1    2  502    0 -0.52762330636E+02  0.40360492968E+02  0.11541999769E+04  0.11561100379E+04  0.00000000000E+00 0. -1.
         22    1    3    3    0    0  0.28211251762E+02  0.20747483225E+01  0.55092860071E+03  0.55165433234E+03  0.00000000000E+00 0.  1.
         22    1    3    3    0    0 -0.53385730048E+02 -0.48705529138E+02  0.23318330061E+03  0.24412438720E+03  0.00000000000E+00 0.  1.
</event>
<event>
 7    1  0.5993218E-006  0.2975217E+02  0.7818608E-02  0.1628174E+00
          2   -1    0    0  502    0  0.00000000000E+00  0.00000000000E+00  0.14291909533E+04  0.14291909533E+04  0.00000000000E+00 0. -1.
          1   -1    0    0  501    0 -0.00000000000E+00 -0.00000000000E+00 -0.27528852009E+03  0.27528852009E+03  0.00000000000E+00 0. -1.
         25    2    1    2    0    0  0.30407628013E+02 -0.71925452749E+01  0.39077536859E+03  0.41146877893E+03  0.12499924317E+03 0.  0.
          2    1    1    2  501    0 -0.60369609248E+01  0.24587210607E+02 -0.26411835438E+03  0.26532900509E+03  0.00000000000E+00 0. -1.
          1    1    1    2  502    0 -0.24370667088E+02 -0.17394665332E+02  0.10272454190E+04  0.10276816894E+04  0.00000000000E+00 0. -1.
         22    1    3    3    0    0  0.76104929141E+02 -0.21646301397E+02  0.20884560848E+03  0.22333161618E+03  0.00000000000E+00 0.  1.
         22    1    3    3    0    0 -0.45697301129E+02  0.14453756122E+02  0.18192976010E+03  0.18813716275E+03  0.00000000000E+00 0.  1.
</event>
<event>
 7    1  0.5993218E-006  0.1641763E+03  0.7818608E-02  0.1284520E+00
          2   -1    0    0  502    0  0.00000000000E+00  0.00000000000E+00  0.35813983078E+03  0.35813983078E+03  0.00000000000E+00 0. -1.
          1   -1    0    0  501    0 -0.00000000000E+00 -0.00000000000E+00 -0.90676971771E+03  0.90676971771E+03  0.00000000000E+00 0. -1.
         25    2    1    2    0    0  0.19219600933E+03  0.65494760440E+02 -0.20585047142E+03  0.31500549570E+03  0.12500070436E+03 0.  0.
          2    1    1    2  501    0 -0.15677465594E+03 -0.18913328268E+02 -0.63373976503E+03  0.65311721498E+03  0.00000000000E+00 0. -1.
          1    1    1    2  502    0 -0.35421353391E+02 -0.46581432173E+02  0.29096034953E+03  0.29678683781E+03  0.00000000000E+00 0. -1.
         22    1    3    3    0    0  0.14451381347E+03  0.48765979260E+02 -0.21504794788E+03  0.26364366654E+03  0.00000000000E+00 0.  1.
         22    1    3    3    0    0  0.47682195865E+02  0.16728781180E+02  0.91974764586E+01  0.51361829168E+02  0.00000000000E+00 0.  1.
</event>
<event>
 7    1  0.5993218E-006  0.6310700E+02  0.7818608E-02  0.1421250E+00
          2   -1    0    0  502    0  0.00000000000E+00  0.00000000000E+00  0.38402960303E+03  0.38402960303E+03  0.00000000000E+00 0. -1.
          1   -1    0    0  501    0 -0.00000000000E+00 -0.00000000000E+00 -0.50243101302E+03  0.50243101302E+03  0.00000000000E+00 0. -1.
         25    2    1    2    0    0  0.33129960940E+01 -0.10154227211E+03  0.13399722575E+02  0.16164302906E+03  0.12500842895E+03 0.  0.
          2    1    1    2  501    0  0.18357365004E+02  0.43822956479E+02 -0.42376241199E+03  0.42641766636E+03  0.00000000000E+00 0. -1.
          1    1    1    2  502    0 -0.21670361098E+02  0.57719315635E+02  0.29196127943E+03  0.29839992063E+03  0.00000000000E+00 0. -1.
         22    1    3    3    0    0 -0.15149117305E+02 -0.80560173501E+02 -0.47426517417E+02  0.94703283280E+02  0.00000000000E+00 0.  1.
         22    1    3    3    0    0  0.18462113399E+02 -0.20982098613E+02  0.60826239993E+02  0.66939745779E+02  0.00000000000E+00 0.  1.
</event>
<event>
 7    1  0.5993218E-006  0.1530955E+03  0.7818608E-02  0.1321010E+00
          2   -1    0    0  502    0  0.00000000000E+00  0.00000000000E+00  0.27120179193E+04  0.27120179193E+04  0.00000000000E+00 0. -1.
          1   -1    0    0  501    0 -0.00000000000E+00 -0.00000000000E+00 -0.17944976670E+03  0.17944976670E+03  0.00000000000E+00 0. -1.
         25    2    1    2    0    0 -0.79684087706E+02  0.16194850458E+03  0.34922224709E+03  0.41250263524E+03  0.12500149697E+03 0.  0.
          2    1    1    2  501    0 -0.13491407877E+02 -0.42817471559E+02 -0.14188654465E+03  0.14881917051E+03  0.00000000000E+00 0. -1.
          1    1    1    2  502    0  0.93175495583E+02 -0.11913103302E+03  0.23252324502E+04  0.23301458803E+04  0.00000000000E+00 0. -1.
         22    1    3    3    0    0  0.11233769492E+02  0.78928741847E+02  0.65365193210E+02  0.10309487063E+03  0.00000000000E+00 0. -1.
         22    1    3    3    0    0 -0.90917857198E+02  0.83019762736E+02  0.28385705388E+03  0.30940776461E+03  0.00000000000E+00 0. -1.
</event>
<event>
 7    1  0.5993218E-006  0.6684556E+02  0.7818608E-02  0.1381187E+00
          2   -1    0    0  502    0  0.00000000000E+00  0.00000000000E+00  0.35290763470E+03  0.35290763470E+03  0.00000000000E+00 0. -1.
          1   -1    0    0  501    0 -0.00000000000E+00 -0.00000000000E+00 -0.82415570761E+03  0.82415570761E+03  0.00000000000E+00 0. -1.
         25    2    1    2    0    0 -0.83207421104E+01  0.11189642239E+02 -0.16209217698E+03  0.20516678958E+03  0.12500037946E+03 0.  0.
          2    1    1    2  501    0 -0.55824251905E+00 -0.72114460625E+02 -0.63560961688E+03  0.63968773018E+03  0.00000000000E+00 0. -1.
          1    1    1    2  502    0  0.88789846295E+01  0.60924818387E+02  0.32645372095E+03  0.33220882256E+03  0.00000000000E+00 0. -1.
         22    1    3    3    0    0  0.44772784588E+02 -0.35044757535E+00 -0.13917203255E+03  0.14619705776E+03  0.00000000000E+00 0. -1.
         22    1    3    3    0    0 -0.53093526698E+02  0.11540089814E+02 -0.22920144427E+02  0.58969731818E+02  0.00000000000E+00 0. -1.
</event>
<event>
 7    1  0.5993218E-006  0.4330711E+02  0.7818608E-02  0.1577236E+00
          2   -1    0    0  502    0  0.00000000000E+00  0.00000000000E+00  0.10909531889E+04  0.10909531889E+04  0.00000000000E+00 0. -1.
          1   -1    0    0  501    0 -0.00000000000E+00 -0.00000000000E+00 -0.14435504260E+03  0.14435504260E+03  0.00000000000E+00 0. -1.
         25    2    1    2    0    0 -0.53142535340E+02  0.22917185617E+02  0.51310508962E+02  0.14699299630E+03  0.12499938469E+03 0.  0.
          2    1    1    2  501    0  0.30593664857E+02 -0.29906916948E+02 -0.91624419431E+02  0.10112086949E+03  0.00000000000E+00 0. -1.
          1    1    1    2  502    0  0.22548870483E+02  0.69897313310E+01  0.98691205677E+03  0.98719436572E+03  0.00000000000E+00 0. -1.
         22    1    3    3    0    0 -0.71812721738E+02  0.23615605585E+02  0.81706852584E+02  0.11131385174E+03  0.00000000000E+00 0. -1.
         22    1    3    3    0    0  0.18670186398E+02 -0.69841996818E+00 -0.30396343622E+02  0.35679144555E+02  0.00000000000E+00 0. -1.
</event>
<event>
 7    1  0.5993218E-006  0.8971461E+02  0.7818608E-02  0.1364909E+00
          2   -1    0    0  502    0  0.00000000000E+00  0.00000000000E+00  0.66397256639E+03  0.66397256639E+03  0.00000000000E+00 0. -1.
          1   -1    0    0  501    0 -0.00000000000E+00 -0.00000000000E+00 -0.69854067125E+03  0.69854067125E+03  0.00000000000E+00 0. -1.
         25    2    1    2    0    0 -0.92128269475E+02 -0.58157784921E+02 -0.28743864909E+03  0.33183708824E+03  0.12499972064E+03 0.  0.
          2    1    1    2  501    0  0.48443080632E+02 -0.20131385751E+02 -0.38397958807E+03  0.38754655051E+03  0.00000000000E+00 0. -1.
          1    1    1    2  502    0  0.43685188843E+02  0.78289170672E+02  0.63685013230E+03  0.64312959890E+03  0.00000000000E+00 0. -1.
         22    1    3    3    0    0 -0.34985349990E+02 -0.71389088194E+02 -0.67749869649E+02  0.10445296293E+03  0.00000000000E+00 0. -1.
         22    1    3    3    0    0 -0.57142919485E+02  0.13231303272E+02 -0.21968877944E+03  0.22738412531E+03  0.00000000000E+00 0. -1.
</event>
<event>
 7    1  0.5993218E-006  0.1652895E+03  0.7818608E-02  0.1327990E+00
          2   -1    0    0  502    0  0.00000000000E+00  0.00000000000E+00  0.10643661533E+04  0.10643661533E+04  0.00000000000E+00 0. -1.
          1   -1    0    0  501    0 -0.00000000000E+00 -0.00000000000E+00 -0.74543017598E+02  0.74543017598E+02  0.00000000000E+00 0. -1.
         25    2    1    2    0    0  0.14460994055E+03  0.91737436583E+02  0.26063728936E+03  0.33598165777E+03  0.12499634225E+03 0.  0.
          2    1    1    2  501    0 -0.11439449249E+03 -0.11652849734E+03  0.14786141042E+03  0.22029068817E+03  0.00000000000E+00 0. -1.
          1    1    1    2  502    0 -0.30215448064E+02  0.24791060757E+02  0.58132443596E+03  0.58263682500E+03  0.00000000000E+00 0. -1.
         22    1    3    3    0    0  0.55990546447E+02  0.86970550423E+02  0.20927892799E+03  0.23344482782E+03  0.00000000000E+00 0.  1.
         22    1    3    3    0    0  0.88619394103E+02  0.47668861595E+01  0.51358361369E+02  0.10253682996E+03  0.00000000000E+00 0.  1.
</event>
<event>
 7    1  0.5993218E-006  0.4060040E+03  0.7818608E-02  0.1116780E+00
          2   -1    0    0  502    0  0.00000000000E+00  0.00000000000E+00  0.20265017705E+04  0.20265017705E+04  0.00000000000E+00 0. -1.
          1   -1    0    0  501    0 -0.00000000000E+00 -0.00000000000E+00 -0.12694656639E+04  0.12694656639E+04  0.00000000000E+00 0. -1.
         25    2    1    2    0    0  0.27422841880E+03 -0.41988413489E+03 -0.43651448413E+03  0.67651909530E+03  0.12501711499E+03 0.  0.
          2    1    1    2  501    0 -0.14199133539E+03  0.39322497242E+02 -0.68372942069E+03  0.69942384777E+03  0.00000000000E+00 0. -1.
          1    1    1    2  502    0 -0.13223708341E+03  0.38056163765E+03  0.18772800114E+04  0.19200244913E+04  0.00000000000E+00 0. -1.
         22    1    3    3    0    0  0.24817810736E+03 -0.37572177608E+03 -0.43367633039E+03  0.62516748599E+03  0.00000000000E+00 0. -1.
         22    1    3    3    0    0  0.26050311441E+02 -0.44162358815E+02 -0.28381537319E+01  0.51351609312E+02  0.00000000000E+00 0. -1.
</event>
<event>
 7    1  0.5993218E-006  0.1039526E+03  0.7818608E-02  0.1387273E+00
          2   -1    0    0  502    0  0.00000000000E+00  0.00000000000E+00  0.11811332230E+04  0.11811332230E+04  0.00000000000E+00 0. -1.
          1   -1    0    0  501    0 -0.00000000000E+00 -0.00000000000E+00 -0.15693808206E+03  0.15693808206E+03  0.00000000000E+00 0. -1.
         25    2    1    2    0    0  0.64887260361E+01  0.88035914088E+02 -0.90279040138E+02  0.17767222789E+03  0.12499875895E+03 0.  0.
          2    1    1    2  501    0  0.37072110005E+02  0.67719940528E+01 -0.32409990645E+01  0.37824665479E+02  0.00000000000E+00 0. -1.
          1    1    1    2  502    0 -0.43560836041E+02 -0.94807908141E+02  0.11177151801E+04  0.11225744117E+04  0.00000000000E+00 0. -1.
         22    1    3    3    0    0  0.19648411382E+01  0.44805504094E+02  0.27170926885E+02  0.52437134415E+02  0.00000000000E+00 0. -1.
         22    1    3    3    0    0  0.45238848979E+01  0.43230409994E+02 -0.11744996702E+03  0.12523509347E+03  0.00000000000E+00 0. -1.
</event>
<event>
 7    1  0.5993218E-006  0.1950155E+03  0.7818608E-02  0.1328104E+00
          2   -1    0    0  502    0  0.00000000000E+00  0.00000000000E+00  0.19566446089E+03  0.19566446089E+03  0.00000000000E+00 0. -1.
          1   -1    0    0  501    0 -0.00000000000E+00 -0.00000000000E+00 -0.25615996300E+04  0.25615996300E+04  0.00000000000E+00 0. -1.
         25    2    1    2    0    0  0.10694087505E+03  0.13596632386E+03 -0.52350041820E+03  0.56533249282E+03  0.12499979037E+03 0.  0.
          2    1    1    2  501    0 -0.45306983180E+01  0.32781513648E+02 -0.19612564932E+04  0.19615356706E+04  0.00000000000E+00 0. -1.
          1    1    1    2  502    0 -0.10241017673E+03 -0.16874783751E+03  0.11882174229E+03  0.23039592749E+03  0.00000000000E+00 0. -1.
         22    1    3    3    0    0  0.81478591397E+02  0.11179773582E+03 -0.22048676757E+03  0.26029196927E+03  0.00000000000E+00 0.  1.
         22    1    3    3    0    0  0.25462283654E+02  0.24168588037E+02 -0.30301365063E+03  0.30504052355E+03  0.00000000000E+00 0.  1.
</event>
<event>
 7    1  0.5993218E-006  0.8536033E+02  0.7818608E-02  0.1347802E+00
          2   -1    0    0  502    0  0.00000000000E+00  0.00000000000E+00  0.26753769559E+03  0.26753769559E+03  0.00000000000E+00 0. -1.
          1   -1    0    0  501    0 -0.00000000000E+00 -0.00000000000E+00 -0.20821483242E+04  0.20821483242E+04  0.00000000000E+00 0. -1.
         25    2    1    2    0    0  0.12041847068E+03 -0.76446575652E+02  0.19445065346E+02  0.19065507643E+03  0.12500624221E+03 0.  0.
          2    1    1    2  501    0 -0.54033980683E+02  0.33753782289E+02 -0.19864176951E+04  0.19874391181E+04  0.00000000000E+00 0. -1.
          1    1    1    2  502    0 -0.66384489994E+02  0.42692793363E+02  0.15236200110E+03  0.17159182526E+03  0.00000000000E+00 0. -1.
         22    1    3    3    0    0  0.13318804063E+02 -0.70998356738E+02  0.38315325413E+02  0.81769317978E+02  0.00000000000E+00 0. -1.
         22    1    3    3    0    0  0.10709966661E+03 -0.54482189149E+01 -0.18870260067E+02  0.10888575845E+03  0.00000000000E+00 0. -1.
</event>
<event>
 7    1  0.5993218E-006  0.9514351E+02  0.7818608E-02  0.1314052E+00
          2   -1    0    0  502    0  0.00000000000E+00  0.00000000000E+00  0.24365831159E+04  0.24365831159E+04  0.00000000000E+00 0. -1.
          1   -1    0    0  501    0 -0.00000000000E+00 -0.00000000000E+00 -0.19164775745E+03  0.19164775745E+03  0.00000000000E+00 0. -1.
         25    2    1    2    0    0 -0.63613494684E+02 -0.15081820142E+03  0.53957745139E+03  0.57754747560E+03  0.12499781572E+03 0.  0.
          2    1    1    2  501    0  0.46694165949E+02  0.61085306424E+02 -0.16293231869E+03  0.18016298252E+03  0.00000000000E+00 0. -1.
          1    1    1    2  502    0  0.16919328735E+02  0.89732894997E+02  0.18682902257E+04  0.18705204152E+04  0.00000000000E+00 0. -1.
         22    1    3    3    0    0 -0.56869976843E+02 -0.21679269051E+01  0.16203052528E+03  0.17173463628E+03  0.00000000000E+00 0.  1.
         22    1    3    3    0    0 -0.67435178409E+01 -0.14865027452E+03  0.37754692610E+03  0.40581283932E+03  0.00000000000E+00 0.  1.
</event>
<event>
 7    1  0.5993218E-006  0.4729858E+02  0.7818608E-02  0.1510655E+00
          2   -1    0    0  502    0  0.00000000000E+00  0.00000000000E+00  0.26441740490E+04  0.26441740490E+04  0.00000000000E+00 0. -1.
          1   -1    0    0  501    0 -0.00000000000E+00 -0.00000000000E+00 -0.90949537861E+01  0.90949537861E+01  0.00000000000E+00 0. -1.
         25    2    1    2    0    0 -0.49370423347E+02  0.57464913930E+02  0.92860875462E+03  0.94004183476E+03  0.12499910760E+03 0.  0.
          2    1    1    2  501    0  0.24699175068E+02 -0.35141685123E+02  0.14086297619E+03  0.14726630756E+03  0.00000000000E+00 0. -1.
          1    1    1    2  502    0  0.24671248279E+02 -0.22323228807E+02  0.15656073644E+04  0.15659608605E+04  0.00000000000E+00 0. -1.
         22    1    3    3    0    0  0.23933057105E+02  0.18008565503E+02  0.61006430822E+03  0.61079911576E+03  0.00000000000E+00 0. -1.
         22    1    3    3    0    0 -0.73303480451E+02  0.39456348427E+02  0.31854444640E+03  0.32924271900E+03  0.00000000000E+00 0. -1.
</event>
<event>
 7    1  0.5993218E-006  0.4945050E+02  0.7818608E-02  0.1456899E+00
          2   -1    0    0  502    0  0.00000000000E+00  0.00000000000E+00  0.84683382184E+03  0.84683382184E+03  0.00000000000E+00 0. -1.
          1   -1    0    0  501    0 -0.00000000000E+00 -0.00000000000E+00 -0.10836173945E+04  0.10836173945E+04  0.00000000000E+00 0. -1.
         25    2    1    2    0    0  0.86708388183E+02  0.21154852458E+02 -0.20965163564E+02  0.15501143831E+03  0.12499254201E+03 0.  0.
          2    1    1    2  501    0 -0.40711107153E+02 -0.27519556446E+02 -0.99433052682E+03  0.99554403057E+03  0.00000000000E+00 0. -1.
          1    1    1    2  502    0 -0.45997281029E+02  0.63647039882E+01  0.77851211778E+03  0.77989574742E+03  0.00000000000E+00 0. -1.
         22    1    3    3    0    0  0.27226929494E+02 -0.29352947794E+02  0.39539673271E+02  0.56269769826E+02  0.00000000000E+00 0.  1.
         22    1    3    3    0    0  0.59481458689E+02  0.50507800251E+02 -0.60504836835E+02  0.98741668481E+02  0.00000000000E+00 0.  1.
</event>
<event>
 7    1  0.5993218E-006  0.2243289E+03  0.7818608E-02  0.1292663E+00
          2   -1    0    0  502    0  0.00000000000E+00  0.00000000000E+00  0.95670717547E+03  0.95670717547E+03  0.00000000000E+00 0. -1.
          1   -1    0    0  501    0 -0.00000000000E+00 -0.00000000000E+00 -0.24893598264E+03  0.24893598264E+03  0.00000000000E+00 0. -1.
         25    2    1    2    0    0 -0.65523662160E+01 -0.22615746583E+03  0.15746078898E+03  0.30266987458E+03  0.12500008024E+03 0.  0.
          2    1    1    2  501    0 -0.39170305473E+02  0.63176243987E+01 -0.15644879384E+03  0.16140151890E+03  0.00000000000E+00 0. -1.
          1    1    1    2  502    0  0.45722671689E+02  0.21983984143E+03  0.70675919768E+03  0.74157176463E+03  0.00000000000E+00 0. -1.
         22    1    3    3    0    0 -0.30507585302E+02 -0.89981769809E+02  0.13110546623E+03  0.16191378858E+03  0.00000000000E+00 0. -1.
         22    1    3    3    0    0  0.23955219086E+02 -0.13617569602E+03  0.26355322756E+02  0.14075608600E+03  0.00000000000E+00 0. -1.
</event>
<event>
 7    1  0.5993218E-006  0.3810587E+02  0.7818608E-02  0.1546331E+00
          2   -1    0    0  502    0  0.00000000000E+00  0.00000000000E+00  0.12769274653E+04  0.12769274653E+04  0.00000000000E+00 0. -1.
          1   -1    0    0  501    0 -0.00000000000E+00 -0.00000000000E+00 -0.13846277689E+03  0.13846277689E+03  0.00000000000E+00 0. -1.
         25    2    1    2    0    0 -0.49988238203E+02  0.45401764260E+02  0.79972622712E+03  0.81224812106E+03  0.12499931072E+03 0.  0.
          2    1    1    2  501    0  0.25517815815E+02 -0.20321480508E+02 -0.12952490760E+03  0.13356954437E+03  0.00000000000E+00 0. -1.
          1    1    1    2  502    0  0.24470422387E+02 -0.25080283752E+02  0.46826336886E+03  0.46957257673E+03  0.00000000000E+00 0. -1.
         22    1    3    3    0    0  0.25801019627E+02  0.52733700413E+02  0.48016868869E+03  0.48374425617E+03  0.00000000000E+00 0. -1.
         22    1    3    3    0    0 -0.75789257830E+02 -0.73319361529E+01  0.31955753842E+03  0.32850386490E+03  0.00000000000E+00 0. -1.
</event>
<event>
 7    1  0.5993218E-006  0.1610219E+03  0.7818608E-02  0.1349307E+00
          2   -1    0    0  502    0  0.00000000000E+00  0.00000000000E+00  0.59769234945E+03  0.59769234945E+03  0.00000000000E+00 0. -1.
          1   -1    0    0  501    0 -0.00000000000E+00 -0.00000000000E+00 -0.12458883587E+04  0.12458883587E+04  0.00000000000E+00 0. -1.
         25    2    1    2    0    0  0.12516263781E+03  0.13045084807E+03 -0.73509181725E+03  0.76724719209E+03  0.12500065727E+03 0.  0.
          2    1    1    2  501    0 -0.10337684758E+03 -0.10521060271E+03 -0.48322681161E+03  0.50523677122E+03  0.00000000000E+00 0. -1.
          1    1    1    2  502    0 -0.21785790223E+02 -0.25240245362E+02  0.57012261958E+03  0.57109674487E+03  0.00000000000E+00 0. -1.
         22    1    3    3    0    0  0.11041317971E+03  0.13963088698E+03 -0.72626114920E+03  0.74775872559E+03  0.00000000000E+00 0. -1.
         22    1    3    3    0    0  0.14749458098E+02 -0.91800389073E+01 -0.88306680506E+01  0.19488466506E+02  0.00000000000E+00 0. -1.
</event>
<event>
 7    1  0.5993218E-006  0.2956017E+02  0.7818608E-02  0.1627816E+00
          2   -1    0    0  502    0  0.00000000000E+00  0.00000000000E+00  0.99045277113E+03  0.99045277113E+03  0.00000000000E+00 0. -1.
          1   -1    0    0  501    0 -0.00000000000E+00 -0.00000000000E+00 -0.41906328989E+03  0.41906328989E+03  0.00000000000E+00 0. -1.
         25    2    1    2    0    0 -0.12650525888E+02  0.34564279920E+02 -0.82739115570E+01  0.13056890648E+03  0.12500022590E+03 0.  0.
          2    1    1    2  501    0 -0.13852601144E+02 -0.21450911851E+02 -0.34894000847E+03  0.34987307083E+03  0.00000000000E+00 0. -1.
          1    1    1    2  502    0  0.26503127031E+02 -0.13113368069E+02  0.92860340127E+03  0.92907408371E+03  0.00000000000E+00 0. -1.
         22    1    3    3    0    0  0.10201849175E+02  0.19345999494E+02  0.56300780900E+02  0.60399696630E+02  0.00000000000E+00 0.  1.
         22    1    3    3    0    0 -0.22852375063E+02  0.15218280426E+02 -0.64574692457E+02  0.70169209851E+02  0.00000000000E+00 0.  1.
</event>
<event>
 7    1  0.5993218E-006  0.9304799E+02  0.7818608E-02  0.1318827E+00
          2   -1    0    0  502    0  0.00000000000E+00  0.00000000000E+00  0.77856072026E+03  0.77856072026E+03  0.00000000000E+00 0. -1.
          1   -1    0    0  501    0 -0.00000000000E+00 -0.00000000000E+00 -0.38646138752E+03  0.38646138752E+03  0.00000000000E+00 0. -1.
         25    2    1    2    0    0  0.35701044370E+02  0.15363888134E+03  0.34826509660E+03  0.40222785137E+03  0.12497678375E+03 0.  0.
          2    1    1    2  501    0 -0.11622486470E+02 -0.74416492944E+02 -0.35119486465E+03  0.35918063641E+03  0.00000000000E+00 0. -1.
          1    1    1    2  502    0 -0.24078557900E+02 -0.79222388400E+02  0.39502910080E+03  0.40361362000E+03  0.00000000000E+00 0. -1.
         22    1    3    3    0    0  0.29388211577E+02 -0.14383679037E+02  0.66342411827E+02  0.73972108320E+02  0.00000000000E+00 0.  1.
         22    1    3    3    0    0  0.63128327924E+01  0.16802256038E+03  0.28192268477E+03  0.32825574305E+03  0.00000000000E+00 0.  1.
</event>
<event>
 7    1  0.6130723E-006  0.5030482E+02  0.7818608E-02  0.1468830E+00
          2   -1    0    0  502    0  0.00000000000E+00  0.00000000000E+00  0.89387481097E+03  0.89387481097E+03  0.00000000000E+00 0. -1.
          1   -1    0    0  501    0 -0.00000000000E+00 -0.00000000000E+00 -0.85219825593E+03  0.85219825593E+03  0.00000000000E+00 0. -1.
         25    2    1    2    0    0 -0.18637580563E+02  0.17798323283E+02 -0.22600395981E+03  0.25954961438E+03  0.12499629097E+03 0.  0.
          2    1    1    2  501    0 -0.30609963484E+02 -0.28570861491E+02 -0.60797641903E+03  0.60941659814E+03  0.00000000000E+00 0. -1.
          1    1    1    2  502    0  0.49247544047E+02  0.10772538208E+02  0.87565693387E+03  0.87710685438E+03  0.00000000000E+00 0. -1.
         22    1    3    3    0    0 -0.36810446342E+02 -0.39155782254E+02 -0.49016167280E+02  0.72737671798E+02  0.00000000000E+00 0. -1.
         22    1    3    3    0    0  0.18172865779E+02  0.56954105536E+02 -0.17698779253E+03  0.18681194258E+03  0.00000000000E+00 0. -1.
</event>
<event>
 7    1  0.5993218E-006  0.3691406E+02  0.7818608E-02  0.1551124E+00
          2   -1    0    0  502    0  0.00000000000E+00  0.00000000000E+00  0.22563325257E+02  0.22563325257E+02  0.00000000000E+00 0. -1.
          1   -1    0    0  501    0 -0.00000000000E+00 -0.00000000000E+00 -0.24612439805E+04  0.24612439805E+04  0.00000000000E+00 0. -1.
         25    2    1    2    0    0  0.27426637103E+02  0.53013182256E+02 -0.71071108844E+03  0.72408453026E+03  0.12500215128E+03 0.  0.
          2    1    1    2  501    0 -0.28132790404E+02 -0.16573277126E+02 -0.17225685909E+04  0.17228780217E+04  0.00000000000E+00 0. -1.
          1    1    1    2  502    0  0.70615330031E+00 -0.36439905130E+02 -0.54009758966E+01  0.36844753752E+02  0.00000000000E+00 0. -1.
         22    1    3    3    0    0 -0.26569806292E+02  0.32138212273E+02 -0.57540738735E+03  0.57691635504E+03  0.00000000000E+00 0.  1.
         22    1    3    3    0    0  0.53996443395E+02  0.20874969983E+02 -0.13530370109E+03  0.14716817523E+03  0.00000000000E+00 0.  1.
</event>
<event>
 7    1  0.5993218E-006  0.6887794E+02  0.7818608E-02  0.1388320E+00
          2   -1    0    0  502    0  0.00000000000E+00  0.00000000000E+00  0.96156709539E+03  0.96156709539E+03  0.00000000000E+00 0. -1.
          1   -1    0    0  501    0 -0.00000000000E+00 -0.00000000000E+00 -0.19510888376E+03  0.19510888376E+03  0.00000000000E+00 0. -1.
         25    2    1    2    0    0 -0.93829298037E+02 -0.62257587250E+02 -0.23313643244E+02  0.16984996114E+03  0.12500215597E+03 0.  0.
          2    1    1    2  501    0  0.26587847100E+02  0.49737964443E+02 -0.89017074990E+02  0.10537940197E+03  0.00000000000E+00 0. -1.
          1    1    1    2  502    0  0.67241450937E+02  0.12519622808E+02  0.87878892987E+03  0.88144661604E+03  0.00000000000E+00 0. -1.
         22    1    3    3    0    0 -0.90250239312E+02 -0.87439810574E+02 -0.47893208506E+02  0.13447894107E+03  0.00000000000E+00 0.  1.
         22    1    3    3    0    0 -0.35790587259E+01  0.25182223324E+02  0.24579565261E+02  0.35371020077E+02  0.00000000000E+00 0.  1.
</event>
<event>
 7    1  0.5993218E-006  0.9718237E+02  0.7818608E-02  0.1304687E+00
          2   -1    0    0  502    0  0.00000000000E+00  0.00000000000E+00  0.55280284664E+03  0.55280284664E+03  0.00000000000E+00 0. -1.
          1   -1    0    0  501    0 -0.00000000000E+00 -0.00000000000E+00 -0.18121255603E+03  0.18121255603E+03  0.00000000000E+00 0. -1.
         25    2    1    2    0    0 -0.44749283927E+02  0.49825276519E+02  0.70367614041E+00  0.14181077447E+03  0.12499897601E+03 0.  0.
          2    1    1    2  501    0  0.65164475940E+02  0.49706698822E+02 -0.89139926864E+02  0.12109125234E+03  0.00000000000E+00 0. -1.
          1    1    1    2  502    0 -0.20415192013E+02 -0.99531975342E+02  0.46002654134E+03  0.47111337586E+03  0.00000000000E+00 0. -1.
         22    1    3    3    0    0  0.42102797061E+02  0.32107426602E+02 -0.35553993368E+01  0.53067628813E+02  0.00000000000E+00 0. -1.
         22    1    3    3    0    0 -0.86852080989E+02  0.17717849917E+02  0.42590754772E+01  0.88743145660E+02  0.00000000000E+00 0. -1.
</event>
<event>
 7    1  0.5993218E-006  0.9695754E+02  0.7818608E-02  0.1399398E+00
          2   -1    0    0  502    0  0.00000000000E+00  0.00000000000E+00  0.24237897997E+04  0.24237897997E+04  0.00000000000E+00 0. -1.
          1   -1    0    0  501    0 -0.00000000000E+00 -0.00000000000E+00 -0.43239681491E+02  0.43239681491E+02  0.00000000000E+00 0. -1.
         25    2    1    2    0    0  0.11507769774E+03  0.34487456748E+02  0.23431578487E+03  0.29148052395E+03  0.12499899045E+03 0.  0.
          2    1    1    2  501    0 -0.18902102003E+02 -0.31424290383E+02  0.11194404742E+02  0.38341755095E+02  0.00000000000E+00 0. -1.
          1    1    1    2  502    0 -0.96175595735E+02 -0.30631663647E+01  0.21350399286E+04  0.21372072021E+04  0.00000000000E+00 0. -1.
         22    1    3    3    0    0  0.94389470877E+02 -0.33163280506E+02  0.11197438096E+03  0.15015804133E+03  0.00000000000E+00 0.  1.
         22    1    3    3    0    0  0.20688226862E+02  0.67650737253E+02  0.12234140391E+03  0.14132248261E+03  0.00000000000E+00 0.  1.
</event>
<event>
 7    1  0.5993218E-006  0.5484556E+02  0.7818608E-02  0.1440726E+00
          2   -1    0    0  502    0  0.00000000000E+00  0.00000000000E+00  0.15701359116E+04  0.15701359116E+04  0.00000000000E+00 0. -1.
          1   -1    0    0  501    0 -0.00000000000E+00 -0.00000000000E+00 -0.95607530789E+02  0.95607530789E+02  0.00000000000E+00 0. -1.
         25    2    1    2    0    0 -0.24039739714E+02  0.85680543019E+02  0.26468992767E+03  0.30594883750E+03  0.12499947526E+03 0.  0.
          2    1    1    2  501    0 -0.12300999073E+02 -0.45543081416E+02 -0.66926609116E+02  0.81881975128E+02  0.00000000000E+00 0. -1.
          1    1    1    2  502    0  0.36340738787E+02 -0.40137461603E+02  0.12767650623E+04  0.12779126298E+04  0.00000000000E+00 0. -1.
         22    1    3    3    0    0 -0.35694462000E+02  0.84446858539E+02  0.27528468021E+03  0.29014999861E+03  0.00000000000E+00 0.  1.
         22    1    3    3    0    0  0.11654722286E+02  0.12336844807E+01 -0.10594752535E+02  0.15798838889E+02  0.00000000000E+00 0.  1.
</event>
<event>
 7    1  0.5993218E-006  0.9239073E+02  0.7818608E-02  0.1357622E+00
          2   -1    0    0  502    0  0.00000000000E+00  0.00000000000E+00  0.32319986288E+03  0.32319986288E+03  0.00000000000E+00 0. -1.
          1   -1    0    0  501    0 -0.00000000000E+00 -0.00000000000E+00 -0.17796564059E+04  0.17796564059E+04  0.00000000000E+00 0. -1.
         25    2    1    2    0    0 -0.41657894918E+02  0.26452630907E+02 -0.56814198960E+03  0.58382009092E+03  0.12500182528E+03 0.  0.
          2    1    1    2  501    0 -0.50861409644E+01  0.53910912063E+02 -0.11961976002E+04  0.11974226296E+04  0.00000000000E+00 0. -1.
          1    1    1    2  502    0  0.46744035883E+02 -0.80363542971E+02  0.30788304676E+03  0.32161354824E+03  0.00000000000E+00 0. -1.
         22    1    3    3    0    0 -0.42270187718E+02 -0.20226931698E+02 -0.49391609327E+03  0.49613405923E+03  0.00000000000E+00 0.  1.
         22    1    3    3    0    0  0.61229279923E+00  0.46679562605E+02 -0.74225896330E+02  0.87686031689E+02  0.00000000000E+00 0.  1.
</event>
<event>
 7    1  0.5993218E-006  0.5466122E+02  0.7818608E-02  0.1457888E+00
          2   -1    0    0  502    0  0.00000000000E+00  0.00000000000E+00  0.13237108172E+03  0.13237108172E+03  0.00000000000E+00 0. -1.
          1   -1    0    0  501    0 -0.00000000000E+00 -0.00000000000E+00 -0.28839620855E+04  0.28839620855E+04  0.00000000000E+00 0. -1.
         25    2    1    2    0    0  0.13937323819E+02 -0.24496447221E+01 -0.35596289769E+03  0.37753732082E+03  0.12499837729E+03 0.  0.
          2    1    1    2  501    0  0.36992183645E+02 -0.19262988297E+02 -0.25107270375E+04  0.25110734241E+04  0.00000000000E+00 0. -1.
          1    1    1    2  502    0 -0.50929507464E+02  0.21712633019E+02  0.11509893138E+03  0.12772242234E+03  0.00000000000E+00 0. -1.
         22    1    3    3    0    0 -0.12832432069E+02 -0.57955152680E+02 -0.12318536740E+03  0.13674101717E+03  0.00000000000E+00 0. -1.
         22    1    3    3    0    0  0.26769755888E+02  0.55505507958E+02 -0.23277753029E+03  0.24079630365E+03  0.00000000000E+00 0. -1.
</event>
<event>
 7    1  0.5993218E-006  0.3186482E+02  0.7818608E-02  0.1655648E+00
          2   -1    0    0  502    0  0.00000000000E+00  0.00000000000E+00  0.13590179453E+03  0.13590179453E+03  0.00000000000E+00 0. -1.
          1   -1    0    0  501    0 -0.00000000000E+00 -0.00000000000E+00 -0.15173182853E+03  0.15173182853E+03  0.00000000000E+00 0. -1.
         25    2    1    2    0    0  0.30844187841E+02 -0.76854087884E+01 -0.27817623790E+02  0.13194045581E+03  0.12499613695E+03 0.  0.
          2    1    1    2  501    0 -0.10578839349E+02 -0.17219916050E+02 -0.67237345086E+02  0.70208959008E+02  0.00000000000E+00 0. -1.
          1    1    1    2  502    0 -0.20265348492E+02  0.24905324839E+02  0.79224934872E+02  0.85484208251E+02  0.00000000000E+00 0. -1.
         22    1    3    3    0    0 -0.67532603386E+01 -0.29226650198E+02  0.40888469086E+02  0.50711640786E+02  0.00000000000E+00 0.  1.
         22    1    3    3    0    0  0.37597448180E+02  0.21541241410E+02 -0.68706092876E+02  0.81228815019E+02  0.00000000000E+00 0.  1.
</event>
<event>
 7    1  0.5993218E-006  0.7009882E+02  0.7818608E-02  0.1379636E+00
          2   -1    0    0  502    0  0.00000000000E+00  0.00000000000E+00  0.46231670053E+03  0.46231670053E+03  0.00000000000E+00 0. -1.
          1   -1    0    0  501    0 -0.00000000000E+00 -0.00000000000E+00 -0.13855969933E+03  0.13855969933E+03  0.00000000000E+00 0. -1.
         25    2    1    2    0    0  0.70718993749E+02  0.11047140935E+02  0.10479395624E+03  0.17812843290E+03  0.12499899976E+03 0.  0.
          2    1    1    2  501    0 -0.15085744105E+02 -0.57512587264E+02 -0.88631723620E+02  0.10672797103E+03  0.00000000000E+00 0. -1.
          1    1    1    2  502    0 -0.55633249644E+02  0.46465446329E+02  0.30759476858E+03  0.31601999592E+03  0.00000000000E+00 0. -1.
         22    1    3    3    0    0  0.38606665323E+02 -0.74659293856E+01 -0.22666937655E+02  0.45387275437E+02  0.00000000000E+00 0.  1.
         22    1    3    3    0    0  0.32112328426E+02  0.18513070321E+02  0.12746089390E+03  0.13274115746E+03  0.00000000000E+00 0.  1.
</event>
<event>
 7    1  0.5993218E-006  0.6147092E+02  0.7818608E-02  0.1435246E+00
          2   -1    0    0  502    0  0.00000000000E+00  0.00000000000E+00  0.27235781879E+04  0.27235781879E+04  0.00000000000E+00 0. -1.
          1   -1    0    0  501    0 -0.00000000000E+00 -0.00000000000E+00 -0.30655056685E+02  0.30655056685E+02  0.00000000000E+00 0. -1.
         25    2    1    2    0    0 -0.30002612680E+02  0.63458119777E+02  0.13257332487E+04  0.13334621964E+04  0.12500277056E+03 0.  0.
          2    1    1    2  501    0  0.55142334871E+02 -0.27523851166E+02  0.94819349093E+01  0.62355004351E+02  0.00000000000E+00 0. -1.
          1    1    1    2  502    0 -0.25139722191E+02 -0.35934268611E+02  0.13577079476E+04  0.13584160439E+04  0.00000000000E+00 0. -1.
         22    1    3    3    0    0 -0.39182856568E+02 -0.21269431836E+02  0.22133360213E+03  0.22577920279E+03  0.00000000000E+00 0.  1.
         22    1    3    3    0    0  0.91802438881E+01  0.84727551613E+02  0.11043996466E+04  0.11076829936E+04  0.00000000000E+00 0.  1.
</event>
<event>
 7    1  0.5993218E-006  0.1750864E+03  0.7818608E-02  0.1272689E+00
          2   -1    0    0  502    0  0.00000000000E+00  0.00000000000E+00  0.11743538152E+04  0.11743538152E+04  0.00000000000E+00 0. -1.
          1   -1    0    0  501    0 -0.00000000000E+00 -0.00000000000E+00 -0.19601292045E+04  0.19601292045E+04  0.00000000000E+00 0. -1.
         25    2    1    2    0    0 -0.20244037485E+02 -0.18380777714E+03  0.10747722912E+03  0.24773255763E+03  0.12499978135E+03 0.  0.
          2    1    1    2  501    0 -0.39730667559E+02  0.17052899239E+03 -0.18849938569E+04  0.18931086878E+04  0.00000000000E+00 0. -1.
          1    1    1    2  502    0  0.59974705044E+02  0.13278784755E+02  0.99174123855E+03  0.99364177428E+03  0.00000000000E+00 0. -1.
         22    1    3    3    0    0  0.38572293269E+02 -0.12469366524E+02  0.31298737930E+02  0.51214430637E+02  0.00000000000E+00 0.  1.
         22    1    3    3    0    0 -0.58816330753E+02 -0.17133841062E+03  0.76178491188E+02  0.19651812699E+03  0.00000000000E+00 0.  1.
</event>
<event>
 7    1  0.5993218E-006  0.5643514E+03  0.7818608E-02  0.1094240E+00
          2   -1    0    0  502    0  0.00000000000E+00  0.00000000000E+00  0.32177401372E+03  0.32177401372E+03  0.00000000000E+00 0. -1.
          1   -1    0    0  501    0 -0.00000000000E+00 -0.00000000000E+00 -0.19793594341E+04  0.19793594341E+04  0.00000000000E+00 0. -1.
         25    2    1    2    0    0 -0.57936149646E+03 -0.21370757105E+03 -0.62734379170E+03  0.88910881832E+03  0.12499435321E+03 0.  0.
          2    1    1    2  501    0  0.45966947870E+03  0.28933281315E+03 -0.11197459750E+04  0.12445242283E+04  0.00000000000E+00 0. -1.
          1    1    1    2  502    0  0.11969201775E+03 -0.75625242102E+02  0.89504346354E+02  0.16750040111E+03  0.00000000000E+00 0. -1.
         22    1    3    3    0    0 -0.56606593741E+03 -0.18037150366E+03 -0.59403611026E+03  0.84014488341E+03  0.00000000000E+00 0. -1.
         22    1    3    3    0    0 -0.13295559044E+02 -0.33336067384E+02 -0.33307681445E+02  0.48963934913E+02  0.00000000000E+00 0. -1.
</event>
<event>
 7    1  0.5993218E-006  0.1690429E+03  0.7818608E-02  0.1266872E+00
          2   -1    0    0  502    0  0.00000000000E+00  0.00000000000E+00  0.15037353706E+04  0.15037353706E+04  0.00000000000E+00 0. -1.
          1   -1    0    0  501    0 -0.00000000000E+00 -0.00000000000E+00 -0.51523198513E+03  0.51523198513E+03  0.00000000000E+00 0. -1.
         25    2    1    2    0    0 -0.28456179925E+02 -0.12015332141E+03 -0.87344270815E+02  0.19621201106E+03  0.12499422714E+03 0.  0.
          2    1    1    2  501    0 -0.62734749661E+02 -0.24380792345E+02 -0.36533109988E+03  0.37147931892E+03  0.00000000000E+00 0. -1.
          1    1    1    2  502    0  0.91190929586E+02  0.14453411376E+03  0.14411787562E+04  0.14512760258E+04  0.00000000000E+00 0. -1.
         22    1    3    3    0    0 -0.57893231235E+02 -0.12115975185E+02 -0.52097154661E+02  0.78819646036E+02  0.00000000000E+00 0.  1.
         22    1    3    3    0    0  0.29437051309E+02 -0.10803734623E+03 -0.35247116154E+02  0.11739236503E+03  0.00000000000E+00 0.  1.
</event>
<event>
 7    1  0.5993218E-006  0.1552218E+03  0.7818608E-02  0.1223250E+00
          2   -1    0    0  502    0  0.00000000000E+00  0.00000000000E+00  0.16831451354E+04  0.16831451354E+04  0.00000000000E+00 0. -1.
          1   -1    0    0  501    0 -0.00000000000E+00 -0.00000000000E+00 -0.18743683859E+04  0.18743683859E+04  0.00000000000E+00 0. -1.
         25    2    1    2    0    0  0.30419439248E+02 -0.54428465668E+02  0.11116889585E+03  0.17852713563E+03  0.12500245834E+03 0.  0.
          2    1    1    2  501    0 -0.14367981547E+03  0.64934850433E+02 -0.18352015570E+04  0.18419623175E+04  0.00000000000E+00 0. -1.
          1    1    1    2  502    0  0.11326037623E+03 -0.10506384764E+02  0.15328094106E+04  0.15370240682E+04  0.00000000000E+00 0. -1.
         22    1    3    3    0    0  0.81989627610E+00 -0.12817668454E+02 -0.27718575178E+02  0.30549701543E+02  0.00000000000E+00 0.  1.
         22    1    3    3    0    0  0.29599542971E+02 -0.41610797215E+02  0.13888747103E+03  0.14797743408E+03  0.00000000000E+00 0.  1.
</event>
<event>
 7    1  0.5993218E-006  0.3437202E+02  0.7818608E-02  0.1572550E+00
          2   -1    0    0  502    0  0.00000000000E+00  0.00000000000E+00  0.56521877528E+03  0.56521877528E+03  0.00000000000E+00 0. -1.
          1   -1    0    0  501    0 -0.00000000000E+00 -0.00000000000E+00 -0.26728804046E+03  0.26728804046E+03  0.00000000000E+00 0. -1.
         25    2    1    2    0    0 -0.58631355916E+02  0.50579528493E+01  0.12174725474E+03  0.18415059082E+03  0.12500330907E+03 0.  0.
          2    1    1    2  501    0  0.28649856475E+02  0.10815007819E+02 -0.23439081603E+03  0.23638281095E+03  0.00000000000E+00 0. -1.
          1    1    1    2  502    0  0.29981499441E+02 -0.15872960668E+02  0.41057429611E+03  0.41197341397E+03  0.00000000000E+00 0. -1.
         22    1    3    3    0    0 -0.30463674160E+02  0.13317423058E+02  0.14369997033E+03  0.14749600223E+03  0.00000000000E+00 0.  1.
         22    1    3    3    0    0 -0.28167681756E+02 -0.82594702086E+01 -0.21952715584E+02  0.36654588596E+02  0.00000000000E+00 0.  1.
</event>
<event>
 7    1  0.5993218E-006  0.1950020E+03  0.7818608E-02  0.1355291E+00
          2   -1    0    0  502    0  0.00000000000E+00  0.00000000000E+00  0.69793584356E+03  0.69793584356E+03  0.00000000000E+00 0. -1.
          1   -1    0    0  501    0 -0.00000000000E+00 -0.00000000000E+00 -0.29850785027E+03  0.29850785027E+03  0.00000000000E+00 0. -1.
         25    2    1    2    0    0 -0.20720081378E+03  0.68758471116E+02 -0.16355910454E+03  0.30006082173E+03  0.12500004591E+03 0.  0.
          2    1    1    2  501    0  0.26163109526E+02 -0.41033153821E+00 -0.48444915443E+02  0.55059844754E+02  0.00000000000E+00 0. -1.
          1    1    1    2  502    0  0.18103770426E+03 -0.68348139578E+02  0.61143201327E+03  0.64132302734E+03  0.00000000000E+00 0. -1.
         22    1    3    3    0    0 -0.48214571231E+02  0.77951254081E+02 -0.70292060154E+02  0.11550764742E+03  0.00000000000E+00 0. -1.
         22    1    3    3    0    0 -0.15898624255E+03 -0.91927829646E+01 -0.93267044385E+02  0.18455317431E+03  0.00000000000E+00 0. -1.
</event>
<event>
 7    1  0.5993218E-006  0.1350255E+03  0.7818608E-02  0.1232770E+00
          2   -1    0    0  502    0  0.00000000000E+00  0.00000000000E+00  0.57868926499E+02  0.57868926499E+02  0.00000000000E+00 0. -1.
          1   -1    0    0  501    0 -0.00000000000E+00 -0.00000000000E+00 -0.13881990895E+04  0.13881990895E+04  0.00000000000E+00 0. -1.
         25    2    1    2    0    0  0.76952615779E+01  0.10330212500E+03 -0.36943050687E+03  0.40352755521E+03  0.12500016930E+03 0.  0.
          2    1    1    2  501    0  0.11846058720E+03 -0.21764627546E+01 -0.81867679798E+03  0.82720574663E+03  0.00000000000E+00 0. -1.
          1    1    1    2  502    0 -0.12615584878E+03 -0.10112566225E+03 -0.14222285818E+03  0.21533471419E+03  0.00000000000E+00 0. -1.
         22    1    3    3    0    0  0.39512533612E+02  0.13927419814E+02 -0.31179201889E+02  0.52224093726E+02  0.00000000000E+00 0. -1.
         22    1    3    3    0    0 -0.31817272034E+02  0.89374705187E+02 -0.33825130499E+03  0.35130346148E+03  0.00000000000E+00 0. -1.
</event>
<event>
 7    1  0.5993218E-006  0.8500642E+02  0.7818608E-02  0.1346752E+00
          2   -1    0    0  502    0  0.00000000000E+00  0.00000000000E+00  0.13642324881E+04  0.13642324881E+04  0.00000000000E+00 0. -1.
          1   -1    0    0  501    0 -0.00000000000E+00 -0.00000000000E+00 -0.71991491406E+03  0.71991491406E+03  0.00000000000E+00 0. -1.
         25    2    1    2    0    0  0.48005887806E+02 -0.11782705549E+03  0.43619300221E+03  0.47125340290E+03  0.12501061674E+03 0.  0.
          2    1    1    2  501    0 -0.64295013332E+02  0.55362354135E+02 -0.69867081410E+03  0.70380376915E+03  0.00000000000E+00 0. -1.
          1    1    1    2  502    0  0.16289125526E+02  0.62464701353E+02  0.90679538597E+03  0.90909023015E+03  0.00000000000E+00 0. -1.
         22    1    3    3    0    0  0.47239782432E+02 -0.58858157806E+02  0.79118860211E+02  0.10934200394E+03  0.00000000000E+00 0.  1.
         22    1    3    3    0    0  0.76610537355E+00 -0.58968897682E+02  0.35707414200E+03  0.36191139896E+03  0.00000000000E+00 0.  1.
</event>
<event>
 7    1  0.5993218E-006  0.1839602E+03  0.7818608E-02  0.1277696E+00
          2   -1    0    0  502    0  0.00000000000E+00  0.00000000000E+00  0.32240519154E+03  0.32240519154E+03  0.00000000000E+00 0. -1.
          1   -1    0    0  501    0 -0.00000000000E+00 -0.00000000000E+00 -0.74584294146E+03  0.74584294146E+03  0.00000000000E+00 0. -1.
         25    2    1    2    0    0  0.20246704244E+03  0.78352680227E+02  0.33127310611E+02  0.25269477559E+03  0.12500074052E+03 0.  0.
          2    1    1    2  501    0 -0.17922574011E+03 -0.27707453241E+02 -0.61837354758E+03  0.64441866301E+03  0.00000000000E+00 0. -1.
          1    1    1    2  502    0 -0.23241302327E+02 -0.50645226986E+02  0.16180848705E+03  0.17113469441E+03  0.00000000000E+00 0. -1.
         22    1    3    3    0    0  0.10455028056E+03 -0.22324439294E+02 -0.54693936597E+01  0.10704698044E+03  0.00000000000E+00 0.  1.
         22    1    3    3    0    0  0.97916761877E+02  0.10067711952E+03  0.38596704271E+02  0.14564779515E+03  0.00000000000E+00 0.  1.
</event>
<event>
 7    1  0.5993218E-006  0.1549608E+03  0.7818608E-02  0.1350236E+00
          2   -1    0    0  502    0  0.00000000000E+00  0.00000000000E+00  0.22407064533E+04  0.22407064533E+04  0.00000000000E+00 0. -1.
          1   -1    0    0  501    0 -0.00000000000E+00 -0.00000000000E+00 -0.13078342027E+04  0.13078342027E+04  0.00000000000E+00 0. -1.
         25    2    1    2    0    0  0.18267921215E+03 -0.10565612424E+02  0.18522105111E+03  0.28881559999E+03  0.12499714519E+03 0.  0.
          2    1    1    2  501    0 -0.15215481775E+03  0.26368523021E+02 -0.12511422530E+04  0.12606360794E+04  0.00000000000E+00 0. -1.
          1    1    1    2  502    0 -0.30524394396E+02 -0.15802910597E+02  0.19987934524E+04  0.19990889765E+04  0.00000000000E+00 0. -1.
         22    1    3    3    0    0  0.19662116395E+03 -0.19933175484E+02  0.18680599550E+03  0.27194428391E+03  0.00000000000E+00 0.  1.
         22    1    3    3    0    0 -0.13941951797E+02  0.93675630601E+01 -0.15849443857E+01  0.16871316081E+02  0.00000000000E+00 0.  1.
</event>
<event>
 7    1  0.5993218E-006  0.3411407E+02  0.7818608E-02  0.1599796E+00
          2   -1    0    0  502    0  0.00000000000E+00  0.00000000000E+00  0.16179472620E+04  0.16179472620E+04  0.00000000000E+00 0. -1.
          1   -1    0    0  501    0 -0.00000000000E+00 -0.00000000000E+00 -0.13915648946E+04  0.13915648946E+04  0.00000000000E+00 0. -1.
         25    2    1    2    0    0  0.36417998661E+01  0.31306529648E+02  0.33049985318E+02  0.13308151428E+03  0.12500010564E+03 0.  0.
          2    1    1    2  501    0 -0.27373174548E+02 -0.20413326421E+02 -0.13412207538E+04  0.13416553600E+04  0.00000000000E+00 0. -1.
          1    1    1    2  502    0  0.23731374682E+02 -0.10893203227E+02  0.15345531359E+04  0.15347752822E+04  0.00000000000E+00 0. -1.
         22    1    3    3    0    0  0.45452144530E+02 -0.18421927387E+02 -0.16096438176E+02  0.51617440590E+02  0.00000000000E+00 0.  1.
         22    1    3    3    0    0 -0.41810344664E+02  0.49728457036E+02  0.49146423495E+02  0.81464073692E+02  0.00000000000E+00 0.  1.
</event>
<event>
 7    1  0.5993218E-006  0.5604849E+02  0.7818608E-02  0.1498933E+00
          2   -1    0    0  502    0  0.00000000000E+00  0.00000000000E+00  0.77510427094E+03  0.77510427094E+03  0.00000000000E+00 0. -1.
          1   -1    0    0  501    0 -0.00000000000E+00 -0.00000000000E+00 -0.11573822347E+03  0.11573822347E+03  0.00000000000E+00 0. -1.
         25    2    1    2    0    0  0.63916391745E+02  0.32526403821E+01  0.57253330501E+02  0.15165340106E+03  0.12499970158E+03 0.  0.
          2    1    1    2  501    0 -0.13322259438E+02 -0.27343641477E+02 -0.63928058307E+02  0.70795154952E+02  0.00000000000E+00 0. -1.
          1    1    1    2  502    0 -0.50594132307E+02  0.24091001094E+02  0.66604077527E+03  0.66839393839E+03  0.00000000000E+00 0. -1.
         22    1    3    3    0    0  0.60258779151E+01 -0.53318771316E+02  0.44505995650E+02  0.69713601457E+02  0.00000000000E+00 0.  1.
         22    1    3    3    0    0  0.57890513830E+02  0.56571411698E+02  0.12747334851E+02  0.81939799601E+02  0.00000000000E+00 0.  1.
</event>
<event>
 7    1  0.5993218E-006  0.1377497E+03  0.7818608E-02  0.1318508E+00
          2   -1    0    0  502    0  0.00000000000E+00  0.00000000000E+00  0.15630679402E+04  0.15630679402E+04  0.00000000000E+00 0. -1.
          1   -1    0    0  501    0 -0.00000000000E+00 -0.00000000000E+00 -0.28258574075E+03  0.28258574075E+03  0.00000000000E+00 0. -1.
         25    2    1    2    0    0 -0.10223149631E+03  0.40921906870E+02 -0.18245912936E+03  0.24706822430E+03  0.12500196908E+03 0.  0.
          2    1    1    2  501    0 -0.35937228597E+02 -0.36218107813E+02 -0.54617988925E+02  0.74741959079E+02  0.00000000000E+00 0. -1.
          1    1    1    2  502    0  0.13816872490E+03 -0.47037990572E+01  0.15175593177E+04  0.15238434976E+04  0.00000000000E+00 0. -1.
         22    1    3    3    0    0  0.19266840295E+02 -0.19982136717E+02 -0.50559050483E+02  0.57677677731E+02  0.00000000000E+00 0. -1.
         22    1    3    3    0    0 -0.12149833660E+03  0.60904043586E+02 -0.13190007887E+03  0.18939054657E+03  0.00000000000E+00 0. -1.
</event>
<event>
 7    1  0.5993218E-006  0.9412057E+02  0.7818608E-02  0.1346514E+00
          2   -1    0    0  502    0  0.00000000000E+00  0.00000000000E+00  0.16680506131E+04  0.16680506131E+04  0.00000000000E+00 0. -1.
          1   -1    0    0  501    0 -0.00000000000E+00 -0.00000000000E+00 -0.10319373542E+03  0.10319373542E+03  0.00000000000E+00 0. -1.
         25    2    1    2    0    0 -0.20522567428E+02  0.10046305794E+03  0.69154930622E+03  0.71019637074E+03  0.12499776111E+03 0.  0.
          2    1    1    2  501    0 -0.36358815158E+02 -0.87137718556E+02 -0.68991773489E+02  0.11693934429E+03  0.00000000000E+00 0. -1.
          1    1    1    2  502    0  0.56881382585E+02 -0.13325339380E+02  0.94229934498E+03  0.94410863353E+03  0.00000000000E+00 0. -1.
         22    1    3    3    0    0  0.47972958929E+02  0.68738870530E+02  0.30291845414E+03  0.31430244505E+03  0.00000000000E+00 0.  1.
         22    1    3    3    0    0 -0.68495526356E+02  0.31724187407E+02  0.38863085209E+03  0.39589392568E+03  0.00000000000E+00 0.  1.
</event>
<event>
 7    1  0.5993218E-006  0.1405978E+03  0.7818608E-02  0.1333019E+00
          2   -1    0    0  502    0  0.00000000000E+00  0.00000000000E+00  0.81274253348E+03  0.81274253348E+03  0.00000000000E+00 0. -1.
          1   -1    0    0  501    0 -0.00000000000E+00 -0.00000000000E+00 -0.19225587083E+03  0.19225587083E+03  0.00000000000E+00 0. -1.
         25    2    1    2    0    0  0.14067986711E+03 -0.11088041441E+02  0.28608112094E+03  0.34260851383E+03  0.12499766524E+03 0.  0.
          2    1    1    2  501    0 -0.91414230298E+01 -0.43000088554E+02 -0.15063959434E+03  0.15692310414E+03  0.00000000000E+00 0. -1.
          1    1    1    2  502    0 -0.13153844408E+03  0.54088129995E+02  0.48504513605E+03  0.50546678633E+03  0.00000000000E+00 0. -1.
         22    1    3    3    0    0  0.74462633067E+02  0.49695416177E+02  0.19538121159E+03  0.21491425256E+03  0.00000000000E+00 0. -1.
         22    1    3    3    0    0  0.66217234042E+02 -0.60783457618E+02  0.90699909355E+02  0.12769426127E+03  0.00000000000E+00 0. -1.
</event>
<event>
 7    1  0.7850581E-006  0.9804155E+02  0.7818608E-02  0.1319651E+00
          2   -1    0    0  502    0  0.00000000000E+00  0.00000000000E+00  0.17366418689E+04  0.17366418689E+04  0.00000000000E+00 0. -1.
          1   -1    0    0  501    0 -0.00000000000E+00 -0.00000000000E+00 -0.55594433145E+03  0.55594433145E+03  0.00000000000E+00 0. -1.
         25    2    1    2    0    0 -0.17116692665E+02  0.12412800584E+02 -0.21586669459E+03  0.25034069459E+03  0.12499989899E+03 0.  0.
          2    1    1    2  501    0 -0.38507670508E+02 -0.93147404005E+02 -0.31353512193E+03  0.32933805162E+03  0.00000000000E+00 0. -1.
          1    1    1    2  502    0  0.55624363174E+02  0.80734603421E+02  0.17100993539E+04  0.17129074541E+04  0.00000000000E+00 0. -1.
         22    1    3    3    0    0  0.22495398199E+02  0.45896021897E+02 -0.18041378962E+03  0.18751432813E+03  0.00000000000E+00 0.  1.
         22    1    3    3    0    0 -0.39612090864E+02 -0.33483221313E+02 -0.35452904969E+02  0.62826366462E+02  0.00000000000E+00 0.  1.
</event>
<event>
 7    1  0.5993218E-006  0.1307840E+03  0.7818608E-02  0.1241419E+00
          2   -1    0    0  502    0  0.00000000000E+00  0.00000000000E+00  0.82459914153E+03  0.82459914153E+03  0.00000000000E+00 0. -1.
          1   -1    0    0  501    0 -0.00000000000E+00 -0.00000000000E+00 -0.45030119869E+03  0.45030119869E+03  0.00000000000E+00 0. -1.
         25    2    1    2    0    0  0.18474585680E+03 -0.23076511468E+02  0.23866124161E+03  0.32747991991E+03  0.12498140948E+03 0.  0.
          2    1    1    2  501    0 -0.94452257865E+02  0.89326186319E+02 -0.38942349921E+03  0.41054970261E+03  0.00000000000E+00 0. -1.
          1    1    1    2  502    0 -0.90293598931E+02 -0.66249674851E+02  0.52506020045E+03  0.53687071769E+03  0.00000000000E+00 0. -1.
         22    1    3    3    0    0  0.14935369384E+03 -0.53187719471E+02  0.23131901247E+03  0.28043527755E+03  0.00000000000E+00 0.  1.
         22    1    3    3    0    0  0.35392162958E+02  0.30111208002E+02  0.73422291410E+01  0.47044642362E+02  0.00000000000E+00 0.  1.
</event>
<event>
 7    1  0.5993218E-006  0.7410372E+02  0.7818608E-02  0.1516083E+00
          2   -1    0    0  502    0  0.00000000000E+00  0.00000000000E+00  0.93854341531E+03  0.93854341531E+03  0.00000000000E+00 0. -1.
          1   -1    0    0  501    0 -0.00000000000E+00 -0.00000000000E+00 -0.13133206448E+04  0.13133206448E+04  0.00000000000E+00 0. -1.
         25    2    1    2    0    0 -0.49502559724E+01  0.68837526018E+02 -0.10779485170E+04  0.10873640523E+04  0.12499786756E+03 0.  0.
          2    1    1    2  501    0 -0.20457727688E+02  0.78541340334E+00 -0.22873592760E+03  0.22965029953E+03  0.00000000000E+00 0. -1.
          1    1    1    2  502    0  0.25407983661E+02 -0.69622939422E+02  0.93190721516E+03  0.93484970824E+03  0.00000000000E+00 0. -1.
         22    1    3    3    0    0 -0.12776698692E+02 -0.33746510092E+02 -0.40396097089E+03  0.40556939847E+03  0.00000000000E+00 0.  1.
         22    1    3    3    0    0  0.78264427200E+01  0.10258403611E+03 -0.67398754615E+03  0.68179465386E+03  0.00000000000E+00 0.  1.
</event>
<event>
 7    1  0.5993218E-006  0.1384289E+03  0.7818608E-02  0.1304064E+00
          2   -1    0    0  502    0  0.00000000000E+00  0.00000000000E+00  0.50329205843E+03  0.50329205843E+03  0.00000000000E+00 0. -1.
          1   -1    0    0  501    0 -0.00000000000E+00 -0.00000000000E+00 -0.21814481252E+04  0.21814481252E+04  0.00000000000E+00 0. -1.
         25    2    1    2    0    0  0.23341134091E+02 -0.13504531312E+03 -0.32116336429E+03  0.37088114844E+03  0.12499949827E+03 0.  0.
          2    1    1    2  501    0  0.34524574631E+02  0.13540788676E+03 -0.18310039959E+04  0.18363286403E+04  0.00000000000E+00 0. -1.
          1    1    1    2  502    0 -0.57865708723E+02 -0.36257363989E+00  0.47401129347E+03  0.47753039489E+03  0.00000000000E+00 0. -1.
         22    1    3    3    0    0 -0.49556632929E+01  0.51037202420E+01 -0.13959491488E+03  0.13977605954E+03  0.00000000000E+00 0. -1.
         22    1    3    3    0    0  0.28296797384E+02 -0.14014903336E+03 -0.18156844941E+03  0.23110508890E+03  0.00000000000E+00 0. -1.
</event>
<event>
 7    1  0.5993218E-006  0.5340653E+02  0.7818608E-02  0.1538347E+00
          2   -1    0    0  502    0  0.00000000000E+00  0.00000000000E+00  0.51267933790E+03  0.51267933790E+03  0.00000000000E+00 0. -1.
          1   -1    0    0  501    0 -0.00000000000E+00 -0.00000000000E+00 -0.12267533590E+04  0.12267533590E+04  0.00000000000E+00 0. -1.
         25    2    1    2    0    0 -0.17497074293E+02  0.69040991664E+02 -0.41719189515E+03  0.44130276331E+03  0.12500498146E+03 0.  0.
          2    1    1    2  501    0 -0.90739446742E+01 -0.22771501147E+02 -0.79589512729E+03  0.79627252331E+03  0.00000000000E+00 0. -1.
          1    1    1    2  502    0  0.26571018967E+02 -0.46269490517E+02  0.49901300131E+03  0.50185741030E+03  0.00000000000E+00 0. -1.
         22    1    3    3    0    0  0.20557998862E+02 -0.19365826562E+02 -0.22074191838E+03  0.22254136938E+03  0.00000000000E+00 0.  1.
         22    1    3    3    0    0 -0.38055073156E+02  0.88406818226E+02 -0.19644997677E+03  0.21876139393E+03  0.00000000000E+00 0.  1.
</event>
<event>
 7    1  0.5993218E-006  0.6389193E+02  0.7818608E-02  0.1504465E+00
          2   -1    0    0  502    0  0.00000000000E+00  0.00000000000E+00  0.42229024520E+03  0.42229024520E+03  0.00000000000E+00 0. -1.
          1   -1    0    0  501    0 -0.00000000000E+00 -0.00000000000E+00 -0.76540535543E+02  0.76540535543E+02  0.00000000000E+00 0. -1.
         25    2    1    2    0    0  0.35050524295E+02  0.26670200035E+02  0.16183257106E+03  0.20917624461E+03  0.12500032572E+03 0.  0.
          2    1    1    2  501    0 -0.60739665163E+02 -0.26526007283E+02 -0.31026033146E+02  0.73181628291E+02  0.00000000000E+00 0. -1.
          1    1    1    2  502    0  0.25689140869E+02 -0.14419275188E+00  0.21494317174E+03  0.21647290784E+03  0.00000000000E+00 0. -1.
         22    1    3    3    0    0 -0.18321615821E+02  0.59415978345E+02  0.45446743632E+02  0.77015236127E+02  0.00000000000E+00 0.  1.
         22    1    3    3    0    0  0.53372140115E+02 -0.32745778310E+02  0.11638582743E+03  0.13216100849E+03  0.00000000000E+00 0.  1.
</event>
<event>
 7    1  0.5993218E-006  0.2053076E+03  0.7818608E-02  0.1254648E+00
          2   -1    0    0  502    0  0.00000000000E+00  0.00000000000E+00  0.29646422250E+03  0.29646422250E+03  0.00000000000E+00 0. -1.
          1   -1    0    0  501    0 -0.00000000000E+00 -0.00000000000E+00 -0.14066385761E+04  0.14066385761E+04  0.00000000000E+00 0. -1.
         25    2    1    2    0    0  0.14859446476E+03  0.18445084814E+03  0.27324012672E+00  0.26782436140E+03  0.12500953389E+03 0.  0.
          2    1    1    2  501    0  0.11715761911E+01 -0.62470818968E+02 -0.12143460731E+04  0.12159524502E+04  0.00000000000E+00 0. -1.
          1    1    1    2  502    0 -0.14976604095E+03 -0.12198002917E+03  0.10389847942E+03  0.21932598698E+03  0.00000000000E+00 0. -1.
         22    1    3    3    0    0  0.78924388867E+02  0.47235267241E+02 -0.51553574836E+02  0.10544193050E+03  0.00000000000E+00 0.  1.
         22    1    3    3    0    0  0.69670075896E+02  0.13721558090E+03  0.51826814963E+02  0.16238243090E+03  0.00000000000E+00 0.  1.
</event>
<event>
 7    1  0.5993218E-006  0.3540631E+02  0.7818608E-02  0.1548953E+00
          2   -1    0    0  502    0  0.00000000000E+00  0.00000000000E+00  0.29540378183E+03  0.29540378183E+03  0.00000000000E+00 0. -1.
          1   -1    0    0  501    0 -0.00000000000E+00 -0.00000000000E+00 -0.81022687823E+02  0.81022687823E+02  0.00000000000E+00 0. -1.
         25    2    1    2    0    0  0.21482542392E+01 -0.11179979520E+01  0.22514848166E+02  0.12706088724E+03  0.12502674019E+03 0.  0.
          2    1    1    2  501    0  0.33754490887E+02  0.72293478717E+01 -0.16202684293E+02  0.38133398800E+02  0.00000000000E+00 0. -1.
          1    1    1    2  502    0 -0.35902745126E+02 -0.61113499197E+01  0.20806893013E+03  0.21123218361E+03  0.00000000000E+00 0. -1.
         22    1    3    3    0    0 -0.10048907904E+02  0.60408713596E+02  0.19483914317E+02  0.64263645598E+02  0.00000000000E+00 0.  1.
         22    1    3    3    0    0  0.12197162144E+02 -0.61526711548E+02  0.30309338498E+01  0.62797241646E+02  0.00000000000E+00 0.  1.
</event>
<event>
 7    1  0.5993218E-006  0.9460789E+02  0.7818608E-02  0.1378669E+00
          2   -1    0    0  502    0  0.00000000000E+00  0.00000000000E+00  0.51853855438E+03  0.51853855438E+03  0.00000000000E+00 0. -1.
          1   -1    0    0  501    0 -0.00000000000E+00 -0.00000000000E+00 -0.74213148837E+03  0.74213148837E+03  0.00000000000E+00 0. -1.
         25    2    1    2    0    0 -0.11332522458E+03 -0.66835056019E+02  0.39024657185E+02  0.18564093197E+03  0.12502040040E+03 0.  0.
          2    1    1    2  501    0  0.69071834875E+02  0.63178529607E+02 -0.66431863916E+03  0.67088128555E+03  0.00000000000E+00 0. -1.
          1    1    1    2  502    0  0.44253389704E+02  0.36565264116E+01  0.40170104798E+03  0.40414782522E+03  0.00000000000E+00 0. -1.
         22    1    3    3    0    0 -0.86851299959E+02  0.21323092032E+02  0.18044977685E+02  0.91232909512E+02  0.00000000000E+00 0.  1.
         22    1    3    3    0    0 -0.26473924620E+02 -0.88158148050E+02  0.20979679500E+02  0.94408022458E+02  0.00000000000E+00 0.  1.
</event>
<event>
 7    1  0.5993218E-006  0.4368145E+02  0.7818608E-02  0.1540456E+00
          2   -1    0    0  502    0  0.00000000000E+00  0.00000000000E+00  0.33652719714E+04  0.33652719714E+04  0.00000000000E+00 0. -1.
          1   -1    0    0  501    0 -0.00000000000E+00 -0.00000000000E+00 -0.21185905480E+02  0.21185905480E+02  0.00000000000E+00 0. -1.
         25    2    1    2    0    0  0.25607146366E+02 -0.29787057316E+02  0.15642161615E+04  0.15696942089E+04  0.12499885938E+03 0.  0.
          2    1    1    2  501    0 -0.43471446662E+02  0.62342296934E+01  0.79899172003E+01  0.44637104203E+02  0.00000000000E+00 0. -1.
          1    1    1    2  502    0  0.17864300296E+02  0.23552827623E+02  0.17718799872E+04  0.17721265638E+04  0.00000000000E+00 0. -1.
         22    1    3    3    0    0 -0.38065676403E+02  0.73588251107E+01  0.21513622953E+03  0.21860179616E+03  0.00000000000E+00 0.  1.
         22    1    3    3    0    0  0.63672822769E+02 -0.37145882427E+02  0.13490799319E+04  0.13510924127E+04  0.00000000000E+00 0.  1.
</event>
<event>
 7    1  0.5993218E-006  0.6924390E+02  0.7818608E-02  0.1406637E+00
          2   -1    0    0  502    0  0.00000000000E+00  0.00000000000E+00  0.32362463579E+03  0.32362463579E+03  0.00000000000E+00 0. -1.
          1   -1    0    0  501    0 -0.00000000000E+00 -0.00000000000E+00 -0.98306262751E+03  0.98306262751E+03  0.00000000000E+00 0. -1.
         25    2    1    2    0    0 -0.68327816800E+02 -0.12517961788E+02 -0.22178256124E+03  0.26389090233E+03  0.12500205578E+03 0.  0.
          2    1    1    2  501    0  0.44415238230E+02  0.54713305204E+02 -0.73658975184E+03  0.73995318883E+03  0.00000000000E+00 0. -1.
          1    1    1    2  502    0  0.23912578570E+02 -0.42195343416E+02  0.29893432136E+03  0.30284317213E+03  0.00000000000E+00 0. -1.
         22    1    3    3    0    0 -0.14669669014E+02 -0.65539920594E+02 -0.94532547459E+02  0.11596155790E+03  0.00000000000E+00 0. -1.
         22    1    3    3    0    0 -0.53658147786E+02  0.53021958805E+02 -0.12725001378E+03  0.14792934444E+03  0.00000000000E+00 0. -1.
</event>
<event>
 7    1  0.5993218E-006  0.9838130E+02  0.7818608E-02  0.1336064E+00
          2   -1    0    0  502    0  0.00000000000E+00  0.00000000000E+00  0.20981605021E+03  0.20981605021E+03  0.00000000000E+00 0. -1.
          1   -1    0    0  501    0 -0.00000000000E+00 -0.00000000000E+00 -0.10396007169E+04  0.10396007169E+04  0.00000000000E+00 0. -1.
         25    2    1    2    0    0 -0.12747116613E+03  0.66794763826E+02  0.49727734992E+02  0.19699784475E+03  0.12499945815E+03 0.  0.
          2    1    1    2  501    0  0.96616770537E+02 -0.13969476391E+02 -0.95232647270E+03  0.95731690533E+03  0.00000000000E+00 0. -1.
          1    1    1    2  502    0  0.30854395592E+02 -0.52825287435E+02  0.72814070973E+02  0.95102017074E+02  0.00000000000E+00 0. -1.
         22    1    3    3    0    0 -0.14068961259E+03  0.83182705972E+02  0.59304509978E+02  0.17386763520E+03  0.00000000000E+00 0.  1.
         22    1    3    3    0    0  0.13218446465E+02 -0.16387942146E+02 -0.95767749864E+01  0.23130209551E+02  0.00000000000E+00 0.  1.
</event>
<event>
 7    1  0.5993218E-006  0.8480820E+02  0.7818608E-02  0.1357800E+00
          2   -1    0    0  502    0  0.00000000000E+00  0.00000000000E+00  0.49666158813E+03  0.49666158813E+03  0.00000000000E+00 0. -1.
          1   -1    0    0  501    0 -0.00000000000E+00 -0.00000000000E+00 -0.91909100638E+02  0.91909100638E+02  0.00000000000E+00 0. -1.
         25    2    1    2    0    0  0.97795064928E+02 -0.24027197468E+02  0.19245340772E+03  0.25060774016E+03  0.12499897737E+03 0.  0.
          2    1    1    2  501    0 -0.78745743669E+02 -0.31710795728E+02 -0.28900174328E+02  0.89675452539E+02  0.00000000000E+00 0. -1.
          1    1    1    2  502    0 -0.19049321259E+02  0.55737993196E+02  0.24119925409E+03  0.24828749606E+03  0.00000000000E+00 0. -1.
         22    1    3    3    0    0 -0.19941406496E+02 -0.30531238518E+02  0.19699784486E+02  0.41447529809E+02  0.00000000000E+00 0.  1.
         22    1    3    3    0    0  0.11773647142E+03  0.65040410502E+01  0.17275362324E+03  0.20916021035E+03  0.00000000000E+00 0.  1.
</event>
<event>
 7    1  0.5993218E-006  0.5781519E+02  0.7818608E-02  0.1476378E+00
          2   -1    0    0  502    0  0.00000000000E+00  0.00000000000E+00  0.26572323172E+04  0.26572323172E+04  0.00000000000E+00 0. -1.
          1   -1    0    0  501    0 -0.00000000000E+00 -0.00000000000E+00 -0.62275575861E+02  0.62275575861E+02  0.00000000000E+00 0. -1.
         25    2    1    2    0    0  0.28451197768E+02 -0.90381185704E+01  0.24156574345E+03  0.27362357827E+03  0.12499878372E+03 0.  0.
          2    1    1    2  501    0 -0.59880696311E+02 -0.52433195220E+01 -0.26536291564E+02  0.65706658416E+02  0.00000000000E+00 0. -1.
          1    1    1    2  502    0  0.31429498542E+02  0.14281438092E+02  0.23799272894E+04  0.23801776564E+04  0.00000000000E+00 0. -1.
         22    1    3    3    0    0  0.21349418170E+02  0.55778544278E+02  0.14783508635E+03  0.15944358380E+03  0.00000000000E+00 0.  1.
         22    1    3    3    0    0  0.71017795988E+01 -0.64816662849E+02  0.93730657103E+02  0.11417999447E+03  0.00000000000E+00 0.  1.
</event>
<event>
 7    1  0.5993218E-006  0.8300992E+02  0.7818608E-02  0.1473254E+00
          2   -1    0    0  502    0  0.00000000000E+00  0.00000000000E+00  0.17848083380E+04  0.17848083380E+04  0.00000000000E+00 0. -1.
          1   -1    0    0  501    0 -0.00000000000E+00 -0.00000000000E+00 -0.53999293022E+03  0.53999293022E+03  0.00000000000E+00 0. -1.
         25    2    1    2    0    0 -0.36267047474E+02 -0.48131239848E+02  0.45774386028E+02  0.14610693234E+03  0.12498010354E+03 0.  0.
          2    1    1    2  501    0  0.56699159711E+02  0.61803125745E+02 -0.48614608172E+03  0.49332791714E+03  0.00000000000E+00 0. -1.
          1    1    1    2  502    0 -0.20432112238E+02 -0.13671885897E+02  0.16851871035E+04  0.16853664187E+04  0.00000000000E+00 0. -1.
         22    1    3    3    0    0  0.62467975499E+01 -0.35266278717E+02 -0.37420045690E+02  0.51797613011E+02  0.00000000000E+00 0. -1.
         22    1    3    3    0    0 -0.42513845024E+02 -0.12864961131E+02  0.83194431718E+02  0.94309319329E+02  0.00000000000E+00 0. -1.
</event>
<event>
 7    1  0.5993218E-006  0.2573380E+03  0.7818608E-02  0.1183862E+00
          2   -1    0    0  502    0  0.00000000000E+00  0.00000000000E+00  0.13068758139E+04  0.13068758139E+04  0.00000000000E+00 0. -1.
          1   -1    0    0  501    0 -0.00000000000E+00 -0.00000000000E+00 -0.14891664384E+03  0.14891664384E+03  0.00000000000E+00 0. -1.
         25    2    1    2    0    0  0.18298298792E+03  0.27010100471E+03  0.87846948840E+03  0.94539362642E+03  0.12499256058E+03 0.  0.
          2    1    1    2  501    0 -0.84974382565E+02 -0.23250037738E+03  0.42450486139E+02  0.25115555926E+03  0.00000000000E+00 0. -1.
          1    1    1    2  502    0 -0.98008605357E+02 -0.37600627335E+02  0.23703919547E+03  0.25924327202E+03  0.00000000000E+00 0. -1.
         22    1    3    3    0    0 -0.14811838379E+02  0.55350595070E+02  0.13538252086E+03  0.14700852317E+03  0.00000000000E+00 0. -1.
         22    1    3    3    0    0  0.19779482630E+03  0.21475040964E+03  0.74308696755E+03  0.79838510325E+03  0.00000000000E+00 0. -1.
</event>
<event>
 7    1  0.5993218E-006  0.9807465E+02  0.7818608E-02  0.1370240E+00
          2   -1    0    0  502    0  0.00000000000E+00  0.00000000000E+00  0.56708613748E+03  0.56708613748E+03  0.00000000000E+00 0. -1.
          1   -1    0    0  501    0 -0.00000000000E+00 -0.00000000000E+00 -0.56761230054E+03  0.56761230054E+03  0.00000000000E+00 0. -1.
         25    2    1    2    0    0  0.86379147279E+02 -0.42038405314E+01 -0.73566490482E+02  0.16886639437E+03  0.12499920506E+03 0.  0.
          2    1    1    2  501    0  0.33526881337E+01  0.45786057530E+02 -0.44048461652E+03  0.44287052394E+03  0.00000000000E+00 0. -1.
          1    1    1    2  502    0 -0.89731835413E+02 -0.41582216999E+02  0.51352494394E+03  0.52296151971E+03  0.00000000000E+00 0. -1.
         22    1    3    3    0    0  0.21716111247E+02  0.57470743152E+02 -0.40503174450E+02  0.73586567706E+02  0.00000000000E+00 0. -1.
         22    1    3    3    0    0  0.64663036032E+02 -0.61674583684E+02 -0.33063316031E+02  0.95279826661E+02  0.00000000000E+00 0. -1.
</event>
<event>
 7    1  0.5993218E-006  0.2771141E+02  0.7818608E-02  0.1672351E+00
          2   -1    0    0  502    0  0.00000000000E+00  0.00000000000E+00  0.19409457145E+03  0.19409457145E+03  0.00000000000E+00 0. -1.
          1   -1    0    0  501    0 -0.00000000000E+00 -0.00000000000E+00 -0.34877053772E+03  0.34877053772E+03  0.00000000000E+00 0. -1.
         25    2    1    2    0    0 -0.20631837798E+02 -0.19530005663E+02 -0.85619122511E+02  0.15415232078E+03  0.12500084004E+03 0.  0.
          2    1    1    2  501    0  0.27887246636E+02 -0.37028572361E+00 -0.22732704431E+03  0.22903148411E+03  0.00000000000E+00 0. -1.
          1    1    1    2  502    0 -0.72554088378E+01  0.19900291386E+02  0.15827020055E+03  0.15968130428E+03  0.00000000000E+00 0. -1.
         22    1    3    3    0    0  0.97087366456E+00  0.48577004337E+02 -0.90474687693E+01  0.49421904426E+02  0.00000000000E+00 0.  1.
         22    1    3    3    0    0 -0.21602711463E+02 -0.68107009999E+02 -0.76571653742E+02  0.10473041636E+03  0.00000000000E+00 0.  1.
</event>
<event>
 7    1  0.5993218E-006  0.7678304E+02  0.7818608E-02  0.1443837E+00
          2   -1    0    0  502    0  0.00000000000E+00  0.00000000000E+00  0.73303092669E+03  0.73303092669E+03  0.00000000000E+00 0. -1.
          1   -1    0    0  501    0 -0.00000000000E+00 -0.00000000000E+00 -0.11056523629E+04  0.11056523629E+04  0.00000000000E+00 0. -1.
         25    2    1    2    0    0  0.92978233085E+02 -0.20901480059E+02  0.39586673471E+03  0.42593230968E+03  0.12500414827E+03 0.  0.
          2    1    1    2  501    0 -0.65799548744E+02  0.39485844401E+02 -0.10884238133E+04  0.10911256160E+04  0.00000000000E+00 0. -1.
          1    1    1    2  502    0 -0.27178684342E+02 -0.18584364341E+02  0.31993564236E+03  0.32162536394E+03  0.00000000000E+00 0. -1.
         22    1    3    3    0    0 -0.24845639584E+02 -0.13711008942E+02  0.15638123998E+03  0.15893517480E+03  0.00000000000E+00 0.  1.
         22    1    3    3    0    0  0.11782387267E+03 -0.71904711169E+01  0.23948549473E+03  0.26699713487E+03  0.00000000000E+00 0.  1.
</event>
<event>
 7    1  0.5993218E-006  0.1200820E+03  0.7818608E-02  0.1389161E+00
          2   -1    0    0  502    0  0.00000000000E+00  0.00000000000E+00  0.36452954183E+03  0.36452954183E+03  0.00000000000E+00 0. -1.
          1   -1    0    0  501    0 -0.00000000000E+00 -0.00000000000E+00 -0.51551680231E+03  0.51551680231E+03  0.00000000000E+00 0. -1.
         25    2    1    2    0    0  0.11033415270E+03  0.15323640571E+02  0.28577671272E+02  0.16985356821E+03  0.12500044850E+03 0.  0.
          2    1    1    2  501    0 -0.11142843293E+03 -0.47436244458E+02 -0.43561427574E+03  0.45213525651E+03  0.00000000000E+00 0. -1.
          1    1    1    2  502    0  0.10942802312E+01  0.32112603886E+02  0.25604934398E+03  0.25805751943E+03  0.00000000000E+00 0. -1.
         22    1    3    3    0    0  0.12210770794E+03  0.25182101854E+01  0.58361949715E+02  0.13536155619E+03  0.00000000000E+00 0.  1.
         22    1    3    3    0    0 -0.11773555241E+02  0.12805430386E+02 -0.29784278443E+02  0.34492012014E+02  0.00000000000E+00 0.  1.
</event>
<event>
 7    1  0.5993218E-006  0.1618978E+03  0.7818608E-02  0.1212549E+00
          2   -1    0    0  502    0  0.00000000000E+00  0.00000000000E+00  0.10616746758E+04  0.10616746758E+04  0.00000000000E+00 0. -1.
          1   -1    0    0  501    0 -0.00000000000E+00 -0.00000000000E+00 -0.66015765716E+03  0.66015765716E+03  0.00000000000E+00 0. -1.
         25    2    1    2    0    0  0.10261507523E+03 -0.23287967573E+03 -0.20477529039E+03  0.34974412460E+03  0.12500094441E+03 0.  0.
          2    1    1    2  501    0 -0.97982062673E+02  0.72808159027E+02 -0.36645261744E+03  0.38624996240E+03  0.00000000000E+00 0. -1.
          1    1    1    2  502    0 -0.46330125558E+01  0.16007151670E+03  0.97274492647E+03  0.98583824598E+03  0.00000000000E+00 0. -1.
         22    1    3    3    0    0  0.13063874235E+03 -0.20805987273E+03 -0.18393205319E+03  0.30689801536E+03  0.00000000000E+00 0. -1.
         22    1    3    3    0    0 -0.28023667117E+02 -0.24819803005E+02 -0.20843237200E+02  0.42846109238E+02  0.00000000000E+00 0. -1.
</event>
<event>
 7    1  0.5993218E-006  0.7421902E+02  0.7818608E-02  0.1421019E+00
          2   -1    0    0  502    0  0.00000000000E+00  0.00000000000E+00  0.96216015306E+01  0.96216015306E+01  0.00000000000E+00 0. -1.
          1   -1    0    0  501    0 -0.00000000000E+00 -0.00000000000E+00 -0.20194085232E+04  0.20194085232E+04  0.00000000000E+00 0. -1.
         25    2    1    2    0    0  0.11876624149E+01  0.85854659351E+02 -0.90442420109E+03  0.91704948784E+03  0.12499677815E+03 0.  0.
          2    1    1    2  501    0  0.33598744684E+02 -0.65171717710E+02 -0.87697644006E+03  0.88003630883E+03  0.00000000000E+00 0. -1.
          1    1    1    2  502    0 -0.34786407099E+02 -0.20682941640E+02 -0.22838628054E+03  0.23194432809E+03  0.00000000000E+00 0. -1.
         22    1    3    3    0    0  0.46654063859E+01 -0.29694525368E+02 -0.10186636219E+03  0.10620869362E+03  0.00000000000E+00 0. -1.
         22    1    3    3    0    0 -0.34777439710E+01  0.11554918472E+03 -0.80255783890E+03  0.81084079422E+03  0.00000000000E+00 0. -1.
</event>
<event>
 7    1  0.5993218E-006  0.1242052E+03  0.7818608E-02  0.1293588E+00
          2   -1    0    0  502    0  0.00000000000E+00  0.00000000000E+00  0.56743685056E+03  0.56743685056E+03  0.00000000000E+00 0. -1.
          1   -1    0    0  501    0 -0.00000000000E+00 -0.00000000000E+00 -0.42760855783E+03  0.42760855783E+03  0.00000000000E+00 0. -1.
         25    2    1    2    0    0  0.28448735400E+02 -0.17031189891E+03 -0.45139282708E+02  0.21789261075E+03  0.12499664603E+03 0.  0.
          2    1    1    2  501    0 -0.50108914702E+02  0.50363450912E+02 -0.28392402483E+03  0.29267769371E+03  0.00000000000E+00 0. -1.
          1    1    1    2  502    0  0.21660179302E+02  0.11994844800E+03  0.46889160026E+03  0.48447510394E+03  0.00000000000E+00 0. -1.
         22    1    3    3    0    0  0.23548968696E+02 -0.93168685315E+02 -0.87310505403E+02  0.12983867761E+03  0.00000000000E+00 0.  1.
         22    1    3    3    0    0  0.48997667040E+01 -0.77143213592E+02  0.42171222695E+02  0.88053933136E+02  0.00000000000E+00 0.  1.
</event>
<event>
 7    1  0.5993218E-006  0.5472306E+02  0.7818608E-02  0.1478851E+00
          2   -1    0    0  502    0  0.00000000000E+00  0.00000000000E+00  0.15287503304E+03  0.15287503304E+03  0.00000000000E+00 0. -1.
          1   -1    0    0  501    0 -0.00000000000E+00 -0.00000000000E+00 -0.23237516972E+03  0.23237516972E+03  0.00000000000E+00 0. -1.
         25    2    1    2    0    0 -0.80108096693E-02 -0.44494826410E+02  0.69580377436E+02  0.14981938690E+03  0.12499852049E+03 0.  0.
          2    1    1    2  501    0  0.34527817078E+02 -0.96057501116E+01 -0.16537922949E+03  0.16921799590E+03  0.00000000000E+00 0. -1.
          1    1    1    2  502    0 -0.34519806268E+02  0.54100576522E+02  0.16298715375E+02  0.66212819965E+02  0.00000000000E+00 0. -1.
         22    1    3    3    0    0  0.17431534554E+01 -0.88509067667E+02  0.49268324813E+02  0.10131269157E+03  0.00000000000E+00 0. -1.
         22    1    3    3    0    0 -0.17511642650E+01  0.44014241257E+02  0.20312052622E+02  0.48506695326E+02  0.00000000000E+00 0. -1.
</event>
<event>
 7    1  0.5993218E-006  0.7146151E+02  0.7818608E-02  0.1372444E+00
          2   -1    0    0  502    0  0.00000000000E+00  0.00000000000E+00  0.11966611030E+04  0.11966611030E+04  0.00000000000E+00 0. -1.
          1   -1    0    0  501    0 -0.00000000000E+00 -0.00000000000E+00 -0.20009609933E+03  0.20009609933E+03  0.00000000000E+00 0. -1.
         25    2    1    2    0    0 -0.14849641387E+02  0.27624109480E+02 -0.60110316554E+02  0.14220498661E+03  0.12500161914E+03 0.  0.
          2    1    1    2  501    0  0.80141013820E+02  0.14238538465E+01 -0.81397909597E+02  0.11423759951E+03  0.00000000000E+00 0. -1.
          1    1    1    2  502    0 -0.65291372433E+02 -0.29047963327E+02  0.11380732299E+04  0.11403146162E+04  0.00000000000E+00 0. -1.
         22    1    3    3    0    0 -0.30318329461E+02 -0.24603950390E+01 -0.91274571165E+02  0.96209677197E+02  0.00000000000E+00 0.  1.
         22    1    3    3    0    0  0.15468688074E+02  0.30084504519E+02  0.31164254611E+02  0.45995309417E+02  0.00000000000E+00 0.  1.
</event>
<event>
 7    1  0.5993218E-006  0.1129589E+03  0.7818608E-02  0.1302311E+00
          2   -1    0    0  502    0  0.00000000000E+00  0.00000000000E+00  0.14281329251E+04  0.14281329251E+04  0.00000000000E+00 0. -1.
          1   -1    0    0  501    0 -0.00000000000E+00 -0.00000000000E+00 -0.38032487641E+03  0.38032487641E+03  0.00000000000E+00 0. -1.
         25    2    1    2    0    0  0.15304890973E+03 -0.87465240211E+02 -0.21198484435E+02  0.21713538289E+03  0.12499704694E+03 0.  0.
          2    1    1    2  501    0 -0.71164710433E+02  0.11352930843E+02 -0.25378335732E+03  0.26381678775E+03  0.00000000000E+00 0. -1.
          1    1    1    2  502    0 -0.81884199301E+02  0.76112309368E+02  0.13227898904E+04  0.13275056308E+04  0.00000000000E+00 0. -1.
         22    1    3    3    0    0  0.67034531766E+02 -0.49015976778E+01  0.44881043136E+02  0.80820555194E+02  0.00000000000E+00 0. -1.
         22    1    3    3    0    0  0.86014377968E+02 -0.82563642533E+02 -0.66079527571E+02  0.13631482769E+03  0.00000000000E+00 0. -1.
</event>
<event>
 7    1  0.5993218E-006  0.7316011E+02  0.7818608E-02  0.1416749E+00
          2   -1    0    0  502    0  0.00000000000E+00  0.00000000000E+00  0.64014493061E+03  0.64014493061E+03  0.00000000000E+00 0. -1.
          1   -1    0    0  501    0 -0.00000000000E+00 -0.00000000000E+00 -0.12846932041E+04  0.12846932041E+04  0.00000000000E+00 0. -1.
         25    2    1    2    0    0 -0.50865369022E+02  0.65611835602E+01 -0.76765724766E+03  0.77945741735E+03  0.12500352270E+03 0.  0.
          2    1    1    2  501    0 -0.14334145549E+02 -0.39934688210E+02 -0.50813411562E+03  0.50990246764E+03  0.00000000000E+00 0. -1.
          1    1    1    2  502    0  0.65199514571E+02  0.33373504650E+02  0.63124308976E+03  0.63547824974E+03  0.00000000000E+00 0. -1.
         22    1    3    3    0    0 -0.35302202031E+02  0.42101401189E+02 -0.13698537273E+03  0.14759324440E+03  0.00000000000E+00 0. -1.
         22    1    3    3    0    0 -0.15563166991E+02 -0.35540217629E+02 -0.63067187493E+03  0.63186417295E+03  0.00000000000E+00 0. -1.
</event>
<event>
 7    1  0.5993218E-006  0.8694387E+02  0.7818608E-02  0.1459287E+00
          2   -1    0    0  502    0  0.00000000000E+00  0.00000000000E+00  0.13263924417E+03  0.13263924417E+03  0.00000000000E+00 0. -1.
          1   -1    0    0  501    0 -0.00000000000E+00 -0.00000000000E+00 -0.89735922604E+03  0.89735922604E+03  0.00000000000E+00 0. -1.
         25    2    1    2    0    0  0.43812483248E+02 -0.44009408369E+02 -0.41470427844E+03  0.43756148150E+03  0.12499619921E+03 0.  0.
          2    1    1    2  501    0  0.15578089000E+02 -0.20760706493E+02 -0.45487997048E+03  0.45561987592E+03  0.00000000000E+00 0. -1.
          1    1    1    2  502    0 -0.59390572248E+02  0.64770114861E+02  0.10486426705E+03  0.13681711280E+03  0.00000000000E+00 0. -1.
         22    1    3    3    0    0  0.67686139392E+02 -0.62689581817E+02 -0.19439195219E+03  0.21517348399E+03  0.00000000000E+00 0. -1.
         22    1    3    3    0    0 -0.23873656143E+02  0.18680173448E+02 -0.22031232625E+03  0.22238799751E+03  0.00000000000E+00 0. -1.
</event>
<event>
 7    1  0.5993218E-006  0.6417639E+02  0.7818608E-02  0.1499459E+00
          2   -1    0    0  502    0  0.00000000000E+00  0.00000000000E+00  0.10847033306E+04  0.10847033306E+04  0.00000000000E+00 0. -1.
          1   -1    0    0  501    0 -0.00000000000E+00 -0.00000000000E+00 -0.98967925310E+03  0.98967925310E+03  0.00000000000E+00 0. -1.
         25    2    1    2    0    0  0.60076402453E+02 -0.63934927226E+02  0.18922160684E+03  0.24315963967E+03  0.12499977926E+03 0.  0.
          2    1    1    2  501    0 -0.50680520760E+02  0.39190385042E+02 -0.96144226039E+03  0.96357439854E+03  0.00000000000E+00 0. -1.
          1    1    1    2  502    0 -0.93958816934E+01  0.24744542184E+02  0.86724473110E+03  0.86764854554E+03  0.00000000000E+00 0. -1.
         22    1    3    3    0    0  0.38244029457E+02 -0.91458942373E+02  0.18206860856E+03  0.20730731331E+03  0.00000000000E+00 0.  1.
         22    1    3    3    0    0  0.21832372996E+02  0.27524015146E+02  0.71529982777E+01  0.35852326351E+02  0.00000000000E+00 0.  1.
</event>
<event>
 7    1  0.5993218E-006  0.8371372E+02  0.7818608E-02  0.1419065E+00
          2   -1    0    0  502    0  0.00000000000E+00  0.00000000000E+00  0.32971984979E+04  0.32971984979E+04  0.00000000000E+00 0. -1.
          1   -1    0    0  501    0 -0.00000000000E+00 -0.00000000000E+00 -0.27911098709E+03  0.27911098709E+03  0.00000000000E+00 0. -1.
         25    2    1    2    0    0 -0.58710444771E+02 -0.77799220096E+02  0.10794814425E+04  0.10910568363E+04  0.12500080139E+03 0.  0.
          2    1    1    2  501    0 -0.11691859358E+02  0.34496275080E+02 -0.27133380788E+03  0.27376765308E+03  0.00000000000E+00 0. -1.
          1    1    1    2  502    0  0.70402304129E+02  0.43302945016E+02  0.22099398762E+04  0.22114849957E+04  0.00000000000E+00 0. -1.
         22    1    3    3    0    0 -0.34676352054E+02 -0.21356315735E+02  0.90833936055E+03  0.90925185484E+03  0.00000000000E+00 0. -1.
         22    1    3    3    0    0 -0.24034092717E+02 -0.56442904361E+02  0.17114208193E+03  0.18180498143E+03  0.00000000000E+00 0. -1.
</event>
<event>
 7    1  0.5993218E-006  0.2178667E+03  0.7818608E-02  0.1338010E+00
          2   -1    0    0  502    0  0.00000000000E+00  0.00000000000E+00  0.58130745456E+03  0.58130745456E+03  0.00000000000E+00 0. -1.
          1   -1    0    0  501    0 -0.00000000000E+00 -0.00000000000E+00 -0.10861696885E+04  0.10861696885E+04  0.00000000000E+00 0. -1.
         25    2    1    2    0    0 -0.10200342143E+03  0.16577621692E+03  0.17786735150E+03  0.29180186096E+03  0.12500031700E+03 0.  0.
          2    1    1    2  501    0  0.10380019365E+03 -0.19287806048E+03 -0.10169915466E+04  0.10403116034E+04  0.00000000000E+00 0. -1.
          1    1    1    2  502    0 -0.17967722218E+01  0.27101843559E+02  0.33426196113E+03  0.33536367867E+03  0.00000000000E+00 0. -1.
         22    1    3    3    0    0 -0.80074004333E+02  0.18412564239E+03  0.16719297215E+03  0.26128066957E+03  0.00000000000E+00 0.  1.
         22    1    3    3    0    0 -0.21929417095E+02 -0.18349425471E+02  0.10674379354E+02  0.30521191389E+02  0.00000000000E+00 0.  1.
</event>
<event>
 7    1  0.5993218E-006  0.1275769E+03  0.7818608E-02  0.1369298E+00
          2   -1    0    0  502    0  0.00000000000E+00  0.00000000000E+00  0.12549820732E+03  0.12549820732E+03  0.00000000000E+00 0. -1.
          1   -1    0    0  501    0 -0.00000000000E+00 -0.00000000000E+00 -0.18375855324E+04  0.18375855324E+04  0.00000000000E+00 0. -1.
         25    2    1    2    0    0 -0.40618396161E+02 -0.98534399658E+02 -0.19555887944E+03  0.25539682978E+03  0.12500153325E+03 0.  0.
          2    1    1    2  501    0 -0.33919117118E+02 -0.10705924272E+02 -0.15660633654E+04  0.15664672316E+04  0.00000000000E+00 0. -1.
          1    1    1    2  502    0  0.74537513279E+02  0.10924032393E+03  0.49534919781E+02  0.14121967829E+03  0.00000000000E+00 0. -1.
         22    1    3    3    0    0 -0.67323297611E+02 -0.55553594829E+02 -0.18376244924E+03  0.20343860511E+03  0.00000000000E+00 0. -1.
         22    1    3    3    0    0  0.26704901450E+02 -0.42980804829E+02 -0.11796430194E+02  0.51958224667E+02  0.00000000000E+00 0. -1.
</event>
<event>
 7    1  0.5993218E-006  0.5297152E+02  0.7818608E-02  0.1551128E+00
          2   -1    0    0  502    0  0.00000000000E+00  0.00000000000E+00  0.12907733945E+03  0.12907733945E+03  0.00000000000E+00 0. -1.
          1   -1    0    0  501    0 -0.00000000000E+00 -0.00000000000E+00 -0.14897799751E+03  0.14897799751E+03  0.00000000000E+00 0. -1.
         25    2    1    2    0    0  0.69500137371E+02  0.98104994611E+01  0.70357754183E+02  0.15965255125E+03  0.12494882373E+03 0.  0.
          2    1    1    2  501    0 -0.48224190390E+02 -0.17875258341E+02 -0.47708034120E+02  0.70150936695E+02  0.00000000000E+00 0. -1.
          1    1    1    2  502    0 -0.21275946981E+02  0.80647588799E+01 -0.42550378122E+02  0.48251849022E+02  0.00000000000E+00 0. -1.
         22    1    3    3    0    0  0.83330007561E+02 -0.26615662942E+02  0.10325817980E+02  0.88084653550E+02  0.00000000000E+00 0.  1.
         22    1    3    3    0    0 -0.13829870190E+02  0.36426162403E+02  0.60031936202E+02  0.71567897699E+02  0.00000000000E+00 0.  1.
</event>
<event>
 7    1  0.5993218E-006  0.1408828E+03  0.7818608E-02  0.1411607E+00
          2   -1    0    0  502    0  0.00000000000E+00  0.00000000000E+00  0.10188339613E+04  0.10188339613E+04  0.00000000000E+00 0. -1.
          1   -1    0    0  501    0 -0.00000000000E+00 -0.00000000000E+00 -0.10598262885E+04  0.10598262885E+04  0.00000000000E+00 0. -1.
         25    2    1    2    0    0 -0.22007724964E+02 -0.15130272915E+03  0.33904464632E+02  0.20038880291E+03  0.12501721404E+03 0.  0.
          2    1    1    2  501    0  0.18317396305E+01  0.14040741289E+03 -0.97138917147E+03  0.98148587321E+03  0.00000000000E+00 0. -1.
          1    1    1    2  502    0  0.20175985334E+02  0.10895316255E+02  0.89649237967E+03  0.89678557365E+03  0.00000000000E+00 0. -1.
         22    1    3    3    0    0 -0.44864558479E+02 -0.14049719506E+03 -0.12008994347E+02  0.14797468153E+03  0.00000000000E+00 0. -1.
         22    1    3    3    0    0  0.22856833515E+02 -0.10805534085E+02  0.45913458979E+02  0.52414121385E+02  0.00000000000E+00 0. -1.
</event>
<event>
 7    1  0.5993218E-006  0.6608137E+02  0.7818608E-02  0.1422777E+00
          2   -1    0    0  502    0  0.00000000000E+00  0.00000000000E+00  0.38859023657E+03  0.38859023657E+03  0.00000000000E+00 0. -1.
          1   -1    0    0  501    0 -0.00000000000E+00 -0.00000000000E+00 -0.74073409004E+03  0.74073409004E+03  0.00000000000E+00 0. -1.
         25    2    1    2    0    0  0.92163626099E+02  0.58506443593E+02 -0.21313971803E+03  0.27013263118E+03  0.12500384438E+03 0.  0.
          2    1    1    2  501    0 -0.41577247878E+02 -0.16806722813E+02 -0.49509219401E+03  0.49711911455E+03  0.00000000000E+00 0. -1.
          1    1    1    2  502    0 -0.50586378220E+02 -0.41699720780E+02  0.35608805857E+03  0.36207258089E+03  0.00000000000E+00 0. -1.
         22    1    3    3    0    0 -0.64506666800E+01  0.16774188185E+02  0.11458568105E+02  0.21313922044E+02  0.00000000000E+00 0. -1.
         22    1    3    3    0    0  0.98614292779E+02  0.41732255408E+02 -0.22459828613E+03  0.24881870913E+03  0.00000000000E+00 0. -1.
</event>
<event>
 7    1  0.5993218E-006  0.8465230E+02  0.7818608E-02  0.1365578E+00
          2   -1    0    0  502    0  0.00000000000E+00  0.00000000000E+00  0.13401064199E+03  0.13401064199E+03  0.00000000000E+00 0. -1.
          1   -1    0    0  501    0 -0.00000000000E+00 -0.00000000000E+00 -0.24337522312E+04  0.24337522312E+04  0.00000000000E+00 0. -1.
         25    2    1    2    0    0 -0.31488209030E+02  0.76406357093E+02 -0.48105663906E+03  0.50385775123E+03  0.12501081865E+03 0.  0.
          2    1    1    2  501    0  0.55010612959E+02  0.55229860151E+01 -0.19260355879E+04  0.19268289381E+04  0.00000000000E+00 0. -1.
          1    1    1    2  502    0 -0.23522403928E+02 -0.81929343108E+02  0.10735063776E+03  0.13707618384E+03  0.00000000000E+00 0. -1.
         22    1    3    3    0    0  0.72680977265E+01 -0.56241032358E+01 -0.31081092643E+03  0.31094676035E+03  0.00000000000E+00 0. -1.
         22    1    3    3    0    0 -0.38756306757E+02  0.82030460328E+02 -0.17024571262E+03  0.19291099088E+03  0.00000000000E+00 0. -1.
</event>
<event>
 7    1  0.5993218E-006  0.1148403E+03  0.7818608E-02  0.1420071E+00
          2   -1    0    0  502    0  0.00000000000E+00  0.00000000000E+00  0.18630009813E+04  0.18630009813E+04  0.00000000000E+00 0. -1.
          1   -1    0    0  501    0 -0.00000000000E+00 -0.00000000000E+00 -0.43717064641E+02  0.43717064641E+02  0.00000000000E+00 0. -1.
         25    2    1    2    0    0  0.75166999928E+02  0.10409536700E+03  0.54974643707E+03  0.57822457634E+03  0.12504636063E+03 0.  0.
          2    1    1    2  501    0 -0.26229699640E+02 -0.24788970932E+01 -0.20594637762E+02  0.33440711394E+02  0.00000000000E+00 0. -1.
          1    1    1    2  502    0 -0.48937300288E+02 -0.10161646991E+03  0.12901321173E+04  0.12950527582E+04  0.00000000000E+00 0. -1.
         22    1    3    3    0    0  0.76238939405E+02  0.14664082524E+01  0.25209446898E+03  0.26337453849E+03  0.00000000000E+00 0.  1.
         22    1    3    3    0    0 -0.10719394770E+01  0.10262895875E+03  0.29765196809E+03  0.31485003786E+03  0.00000000000E+00 0.  1.
</event>
<event>
 7    1  0.5993218E-006  0.6588241E+02  0.7818608E-02  0.1505016E+00
          2   -1    0    0  502    0  0.00000000000E+00  0.00000000000E+00  0.38629942137E+03  0.38629942137E+03  0.00000000000E+00 0. -1.
          1   -1    0    0  501    0 -0.00000000000E+00 -0.00000000000E+00 -0.75346475615E+03  0.75346475615E+03  0.00000000000E+00 0. -1.
         25    2    1    2    0    0 -0.37291069242E+01  0.81189150803E+02 -0.17149381794E+03  0.22724595709E+03  0.12500004390E+03 0.  0.
          2    1    1    2  501    0 -0.16377165177E+02 -0.18649768196E+02 -0.55080304487E+03  0.55136196789E+03  0.00000000000E+00 0. -1.
          1    1    1    2  502    0  0.20106272101E+02 -0.62539382607E+02  0.35513152803E+03  0.36115625255E+03  0.00000000000E+00 0. -1.
         22    1    3    3    0    0 -0.16617342351E+02  0.42230054535E+02  0.53567810505E+01  0.45696921954E+02  0.00000000000E+00 0. -1.
         22    1    3    3    0    0  0.12888235427E+02  0.38959096268E+02 -0.17685059899E+03  0.18154903513E+03  0.00000000000E+00 0. -1.
</event>
<event>
 7    1  0.5993218E-006  0.6188892E+02  0.7818608E-02  0.1419367E+00
          2   -1    0    0  502    0  0.00000000000E+00  0.00000000000E+00  0.28603002955E+04  0.28603002955E+04  0.00000000000E+00 0. -1.
          1   -1    0    0  501    0 -0.00000000000E+00 -0.00000000000E+00 -0.22732194302E+03  0.22732194302E+03  0.00000000000E+00 0. -1.
         25    2    1    2    0    0 -0.22506702173E+02 -0.67812690408E+02  0.13191683176E+03  0.19527841802E+03  0.12500598954E+03 0.  0.
          2    1    1    2  501    0  0.47851425702E+02  0.11240358178E+02 -0.19219143502E+03  0.19837754986E+03  0.00000000000E+00 0. -1.
          1    1    1    2  502    0 -0.25344723529E+02  0.56572332230E+02  0.26932529558E+04  0.26939662707E+04  0.00000000000E+00 0. -1.
         22    1    3    3    0    0 -0.35796397131E+02  0.22196682328E+02  0.80288214928E+02  0.90665716841E+02  0.00000000000E+00 0.  1.
         22    1    3    3    0    0  0.13289694959E+02 -0.90009372736E+02  0.51628616836E+02  0.10461270118E+03  0.00000000000E+00 0.  1.
</event>
<event>
 7    1  0.5993218E-006  0.1114562E+03  0.7818608E-02  0.1427060E+00
          2   -1    0    0  502    0  0.00000000000E+00  0.00000000000E+00  0.47146174167E+03  0.47146174167E+03  0.00000000000E+00 0. -1.
          1   -1    0    0  501    0 -0.00000000000E+00 -0.00000000000E+00 -0.64317311179E+03  0.64317311179E+03  0.00000000000E+00 0. -1.
         25    2    1    2    0    0 -0.65370656242E+02  0.62066038556E+02  0.12981679829E+03  0.20149252574E+03  0.12498528301E+03 0.  0.
          2    1    1    2  501    0  0.70390833168E+02 -0.87304700874E+02 -0.60160275448E+03  0.61196638338E+03  0.00000000000E+00 0. -1.
          1    1    1    2  502    0 -0.50201769265E+01  0.25238662318E+02  0.30007458606E+03  0.30117594434E+03  0.00000000000E+00 0. -1.
         22    1    3    3    0    0  0.13420768516E+02  0.42465603216E+02 -0.42692783703E+01  0.44740040477E+02  0.00000000000E+00 0.  1.
         22    1    3    3    0    0 -0.78791424757E+02  0.19600435340E+02  0.13408607666E+03  0.15675248526E+03  0.00000000000E+00 0.  1.
</event>
<event>
 7    1  0.5993218E-006  0.4743785E+03  0.7818608E-02  0.1065037E+00
          2   -1    0    0  502    0  0.00000000000E+00  0.00000000000E+00  0.19557183655E+04  0.19557183655E+04  0.00000000000E+00 0. -1.
          1   -1    0    0  501    0 -0.00000000000E+00 -0.00000000000E+00 -0.10200758243E+04  0.10200758243E+04  0.00000000000E+00 0. -1.
         25    2    1    2    0    0  0.41853246279E+03 -0.22713888720E+03  0.12258596198E+03  0.50735929676E+03  0.12499856579E+03 0.  0.
          2    1    1    2  501    0 -0.16624771602E+03 -0.18629877706E+03 -0.77182043296E+03  0.81120423948E+03  0.00000000000E+00 0. -1.
          1    1    1    2  502    0 -0.25228474677E+03  0.41343766426E+03  0.15848770121E+04  0.16572306536E+04  0.00000000000E+00 0. -1.
         22    1    3    3    0    0  0.37021781099E+03 -0.18906808576E+03  0.14735790927E+03  0.44104684790E+03  0.00000000000E+00 0.  1.
         22    1    3    3    0    0  0.48314651799E+02 -0.38070801443E+02 -0.24771947283E+02  0.66312448855E+02  0.00000000000E+00 0.  1.
</event>
<event>
 7    1  0.5993218E-006  0.3833058E+02  0.7818608E-02  0.1541180E+00
          2   -1    0    0  502    0  0.00000000000E+00  0.00000000000E+00  0.24979553392E+04  0.24979553392E+04  0.00000000000E+00 0. -1.
          1   -1    0    0  501    0 -0.00000000000E+00 -0.00000000000E+00 -0.14485774527E+02  0.14485774527E+02  0.00000000000E+00 0. -1.
         25    2    1    2    0    0 -0.58425675337E+00 -0.97947133294E+01  0.69782837346E+03  0.70900321825E+03  0.12499938768E+03 0.  0.
          2    1    1    2  501    0  0.27407393471E+02 -0.19315302233E+02  0.23719025526E+02  0.41071136935E+02  0.00000000000E+00 0. -1.
          1    1    1    2  502    0 -0.26823136718E+02  0.29110015562E+02  0.17619221656E+04  0.17623667585E+04  0.00000000000E+00 0. -1.
         22    1    3    3    0    0  0.50521721200E+02  0.24999292726E+02  0.45280247267E+03  0.45629758733E+03  0.00000000000E+00 0. -1.
         22    1    3    3    0    0 -0.51105977953E+02 -0.34794006055E+02  0.24502590079E+03  0.25270563092E+03  0.00000000000E+00 0. -1.
</event>
<event>
 7    1  0.5993218E-006  0.5791865E+02  0.7818608E-02  0.1504950E+00
          2   -1    0    0  502    0  0.00000000000E+00  0.00000000000E+00  0.37578155736E+03  0.37578155736E+03  0.00000000000E+00 0. -1.
          1   -1    0    0  501    0 -0.00000000000E+00 -0.00000000000E+00 -0.13233353399E+04  0.13233353399E+04  0.00000000000E+00 0. -1.
         25    2    1    2    0    0 -0.70076921936E+00  0.72588008893E+02 -0.68032640639E+02  0.15976040388E+03  0.12500174536E+03 0.  0.
          2    1    1    2  501    0 -0.20844821485E+02 -0.19060297998E+02 -0.12067493733E+04  0.12070798861E+04  0.00000000000E+00 0. -1.
          1    1    1    2  502    0  0.21545590705E+02 -0.53527710895E+02  0.32722823139E+03  0.33227660726E+03  0.00000000000E+00 0. -1.
         22    1    3    3    0    0 -0.55688997641E+02  0.66029159105E+02 -0.25901321587E+02  0.90177562455E+02  0.00000000000E+00 0.  1.
         22    1    3    3    0    0  0.54988228422E+02  0.65588497877E+01 -0.42131319051E+02  0.69582841423E+02  0.00000000000E+00 0.  1.
</event>
<event>
 7    1  0.5993218E-006  0.1353202E+03  0.7818608E-02  0.1379954E+00
          2   -1    0    0  502    0  0.00000000000E+00  0.00000000000E+00  0.89837414908E+03  0.89837414908E+03  0.00000000000E+00 0. -1.
          1   -1    0    0  501    0 -0.00000000000E+00 -0.00000000000E+00 -0.67215409476E+03  0.67215409476E+03  0.00000000000E+00 0. -1.
         25    2    1    2    0    0  0.14677129274E+03  0.75838426134E+02  0.25749813148E+03  0.33048933638E+03  0.12499853797E+03 0.  0.
          2    1    1    2  501    0 -0.12063445950E+03 -0.59694435974E+02 -0.62813408359E+03  0.64239281244E+03  0.00000000000E+00 0. -1.
          1    1    1    2  502    0 -0.26136833243E+02 -0.16143990159E+02  0.59685600643E+03  0.59764609502E+03  0.00000000000E+00 0. -1.
         22    1    3    3    0    0  0.11450408538E+03 -0.37860096587E+01  0.10474032054E+03  0.15522903783E+03  0.00000000000E+00 0.  1.
         22    1    3    3    0    0  0.32267207359E+02  0.79624435792E+02  0.15275781094E+03  0.17526029855E+03  0.00000000000E+00 0.  1.
</event>
<event>
 7    1  0.5993218E-006  0.1289349E+03  0.7818608E-02  0.1284750E+00
          2   -1    0    0  502    0  0.00000000000E+00  0.00000000000E+00  0.91339308668E+02  0.91339308668E+02  0.00000000000E+00 0. -1.
          1   -1    0    0  501    0 -0.00000000000E+00 -0.00000000000E+00 -0.10590717669E+04  0.10590717669E+04  0.00000000000E+00 0. -1.
         25    2    1    2    0    0 -0.17953716935E+03  0.24588398770E+02 -0.16564212833E+03  0.27550136535E+03  0.12500201237E+03 0.  0.
          2    1    1    2  501    0  0.70616412934E+02 -0.23273911647E+02 -0.75086509826E+03  0.75453744010E+03  0.00000000000E+00 0. -1.
          1    1    1    2  502    0  0.10892075642E+03 -0.13144871225E+01 -0.51225231636E+02  0.12037227011E+03  0.00000000000E+00 0. -1.
         22    1    3    3    0    0 -0.73091311529E+02  0.38841954796E+02 -0.14378011761E+03  0.16590286161E+03  0.00000000000E+00 0. -1.
         22    1    3    3    0    0 -0.10644585782E+03 -0.14253556026E+02 -0.21862010728E+02  0.10959850373E+03  0.00000000000E+00 0. -1.
</event>
<event>
 7    1  0.5993218E-006  0.9036339E+02  0.7818608E-02  0.1389063E+00
          2   -1    0    0  502    0  0.00000000000E+00  0.00000000000E+00  0.91339536574E+02  0.91339536574E+02  0.00000000000E+00 0. -1.
          1   -1    0    0  501    0 -0.00000000000E+00 -0.00000000000E+00 -0.96537418069E+03  0.96537418069E+03  0.00000000000E+00 0. -1.
         25    2    1    2    0    0  0.50989888197E+02  0.11391604285E+03 -0.16996282667E+03  0.24512958747E+03  0.12499727472E+03 0.  0.
          2    1    1    2  501    0 -0.28181752199E+02 -0.32122033271E+02 -0.72326605546E+03  0.72452731016E+03  0.00000000000E+00 0. -1.
          1    1    1    2  502    0 -0.22808135998E+02 -0.81794009582E+02  0.19194238019E+02  0.87056819632E+02  0.00000000000E+00 0. -1.
         22    1    3    3    0    0  0.23011772658E+02 -0.94672019668E+01  0.85670547650E+01  0.26316611128E+02  0.00000000000E+00 0.  1.
         22    1    3    3    0    0  0.27978115539E+02  0.12338324482E+03 -0.17852988144E+03  0.21881297635E+03  0.00000000000E+00 0.  1.
</event>
<event>
 7    1  0.5993218E-006  0.8708800E+02  0.7818608E-02  0.1387876E+00
          2   -1    0    0  502    0  0.00000000000E+00  0.00000000000E+00  0.21277417564E+03  0.21277417564E+03  0.00000000000E+00 0. -1.
          1   -1    0    0  501    0 -0.00000000000E+00 -0.00000000000E+00 -0.33096342029E+03  0.33096342029E+03  0.00000000000E+00 0. -1.
         25    2    1    2    0    0 -0.52416275690E+02 -0.12160365119E+02 -0.34432236578E+01  0.13613460465E+03  0.12500173741E+03 0.  0.
          2    1    1    2  501    0  0.76905243745E+02  0.49633207398E+02 -0.24941977287E+03  0.26568420144E+03  0.00000000000E+00 0. -1.
          1    1    1    2  502    0 -0.24488968055E+02 -0.37472842279E+02  0.13467375188E+03  0.14191878984E+03  0.00000000000E+00 0. -1.
         22    1    3    3    0    0  0.12681509972E+02 -0.65191702612E+01 -0.52516092706E+02  0.54417462906E+02  0.00000000000E+00 0. -1.
         22    1    3    3    0    0 -0.65097785662E+02 -0.56411948581E+01  0.49072869048E+02  0.81717141740E+02  0.00000000000E+00 0. -1.
</event>
<event>
 7    1  0.5993218E-006  0.3717741E+02  0.7818608E-02  0.1553437E+00
          2   -1    0    0  502    0  0.00000000000E+00  0.00000000000E+00  0.58881028697E+01  0.58881028697E+01  0.00000000000E+00 0. -1.
          1   -1    0    0  501    0 -0.00000000000E+00 -0.00000000000E+00 -0.21472641442E+04  0.21472641442E+04  0.00000000000E+00 0. -1.
         25    2    1    2    0    0 -0.15593607675E+00 -0.13395854465E+02 -0.93256513608E+03  0.94100069521E+03  0.12500040849E+03 0.  0.
          2    1    1    2  501    0  0.28938186608E+02  0.27251401768E+02 -0.10107415528E+04  0.10115228836E+04  0.00000000000E+00 0. -1.
          1    1    1    2  502    0 -0.28782250531E+02 -0.13855547303E+02 -0.19806935247E+03  0.20062866825E+03  0.00000000000E+00 0. -1.
         22    1    3    3    0    0  0.25396271242E+02  0.16818827124E+02 -0.83717047283E+03  0.83772444403E+03  0.00000000000E+00 0.  1.
         22    1    3    3    0    0 -0.25552207319E+02 -0.30214681589E+02 -0.95394663244E+02  0.10327625118E+03  0.00000000000E+00 0.  1.
</event>
<event>
 7    1  0.5993218E-006  0.5363696E+02  0.7818608E-02  0.1441696E+00
          2   -1    0    0  502    0  0.00000000000E+00  0.00000000000E+00  0.50133739553E+03  0.50133739553E+03  0.00000000000E+00 0. -1.
          1   -1    0    0  501    0 -0.00000000000E+00 -0.00000000000E+00 -0.26131778295E+04  0.26131778295E+04  0.00000000000E+00 0. -1.
         25    2    1    2    0    0  0.52998659169E+01  0.41336177824E+02 -0.37314564632E+02  0.13694210544E+03  0.12499598126E+03 0.  0.
          2    1    1    2  501    0  0.44033368966E+02 -0.18829320326E+02 -0.25241935431E+04  0.25246478019E+04  0.00000000000E+00 0. -1.
          1    1    1    2  502    0 -0.49333234883E+02 -0.22506857498E+02  0.44966767367E+03  0.45292531774E+03  0.00000000000E+00 0. -1.
         22    1    3    3    0    0 -0.28133522160E+02  0.70352250890E+00  0.36626190735E+02  0.46189477815E+02  0.00000000000E+00 0. -1.
         22    1    3    3    0    0  0.33433388077E+02  0.40632655315E+02 -0.73940755367E+02  0.90752627623E+02  0.00000000000E+00 0. -1.
</event>
<event>
 7    1  0.5993218E-006  0.1042134E+03  0.7818608E-02  0.1284035E+00
          2   -1    0    0  502    0  0.00000000000E+00  0.00000000000E+00  0.43106882386E+02  0.43106882386E+02  0.00000000000E+00 0. -1.
          1   -1    0    0  501    0 -0.00000000000E+00 -0.00000000000E+00 -0.15335535640E+04  0.15335535640E+04  0.00000000000E+00 0. -1.
         25    2    1    2    0    0  0.64780158772E+02 -0.48419163519E+01 -0.26708758339E+03  0.30196159392E+03  0.12500045550E+03 0.  0.
          2    1    1    2  501    0  0.54728090730E+02  0.74714416161E+02 -0.10441403284E+04  0.10482396831E+04  0.00000000000E+00 0. -1.
          1    1    1    2  502    0 -0.11950824950E+03 -0.69872499809E+02 -0.17921876990E+03  0.22645916942E+03  0.00000000000E+00 0. -1.
         22    1    3    3    0    0  0.78771558746E+02  0.43802977549E+02 -0.16489051522E+03  0.18791631467E+03  0.00000000000E+00 0. -1.
         22    1    3    3    0    0 -0.13991399974E+02 -0.48644893901E+02 -0.10219706817E+03  0.11404527925E+03  0.00000000000E+00 0. -1.
</event>
<event>
 7    1  0.5993218E-006  0.5228799E+02  0.7818608E-02  0.1507923E+00
          2   -1    0    0  502    0  0.00000000000E+00  0.00000000000E+00  0.99080936216E+02  0.99080936216E+02  0.00000000000E+00 0. -1.
          1   -1    0    0  501    0 -0.00000000000E+00 -0.00000000000E+00 -0.97226716517E+03  0.97226716517E+03  0.00000000000E+00 0. -1.
         25    2    1    2    0    0  0.12199918302E+02 -0.42526792392E+02 -0.25567991249E+02  0.13504776253E+03  0.12500723943E+03 0.  0.
          2    1    1    2  501    0 -0.41198497531E+02  0.32571815616E+02 -0.88578693614E+03  0.88734251313E+03  0.00000000000E+00 0. -1.
          1    1    1    2  502    0  0.28998579229E+02  0.99549767757E+01  0.38168698436E+02  0.48957825730E+02  0.00000000000E+00 0. -1.
         22    1    3    3    0    0  0.33158060442E+02  0.35452422243E+02 -0.24315385278E+02  0.54291520299E+02  0.00000000000E+00 0. -1.
         22    1    3    3    0    0 -0.20958142140E+02 -0.77979214635E+02 -0.12526059717E+01  0.80756242228E+02  0.00000000000E+00 0. -1.
</event>
<event>
 7    1  0.5993218E-006  0.1078612E+03  0.7818608E-02  0.1288001E+00
          2   -1    0    0  502    0  0.00000000000E+00  0.00000000000E+00  0.80013717467E+02  0.80013717467E+02  0.00000000000E+00 0. -1.
          1   -1    0    0  501    0 -0.00000000000E+00 -0.00000000000E+00 -0.21383839288E+04  0.21383839288E+04  0.00000000000E+00 0. -1.
         25    2    1    2    0    0  0.63695216299E+02 -0.16063554868E+03 -0.65653113280E+03  0.69030357259E+03  0.12500013566E+03 0.  0.
          2    1    1    2  501    0 -0.53905012714E+00  0.10197045560E+03 -0.14328593005E+04  0.14364832193E+04  0.00000000000E+00 0. -1.
          1    1    1    2  502    0 -0.63156166172E+02  0.58665093079E+02  0.31020221934E+02  0.91610854380E+02  0.00000000000E+00 0. -1.
         22    1    3    3    0    0 -0.38130888536E+02 -0.50486910836E+02 -0.19596487376E+03  0.20592504601E+03  0.00000000000E+00 0. -1.
         22    1    3    3    0    0  0.10182610484E+03 -0.11014863784E+03 -0.46056625904E+03  0.48437852658E+03  0.00000000000E+00 0. -1.
</event>
<event>
 7    1  0.5993218E-006  0.5731326E+02  0.7818608E-02  0.1496838E+00
          2   -1    0    0  502    0  0.00000000000E+00  0.00000000000E+00  0.28870813729E+04  0.28870813729E+04  0.00000000000E+00 0. -1.
          1   -1    0    0  501    0 -0.00000000000E+00 -0.00000000000E+00 -0.12909680380E+03  0.12909680380E+03  0.00000000000E+00 0. -1.
         25    2    1    2    0    0 -0.33760292636E+01  0.67313752834E+02  0.76407606801E+03  0.77716136066E+03  0.12500001556E+03 0.  0.
          2    1    1    2  501    0  0.28055368848E+02 -0.49946174344E+02 -0.11574590577E+03  0.12914657857E+03  0.00000000000E+00 0. -1.
          1    1    1    2  502    0 -0.24679339585E+02 -0.17367578491E+02  0.21096544069E+04  0.21098702375E+04  0.00000000000E+00 0. -1.
         22    1    3    3    0    0  0.36918594389E+02  0.27173800356E+02  0.93047610948E+02  0.10372683327E+03  0.00000000000E+00 0. -1.
         22    1    3    3    0    0 -0.40294623652E+02  0.40139952478E+02  0.67102845707E+03  0.67343452738E+03  0.00000000000E+00 0. -1.
</event>
<event>
 7    1  0.5993218E-006  0.4652133E+03  0.7818608E-02  0.1203531E+00
          2   -1    0    0  502    0  0.00000000000E+00  0.00000000000E+00  0.13439802565E+04  0.13439802565E+04  0.00000000000E+00 0. -1.
          1   -1    0    0  501    0 -0.00000000000E+00 -0.00000000000E+00 -0.35273099462E+03  0.35273099462E+03  0.00000000000E+00 0. -1.
         25    2    1    2    0    0  0.30514392792E+02  0.43902728129E+03  0.41706606542E+03  0.61906946642E+03  0.12500727757E+03 0.  0.
          2    1    1    2  501    0  0.22435299437E+02  0.41061172122E+02 -0.17782775542E+03  0.18388059472E+03  0.00000000000E+00 0. -1.
          1    1    1    2  502    0 -0.52949692229E+02 -0.48008845341E+03  0.75201095188E+03  0.89376119000E+03  0.00000000000E+00 0. -1.
         22    1    3    3    0    0  0.48813444823E+02  0.15588473312E+03  0.91554382639E+02  0.18725652831E+03  0.00000000000E+00 0. -1.
         22    1    3    3    0    0 -0.18299052031E+02  0.28314254817E+03  0.32551168279E+03  0.43181293811E+03  0.00000000000E+00 0. -1.
</event>
<event>
 7    1  0.5993218E-006  0.3875511E+02  0.7818608E-02  0.1560002E+00
          2   -1    0    0  502    0  0.00000000000E+00  0.00000000000E+00  0.48461524542E+02  0.48461524542E+02  0.00000000000E+00 0. -1.
          1   -1    0    0  501    0 -0.00000000000E+00 -0.00000000000E+00 -0.83178992172E+03  0.83178992172E+03  0.00000000000E+00 0. -1.
         25    2    1    2    0    0  0.55512790220E+02  0.30275021692E+01 -0.82918719183E+02  0.15997366189E+03  0.12500089143E+03 0.  0.
          2    1    1    2  501    0 -0.34446600977E+02  0.17464544009E+02 -0.68680957509E+03  0.68789459298E+03  0.00000000000E+00 0. -1.
          1    1    1    2  502    0 -0.21066189243E+02 -0.20492046178E+02 -0.13600102906E+02  0.32383191394E+02  0.00000000000E+00 0. -1.
         22    1    3    3    0    0  0.68676110861E+02  0.51035031860E+02 -0.40921662069E+02  0.94844952984E+02  0.00000000000E+00 0.  1.
         22    1    3    3    0    0 -0.13163320641E+02 -0.48007529691E+02 -0.41997057114E+02  0.65128708904E+02  0.00000000000E+00 0.  1.
</event>
<event>
 7    1  0.5993218E-006  0.5448140E+02  0.7818608E-02  0.1538290E+00
          2   -1    0    0  502    0  0.00000000000E+00  0.00000000000E+00  0.12729537805E+04  0.12729537805E+04  0.00000000000E+00 0. -1.
          1   -1    0    0  501    0 -0.00000000000E+00 -0.00000000000E+00 -0.43879308751E+03  0.43879308751E+03  0.00000000000E+00 0. -1.
         25    2    1    2    0    0 -0.23381161737E+02 -0.45862301612E+02  0.13460144956E+03  0.19076823356E+03  0.12499975712E+03 0.  0.
          2    1    1    2  501    0  0.22368081180E+02 -0.88035498381E+01 -0.40968405450E+03  0.41038866707E+03  0.00000000000E+00 0. -1.
          1    1    1    2  502    0  0.10130805576E+01  0.54665851450E+02  0.11092432979E+04  0.11105899674E+04  0.00000000000E+00 0. -1.
         22    1    3    3    0    0 -0.57884035573E+02  0.19509955945E+02  0.55985156443E+02  0.82858540279E+02  0.00000000000E+00 0. -1.
         22    1    3    3    0    0  0.34502873836E+02 -0.65372257556E+02  0.78616293119E+02  0.10790969328E+03  0.00000000000E+00 0. -1.
</event>
<event>
 7    1  0.5993218E-006  0.5981202E+02  0.7818608E-02  0.1446885E+00
          2   -1    0    0  502    0  0.00000000000E+00  0.00000000000E+00  0.74849717648E+02  0.74849717648E+02  0.00000000000E+00 0. -1.
          1   -1    0    0  501    0 -0.00000000000E+00 -0.00000000000E+00 -0.15417811079E+04  0.15417811079E+04  0.00000000000E+00 0. -1.
         25    2    1    2    0    0 -0.42351089980E+02 -0.89312529244E+02 -0.56140739342E+03  0.58358725928E+03  0.12500194040E+03 0.  0.
          2    1    1    2  501    0  0.24719092415E+02  0.33113665440E+02 -0.95513845819E+03  0.95603191510E+03  0.00000000000E+00 0. -1.
          1    1    1    2  502    0  0.17631997565E+02  0.56198863804E+02  0.49614461396E+02  0.77011651135E+02  0.00000000000E+00 0. -1.
         22    1    3    3    0    0 -0.22810766873E+02  0.25082519996E+02 -0.59918413836E+02  0.68845335436E+02  0.00000000000E+00 0. -1.
         22    1    3    3    0    0 -0.19540323107E+02 -0.11439504924E+03 -0.50148897958E+03  0.51474192384E+03  0.00000000000E+00 0. -1.
</event>
<event>
 7    1  0.5993218E-006  0.6544228E+02  0.7818608E-02  0.1518848E+00
          2   -1    0    0  502    0  0.00000000000E+00  0.00000000000E+00  0.61165429472E+02  0.61165429472E+02  0.00000000000E+00 0. -1.
          1   -1    0    0  501    0 -0.00000000000E+00 -0.00000000000E+00 -0.52771440166E+03  0.52771440166E+03  0.00000000000E+00 0. -1.
         25    2    1    2    0    0 -0.44393513571E+02 -0.59650774368E+02 -0.11858774041E+03  0.18766242263E+03  0.12500053505E+03 0.  0.
          2    1    1    2  501    0 -0.68938689379E+01  0.21686908202E+02 -0.33541516332E+03  0.33618622696E+03  0.00000000000E+00 0. -1.
          1    1    1    2  502    0  0.51287382509E+02  0.37963866166E+02 -0.12546068470E+02  0.65031181543E+02  0.00000000000E+00 0. -1.
         22    1    3    3    0    0 -0.50246753712E+02 -0.56046632835E+02 -0.14337853055E+03  0.16193629715E+03  0.00000000000E+00 0. -1.
         22    1    3    3    0    0  0.58532401412E+01 -0.36041415326E+01  0.24790790146E+02  0.25726125483E+02  0.00000000000E+00 0. -1.
</event>
<event>
 7    1  0.5993218E-006  0.3930471E+02  0.7818608E-02  0.1542059E+00
          2   -1    0    0  502    0  0.00000000000E+00  0.00000000000E+00  0.18233455509E+04  0.18233455509E+04  0.00000000000E+00 0. -1.
          1   -1    0    0  501    0 -0.00000000000E+00 -0.00000000000E+00 -0.12557894756E+02  0.12557894756E+02  0.00000000000E+00 0. -1.
         25    2    1    2    0    0  0.12660210435E+01 -0.44763776451E+02  0.11783224110E+04  0.11857798635E+04  0.12499912746E+03 0.  0.
          2    1    1    2  501    0 -0.28704396730E+02  0.15268781290E+02  0.24211569740E+02  0.40537367736E+02  0.00000000000E+00 0. -1.
          1    1    1    2  502    0  0.27438375686E+02  0.29494995161E+02  0.60825367536E+03  0.60958621441E+03  0.00000000000E+00 0. -1.
         22    1    3    3    0    0  0.14800478106E+02  0.39603533339E+02  0.25169384503E+03  0.25522007294E+03  0.00000000000E+00 0.  1.
         22    1    3    3    0    0 -0.13534457062E+02 -0.84367309790E+02  0.92662856602E+03  0.93055979059E+03  0.00000000000E+00 0.  1.
</event>
<event>
 7    1  0.5993218E-006  0.6117069E+02  0.7818608E-02  0.1394581E+00
          2   -1    0    0  502    0  0.00000000000E+00  0.00000000000E+00  0.23508081527E+03  0.23508081527E+03  0.00000000000E+00 0. -1.
          1   -1    0    0  501    0 -0.00000000000E+00 -0.00000000000E+00 -0.13325914134E+04  0.13325914134E+04  0.00000000000E+00 0. -1.
         25    2    1    2    0    0  0.70262339908E+01  0.23747469425E+02  0.56480363635E+02  0.13938648079E+03  0.12500099712E+03 0.  0.
          2    1    1    2  501    0  0.52854997910E+02 -0.31608117724E+02 -0.12837152121E+04  0.12851916081E+04  0.00000000000E+00 0. -1.
          1    1    1    2  502    0 -0.59881231900E+02  0.78606482995E+01  0.12972425028E+03  0.14309413977E+03  0.00000000000E+00 0. -1.
         22    1    3    3    0    0 -0.23778998359E+02  0.68706401547E+02  0.36369117960E+02  0.81294053397E+02  0.00000000000E+00 0.  1.
         22    1    3    3    0    0  0.30805232350E+02 -0.44958932122E+02  0.20111245675E+02  0.58092427392E+02  0.00000000000E+00 0.  1.
</event>
<event>
 7    1  0.5993218E-006  0.4500284E+02  0.7818608E-02  0.1576136E+00
          2   -1    0    0  502    0  0.00000000000E+00  0.00000000000E+00  0.20991767083E+04  0.20991767083E+04  0.00000000000E+00 0. -1.
          1   -1    0    0  501    0 -0.00000000000E+00 -0.00000000000E+00 -0.12255996643E+03  0.12255996643E+03  0.00000000000E+00 0. -1.
         25    2    1    2    0    0  0.20123100973E+02  0.94650933792E+01  0.19447811636E+04  0.19489207846E+04  0.12499569257E+03 0.  0.
          2    1    1    2  501    0 -0.39721533586E+02 -0.21258607889E+02 -0.11536439401E+03  0.12384939259E+03  0.00000000000E+00 0. -1.
          1    1    1    2  502    0  0.19598432612E+02  0.11793514510E+02  0.14719997229E+03  0.14896649753E+03  0.00000000000E+00 0. -1.
         22    1    3    3    0    0  0.16918814995E+02  0.64239914661E+02  0.77049227976E+03  0.77335073938E+03  0.00000000000E+00 0. -1.
         22    1    3    3    0    0  0.32042859789E+01 -0.54774821282E+02  0.11742888839E+04  0.11755700452E+04  0.00000000000E+00 0. -1.
</event>
<event>
 7    1  0.5993218E-006  0.3491120E+03  0.7818608E-02  0.1143697E+00
          2   -1    0    0  502    0  0.00000000000E+00  0.00000000000E+00  0.66466813741E+03  0.66466813741E+03  0.00000000000E+00 0. -1.
          1   -1    0    0  501    0 -0.00000000000E+00 -0.00000000000E+00 -0.66260205411E+03  0.66260205411E+03  0.00000000000E+00 0. -1.
         25    2    1    2    0    0  0.24298105020E+03  0.71176851224E+02  0.16790337407E+03  0.32851505252E+03  0.12499864721E+03 0.  0.
          2    1    1    2  501    0 -0.34630796620E+03 -0.13814377722E+03 -0.51084362526E+03  0.63243507185E+03  0.00000000000E+00 0. -1.
          1    1    1    2  502    0  0.10332691601E+03  0.66966925993E+02  0.34500633450E+03  0.36632006714E+03  0.00000000000E+00 0. -1.
         22    1    3    3    0    0  0.56360537585E+02  0.29473181304E+02  0.11282574685E+03  0.12951767356E+03  0.00000000000E+00 0.  1.
         22    1    3    3    0    0  0.18662051261E+03  0.41703669920E+02  0.55077627223E+02  0.19899737896E+03  0.00000000000E+00 0.  1.
</event>
<event>
 7    1  0.5993218E-006  0.1547529E+03  0.7818608E-02  0.1212469E+00
          2   -1    0    0  502    0  0.00000000000E+00  0.00000000000E+00  0.37878582483E+03  0.37878582483E+03  0.00000000000E+00 0. -1.
          1   -1    0    0  501    0 -0.00000000000E+00 -0.00000000000E+00 -0.24785910682E+03  0.24785910682E+03  0.00000000000E+00 0. -1.
         25    2    1    2    0    0 -0.66077767672E+02 -0.68414213710E+02  0.48058363116E+02  0.16427218148E+03  0.12501586829E+03 0.  0.
          2    1    1    2  501    0 -0.69245408468E+02  0.14348825888E+03 -0.12550570505E+03  0.20281885767E+03  0.00000000000E+00 0. -1.
          1    1    1    2  502    0  0.13532317614E+03 -0.75074045166E+02  0.20837405994E+03  0.25955389250E+03  0.00000000000E+00 0. -1.
         22    1    3    3    0    0 -0.88266099175E+02 -0.20321341704E+02 -0.31094163053E+01  0.90628525653E+02  0.00000000000E+00 0.  1.
         22    1    3    3    0    0  0.22188331502E+02 -0.48092872005E+02  0.51167779421E+02  0.73643655826E+02  0.00000000000E+00 0.  1.
</event>
<event>
 7    1  0.5993218E-006  0.1319449E+03  0.7818608E-02  0.1252434E+00
          2   -1    0    0  502    0  0.00000000000E+00  0.00000000000E+00  0.11026612554E+04  0.11026612554E+04  0.00000000000E+00 0. -1.
          1   -1    0    0  501    0 -0.00000000000E+00 -0.00000000000E+00 -0.58010641414E+03  0.58010641414E+03  0.00000000000E+00 0. -1.
         25    2    1    2    0    0  0.67902995264E+02  0.15771502501E+02  0.33768548474E+02  0.14705414162E+03  0.12500019457E+03 0.  0.
          2    1    1    2  501    0  0.52691717500E+02 -0.84265696666E+02 -0.51393012430E+03  0.52345133240E+03  0.00000000000E+00 0. -1.
          1    1    1    2  502    0 -0.12059471276E+03  0.68494194165E+02  0.10027164171E+04  0.10122621955E+04  0.00000000000E+00 0. -1.
         22    1    3    3    0    0 -0.10603092995E+02  0.54531575399E+02  0.14261236535E+02  0.57354173031E+02  0.00000000000E+00 0. -1.
         22    1    3    3    0    0  0.78506088259E+02 -0.38760072899E+02  0.19507311938E+02  0.89699968584E+02  0.00000000000E+00 0. -1.
</event>
<event>
 7    1  0.5993218E-006  0.5684190E+02  0.7818608E-02  0.1425225E+00
          2   -1    0    0  502    0  0.00000000000E+00  0.00000000000E+00  0.88454050976E+03  0.88454050976E+03  0.00000000000E+00 0. -1.
          1   -1    0    0  501    0 -0.00000000000E+00 -0.00000000000E+00 -0.20394794516E+04  0.20394794516E+04  0.00000000000E+00 0. -1.
         25    2    1    2    0    0 -0.11059543556E+02  0.98802384990E+02 -0.81625843082E+02  0.17936170524E+03  0.12499447293E+03 0.  0.
          2    1    1    2  501    0  0.25813014806E+02 -0.44180306950E+02 -0.19076845495E+04  0.19083706537E+04  0.00000000000E+00 0. -1.
          1    1    1    2  502    0 -0.14753471250E+02 -0.54622078040E+02  0.83437145072E+03  0.83628760250E+03  0.00000000000E+00 0. -1.
         22    1    3    3    0    0 -0.41013570370E+02  0.11567266238E+03 -0.49582834840E+02  0.13236591437E+03  0.00000000000E+00 0. -1.
         22    1    3    3    0    0  0.29954026814E+02 -0.16870277393E+02 -0.32043008242E+02  0.46995790864E+02  0.00000000000E+00 0. -1.
</event>
<event>
 7    1  0.5993218E-006  0.9065425E+02  0.7818608E-02  0.1375958E+00
          2   -1    0    0  502    0  0.00000000000E+00  0.00000000000E+00  0.22751113676E+03  0.22751113676E+03  0.00000000000E+00 0. -1.
          1   -1    0    0  501    0 -0.00000000000E+00 -0.00000000000E+00 -0.13324840732E+04  0.13324840732E+04  0.00000000000E+00 0. -1.
         25    2    1    2    0    0  0.42092299811E+02 -0.11004527549E+03 -0.22359630572E+03  0.28195523761E+03  0.12498689420E+03 0.  0.
          2    1    1    2  501    0 -0.60072522766E+02  0.66208521783E+02 -0.10749963131E+04  0.10787072585E+04  0.00000000000E+00 0. -1.
          1    1    1    2  502    0  0.17980222955E+02  0.43836753706E+02  0.19361968240E+03  0.19933271384E+03  0.00000000000E+00 0. -1.
         22    1    3    3    0    0  0.41620947550E+02 -0.56655002521E+02 -0.21706476429E+03  0.22816486250E+03  0.00000000000E+00 0.  1.
         22    1    3    3    0    0  0.47135226050E+00 -0.53390272968E+02 -0.65315414354E+01  0.53790375106E+02  0.00000000000E+00 0.  1.
</event>
<event>
 7    1  0.5993218E-006  0.9161667E+02  0.7818608E-02  0.1312973E+00
          2   -1    0    0  502    0  0.00000000000E+00  0.00000000000E+00  0.26422023361E+04  0.26422023361E+04  0.00000000000E+00 0. -1.
          1   -1    0    0  501    0 -0.00000000000E+00 -0.00000000000E+00 -0.34991016839E+03  0.34991016839E+03  0.00000000000E+00 0. -1.
         25    2    1    2    0    0 -0.10331640606E+03 -0.51757870149E+02  0.35664767512E+02  0.17392402474E+03  0.12499773540E+03 0.  0.
          2    1    1    2  501    0  0.87883946620E+02 -0.27380384474E+02 -0.27257641397E+03  0.28769980011E+03  0.00000000000E+00 0. -1.
          1    1    1    2  502    0  0.15432459439E+02  0.79138254623E+02  0.25292038142E+04  0.25304886797E+04  0.00000000000E+00 0. -1.
         22    1    3    3    0    0 -0.84237376099E+02  0.11195190433E+02 -0.20513724224E+02  0.87418995090E+02  0.00000000000E+00 0.  1.
         22    1    3    3    0    0 -0.19079029959E+02 -0.62953060581E+02  0.56178491736E+02  0.86505029648E+02  0.00000000000E+00 0.  1.
</event>
<event>
 7    1  0.5993218E-006  0.3724473E+02  0.7818608E-02  0.1578596E+00
          2   -1    0    0  502    0  0.00000000000E+00  0.00000000000E+00  0.81054387989E+03  0.81054387989E+03  0.00000000000E+00 0. -1.
          1   -1    0    0  501    0 -0.00000000000E+00 -0.00000000000E+00 -0.31181784869E+02  0.31181784869E+02  0.00000000000E+00 0. -1.
         25    2    1    2    0    0 -0.38727009086E+02 -0.20799720997E+02  0.19538051367E+03  0.23607463914E+03  0.12500112198E+03 0.  0.
          2    1    1    2  501    0  0.19571314170E+01  0.27149300231E+02  0.78732292050E+01  0.28335536072E+02  0.00000000000E+00 0. -1.
          1    1    1    2  502    0  0.36769877669E+02 -0.63495792332E+01  0.57610835214E+03  0.57731548955E+03  0.00000000000E+00 0. -1.
         22    1    3    3    0    0 -0.10971134812E+02  0.42534848404E+02  0.14222939661E+03  0.14885825603E+03  0.00000000000E+00 0. -1.
         22    1    3    3    0    0 -0.27755874274E+02 -0.63334569401E+02  0.53151117059E+02  0.87216383108E+02  0.00000000000E+00 0. -1.
</event>
<event>
 7    1  0.5993218E-006  0.9964043E+02  0.7818608E-02  0.1288038E+00
          2   -1    0    0  502    0  0.00000000000E+00  0.00000000000E+00  0.37377140989E+03  0.37377140989E+03  0.00000000000E+00 0. -1.
          1   -1    0    0  501    0 -0.00000000000E+00 -0.00000000000E+00 -0.62836451086E+03  0.62836451086E+03  0.00000000000E+00 0. -1.
         25    2    1    2    0    0  0.51417329933E+02 -0.97761722645E+01 -0.39816162437E+02  0.14124001995E+03  0.12499640428E+03 0.  0.
          2    1    1    2  501    0 -0.34935298666E+02  0.10158757206E+03 -0.52555445504E+03  0.53642147152E+03  0.00000000000E+00 0. -1.
          1    1    1    2  502    0 -0.16482031267E+02 -0.91811399792E+02  0.31077751652E+03  0.32447442928E+03  0.00000000000E+00 0. -1.
         22    1    3    3    0    0  0.68453769997E+02  0.27226127083E+02  0.12721598438E+02  0.74759746452E+02  0.00000000000E+00 0. -1.
         22    1    3    3    0    0 -0.17036440064E+02 -0.37002299347E+02 -0.52537760875E+02  0.66480273501E+02  0.00000000000E+00 0. -1.
</event>
<event>
 7    1  0.5993218E-006  0.1230858E+03  0.7818608E-02  0.1333402E+00
          2   -1    0    0  502    0  0.00000000000E+00  0.00000000000E+00  0.92365974399E+03  0.92365974399E+03  0.00000000000E+00 0. -1.
          1   -1    0    0  501    0 -0.00000000000E+00 -0.00000000000E+00 -0.25581317984E+03  0.25581317984E+03  0.00000000000E+00 0. -1.
         25    2    1    2    0    0 -0.18924010012E+02 -0.14379352278E+03 -0.10453544341E+03  0.21814620183E+03  0.12500164438E+03 0.  0.
          2    1    1    2  501    0 -0.36451398567E+02  0.34293876750E+02 -0.83144573173E+02  0.97045321825E+02  0.00000000000E+00 0. -1.
          1    1    1    2  502    0  0.55375408579E+02  0.10949964603E+03  0.85552658073E+03  0.86428140018E+03  0.00000000000E+00 0. -1.
         22    1    3    3    0    0  0.34010969881E+02  0.21589467208E+01 -0.32129053880E+02  0.46836772160E+02  0.00000000000E+00 0.  1.
         22    1    3    3    0    0 -0.52934979893E+02 -0.14595246950E+03 -0.72406389528E+02  0.17130942967E+03  0.00000000000E+00 0.  1.
</event>
<event>
 7    1  0.5993218E-006  0.1155217E+03  0.7818608E-02  0.1363532E+00
          2   -1    0    0  502    0  0.00000000000E+00  0.00000000000E+00  0.17689625211E+03  0.17689625211E+03  0.00000000000E+00 0. -1.
          1   -1    0    0  501    0 -0.00000000000E+00 -0.00000000000E+00 -0.11149446093E+04  0.11149446093E+04  0.00000000000E+00 0. -1.
         25    2    1    2    0    0 -0.89938464246E+02  0.12722351140E+03 -0.90514353300E+03  0.92692186709E+03  0.12499833266E+03 0.  0.
          2    1    1    2  501    0  0.22392101764E+02 -0.34597309286E+02 -0.17645897938E+03  0.18120748173E+03  0.00000000000E+00 0. -1.
          1    1    1    2  502    0  0.67546362482E+02 -0.92626202116E+02  0.14355415516E+03  0.18371151262E+03  0.00000000000E+00 0. -1.
         22    1    3    3    0    0 -0.94519263485E+02  0.10266020335E+03 -0.45108957273E+03  0.47218090934E+03  0.00000000000E+00 0. -1.
         22    1    3    3    0    0  0.45807992388E+01  0.24563308054E+02 -0.45405396026E+03  0.45474095775E+03  0.00000000000E+00 0. -1.
</event>
<event>
 7    1  0.5993218E-006  0.7936329E+02  0.7818608E-02  0.1367703E+00
          2   -1    0    0  502    0  0.00000000000E+00  0.00000000000E+00  0.15775826934E+03  0.15775826934E+03  0.00000000000E+00 0. -1.
          1   -1    0    0  501    0 -0.00000000000E+00 -0.00000000000E+00 -0.16028914463E+04  0.16028914463E+04  0.00000000000E+00 0. -1.
         25    2    1    2    0    0 -0.13538822791E+02  0.32723312091E+02 -0.59929195867E+03  0.61321273557E+03  0.12499956988E+03 0.  0.
          2    1    1    2  501    0  0.41200221674E+02 -0.83632386415E+02 -0.98879906303E+03  0.99318448506E+03  0.00000000000E+00 0. -1.
          1    1    1    2  502    0 -0.27661398883E+02  0.50909074324E+02  0.14295784475E+03  0.15425249499E+03  0.00000000000E+00 0. -1.
         22    1    3    3    0    0  0.17480267957E+02  0.74223753019E+02 -0.30453813231E+03  0.31393980205E+03  0.00000000000E+00 0. -1.
         22    1    3    3    0    0 -0.31019090748E+02 -0.41500440928E+02 -0.29475382635E+03  0.29927293352E+03  0.00000000000E+00 0. -1.
</event>
<event>
 7    1  0.5993218E-006  0.4542658E+02  0.7818608E-02  0.1548791E+00
          2   -1    0    0  502    0  0.00000000000E+00  0.00000000000E+00  0.94975381493E+03  0.94975381493E+03  0.00000000000E+00 0. -1.
          1   -1    0    0  501    0 -0.00000000000E+00 -0.00000000000E+00 -0.18638143932E+03  0.18638143932E+03  0.00000000000E+00 0. -1.
         25    2    1    2    0    0 -0.22268877879E+02  0.19485446567E+02  0.20248045241E+03  0.23978970699E+03  0.12500073767E+03 0.  0.
          2    1    1    2  501    0  0.98729638085E+01  0.25058727031E+02 -0.16590618975E+03  0.16807819315E+03  0.00000000000E+00 0. -1.
          1    1    1    2  502    0  0.12395914071E+02 -0.44544173598E+02  0.72679811294E+03  0.72826735411E+03  0.00000000000E+00 0. -1.
         22    1    3    3    0    0  0.27260579600E+02 -0.24368492565E+02  0.15265014791E+03  0.15696824611E+03  0.00000000000E+00 0. -1.
         22    1    3    3    0    0 -0.49529457479E+02  0.43853939132E+02  0.49830304506E+02  0.82821460882E+02  0.00000000000E+00 0. -1.
</event>
<event>
 7    1  0.5993218E-006  0.5346992E+02  0.7818608E-02  0.1520755E+00
          2   -1    0    0  502    0  0.00000000000E+00  0.00000000000E+00  0.54580014362E+03  0.54580014362E+03  0.00000000000E+00 0. -1.
          1   -1    0    0  501    0 -0.00000000000E+00 -0.00000000000E+00 -0.10725009401E+03  0.10725009401E+03  0.00000000000E+00 0. -1.
         25    2    1    2    0    0  0.38760074131E+02 -0.45036668474E+02  0.12661946111E+01  0.13840143073E+03  0.12499083136E+03 0.  0.
          2    1    1    2  501    0  0.10923602177E+02  0.25235803431E+02 -0.32077003496E+02  0.42250503105E+02  0.00000000000E+00 0. -1.
          1    1    1    2  502    0 -0.49683676308E+02  0.19800865044E+02  0.46936085849E+03  0.47239830380E+03  0.00000000000E+00 0. -1.
         22    1    3    3    0    0  0.21738231737E+02 -0.18529293408E+02 -0.61701985268E+02  0.67992796819E+02  0.00000000000E+00 0.  1.
         22    1    3    3    0    0  0.17021842394E+02 -0.26507375067E+02  0.62968179879E+02  0.70408633907E+02  0.00000000000E+00 0.  1.
</event>
<event>
 7    1  0.5993218E-006  0.3467026E+02  0.7818608E-02  0.1604904E+00
          2   -1    0    0  502    0  0.00000000000E+00  0.00000000000E+00  0.46069975997E+03  0.46069975997E+03  0.00000000000E+00 0. -1.
          1   -1    0    0  501    0 -0.00000000000E+00 -0.00000000000E+00 -0.89262025849E+03  0.89262025849E+03  0.00000000000E+00 0. -1.
         25    2    1    2    0    0  0.37839690885E+02 -0.36825423585E+01  0.30803533986E+02  0.13424165567E+03  0.12500624419E+03 0.  0.
          2    1    1    2  501    0 -0.13390289227E+02 -0.21014396606E+02 -0.83991765970E+03  0.84028720077E+03  0.00000000000E+00 0. -1.
          1    1    1    2  502    0 -0.24449401658E+02  0.24696938964E+02  0.37719362719E+03  0.37879116203E+03  0.00000000000E+00 0. -1.
         22    1    3    3    0    0 -0.28172675902E+02 -0.16609542983E+02  0.53963392921E+02  0.63100113796E+02  0.00000000000E+00 0.  1.
         22    1    3    3    0    0  0.66012366787E+02  0.12927000625E+02 -0.23159858935E+02  0.71141541872E+02  0.00000000000E+00 0.  1.
</event>
<event>
 7    1  0.5993218E-006  0.1668512E+03  0.7818608E-02  0.1261286E+00
          2   -1    0    0  502    0  0.00000000000E+00  0.00000000000E+00  0.15484084408E+04  0.15484084408E+04  0.00000000000E+00 0. -1.
          1   -1    0    0  501    0 -0.00000000000E+00 -0.00000000000E+00 -0.30651391750E+03  0.30651391750E+03  0.00000000000E+00 0. -1.
         25    2    1    2    0    0  0.23358868859E+03  0.89575951480E+01  0.32162554853E+03  0.41678779839E+03  0.12500064592E+03 0.  0.
          2    1    1    2  501    0 -0.16170175444E+03 -0.13194604533E+02 -0.23228479122E+03  0.28333333586E+03  0.00000000000E+00 0. -1.
          1    1    1    2  502    0 -0.71886934141E+02  0.42370093854E+01  0.11525537660E+04  0.11548012240E+04  0.00000000000E+00 0. -1.
         22    1    3    3    0    0  0.17058115594E+03 -0.36764254118E+02  0.27605412775E+03  0.32658141801E+03  0.00000000000E+00 0.  1.
         22    1    3    3    0    0  0.63007532642E+02  0.45721849266E+02  0.45571420776E+02  0.90206380381E+02  0.00000000000E+00 0.  1.
</event>
<event>
 7    1  0.5993218E-006  0.8642090E+02  0.7818608E-02  0.1407907E+00
          2   -1    0    0  502    0  0.00000000000E+00  0.00000000000E+00  0.38761638501E+03  0.38761638501E+03  0.00000000000E+00 0. -1.
          1   -1    0    0  501    0 -0.00000000000E+00 -0.00000000000E+00 -0.14955315005E+04  0.14955315005E+04  0.00000000000E+00 0. -1.
         25    2    1    2    0    0 -0.11891008660E+03  0.18972694857E+02 -0.86830038822E+02  0.19407311493E+03  0.12500138579E+03 0.  0.
          2    1    1    2  501    0  0.37824771137E+02  0.70449742884E+01 -0.13493732155E+04  0.13499216347E+04  0.00000000000E+00 0. -1.
          1    1    1    2  502    0  0.81085315465E+02 -0.26017669146E+02  0.32828813885E+03  0.33915313591E+03  0.00000000000E+00 0. -1.
         22    1    3    3    0    0 -0.13780933392E+03  0.39486834322E+02 -0.83710803612E+02  0.16600638916E+03  0.00000000000E+00 0.  1.
         22    1    3    3    0    0  0.18899247316E+02 -0.20514139465E+02 -0.31192352097E+01  0.28066725769E+02  0.00000000000E+00 0.  1.
</event>
<event>
 7    1  0.5993218E-006  0.1146832E+03  0.7818608E-02  0.1257452E+00
          2   -1    0    0  502    0  0.00000000000E+00  0.00000000000E+00  0.28366559992E+03  0.28366559992E+03  0.00000000000E+00 0. -1.
          1   -1    0    0  501    0 -0.00000000000E+00 -0.00000000000E+00 -0.14542057164E+04  0.14542057164E+04  0.00000000000E+00 0. -1.
         25    2    1    2    0    0 -0.40762412925E+02 -0.12409948884E+03  0.11299177939E+03  0.21318358420E+03  0.12497136042E+03 0.  0.
          2    1    1    2  501    0  0.11055534322E+03  0.30492020026E+02 -0.13728803413E+04  0.13776620336E+04  0.00000000000E+00 0. -1.
          1    1    1    2  502    0 -0.69792930299E+02  0.93607468819E+02  0.89348445426E+02  0.14702569856E+03  0.00000000000E+00 0. -1.
         22    1    3    3    0    0 -0.78862276620E+02 -0.95506878207E+02  0.48519494749E+02  0.13302241852E+03  0.00000000000E+00 0.  1.
         22    1    3    3    0    0  0.38099863695E+02 -0.28592610638E+02  0.64472284636E+02  0.80161165678E+02  0.00000000000E+00 0.  1.
</event>
<event>
 7    1  0.5993218E-006  0.1435389E+03  0.7818608E-02  0.1257687E+00
          2   -1    0    0  502    0  0.00000000000E+00  0.00000000000E+00  0.86747549652E+03  0.86747549652E+03  0.00000000000E+00 0. -1.
          1   -1    0    0  501    0 -0.00000000000E+00 -0.00000000000E+00 -0.42105797948E+03  0.42105797948E+03  0.00000000000E+00 0. -1.
         25    2    1    2    0    0 -0.11798958553E+03  0.91927487711E+02  0.43003064667E+03  0.47214828213E+03  0.12500175181E+03 0.  0.
          2    1    1    2  501    0  0.14380953478E+03 -0.91369107034E+01 -0.38220550432E+03  0.40846751763E+03  0.00000000000E+00 0. -1.
          1    1    1    2  502    0 -0.25819949252E+02 -0.82790577008E+02  0.39859237469E+03  0.40791767623E+03  0.00000000000E+00 0. -1.
         22    1    3    3    0    0  0.54737319822E+01  0.40101207278E+02  0.30217767097E+02  0.50509227031E+02  0.00000000000E+00 0. -1.
         22    1    3    3    0    0 -0.12346331751E+03  0.51826280433E+02  0.39981287957E+03  0.42163905510E+03  0.00000000000E+00 0. -1.
</event>
