<event>
 7    1  0.5537228E-006  0.1014646E+03  0.7818608E-02  0.1290111E+00
          2   -1    0    0  502    0  0.00000000000E+00  0.00000000000E+00  0.32126152525E+03  0.32126152525E+03  0.00000000000E+00 0. -1.
          1   -1    0    0  501    0 -0.00000000000E+00 -0.00000000000E+00 -0.69871881441E+03  0.69871881441E+03  0.00000000000E+00 0. -1.
         25    2    1    2    0    0  0.32437779281E+02 -0.11974358794E+03  0.80834284659E+02  0.19378501067E+03  0.12501084916E+03 0.  0.
          2    1    1    2  501    0  0.57403578272E+02  0.69106276760E+02 -0.62431666140E+03  0.63074728853E+03  0.00000000000E+00 0. -1.
          1    1    1    2  502    0 -0.89841357553E+02  0.50637311179E+02  0.16602508759E+03  0.19544804046E+03  0.00000000000E+00 0. -1.
         22    1    3    3    0    0  0.18241846215E+02 -0.13076516916E+02  0.83176906019E+02  0.86151946832E+02  0.00000000000E+00 0.  1.
         22    1    3    3    0    0  0.14195933067E+02 -0.10666707102E+03 -0.23426213597E+01  0.10763306384E+03  0.00000000000E+00 0.  1.
</event>
<event>
 7    1  0.5537228E-006  0.1651751E+03  0.7818608E-02  0.1212682E+00
          2   -1    0    0  502    0  0.00000000000E+00  0.00000000000E+00  0.68581907338E+03  0.68581907338E+03  0.00000000000E+00 0. -1.
          1   -1    0    0  501    0 -0.00000000000E+00 -0.00000000000E+00 -0.20581598201E+04  0.20581598201E+04  0.00000000000E+00 0. -1.
         25    2    1    2    0    0 -0.27796161633E+03 -0.26703283053E+02 -0.39236144867E+03  0.49754350789E+03  0.12500524134E+03 0.  0.
          2    1    1    2  501    0  0.11920280895E+03 -0.81404454154E+01 -0.16005137230E+04  0.16049672127E+04  0.00000000000E+00 0. -1.
          1    1    1    2  502    0  0.15875880738E+03  0.34843728469E+02  0.62053442490E+03  0.64146817289E+03  0.00000000000E+00 0. -1.
         22    1    3    3    0    0 -0.21316462839E+03  0.28398341641E+02 -0.23415721249E+03  0.31792330013E+03  0.00000000000E+00 0. -1.
         22    1    3    3    0    0 -0.64796987936E+02 -0.55101624695E+02 -0.15820423618E+03  0.17962020776E+03  0.00000000000E+00 0. -1.
</event>
<event>
 7    1  0.5537228E-006  0.3419040E+02  0.7818608E-02  0.1608798E+00
          2   -1    0    0  502    0  0.00000000000E+00  0.00000000000E+00  0.13163158768E+03  0.13163158768E+03  0.00000000000E+00 0. -1.
          1   -1    0    0  501    0 -0.00000000000E+00 -0.00000000000E+00 -0.10947587939E+04  0.10947587939E+04  0.00000000000E+00 0. -1.
         25    2    1    2    0    0  0.69829941672E+01  0.74077940518E+01 -0.26241292691E+03  0.29084215039E+03  0.12499989846E+03 0.  0.
          2    1    1    2  501    0 -0.25907671516E+02 -0.23261309818E+02 -0.81645842727E+03  0.81720050137E+03  0.00000000000E+00 0. -1.
          1    1    1    2  502    0  0.18924677349E+02  0.15853515766E+02  0.11574414794E+03  0.11834772983E+03  0.00000000000E+00 0. -1.
         22    1    3    3    0    0  0.65613386295E+02 -0.11603725192E+01 -0.15126770575E+03  0.16488899820E+03  0.00000000000E+00 0.  1.
         22    1    3    3    0    0 -0.58630392128E+02  0.85681665710E+01 -0.11114522116E+03  0.12595315219E+03  0.00000000000E+00 0.  1.
</event>
<event>
 7    1  0.5537228E-006  0.1458271E+03  0.7818608E-02  0.1305274E+00
          2   -1    0    0  502    0  0.00000000000E+00  0.00000000000E+00  0.34990003133E+04  0.34990003133E+04  0.00000000000E+00 0. -1.
          1   -1    0    0  501    0 -0.00000000000E+00 -0.00000000000E+00 -0.22079557103E+03  0.22079557103E+03  0.00000000000E+00 0. -1.
         25    2    1    2    0    0  0.78726768351E+02 -0.84202277561E+02  0.23282980800E+03  0.28831130640E+03  0.12500304916E+03 0.  0.
          2    1    1    2  501    0  0.52198670886E+02  0.15055860706E+02 -0.18750463086E+03  0.19521620522E+03  0.00000000000E+00 0. -1.
          1    1    1    2  502    0 -0.13092543924E+03  0.69146416855E+02  0.32328795652E+04  0.32362683728E+04  0.00000000000E+00 0. -1.
         22    1    3    3    0    0  0.33509396536E+02 -0.10393175041E+03  0.20341649075E+03  0.23087433185E+03  0.00000000000E+00 0.  1.
         22    1    3    3    0    0  0.45217371816E+02  0.19729472847E+02  0.29413317251E+02  0.57436974542E+02  0.00000000000E+00 0.  1.
</event>
<event>
 7    1  0.5537228E-006  0.4304119E+02  0.7818608E-02  0.1543287E+00
          2   -1    0    0  502    0  0.00000000000E+00  0.00000000000E+00  0.61921950535E+03  0.61921950535E+03  0.00000000000E+00 0. -1.
          1   -1    0    0  501    0 -0.00000000000E+00 -0.00000000000E+00 -0.31099209626E+02  0.31099209626E+02  0.00000000000E+00 0. -1.
         25    2    1    2    0    0  0.16200451536E+02  0.28050963850E+02  0.29615284851E+03  0.32308051128E+03  0.12500078355E+03 0.  0.
          2    1    1    2  501    0 -0.24371619180E+02  0.16540911431E+02 -0.22576103817E+01  0.29541062558E+02  0.00000000000E+00 0. -1.
          1    1    1    2  502    0  0.81711676438E+01 -0.44591875280E+02  0.29422505760E+03  0.29769714113E+03  0.00000000000E+00 0. -1.
         22    1    3    3    0    0  0.65378277020E+02  0.14599845898E+02  0.99664852115E+02  0.12008562509E+03  0.00000000000E+00 0. -1.
         22    1    3    3    0    0 -0.49177825483E+02  0.13451117952E+02  0.19648799639E+03  0.20299488619E+03  0.00000000000E+00 0. -1.
</event>
<event>
 7    1  0.5537228E-006  0.8622488E+02  0.7818608E-02  0.1495341E+00
          2   -1    0    0  502    0  0.00000000000E+00  0.00000000000E+00  0.52649549250E+03  0.52649549250E+03  0.00000000000E+00 0. -1.
          1   -1    0    0  501    0 -0.00000000000E+00 -0.00000000000E+00 -0.15531773765E+04  0.15531773765E+04  0.00000000000E+00 0. -1.
         25    2    1    2    0    0  0.42193019116E+02  0.52009273738E+02  0.24134120454E+03  0.27992144776E+03  0.12500089796E+03 0.  0.
          2    1    1    2  501    0 -0.59536371844E+02 -0.62496404913E+02 -0.15322846166E+04  0.15347138256E+04  0.00000000000E+00 0. -1.
          1    1    1    2  502    0  0.17343352728E+02  0.10487131176E+02  0.26426152815E+03  0.26503759556E+03  0.00000000000E+00 0. -1.
         22    1    3    3    0    0  0.67499960875E+02  0.67338809982E+02  0.11129332610E+03  0.14655021147E+03  0.00000000000E+00 0.  1.
         22    1    3    3    0    0 -0.25306941758E+02 -0.15329536244E+02  0.13004787844E+03  0.13337123629E+03  0.00000000000E+00 0.  1.
</event>
<event>
 7    1  0.5537228E-006  0.8692743E+02  0.7818608E-02  0.1349484E+00
          2   -1    0    0  502    0  0.00000000000E+00  0.00000000000E+00  0.82860925389E+03  0.82860925389E+03  0.00000000000E+00 0. -1.
          1   -1    0    0  501    0 -0.00000000000E+00 -0.00000000000E+00 -0.18232519476E+03  0.18232519476E+03  0.00000000000E+00 0. -1.
         25    2    1    2    0    0  0.29125823617E+01 -0.30892943289E+02  0.26482360945E+03  0.29448346928E+03  0.12500444984E+03 0.  0.
          2    1    1    2  501    0 -0.40674715865E+02  0.79647395522E+02 -0.15365900933E+03  0.17778985143E+03  0.00000000000E+00 0. -1.
          1    1    1    2  502    0  0.37762133503E+02 -0.48754452234E+02  0.53511945901E+03  0.53866112793E+03  0.00000000000E+00 0. -1.
         22    1    3    3    0    0  0.53423191418E+02 -0.38233958337E+02  0.20787502064E+03  0.21800893825E+03  0.00000000000E+00 0.  1.
         22    1    3    3    0    0 -0.50510609056E+02  0.73410150483E+01  0.56948588807E+02  0.76474531030E+02  0.00000000000E+00 0.  1.
</event>
<event>
 7    1  0.5537228E-006  0.4029079E+02  0.7818608E-02  0.1536283E+00
          2   -1    0    0  502    0  0.00000000000E+00  0.00000000000E+00  0.22648178778E+04  0.22648178778E+04  0.00000000000E+00 0. -1.
          1   -1    0    0  501    0 -0.00000000000E+00 -0.00000000000E+00 -0.36503256647E+03  0.36503256647E+03  0.00000000000E+00 0. -1.
         25    2    1    2    0    0  0.34548400397E+02 -0.38119530436E+01  0.27774508256E+03  0.30655342536E+03  0.12499819500E+03 0.  0.
          2    1    1    2  501    0 -0.21605531480E+02  0.34095429267E+02 -0.34932870588E+03  0.35165301370E+03  0.00000000000E+00 0. -1.
          1    1    1    2  502    0 -0.12942868917E+02 -0.30283476224E+02  0.19713689347E+04  0.19716440053E+04  0.00000000000E+00 0. -1.
         22    1    3    3    0    0  0.18137005526E+02  0.60186573742E+02  0.11834667753E+03  0.13400489062E+03  0.00000000000E+00 0. -1.
         22    1    3    3    0    0  0.16411394871E+02 -0.63998526785E+02  0.15939840503E+03  0.17254853473E+03  0.00000000000E+00 0. -1.
</event>
<event>
 7    1  0.5537228E-006  0.1343712E+03  0.7818608E-02  0.1270254E+00
          2   -1    0    0  502    0  0.00000000000E+00  0.00000000000E+00  0.15570119718E+04  0.15570119718E+04  0.00000000000E+00 0. -1.
          1   -1    0    0  501    0 -0.00000000000E+00 -0.00000000000E+00 -0.15762575535E+03  0.15762575535E+03  0.00000000000E+00 0. -1.
         25    2    1    2    0    0  0.10475780877E+03  0.39990211096E+02  0.33192317443E+03  0.37198393042E+03  0.12500254113E+03 0.  0.
          2    1    1    2  501    0 -0.75238701425E+02 -0.11643091032E+03 -0.10087656894E+03  0.17144416360E+03  0.00000000000E+00 0. -1.
          1    1    1    2  502    0 -0.29519107345E+02  0.76440699226E+02  0.11683396110E+04  0.11712096332E+04  0.00000000000E+00 0. -1.
         22    1    3    3    0    0  0.66052502091E+02  0.25063658309E+02  0.48861445988E+02  0.85898550071E+02  0.00000000000E+00 0. -1.
         22    1    3    3    0    0  0.38705306679E+02  0.14926552788E+02  0.28306172844E+03  0.28608538035E+03  0.00000000000E+00 0. -1.
</event>
<event>
 7    1  0.5537228E-006  0.6188704E+02  0.7818608E-02  0.1479962E+00
          2   -1    0    0  502    0  0.00000000000E+00  0.00000000000E+00  0.13622424088E+03  0.13622424088E+03  0.00000000000E+00 0. -1.
          1   -1    0    0  501    0 -0.00000000000E+00 -0.00000000000E+00 -0.11798566746E+04  0.11798566746E+04  0.00000000000E+00 0. -1.
         25    2    1    2    0    0 -0.26233889954E+02  0.68043819230E+02 -0.34405801857E+03  0.37325889720E+03  0.12501242290E+03 0.  0.
          2    1    1    2  501    0  0.30780776718E+02 -0.64166672806E+01 -0.81302550969E+03  0.81363327688E+03  0.00000000000E+00 0. -1.
          1    1    1    2  502    0 -0.45468867639E+01 -0.61627151950E+02  0.11345109458E+03  0.12918874137E+03  0.00000000000E+00 0. -1.
         22    1    3    3    0    0  0.28259884597E+01  0.48609126729E+02 -0.29851407436E+02  0.57113395434E+02  0.00000000000E+00 0.  1.
         22    1    3    3    0    0 -0.29059878414E+02  0.19434692501E+02 -0.31420661114E+03  0.31614550177E+03  0.00000000000E+00 0.  1.
</event>
<event>
 7    1  0.5537228E-006  0.2539758E+03  0.7818608E-02  0.1186218E+00
          2   -1    0    0  502    0  0.00000000000E+00  0.00000000000E+00  0.21099683349E+04  0.21099683349E+04  0.00000000000E+00 0. -1.
          1   -1    0    0  501    0 -0.00000000000E+00 -0.00000000000E+00 -0.13802809724E+03  0.13802809724E+03  0.00000000000E+00 0. -1.
         25    2    1    2    0    0 -0.16402994228E+03 -0.24501606001E+03  0.10257149014E+04  0.10745487434E+04  0.12500100566E+03 0.  0.
          2    1    1    2  501    0 -0.23422518344E+02  0.10092535805E+03 -0.73268617237E+02  0.12689693666E+03  0.00000000000E+00 0. -1.
          1    1    1    2  502    0  0.18745246062E+03  0.14409070196E+03  0.10194939535E+04  0.10465507520E+04  0.00000000000E+00 0. -1.
         22    1    3    3    0    0 -0.15529347456E+03 -0.17894033776E+03  0.91626194238E+03  0.94639931042E+03  0.00000000000E+00 0. -1.
         22    1    3    3    0    0 -0.87364677139E+01 -0.66075722251E+02  0.10945295899E+03  0.12814943297E+03  0.00000000000E+00 0. -1.
</event>
<event>
 7    1  0.5537228E-006  0.8503651E+02  0.7818608E-02  0.1424580E+00
          2   -1    0    0  502    0  0.00000000000E+00  0.00000000000E+00  0.18524421482E+04  0.18524421482E+04  0.00000000000E+00 0. -1.
          1   -1    0    0  501    0 -0.00000000000E+00 -0.00000000000E+00 -0.51220631854E+02  0.51220631854E+02  0.00000000000E+00 0. -1.
         25    2    1    2    0    0  0.55380272345E+02 -0.55968432707E+02  0.10358963910E+04  0.10463777532E+04  0.12500251767E+03 0.  0.
          2    1    1    2  501    0  0.27471004892E+02  0.20658564267E+02 -0.36663251924E+02  0.50255610920E+02  0.00000000000E+00 0. -1.
          1    1    1    2  502    0 -0.82851277237E+02  0.35309868440E+02  0.80198837730E+03  0.80702941600E+03  0.00000000000E+00 0. -1.
         22    1    3    3    0    0 -0.32332365515E+02 -0.23745413170E+02  0.55745324408E+03  0.55889475381E+03  0.00000000000E+00 0. -1.
         22    1    3    3    0    0  0.87712637860E+02 -0.32223019537E+02  0.47844314691E+03  0.48748299934E+03  0.00000000000E+00 0. -1.
</event>
<event>
 7    1  0.5537228E-006  0.6947791E+02  0.7818608E-02  0.1439925E+00
          2   -1    0    0  502    0  0.00000000000E+00  0.00000000000E+00  0.14484708280E+04  0.14484708280E+04  0.00000000000E+00 0. -1.
          1   -1    0    0  501    0 -0.00000000000E+00 -0.00000000000E+00 -0.89361898257E+03  0.89361898257E+03  0.00000000000E+00 0. -1.
         25    2    1    2    0    0 -0.59196203330E+02 -0.18522365350E+02  0.16675911493E+03  0.21744499482E+03  0.12500581928E+03 0.  0.
          2    1    1    2  501    0  0.67214547163E+02 -0.18072698820E+02 -0.86660116921E+03  0.86939174384E+03  0.00000000000E+00 0. -1.
          1    1    1    2  502    0 -0.80183438325E+01  0.36595064170E+02  0.12546938997E+04  0.12552530719E+04  0.00000000000E+00 0. -1.
         22    1    3    3    0    0 -0.26377505509E+01  0.37130431801E+02  0.53761960320E+01  0.37610240327E+02  0.00000000000E+00 0. -1.
         22    1    3    3    0    0 -0.56558452780E+02 -0.55652797151E+02  0.16138291890E+03  0.17983475449E+03  0.00000000000E+00 0. -1.
</event>
<event>
 7    1  0.5537228E-006  0.6042670E+02  0.7818608E-02  0.1418714E+00
          2   -1    0    0  502    0  0.00000000000E+00  0.00000000000E+00  0.40527654218E+03  0.40527654218E+03  0.00000000000E+00 0. -1.
          1   -1    0    0  501    0 -0.00000000000E+00 -0.00000000000E+00 -0.11273463370E+04  0.11273463370E+04  0.00000000000E+00 0. -1.
         25    2    1    2    0    0 -0.65954165465E+02  0.35868389714E+02  0.22315841245E+02  0.14751116551E+03  0.12500021543E+03 0.  0.
          2    1    1    2  501    0  0.45888207971E+02  0.21315232704E+02 -0.10612745763E+04  0.10624800201E+04  0.00000000000E+00 0. -1.
          1    1    1    2  502    0  0.20065957494E+02 -0.57183622418E+02  0.31688894018E+03  0.32263169363E+03  0.00000000000E+00 0. -1.
         22    1    3    3    0    0 -0.22901045288E+02  0.75672761094E+02 -0.11391728042E+02  0.79878633656E+02  0.00000000000E+00 0. -1.
         22    1    3    3    0    0 -0.43053120178E+02 -0.39804371381E+02  0.33707569287E+02  0.67632531856E+02  0.00000000000E+00 0. -1.
</event>
<event>
 7    1  0.5537228E-006  0.1639722E+03  0.7818608E-02  0.1279684E+00
          2   -1    0    0  502    0  0.00000000000E+00  0.00000000000E+00  0.91738284627E+03  0.91738284627E+03  0.00000000000E+00 0. -1.
          1   -1    0    0  501    0 -0.00000000000E+00 -0.00000000000E+00 -0.11396413269E+04  0.11396413269E+04  0.00000000000E+00 0. -1.
         25    2    1    2    0    0 -0.32894469337E+02 -0.99599077142E+02 -0.29502835550E+03  0.33713779048E+03  0.12497254474E+03 0.  0.
          2    1    1    2  501    0 -0.30777063802E+02 -0.53062701477E+02 -0.81476442062E+03  0.81707033911E+03  0.00000000000E+00 0. -1.
          1    1    1    2  502    0  0.63671533140E+02  0.15266177862E+03  0.88753429552E+03  0.90281604356E+03  0.00000000000E+00 0. -1.
         22    1    3    3    0    0 -0.66494525396E+01  0.12919132994E+02 -0.15463094954E+03  0.15531210439E+03  0.00000000000E+00 0. -1.
         22    1    3    3    0    0 -0.26245016798E+02 -0.11251821014E+03 -0.14039740597E+03  0.18182568609E+03  0.00000000000E+00 0. -1.
</event>
<event>
 7    1  0.5537228E-006  0.1126315E+03  0.7818608E-02  0.1284945E+00
          2   -1    0    0  502    0  0.00000000000E+00  0.00000000000E+00  0.15048542561E+04  0.15048542561E+04  0.00000000000E+00 0. -1.
          1   -1    0    0  501    0 -0.00000000000E+00 -0.00000000000E+00 -0.12848849817E+03  0.12848849817E+03  0.00000000000E+00 0. -1.
         25    2    1    2    0    0 -0.12721600985E+03  0.10027870594E+03  0.42420824197E+03  0.47097017394E+03  0.12498215935E+03 0.  0.
          2    1    1    2  501    0  0.10927074129E+03 -0.17237107387E+02 -0.73750702259E+02  0.13295254362E+03  0.00000000000E+00 0. -1.
          1    1    1    2  502    0  0.17945268562E+02 -0.83041598549E+02  0.10259082183E+04  0.10294200367E+04  0.00000000000E+00 0. -1.
         22    1    3    3    0    0 -0.60547010503E+02  0.10571710287E+03  0.17701720212E+03  0.21488865993E+03  0.00000000000E+00 0. -1.
         22    1    3    3    0    0 -0.66668999346E+02 -0.54383969301E+01  0.24719103985E+03  0.25608151401E+03  0.00000000000E+00 0. -1.
</event>
<event>
 7    1  0.5537228E-006  0.7251051E+02  0.7818608E-02  0.1453911E+00
          2   -1    0    0  502    0  0.00000000000E+00  0.00000000000E+00  0.36504731352E+03  0.36504731352E+03  0.00000000000E+00 0. -1.
          1   -1    0    0  501    0 -0.00000000000E+00 -0.00000000000E+00 -0.22904383896E+04  0.22904383896E+04  0.00000000000E+00 0. -1.
         25    2    1    2    0    0 -0.30105335191E+02  0.70706573223E+02 -0.96666415917E+03  0.97773388996E+03  0.12497284606E+03 0.  0.
          2    1    1    2  501    0  0.32318198902E+02  0.17804380133E+01 -0.13143808838E+04  0.13147793517E+04  0.00000000000E+00 0. -1.
          1    1    1    2  502    0 -0.22128637114E+01 -0.72487011236E+02  0.35565396693E+03  0.36297246143E+03  0.00000000000E+00 0. -1.
         22    1    3    3    0    0 -0.11081481027E+02  0.15261317979E+02 -0.81376246142E+03  0.81398098913E+03  0.00000000000E+00 0. -1.
         22    1    3    3    0    0 -0.19023854163E+02  0.55445255244E+02 -0.15290169775E+03  0.16375290083E+03  0.00000000000E+00 0. -1.
</event>
<event>
 7    1  0.5537228E-006  0.7542289E+02  0.7818608E-02  0.1463382E+00
          2   -1    0    0  502    0  0.00000000000E+00  0.00000000000E+00  0.97529470463E+03  0.97529470463E+03  0.00000000000E+00 0. -1.
          1   -1    0    0  501    0 -0.00000000000E+00 -0.00000000000E+00 -0.50247779806E+02  0.50247779806E+02  0.00000000000E+00 0. -1.
         25    2    1    2    0    0 -0.24445007760E+02 -0.48087288832E+02  0.60922531072E+02  0.14915247471E+03  0.12499984068E+03 0.  0.
          2    1    1    2  501    0  0.10635066567E+02 -0.27027781961E+02  0.44030014340E+02  0.52747016990E+02  0.00000000000E+00 0. -1.
          1    1    1    2  502    0  0.13809941193E+02  0.75115070793E+02  0.82009437941E+03  0.82364299274E+03  0.00000000000E+00 0. -1.
         22    1    3    3    0    0  0.14451482534E+02 -0.52631894578E+02 -0.20897378353E+02  0.58443666007E+02  0.00000000000E+00 0. -1.
         22    1    3    3    0    0 -0.38896490293E+02  0.45446057458E+01  0.81819909425E+02  0.90708808706E+02  0.00000000000E+00 0. -1.
</event>
<event>
 7    1  0.5537228E-006  0.2677337E+03  0.7818608E-02  0.1115367E+00
          2   -1    0    0  502    0  0.00000000000E+00  0.00000000000E+00  0.25495178737E+03  0.25495178737E+03  0.00000000000E+00 0. -1.
          1   -1    0    0  501    0 -0.00000000000E+00 -0.00000000000E+00 -0.23354470149E+04  0.23354470149E+04  0.00000000000E+00 0. -1.
         25    2    1    2    0    0  0.59688727590E+02 -0.21081285559E+03 -0.56307728334E+02  0.25845631530E+03  0.12499720943E+03 0.  0.
          2    1    1    2  501    0 -0.26760118327E+03 -0.84223100536E+01 -0.20118068923E+04  0.20295438651E+04  0.00000000000E+00 0. -1.
          1    1    1    2  502    0  0.20791245568E+03  0.21923516564E+03 -0.12380606931E+02  0.30239862187E+03  0.00000000000E+00 0. -1.
         22    1    3    3    0    0  0.61670592715E+02 -0.58466327437E+02 -0.63256586627E+02  0.10593851614E+03  0.00000000000E+00 0. -1.
         22    1    3    3    0    0 -0.19818651250E+01 -0.15234652815E+03  0.69488582928E+01  0.15251779916E+03  0.00000000000E+00 0. -1.
</event>
<event>
 7    1  0.5537228E-006  0.5306943E+02  0.7818608E-02  0.1446127E+00
          2   -1    0    0  502    0  0.00000000000E+00  0.00000000000E+00  0.66135535021E+03  0.66135535021E+03  0.00000000000E+00 0. -1.
          1   -1    0    0  501    0 -0.00000000000E+00 -0.00000000000E+00 -0.37241584448E+03  0.37241584448E+03  0.00000000000E+00 0. -1.
         25    2    1    2    0    0  0.50456717383E+02  0.85338533772E+02  0.38802512864E+03  0.41954339501E+03  0.12499845664E+03 0.  0.
          2    1    1    2  501    0 -0.31228634846E+02 -0.42633100474E+02 -0.35254183094E+03  0.35648078694E+03  0.00000000000E+00 0. -1.
          1    1    1    2  502    0 -0.19228082537E+02 -0.42705433298E+02  0.25345620803E+03  0.25774701275E+03  0.00000000000E+00 0. -1.
         22    1    3    3    0    0 -0.17582559247E+02  0.87978273487E+02  0.25056905444E+03  0.26614690312E+03  0.00000000000E+00 0.  1.
         22    1    3    3    0    0  0.68039276630E+02 -0.26397397149E+01  0.13745607420E+03  0.15339649189E+03  0.00000000000E+00 0.  1.
</event>
<event>
 7    1  0.5537228E-006  0.4226251E+02  0.7818608E-02  0.1592047E+00
          2   -1    0    0  502    0  0.00000000000E+00  0.00000000000E+00  0.57391372490E+03  0.57391372490E+03  0.00000000000E+00 0. -1.
          1   -1    0    0  501    0 -0.00000000000E+00 -0.00000000000E+00 -0.10822957367E+04  0.10822957367E+04  0.00000000000E+00 0. -1.
         25    2    1    2    0    0  0.35347840544E+02  0.33991297314E+02  0.29329703903E+03  0.32257202430E+03  0.12499871852E+03 0.  0.
          2    1    1    2  501    0  0.47916462101E+01 -0.21562990485E+02 -0.10658835342E+04  0.10661123913E+04  0.00000000000E+00 0. -1.
          1    1    1    2  502    0 -0.40139486754E+02 -0.12428306828E+02  0.26420448336E+03  0.26752504599E+03  0.00000000000E+00 0. -1.
         22    1    3    3    0    0  0.82402555954E+02  0.26139253997E+02  0.18240414173E+03  0.20185319603E+03  0.00000000000E+00 0. -1.
         22    1    3    3    0    0 -0.47054715409E+02  0.78520433166E+01  0.11089289730E+03  0.12071882827E+03  0.00000000000E+00 0. -1.
</event>
<event>
 7    1  0.5537228E-006  0.2575258E+03  0.7818608E-02  0.1300063E+00
          2   -1    0    0  502    0  0.00000000000E+00  0.00000000000E+00  0.64680091316E+03  0.64680091316E+03  0.00000000000E+00 0. -1.
          1   -1    0    0  501    0 -0.00000000000E+00 -0.00000000000E+00 -0.81839494527E+03  0.81839494527E+03  0.00000000000E+00 0. -1.
         25    2    1    2    0    0 -0.11614840700E+03 -0.19847586080E+03  0.82677037587E+02  0.27448543337E+03  0.12499456316E+03 0.  0.
          2    1    1    2  501    0  0.13934270092E+03  0.22091247398E+03 -0.69828063175E+03  0.74552971110E+03  0.00000000000E+00 0. -1.
          1    1    1    2  502    0 -0.23194293918E+02 -0.22436613183E+02  0.44400956206E+03  0.44518071396E+03  0.00000000000E+00 0. -1.
         22    1    3    3    0    0 -0.12379667967E+03 -0.99338256140E+02  0.28540054043E+02  0.16127070942E+03  0.00000000000E+00 0.  1.
         22    1    3    3    0    0  0.76482726715E+01 -0.99137604660E+02  0.54136983544E+02  0.11321472395E+03  0.00000000000E+00 0.  1.
</event>
<event>
 7    1  0.5537228E-006  0.9851322E+02  0.7818608E-02  0.1317634E+00
          2   -1    0    0  502    0  0.00000000000E+00  0.00000000000E+00  0.11492848178E+04  0.11492848178E+04  0.00000000000E+00 0. -1.
          1   -1    0    0  501    0 -0.00000000000E+00 -0.00000000000E+00 -0.13696500501E+04  0.13696500501E+04  0.00000000000E+00 0. -1.
         25    2    1    2    0    0  0.70996734648E+02 -0.11357849487E+03  0.29881686760E+03  0.35050820266E+03  0.12499547569E+03 0.  0.
          2    1    1    2  501    0  0.15247550737E+02  0.70268942740E+02 -0.13400135349E+04  0.13419413123E+04  0.00000000000E+00 0. -1.
          1    1    1    2  502    0 -0.86244285386E+02  0.43309552131E+02  0.82083143495E+03  0.82648535297E+03  0.00000000000E+00 0. -1.
         22    1    3    3    0    0  0.86480920820E+02 -0.68024637973E+02  0.27626901663E+03  0.29737328492E+03  0.00000000000E+00 0.  1.
         22    1    3    3    0    0 -0.15484186171E+02 -0.45553856898E+02  0.22547850972E+02  0.53134917739E+02  0.00000000000E+00 0.  1.
</event>
<event>
 7    1  0.5537228E-006  0.9307639E+02  0.7818608E-02  0.1301803E+00
          2   -1    0    0  502    0  0.00000000000E+00  0.00000000000E+00  0.40513173277E+03  0.40513173277E+03  0.00000000000E+00 0. -1.
          1   -1    0    0  501    0 -0.00000000000E+00 -0.00000000000E+00 -0.30803389720E+03  0.30803389720E+03  0.00000000000E+00 0. -1.
         25    2    1    2    0    0 -0.50110823764E+02  0.48238343080E+02  0.17908077229E+02  0.14416105703E+03  0.12499471482E+03 0.  0.
          2    1    1    2  501    0 -0.22534426536E+02 -0.97668733689E+02 -0.22823175246E+03  0.24927237061E+03  0.00000000000E+00 0. -1.
          1    1    1    2  502    0  0.72645250300E+02  0.49430390609E+02  0.30742151079E+03  0.31973220233E+03  0.00000000000E+00 0. -1.
         22    1    3    3    0    0 -0.33309175524E+02  0.40206144817E+02 -0.50876356829E+02  0.72900198486E+02  0.00000000000E+00 0. -1.
         22    1    3    3    0    0 -0.16801648240E+02  0.80321982633E+01  0.68784434058E+02  0.71260858549E+02  0.00000000000E+00 0. -1.
</event>
<event>
 7    1  0.5537228E-006  0.8906090E+02  0.7818608E-02  0.1386808E+00
          2   -1    0    0  502    0  0.00000000000E+00  0.00000000000E+00  0.13377361342E+04  0.13377361342E+04  0.00000000000E+00 0. -1.
          1   -1    0    0  501    0 -0.00000000000E+00 -0.00000000000E+00 -0.30668669231E+02  0.30668669231E+02  0.00000000000E+00 0. -1.
         25    2    1    2    0    0 -0.35567697639E+02 -0.76385689300E+02  0.33911239923E+03  0.37110992812E+03  0.12500209915E+03 0.  0.
          2    1    1    2  501    0 -0.48173985971E+01  0.94231276928E+02  0.14400841926E+03  0.17216609916E+03  0.00000000000E+00 0. -1.
          1    1    1    2  502    0  0.40385096236E+02 -0.17845587628E+02  0.82394664649E+03  0.82512877617E+03  0.00000000000E+00 0. -1.
         22    1    3    3    0    0  0.44514455094E+02 -0.92144669421E+01  0.12066972970E+03  0.12894815539E+03  0.00000000000E+00 0. -1.
         22    1    3    3    0    0 -0.80082152733E+02 -0.67171222357E+02  0.21844266953E+03  0.24216177273E+03  0.00000000000E+00 0. -1.
</event>
<event>
 7    1  0.5537228E-006  0.6637335E+02  0.7818608E-02  0.1384938E+00
          2   -1    0    0  502    0  0.00000000000E+00  0.00000000000E+00  0.84960496005E+03  0.84960496005E+03  0.00000000000E+00 0. -1.
          1   -1    0    0  501    0 -0.00000000000E+00 -0.00000000000E+00 -0.96725853623E+03  0.96725853623E+03  0.00000000000E+00 0. -1.
         25    2    1    2    0    0  0.11799186662E+02 -0.53896700813E+02  0.28137585437E+03  0.31279419339E+03  0.12499504323E+03 0.  0.
          2    1    1    2  501    0  0.53938109312E+02  0.26614246222E+02 -0.94830054835E+03  0.95020606593E+03  0.00000000000E+00 0. -1.
          1    1    1    2  502    0 -0.65737295973E+02  0.27282454591E+02  0.54927111779E+03  0.55386323696E+03  0.00000000000E+00 0. -1.
         22    1    3    3    0    0  0.13976496949E+02  0.30079881235E+02  0.21131965661E+02  0.39328128544E+02  0.00000000000E+00 0. -1.
         22    1    3    3    0    0 -0.21773102874E+01 -0.83976582048E+02  0.26024388871E+03  0.27346606485E+03  0.00000000000E+00 0. -1.
</event>
<event>
 7    1  0.5537228E-006  0.1506840E+03  0.7818608E-02  0.1324485E+00
          2   -1    0    0  502    0  0.00000000000E+00  0.00000000000E+00  0.92903560303E+03  0.92903560303E+03  0.00000000000E+00 0. -1.
          1   -1    0    0  501    0 -0.00000000000E+00 -0.00000000000E+00 -0.17938287525E+04  0.17938287525E+04  0.00000000000E+00 0. -1.
         25    2    1    2    0    0  0.34263548461E+02 -0.17473629836E+03  0.44531551796E+03  0.49561843173E+03  0.12499981847E+03 0.  0.
          2    1    1    2  501    0  0.27261851814E+01  0.15049972306E+03 -0.17643990562E+04  0.17708081850E+04  0.00000000000E+00 0. -1.
          1    1    1    2  502    0 -0.36989733642E+02  0.24236575298E+02  0.45429038880E+03  0.45643773872E+03  0.00000000000E+00 0. -1.
         22    1    3    3    0    0  0.70162626171E+02 -0.14116128423E+03  0.39493204860E+03  0.42523008512E+03  0.00000000000E+00 0. -1.
         22    1    3    3    0    0 -0.35899077711E+02 -0.33575014126E+02  0.50383469358E+02  0.70388346610E+02  0.00000000000E+00 0. -1.
</event>
<event>
 7    1  0.5537228E-006  0.5673040E+02  0.7818608E-02  0.1532856E+00
          2   -1    0    0  502    0  0.00000000000E+00  0.00000000000E+00  0.19322504018E+03  0.19322504018E+03  0.00000000000E+00 0. -1.
          1   -1    0    0  501    0 -0.00000000000E+00 -0.00000000000E+00 -0.14959442096E+04  0.14959442096E+04  0.00000000000E+00 0. -1.
         25    2    1    2    0    0  0.25648185216E+02  0.26924733736E+02 -0.11650464211E+04  0.11723226014E+04  0.12499739130E+03 0.  0.
          2    1    1    2  501    0 -0.31041836858E+00  0.23919299946E+02 -0.32255136450E+03  0.32343718402E+03  0.00000000000E+00 0. -1.
          1    1    1    2  502    0 -0.25337766848E+02 -0.50844033682E+02  0.18487861615E+03  0.19340946435E+03  0.00000000000E+00 0. -1.
         22    1    3    3    0    0 -0.21666025055E+02 -0.39999902269E+02 -0.54253891901E+03  0.54444273111E+03  0.00000000000E+00 0.  1.
         22    1    3    3    0    0  0.47314210271E+02  0.66924636005E+02 -0.62250750207E+03  0.62787987031E+03  0.00000000000E+00 0.  1.
</event>
<event>
 7    1  0.5537228E-006  0.2063927E+03  0.7818608E-02  0.1205745E+00
          2   -1    0    0  502    0  0.00000000000E+00  0.00000000000E+00  0.28588381614E+03  0.28588381614E+03  0.00000000000E+00 0. -1.
          1   -1    0    0  501    0 -0.00000000000E+00 -0.00000000000E+00 -0.20478509216E+04  0.20478509216E+04  0.00000000000E+00 0. -1.
         25    2    1    2    0    0  0.21030864325E+03  0.41307849636E+02 -0.50493503924E+03  0.56260152083E+03  0.12500005407E+03 0.  0.
          2    1    1    2  501    0 -0.16234426983E+03 -0.13243705036E+03 -0.14961679783E+04  0.15107659824E+04  0.00000000000E+00 0. -1.
          1    1    1    2  502    0 -0.47964373419E+02  0.91129200721E+02  0.23913591210E+03  0.26036723449E+03  0.00000000000E+00 0. -1.
         22    1    3    3    0    0  0.36405411684E+02 -0.13991598201E+02 -0.18703500102E+02  0.43254360892E+02  0.00000000000E+00 0. -1.
         22    1    3    3    0    0  0.17390323156E+03  0.55299447838E+02 -0.48623153914E+03  0.51934715994E+03  0.00000000000E+00 0. -1.
</event>
<event>
 7    1  0.5537228E-006  0.2503233E+03  0.7818608E-02  0.1152810E+00
          2   -1    0    0  502    0  0.00000000000E+00  0.00000000000E+00  0.68086249726E+03  0.68086249726E+03  0.00000000000E+00 0. -1.
          1   -1    0    0  501    0 -0.00000000000E+00 -0.00000000000E+00 -0.32330450584E+03  0.32330450584E+03  0.00000000000E+00 0. -1.
         25    2    1    2    0    0 -0.17321014948E+03  0.15582382102E+03  0.13269855252E+03  0.29583191090E+03  0.12499917834E+03 0.  0.
          2    1    1    2  501    0  0.26666915062E+03 -0.33304062922E+02 -0.14663928815E+03  0.30614486330E+03  0.00000000000E+00 0. -1.
          1    1    1    2  502    0 -0.93459001140E+02 -0.12251975810E+03  0.37149872705E+03  0.40219022890E+03  0.00000000000E+00 0. -1.
         22    1    3    3    0    0 -0.16615322915E+03  0.11443971584E+03  0.14898869218E+03  0.25080066690E+03  0.00000000000E+00 0.  1.
         22    1    3    3    0    0 -0.70569203217E+01  0.41384105179E+02 -0.16290139660E+02  0.45031243998E+02  0.00000000000E+00 0.  1.
</event>
<event>
 7    1  0.7053889E-006  0.5782260E+02  0.7818608E-02  0.1439577E+00
          2   -1    0    0  502    0  0.00000000000E+00  0.00000000000E+00  0.24349917226E+04  0.24349917226E+04  0.00000000000E+00 0. -1.
          1   -1    0    0  501    0 -0.00000000000E+00 -0.00000000000E+00 -0.47365997381E+03  0.47365997381E+03  0.00000000000E+00 0. -1.
         25    2    1    2    0    0 -0.34253334760E+02  0.33161498872E+02 -0.17679191827E+03  0.22170558710E+03  0.12500003615E+03 0.  0.
          2    1    1    2  501    0  0.61402227483E+02  0.28917949670E+01 -0.27075473299E+03  0.27764495575E+03  0.00000000000E+00 0. -1.
          1    1    1    2  502    0 -0.27148892723E+02 -0.36053293839E+02  0.24088784001E+04  0.24093011536E+04  0.00000000000E+00 0. -1.
         22    1    3    3    0    0 -0.63688367889E+02  0.19214166575E+02 -0.32978004174E+02  0.74249182897E+02  0.00000000000E+00 0. -1.
         22    1    3    3    0    0  0.29435033129E+02  0.13947332297E+02 -0.14381391409E+03  0.14745640420E+03  0.00000000000E+00 0. -1.
</event>
<event>
 7    1  0.5537228E-006  0.1681032E+03  0.7818608E-02  0.1214398E+00
          2   -1    0    0  502    0  0.00000000000E+00  0.00000000000E+00  0.27590163613E+03  0.27590163613E+03  0.00000000000E+00 0. -1.
          1   -1    0    0  501    0 -0.00000000000E+00 -0.00000000000E+00 -0.62425112680E+03  0.62425112680E+03  0.00000000000E+00 0. -1.
         25    2    1    2    0    0 -0.17730264350E+02 -0.24344075091E+03 -0.78861493618E+02  0.28534622629E+03  0.12500228879E+03 0.  0.
          2    1    1    2  501    0 -0.51035055934E+02  0.15091560667E+03 -0.40599579481E+03  0.43613378988E+03  0.00000000000E+00 0. -1.
          1    1    1    2  502    0  0.68765320283E+02  0.92525144241E+02  0.13650779776E+03  0.17867274677E+03  0.00000000000E+00 0. -1.
         22    1    3    3    0    0 -0.65363776285E+02 -0.88073016135E+02 -0.48971970534E+02  0.12011466738E+03  0.00000000000E+00 0. -1.
         22    1    3    3    0    0  0.47633511936E+02 -0.15536773478E+03 -0.29889523084E+02  0.16523155891E+03  0.00000000000E+00 0. -1.
</event>
<event>
 7    1  0.5537228E-006  0.5230394E+02  0.7818608E-02  0.1535141E+00
          2   -1    0    0  502    0  0.00000000000E+00  0.00000000000E+00  0.29034286013E+04  0.29034286013E+04  0.00000000000E+00 0. -1.
          1   -1    0    0  501    0 -0.00000000000E+00 -0.00000000000E+00 -0.84538431087E+01  0.84538431087E+01  0.00000000000E+00 0. -1.
         25    2    1    2    0    0  0.21489726014E+02 -0.32474131686E+02  0.14305744025E+04  0.14365542414E+04  0.12501435916E+03 0.  0.
          2    1    1    2  501    0 -0.12871251831E+02 -0.22082258840E+02  0.28174673248E+02  0.38040866076E+02  0.00000000000E+00 0. -1.
          1    1    1    2  502    0 -0.86184741833E+01  0.54556390526E+02  0.14362256824E+04  0.14372873369E+04  0.00000000000E+00 0. -1.
         22    1    3    3    0    0 -0.44984029742E+02 -0.16547776839E+02  0.29008005503E+03  0.29401331632E+03  0.00000000000E+00 0. -1.
         22    1    3    3    0    0  0.66473755756E+02 -0.15926354847E+02  0.11404943474E+04  0.11425409251E+04  0.00000000000E+00 0. -1.
</event>
<event>
 7    1  0.5537228E-006  0.2672715E+03  0.7818608E-02  0.1241057E+00
          2   -1    0    0  502    0  0.00000000000E+00  0.00000000000E+00  0.73369180646E+03  0.73369180646E+03  0.00000000000E+00 0. -1.
          1   -1    0    0  501    0 -0.00000000000E+00 -0.00000000000E+00 -0.13403362606E+04  0.13403362606E+04  0.00000000000E+00 0. -1.
         25    2    1    2    0    0  0.22808449577E+03  0.75155079088E+02  0.68246631903E+02  0.27919939453E+03  0.12499550400E+03 0.  0.
          2    1    1    2  501    0 -0.26738635232E+03 -0.36676911606E+02 -0.12187093635E+04  0.12482360233E+04  0.00000000000E+00 0. -1.
          1    1    1    2  502    0  0.39301856550E+02 -0.38478167483E+02  0.54381827744E+03  0.54659264922E+03  0.00000000000E+00 0. -1.
         22    1    3    3    0    0  0.11371891640E+02  0.73660305371E+01 -0.29134542991E+02  0.32130980698E+02  0.00000000000E+00 0. -1.
         22    1    3    3    0    0  0.21671260413E+03  0.67789048551E+02  0.97381174893E+02  0.24706841384E+03  0.00000000000E+00 0. -1.
</event>
<event>
 7    1  0.5537228E-006  0.1130250E+03  0.7818608E-02  0.1313501E+00
          2   -1    0    0  502    0  0.00000000000E+00  0.00000000000E+00  0.12596296712E+04  0.12596296712E+04  0.00000000000E+00 0. -1.
          1   -1    0    0  501    0 -0.00000000000E+00 -0.00000000000E+00 -0.53813841124E+03  0.53813841124E+03  0.00000000000E+00 0. -1.
         25    2    1    2    0    0  0.32907529607E+02  0.14530971698E+03  0.32568822103E+02  0.19718934869E+03  0.12500036683E+03 0.  0.
          2    1    1    2  501    0 -0.66496720809E+02 -0.89606861676E+02 -0.44805573597E+03  0.46174142772E+03  0.00000000000E+00 0. -1.
          1    1    1    2  502    0  0.33589191202E+02 -0.55702855308E+02  0.11369781738E+04  0.11388373060E+04  0.00000000000E+00 0. -1.
         22    1    3    3    0    0 -0.30271640683E+02  0.10061603154E+03 -0.15318590881E+02  0.10618200064E+03  0.00000000000E+00 0. -1.
         22    1    3    3    0    0  0.63179170290E+02  0.44693685443E+02  0.47887412984E+02  0.91007348051E+02  0.00000000000E+00 0. -1.
</event>
<event>
 7    1  0.5537228E-006  0.1096407E+03  0.7818608E-02  0.1321899E+00
          2   -1    0    0  502    0  0.00000000000E+00  0.00000000000E+00  0.77675010333E+03  0.77675010333E+03  0.00000000000E+00 0. -1.
          1   -1    0    0  501    0 -0.00000000000E+00 -0.00000000000E+00 -0.93192197091E+03  0.93192197091E+03  0.00000000000E+00 0. -1.
         25    2    1    2    0    0  0.12093868102E+03  0.42270247719E+02 -0.66763212137E+02  0.19103240345E+03  0.12499245682E+03 0.  0.
          2    1    1    2  501    0 -0.72830881657E+02 -0.81682688087E+02 -0.79792912753E+03  0.80539883996E+03  0.00000000000E+00 0. -1.
          1    1    1    2  502    0 -0.48107799364E+02  0.39412440368E+02  0.70952047207E+03  0.71224083083E+03  0.00000000000E+00 0. -1.
         22    1    3    3    0    0  0.31365935596E+02  0.85496582516E+01  0.37413229627E+02  0.49564789147E+02  0.00000000000E+00 0.  1.
         22    1    3    3    0    0  0.89572745424E+02  0.33720589467E+02 -0.10417644176E+03  0.14146761430E+03  0.00000000000E+00 0.  1.
</event>
<event>
 7    1  0.5537228E-006  0.9205686E+02  0.7818608E-02  0.1350607E+00
          2   -1    0    0  502    0  0.00000000000E+00  0.00000000000E+00  0.15273391912E+04  0.15273391912E+04  0.00000000000E+00 0. -1.
          1   -1    0    0  501    0 -0.00000000000E+00 -0.00000000000E+00 -0.22843827863E+03  0.22843827863E+03  0.00000000000E+00 0. -1.
         25    2    1    2    0    0  0.91447824804E+02 -0.62016354271E+02  0.48311527312E+03  0.51111127692E+03  0.12500254961E+03 0.  0.
          2    1    1    2  501    0 -0.15159722385E+00  0.57676963677E+02 -0.20848990276E+03  0.21632081424E+03  0.00000000000E+00 0. -1.
          1    1    1    2  502    0 -0.91296227580E+02  0.43393905940E+01  0.10242755422E+04  0.10283453786E+04  0.00000000000E+00 0. -1.
         22    1    3    3    0    0  0.35521290391E+02  0.37585649006E+02  0.12706026588E+03  0.13718146467E+03  0.00000000000E+00 0. -1.
         22    1    3    3    0    0  0.55926534413E+02 -0.99602003277E+02  0.35605500724E+03  0.37392981225E+03  0.00000000000E+00 0. -1.
</event>
<event>
 7    1  0.5537228E-006  0.1293056E+03  0.7818608E-02  0.1295099E+00
          2   -1    0    0  502    0  0.00000000000E+00  0.00000000000E+00  0.12038938042E+04  0.12038938042E+04  0.00000000000E+00 0. -1.
          1   -1    0    0  501    0 -0.00000000000E+00 -0.00000000000E+00 -0.49774106968E+03  0.49774106968E+03  0.00000000000E+00 0. -1.
         25    2    1    2    0    0  0.18090086162E+03  0.71043258574E+02  0.29739584757E+03  0.37661846889E+03  0.12499965855E+03 0.  0.
          2    1    1    2  501    0 -0.12109357024E+03 -0.40203684107E+02 -0.44790078001E+03  0.46571997778E+03  0.00000000000E+00 0. -1.
          1    1    1    2  502    0 -0.59807291381E+02 -0.30839574467E+02  0.85665766693E+03  0.85929642718E+03  0.00000000000E+00 0. -1.
         22    1    3    3    0    0  0.60301949282E+02  0.80032079267E+02  0.81524339870E+02  0.12918079110E+03  0.00000000000E+00 0. -1.
         22    1    3    3    0    0  0.12059891234E+03 -0.89888206928E+01  0.21587150770E+03  0.24743767779E+03  0.00000000000E+00 0. -1.
</event>
<event>
 7    1  0.5537228E-006  0.4202656E+02  0.7818608E-02  0.1589347E+00
          2   -1    0    0  502    0  0.00000000000E+00  0.00000000000E+00  0.54101476855E+03  0.54101476855E+03  0.00000000000E+00 0. -1.
          1   -1    0    0  501    0 -0.00000000000E+00 -0.00000000000E+00 -0.14439253853E+04  0.14439253853E+04  0.00000000000E+00 0. -1.
         25    2    1    2    0    0  0.58877140739E+02  0.26428334979E+02 -0.45228658282E+03  0.47364508219E+03  0.12494613358E+03 0.  0.
          2    1    1    2  501    0 -0.20194052880E+02 -0.10104815501E+02 -0.97999828609E+03  0.98025840869E+03  0.00000000000E+00 0. -1.
          1    1    1    2  502    0 -0.38683087859E+02 -0.16323519478E+02  0.52937425215E+03  0.53103666297E+03  0.00000000000E+00 0. -1.
         22    1    3    3    0    0 -0.20048687852E+02  0.51733014745E+02 -0.14127832101E+03  0.15178214219E+03  0.00000000000E+00 0.  1.
         22    1    3    3    0    0  0.78925828591E+02 -0.25304679767E+02 -0.31100826181E+03  0.32186294000E+03  0.00000000000E+00 0.  1.
</event>
<event>
 7    1  0.5537228E-006  0.8054926E+02  0.7818608E-02  0.1471964E+00
          2   -1    0    0  502    0  0.00000000000E+00  0.00000000000E+00  0.32837208735E+03  0.32837208735E+03  0.00000000000E+00 0. -1.
          1   -1    0    0  501    0 -0.00000000000E+00 -0.00000000000E+00 -0.44553868633E+03  0.44553868633E+03  0.00000000000E+00 0. -1.
         25    2    1    2    0    0  0.51659545720E+02 -0.90449897350E+02 -0.58550833235E+02  0.17292588816E+03  0.12500108051E+03 0.  0.
          2    1    1    2  501    0 -0.38246189502E+02  0.68680745492E+02 -0.32449373011E+03  0.33388021309E+03  0.00000000000E+00 0. -1.
          1    1    1    2  502    0 -0.13413356218E+02  0.21769151858E+02  0.26587796436E+03  0.26710467242E+03  0.00000000000E+00 0. -1.
         22    1    3    3    0    0  0.80727203903E+02 -0.40593072767E+02  0.49574659810E+00  0.90359973281E+02  0.00000000000E+00 0. -1.
         22    1    3    3    0    0 -0.29067658182E+02 -0.49856824582E+02 -0.59046579833E+02  0.82565914878E+02  0.00000000000E+00 0. -1.
</event>
<event>
 7    1  0.5537228E-006  0.4040802E+02  0.7818608E-02  0.1604303E+00
          2   -1    0    0  502    0  0.00000000000E+00  0.00000000000E+00  0.31882598033E+03  0.31882598033E+03  0.00000000000E+00 0. -1.
          1   -1    0    0  501    0 -0.00000000000E+00 -0.00000000000E+00 -0.16439273328E+03  0.16439273328E+03  0.00000000000E+00 0. -1.
         25    2    1    2    0    0 -0.25748181023E+02 -0.42338024935E+02 -0.12452768474E+02  0.13503712106E+03  0.12499790175E+03 0.  0.
          2    1    1    2  501    0 -0.77981074745E+01  0.19989451529E+02 -0.87770234950E+02  0.90354871455E+02  0.00000000000E+00 0. -1.
          1    1    1    2  502    0  0.33546288498E+02  0.22348573406E+02  0.25465625047E+03  0.25782672109E+03  0.00000000000E+00 0. -1.
         22    1    3    3    0    0 -0.49027807873E+02 -0.45688415497E+02 -0.54818494155E+02  0.86580740104E+02  0.00000000000E+00 0.  1.
         22    1    3    3    0    0  0.23279626850E+02  0.33503905621E+01  0.42365725681E+02  0.48456380959E+02  0.00000000000E+00 0.  1.
</event>
<event>
 7    1  0.5537228E-006  0.1701097E+03  0.7818608E-02  0.1254433E+00
          2   -1    0    0  502    0  0.00000000000E+00  0.00000000000E+00  0.24783668414E+04  0.24783668414E+04  0.00000000000E+00 0. -1.
          1   -1    0    0  501    0 -0.00000000000E+00 -0.00000000000E+00 -0.18872390886E+03  0.18872390886E+03  0.00000000000E+00 0. -1.
         25    2    1    2    0    0 -0.67152272558E+01 -0.12559507529E+03  0.61405601558E+03  0.63914699489E+03  0.12499949439E+03 0.  0.
          2    1    1    2  501    0 -0.58588949823E+02  0.16362524487E+03 -0.13233350834E+03  0.21844459991E+03  0.00000000000E+00 0. -1.
          1    1    1    2  502    0  0.65304177079E+02 -0.38030169580E+02  0.18079204253E+04  0.18094991554E+04  0.00000000000E+00 0. -1.
         22    1    3    3    0    0 -0.65875197200E+02 -0.62407581374E+02  0.31935680702E+03  0.33199852109E+03  0.00000000000E+00 0. -1.
         22    1    3    3    0    0  0.59159969944E+02 -0.63187493917E+02  0.29469920856E+03  0.30714847380E+03  0.00000000000E+00 0. -1.
</event>
<event>
 7    1  0.7176283E-006  0.6740094E+02  0.7818608E-02  0.1433013E+00
          2   -1    0    0  502    0  0.00000000000E+00  0.00000000000E+00  0.61870313798E+03  0.61870313798E+03  0.00000000000E+00 0. -1.
          1   -1    0    0  501    0 -0.00000000000E+00 -0.00000000000E+00 -0.10228431571E+04  0.10228431571E+04  0.00000000000E+00 0. -1.
         25    2    1    2    0    0 -0.73337952905E+02 -0.29823150136E+02 -0.51419782864E+03  0.53506735708E+03  0.12501917458E+03 0.  0.
          2    1    1    2  501    0  0.32815666836E+02 -0.24033687141E+02 -0.49550763409E+03  0.49717431707E+03  0.00000000000E+00 0. -1.
          1    1    1    2  502    0  0.40522286069E+02  0.53856837277E+02  0.60556544362E+03  0.60930462094E+03  0.00000000000E+00 0. -1.
         22    1    3    3    0    0 -0.40657830206E+02 -0.60111751042E+02 -0.13507737155E+03  0.15333746468E+03  0.00000000000E+00 0. -1.
         22    1    3    3    0    0 -0.32680122699E+02  0.30288600905E+02 -0.37912045709E+03  0.38172989240E+03  0.00000000000E+00 0. -1.
</event>
<event>
 7    1  0.5537228E-006  0.1045619E+03  0.7818608E-02  0.1375247E+00
          2   -1    0    0  502    0  0.00000000000E+00  0.00000000000E+00  0.14082918004E+04  0.14082918004E+04  0.00000000000E+00 0. -1.
          1   -1    0    0  501    0 -0.00000000000E+00 -0.00000000000E+00 -0.27354096947E+02  0.27354096947E+02  0.00000000000E+00 0. -1.
         25    2    1    2    0    0  0.96468824867E+02 -0.24956149713E+02  0.73184261849E+03  0.74909759042E+03  0.12499815264E+03 0.  0.
          2    1    1    2  501    0 -0.81245918721E+01 -0.40512486375E+02  0.16539106161E+02  0.44506320652E+02  0.00000000000E+00 0. -1.
          1    1    1    2  502    0 -0.88344232995E+02  0.65468636088E+02  0.63255597876E+03  0.64204198623E+03  0.00000000000E+00 0. -1.
         22    1    3    3    0    0  0.27663344197E+02 -0.71311853713E+02  0.32463722768E+03  0.33352656669E+03  0.00000000000E+00 0. -1.
         22    1    3    3    0    0  0.68805480670E+02  0.46355704000E+02  0.40720539081E+03  0.41557102374E+03  0.00000000000E+00 0. -1.
</event>
<event>
 7    1  0.5537228E-006  0.1536392E+03  0.7818608E-02  0.1329587E+00
          2   -1    0    0  502    0  0.00000000000E+00  0.00000000000E+00  0.16002146528E+04  0.16002146528E+04  0.00000000000E+00 0. -1.
          1   -1    0    0  501    0 -0.00000000000E+00 -0.00000000000E+00 -0.28080637609E+02  0.28080637609E+02  0.00000000000E+00 0. -1.
         25    2    1    2    0    0 -0.87654015098E+02 -0.15760636695E+03  0.80078778458E+03  0.83030626845E+03  0.12499772093E+03 0.  0.
          2    1    1    2  501    0  0.29939092417E+02  0.28680548539E+02  0.61139191251E+02  0.73870994484E+02  0.00000000000E+00 0. -1.
          1    1    1    2  502    0  0.57714922680E+02  0.12892581841E+03  0.71020703940E+03  0.72411802751E+03  0.00000000000E+00 0. -1.
         22    1    3    3    0    0 -0.52667278835E+02  0.34876548683E+01  0.15203558737E+03  0.16093733508E+03  0.00000000000E+00 0. -1.
         22    1    3    3    0    0 -0.34986736263E+02 -0.16109402182E+03  0.64875219721E+03  0.66936893337E+03  0.00000000000E+00 0. -1.
</event>
<event>
 7    1  0.5537228E-006  0.8661559E+02  0.7818608E-02  0.1429260E+00
          2   -1    0    0  502    0  0.00000000000E+00  0.00000000000E+00  0.46081750823E+04  0.46081750823E+04  0.00000000000E+00 0. -1.
          1   -1    0    0  501    0 -0.00000000000E+00 -0.00000000000E+00 -0.13188347521E+03  0.13188347521E+03  0.00000000000E+00 0. -1.
         25    2    1    2    0    0  0.10473647478E+03 -0.55280976203E+02  0.32427087167E+03  0.36715704756E+03  0.12500793526E+03 0.  0.
          2    1    1    2  501    0 -0.29777090050E+02  0.13180890550E+02 -0.10759674950E+03  0.11241650888E+03  0.00000000000E+00 0. -1.
          1    1    1    2  502    0 -0.74959384726E+02  0.42100085653E+02  0.42596174849E+04  0.42604850010E+04  0.00000000000E+00 0. -1.
         22    1    3    3    0    0  0.11886433642E+03 -0.23030214407E+02  0.30232581105E+03  0.32566856967E+03  0.00000000000E+00 0.  1.
         22    1    3    3    0    0 -0.14127861648E+02 -0.32250761796E+02  0.21945060628E+02  0.41488477884E+02  0.00000000000E+00 0.  1.
</event>
<event>
 7    1  0.5537228E-006  0.8163224E+02  0.7818608E-02  0.1456973E+00
          2   -1    0    0  502    0  0.00000000000E+00  0.00000000000E+00  0.20038890423E+03  0.20038890423E+03  0.00000000000E+00 0. -1.
          1   -1    0    0  501    0 -0.00000000000E+00 -0.00000000000E+00 -0.98558871167E+03  0.98558871167E+03  0.00000000000E+00 0. -1.
         25    2    1    2    0    0  0.60568770774E+02  0.29678396976E+02 -0.65789000405E+01  0.14219206557E+03  0.12500367332E+03 0.  0.
          2    1    1    2  501    0 -0.81400353901E+02 -0.10798747192E+02 -0.90783871757E+03  0.91154471513E+03  0.00000000000E+00 0. -1.
          1    1    1    2  502    0  0.20831583127E+02 -0.18879649783E+02  0.12921781017E+03  0.13224083521E+03  0.00000000000E+00 0. -1.
         22    1    3    3    0    0  0.91283862027E+02  0.49897864741E+02 -0.13074833119E+02  0.10484985281E+03  0.00000000000E+00 0. -1.
         22    1    3    3    0    0 -0.30715091253E+02 -0.20219467765E+02  0.64959330784E+01  0.37342212762E+02  0.00000000000E+00 0. -1.
</event>
<event>
 7    1  0.5537228E-006  0.6385128E+02  0.7818608E-02  0.1415489E+00
          2   -1    0    0  502    0  0.00000000000E+00  0.00000000000E+00  0.31632448045E+03  0.31632448045E+03  0.00000000000E+00 0. -1.
          1   -1    0    0  501    0 -0.00000000000E+00 -0.00000000000E+00 -0.56634687348E+03  0.56634687348E+03  0.00000000000E+00 0. -1.
         25    2    1    2    0    0 -0.32637969082E+02 -0.11270688733E+02  0.50921763388E+02  0.13930545772E+03  0.12498287529E+03 0.  0.
          2    1    1    2  501    0  0.24875662428E+02  0.59743964118E+02 -0.51739060350E+03  0.52142226307E+03  0.00000000000E+00 0. -1.
          1    1    1    2  502    0  0.77623066535E+01 -0.48473275384E+02  0.21644644709E+03  0.22194363313E+03  0.00000000000E+00 0. -1.
         22    1    3    3    0    0  0.45902079306E+02 -0.14447008033E+02  0.52791709628E+01  0.48410603919E+02  0.00000000000E+00 0.  1.
         22    1    3    3    0    0 -0.78540048388E+02  0.31763192993E+01  0.45642592426E+02  0.90894853806E+02  0.00000000000E+00 0.  1.
</event>
<event>
 7    1  0.5537228E-006  0.5102233E+02  0.7818608E-02  0.1490305E+00
          2   -1    0    0  502    0  0.00000000000E+00  0.00000000000E+00  0.43878838926E+02  0.43878838926E+02  0.00000000000E+00 0. -1.
          1   -1    0    0  501    0 -0.00000000000E+00 -0.00000000000E+00 -0.15163727064E+04  0.15163727064E+04  0.00000000000E+00 0. -1.
         25    2    1    2    0    0 -0.84614561411E+02  0.79096149692E+01 -0.45914510629E+03  0.48338553031E+03  0.12500062511E+03 0.  0.
          2    1    1    2  501    0  0.35066692324E+02 -0.53282487516E+01 -0.10252339116E+04  0.10258472775E+04  0.00000000000E+00 0. -1.
          1    1    1    2  502    0  0.49547869087E+02 -0.25813662176E+01  0.11885150414E+02  0.51018737568E+02  0.00000000000E+00 0. -1.
         22    1    3    3    0    0  0.32570036296E+01  0.46819137882E+01  0.69944450727E+01  0.90250014537E+01  0.00000000000E+00 0.  1.
         22    1    3    3    0    0 -0.87871565041E+02  0.32277011809E+01 -0.46613955136E+03  0.47436052886E+03  0.00000000000E+00 0.  1.
</event>
<event>
 7    1  0.5537228E-006  0.6717228E+02  0.7818608E-02  0.1390826E+00
          2   -1    0    0  502    0  0.00000000000E+00  0.00000000000E+00  0.59555253683E+03  0.59555253683E+03  0.00000000000E+00 0. -1.
          1   -1    0    0  501    0 -0.00000000000E+00 -0.00000000000E+00 -0.99121015999E+03  0.99121015999E+03  0.00000000000E+00 0. -1.
         25    2    1    2    0    0  0.53967287506E+01  0.67410481802E+02  0.37920505749E+03  0.40496122793E+03  0.12499529096E+03 0.  0.
          2    1    1    2  501    0 -0.54588857606E+02 -0.39261520205E+02 -0.97320252673E+03  0.97552271546E+03  0.00000000000E+00 0. -1.
          1    1    1    2  502    0  0.49192128855E+02 -0.28148961597E+02  0.19833984607E+03  0.20627875344E+03  0.00000000000E+00 0. -1.
         22    1    3    3    0    0  0.20042603630E+02  0.10227268512E+03  0.28432562395E+03  0.30282415445E+03  0.00000000000E+00 0.  1.
         22    1    3    3    0    0 -0.14645874880E+02 -0.34862203313E+02  0.94879433540E+02  0.10213707348E+03  0.00000000000E+00 0.  1.
</event>
<event>
 7    1  0.5537228E-006  0.6513094E+02  0.7818608E-02  0.1421120E+00
          2   -1    0    0  502    0  0.00000000000E+00  0.00000000000E+00  0.46321765876E+02  0.46321765876E+02  0.00000000000E+00 0. -1.
          1   -1    0    0  501    0 -0.00000000000E+00 -0.00000000000E+00 -0.16236216768E+04  0.16236216768E+04  0.00000000000E+00 0. -1.
         25    2    1    2    0    0 -0.65575233904E+02  0.68033443924E+02 -0.13210637677E+04  0.13303243272E+04  0.12499870608E+03 0.  0.
          2    1    1    2  501    0  0.42868555457E+02 -0.27934196426E+02 -0.28214917308E+03  0.28675109110E+03  0.00000000000E+00 0. -1.
          1    1    1    2  502    0  0.22706678446E+02 -0.40099247498E+02  0.25913029761E+02  0.52868024432E+02  0.00000000000E+00 0. -1.
         22    1    3    3    0    0 -0.14677956026E+02  0.77368977344E+02 -0.11180364747E+04  0.11208063882E+04  0.00000000000E+00 0.  1.
         22    1    3    3    0    0 -0.50897277878E+02 -0.93355334195E+01 -0.20302729291E+03  0.20951793896E+03  0.00000000000E+00 0.  1.
</event>
<event>
 7    1  0.5537228E-006  0.6901288E+02  0.7818608E-02  0.1423449E+00
          2   -1    0    0  502    0  0.00000000000E+00  0.00000000000E+00  0.11460483831E+04  0.11460483831E+04  0.00000000000E+00 0. -1.
          1   -1    0    0  501    0 -0.00000000000E+00 -0.00000000000E+00 -0.56489236016E+02  0.56489236016E+02  0.00000000000E+00 0. -1.
         25    2    1    2    0    0  0.91542117205E+02  0.44368797750E+02  0.43978595020E+03  0.46838594563E+03  0.12500065050E+03 0.  0.
          2    1    1    2  501    0 -0.26710184971E+02 -0.33340395967E+02 -0.29363403799E+02  0.51838455485E+02  0.00000000000E+00 0. -1.
          1    1    1    2  502    0 -0.64831932233E+02 -0.11028401783E+02  0.67913660071E+03  0.68231321803E+03  0.00000000000E+00 0. -1.
         22    1    3    3    0    0  0.57422234191E+02 -0.39962011059E+02  0.17878850229E+03  0.19198855137E+03  0.00000000000E+00 0.  1.
         22    1    3    3    0    0  0.34119883014E+02  0.84330808809E+02  0.26099744792E+03  0.27639739426E+03  0.00000000000E+00 0.  1.
</event>
<event>
 7    1  0.5537228E-006  0.1424543E+03  0.7818608E-02  0.1264671E+00
          2   -1    0    0  502    0  0.00000000000E+00  0.00000000000E+00  0.15076841427E+03  0.15076841427E+03  0.00000000000E+00 0. -1.
          1   -1    0    0  501    0 -0.00000000000E+00 -0.00000000000E+00 -0.32394266038E+04  0.32394266038E+04  0.00000000000E+00 0. -1.
         25    2    1    2    0    0  0.22737991504E+02  0.68724398520E+02 -0.28685217119E+03  0.32116695472E+03  0.12499594185E+03 0.  0.
          2    1    1    2  501    0  0.44448151834E+01  0.81477336429E+02 -0.28910570422E+04  0.28922083490E+04  0.00000000000E+00 0. -1.
          1    1    1    2  502    0 -0.27182806687E+02 -0.15020173495E+03  0.89251023791E+02  0.17681971442E+03  0.00000000000E+00 0. -1.
         22    1    3    3    0    0  0.27975935121E+01  0.70215611188E+02 -0.57097625799E+02  0.90543897949E+02  0.00000000000E+00 0. -1.
         22    1    3    3    0    0  0.19940397992E+02 -0.14912126677E+01 -0.22975454539E+03  0.23062305677E+03  0.00000000000E+00 0. -1.
</event>
<event>
 7    1  0.5537228E-006  0.6586028E+02  0.7818608E-02  0.1399670E+00
          2   -1    0    0  502    0  0.00000000000E+00  0.00000000000E+00  0.88130428594E+02  0.88130428594E+02  0.00000000000E+00 0. -1.
          1   -1    0    0  501    0 -0.00000000000E+00 -0.00000000000E+00 -0.16522672902E+04  0.16522672902E+04  0.00000000000E+00 0. -1.
         25    2    1    2    0    0 -0.56502863912E+02 -0.93317602030E+02 -0.95266052081E+02  0.19131670854E+03  0.12500285520E+03 0.  0.
          2    1    1    2  501    0  0.13437320538E+02  0.52167273673E+02 -0.14860986035E+04  0.14870746603E+04  0.00000000000E+00 0. -1.
          1    1    1    2  502    0  0.43065543374E+02  0.41150328357E+02  0.17227793961E+02  0.62006349955E+02  0.00000000000E+00 0. -1.
         22    1    3    3    0    0  0.84319051739E+01 -0.10024795430E+03 -0.58529227148E+02  0.11638908796E+03  0.00000000000E+00 0. -1.
         22    1    3    3    0    0 -0.64934769086E+02  0.69303522716E+01 -0.36736824932E+02  0.74927620574E+02  0.00000000000E+00 0. -1.
</event>
<event>
 7    1  0.5537228E-006  0.5040622E+02  0.7818608E-02  0.1475111E+00
          2   -1    0    0  502    0  0.00000000000E+00  0.00000000000E+00  0.10615087082E+03  0.10615087082E+03  0.00000000000E+00 0. -1.
          1   -1    0    0  501    0 -0.00000000000E+00 -0.00000000000E+00 -0.24793505227E+03  0.24793505227E+03  0.00000000000E+00 0. -1.
         25    2    1    2    0    0  0.11118195817E+02  0.18611756266E+02 -0.54012426893E+02  0.13788286251E+03  0.12499731903E+03 0.  0.
          2    1    1    2  501    0  0.39947184163E+02  0.74821150931E+00 -0.13698223423E+03  0.14269011822E+03  0.00000000000E+00 0. -1.
          1    1    1    2  502    0 -0.51065379979E+02 -0.19359967775E+02  0.49210479673E+02  0.73512942359E+02  0.00000000000E+00 0. -1.
         22    1    3    3    0    0  0.18534251631E+02 -0.30466797727E+02 -0.75728045918E+02  0.83704726186E+02  0.00000000000E+00 0.  1.
         22    1    3    3    0    0 -0.74160558145E+01  0.49078553993E+02  0.21715619025E+02  0.54178136324E+02  0.00000000000E+00 0.  1.
</event>
<event>
 7    1  0.5537228E-006  0.8901589E+02  0.7818608E-02  0.1458008E+00
          2   -1    0    0  502    0  0.00000000000E+00  0.00000000000E+00  0.14985572436E+03  0.14985572436E+03  0.00000000000E+00 0. -1.
          1   -1    0    0  501    0 -0.00000000000E+00 -0.00000000000E+00 -0.54775522893E+03  0.54775522893E+03  0.00000000000E+00 0. -1.
         25    2    1    2    0    0 -0.27648771207E+02  0.71442797382E+02 -0.17305048325E+03  0.22680092981E+03  0.12499465654E+03 0.  0.
          2    1    1    2  501    0  0.52894458516E+02 -0.75616314982E+02 -0.34028316598E+03  0.35257379921E+03  0.00000000000E+00 0. -1.
          1    1    1    2  502    0 -0.25245687310E+02  0.41735176006E+01  0.11543414466E+03  0.11823622427E+03  0.00000000000E+00 0. -1.
         22    1    3    3    0    0  0.44003239772E+02  0.39134145307E+02 -0.11461965340E+03  0.12886206340E+03  0.00000000000E+00 0.  1.
         22    1    3    3    0    0 -0.71652010979E+02  0.32308652075E+02 -0.58430829857E+02  0.97938866412E+02  0.00000000000E+00 0.  1.
</event>
<event>
 7    1  0.5537228E-006  0.2505347E+03  0.7818608E-02  0.1139230E+00
          2   -1    0    0  502    0  0.00000000000E+00  0.00000000000E+00  0.12561852082E+04  0.12561852082E+04  0.00000000000E+00 0. -1.
          1   -1    0    0  501    0 -0.00000000000E+00 -0.00000000000E+00 -0.15958248646E+04  0.15958248646E+04  0.00000000000E+00 0. -1.
         25    2    1    2    0    0 -0.40555006697E+03  0.10422747592E+03 -0.36383485854E+03  0.56862517693E+03  0.12499825600E+03 0.  0.
          2    1    1    2  501    0  0.16045820882E+03 -0.83858164564E+02 -0.11090649238E+04  0.11237455378E+04  0.00000000000E+00 0. -1.
          1    1    1    2  502    0  0.24509185815E+03 -0.20369311355E+02  0.11332601259E+04  0.11596393581E+04  0.00000000000E+00 0. -1.
         22    1    3    3    0    0 -0.31775206362E+03  0.13147548271E+03 -0.30358813496E+03  0.45871334423E+03  0.00000000000E+00 0. -1.
         22    1    3    3    0    0 -0.87798003350E+02 -0.27248006792E+02 -0.60246723579E+02  0.10991183270E+03  0.00000000000E+00 0. -1.
</event>
<event>
 7    1  0.5537228E-006  0.1077224E+03  0.7818608E-02  0.1323938E+00
          2   -1    0    0  502    0  0.00000000000E+00  0.00000000000E+00  0.54846727803E+03  0.54846727803E+03  0.00000000000E+00 0. -1.
          1   -1    0    0  501    0 -0.00000000000E+00 -0.00000000000E+00 -0.30584190825E+03  0.30584190825E+03  0.00000000000E+00 0. -1.
         25    2    1    2    0    0 -0.79556306786E+01  0.92668226165E+02  0.43721447628E+03  0.46414633111E+03  0.12499850486E+03 0.  0.
          2    1    1    2  501    0 -0.54192183340E+02 -0.93932840781E+02 -0.27086431330E+03  0.29176642632E+03  0.00000000000E+00 0. -1.
          1    1    1    2  502    0  0.62147814019E+02  0.12646146159E+01  0.76275206794E+02  0.98396428843E+02  0.00000000000E+00 0. -1.
         22    1    3    3    0    0 -0.34238273749E+02  0.10818876598E+03  0.25117064199E+03  0.27561523882E+03  0.00000000000E+00 0. -1.
         22    1    3    3    0    0  0.26282643070E+02 -0.15520539817E+02  0.18604383429E+03  0.18853109229E+03  0.00000000000E+00 0. -1.
</event>
<event>
 7    1  0.5537228E-006  0.1685251E+03  0.7818608E-02  0.1218769E+00
          2   -1    0    0  502    0  0.00000000000E+00  0.00000000000E+00  0.12826083033E+04  0.12826083033E+04  0.00000000000E+00 0. -1.
          1   -1    0    0  501    0 -0.00000000000E+00 -0.00000000000E+00 -0.93052477483E+03  0.93052477483E+03  0.00000000000E+00 0. -1.
         25    2    1    2    0    0 -0.11231073382E+03 -0.74046037560E+02 -0.36391710306E+02  0.18720412292E+03  0.12499804178E+03 0.  0.
          2    1    1    2  501    0  0.54681433005E+02  0.16751316326E+03 -0.80669945225E+03  0.82572073078E+03  0.00000000000E+00 0. -1.
          1    1    1    2  502    0  0.57629300820E+02 -0.93467125704E+02  0.11951746910E+04  0.12002082244E+04  0.00000000000E+00 0. -1.
         22    1    3    3    0    0 -0.63667435260E+02 -0.60191923681E+02 -0.81330565021E+02  0.11954610322E+03  0.00000000000E+00 0. -1.
         22    1    3    3    0    0 -0.48643298565E+02 -0.13854113878E+02  0.44938854716E+02  0.67658019701E+02  0.00000000000E+00 0. -1.
</event>
<event>
 7    1  0.5537228E-006  0.5056879E+02  0.7818608E-02  0.1525285E+00
          2   -1    0    0  502    0  0.00000000000E+00  0.00000000000E+00  0.29210334401E+03  0.29210334401E+03  0.00000000000E+00 0. -1.
          1   -1    0    0  501    0 -0.00000000000E+00 -0.00000000000E+00 -0.87369104420E+03  0.87369104420E+03  0.00000000000E+00 0. -1.
         25    2    1    2    0    0 -0.56737404808E-01 -0.50104938399E+02  0.60219242199E+02  0.14751875555E+03  0.12499967215E+03 0.  0.
          2    1    1    2  501    0  0.27268771767E+02  0.42659634207E+02 -0.82820676406E+03  0.82975289957E+03  0.00000000000E+00 0. -1.
          1    1    1    2  502    0 -0.27212034362E+02  0.74453041918E+01  0.18639982168E+03  0.18852273309E+03  0.00000000000E+00 0. -1.
         22    1    3    3    0    0 -0.50545871284E+02 -0.26661350906E+02 -0.98916441264E+01  0.57996184008E+02  0.00000000000E+00 0. -1.
         22    1    3    3    0    0  0.50489133879E+02 -0.23443587493E+02  0.70110886326E+02  0.89522571543E+02  0.00000000000E+00 0. -1.
</event>
<event>
 7    1  0.5537228E-006  0.9256466E+02  0.7818608E-02  0.1300907E+00
          2   -1    0    0  502    0  0.00000000000E+00  0.00000000000E+00  0.97049339576E+03  0.97049339576E+03  0.00000000000E+00 0. -1.
          1   -1    0    0  501    0 -0.00000000000E+00 -0.00000000000E+00 -0.84150781850E+02  0.84150781850E+02  0.00000000000E+00 0. -1.
         25    2    1    2    0    0 -0.12008062040E+02 -0.28966458910E+02  0.12165968640E+03  0.17723349708E+03  0.12500953523E+03 0.  0.
          2    1    1    2  501    0  0.58425244406E+02  0.10500226295E+03  0.13448315047E+02  0.12091253692E+03  0.00000000000E+00 0. -1.
          1    1    1    2  502    0 -0.46417182366E+02 -0.76035804036E+02  0.75123461246E+03  0.75649814361E+03  0.00000000000E+00 0. -1.
         22    1    3    3    0    0 -0.47817675061E+02 -0.60596196314E+02  0.53191765300E+02  0.93743228831E+02  0.00000000000E+00 0. -1.
         22    1    3    3    0    0  0.35809613022E+02  0.31629737404E+02  0.68467921101E+02  0.83490268252E+02  0.00000000000E+00 0. -1.
</event>
<event>
 7    1  0.5537228E-006  0.9111981E+02  0.7818608E-02  0.1339052E+00
          2   -1    0    0  502    0  0.00000000000E+00  0.00000000000E+00  0.58576200977E+03  0.58576200977E+03  0.00000000000E+00 0. -1.
          1   -1    0    0  501    0 -0.00000000000E+00 -0.00000000000E+00 -0.56488415751E+03  0.56488415751E+03  0.00000000000E+00 0. -1.
         25    2    1    2    0    0 -0.14623316824E+03  0.34702019226E+02 -0.54627191999E+02  0.20297137297E+03  0.12499951404E+03 0.  0.
          2    1    1    2  501    0  0.81980241216E+02 -0.31030684426E+02 -0.42961753794E+03  0.43846880418E+03  0.00000000000E+00 0. -1.
          1    1    1    2  502    0  0.64252927024E+02 -0.36713348006E+01  0.50512258221E+03  0.50920599013E+03  0.00000000000E+00 0. -1.
         22    1    3    3    0    0  0.16943413986E+02  0.15869472934E+02  0.11492214084E+02  0.25903483034E+02  0.00000000000E+00 0.  1.
         22    1    3    3    0    0 -0.16317658223E+03  0.18832546292E+02 -0.66119406083E+02  0.17706788994E+03  0.00000000000E+00 0.  1.
</event>
<event>
 7    1  0.5537228E-006  0.3694498E+02  0.7818608E-02  0.1574794E+00
          2   -1    0    0  502    0  0.00000000000E+00  0.00000000000E+00  0.16960903266E+04  0.16960903266E+04  0.00000000000E+00 0. -1.
          1   -1    0    0  501    0 -0.00000000000E+00 -0.00000000000E+00 -0.96902764400E+02  0.96902764400E+02  0.00000000000E+00 0. -1.
         25    2    1    2    0    0  0.34289963971E+01 -0.63143903431E+02  0.14128797649E+03  0.19896042574E+03  0.12499619256E+03 0.  0.
          2    1    1    2  501    0  0.38710902059E+01  0.36013604295E+02 -0.63108923333E+02  0.72764697745E+02  0.00000000000E+00 0. -1.
          1    1    1    2  502    0 -0.73000866030E+01  0.27130299136E+02  0.15210085091E+04  0.15212679675E+04  0.00000000000E+00 0. -1.
         22    1    3    3    0    0  0.34303279282E+02 -0.87706055432E+02  0.12444477521E+03  0.15606270921E+03  0.00000000000E+00 0. -1.
         22    1    3    3    0    0 -0.30874282885E+02  0.24562152001E+02  0.16843201284E+02  0.42897716537E+02  0.00000000000E+00 0. -1.
</event>
<event>
 7    1  0.5537228E-006  0.1342499E+03  0.7818608E-02  0.1406572E+00
          2   -1    0    0  502    0  0.00000000000E+00  0.00000000000E+00  0.12322220844E+04  0.12322220844E+04  0.00000000000E+00 0. -1.
          1   -1    0    0  501    0 -0.00000000000E+00 -0.00000000000E+00 -0.21927088930E+03  0.21927088930E+03  0.00000000000E+00 0. -1.
         25    2    1    2    0    0 -0.27779135481E+02  0.13959491600E+03  0.18245124039E+03  0.26300631736E+03  0.12500178763E+03 0.  0.
          2    1    1    2  501    0  0.24279531340E+02 -0.60758793131E+01 -0.17367439634E+03  0.17546853819E+03  0.00000000000E+00 0. -1.
          1    1    1    2  502    0  0.34996041414E+01 -0.13351903669E+03  0.10041743510E+04  0.10130181181E+04  0.00000000000E+00 0. -1.
         22    1    3    3    0    0 -0.35872759113E+02  0.85898387181E+02  0.18661497406E+03  0.20854384745E+03  0.00000000000E+00 0. -1.
         22    1    3    3    0    0  0.80936236312E+01  0.53696528820E+02 -0.41637336673E+01  0.54462469912E+02  0.00000000000E+00 0. -1.
</event>
<event>
 7    1  0.5537228E-006  0.7498880E+02  0.7818608E-02  0.1407841E+00
          2   -1    0    0  502    0  0.00000000000E+00  0.00000000000E+00  0.22184220357E+03  0.22184220357E+03  0.00000000000E+00 0. -1.
          1   -1    0    0  501    0 -0.00000000000E+00 -0.00000000000E+00 -0.11977433744E+04  0.11977433744E+04  0.00000000000E+00 0. -1.
         25    2    1    2    0    0 -0.10545560528E+03  0.49697247635E+02 -0.26969514037E+03  0.31929725063E+03  0.12499825764E+03 0.  0.
          2    1    1    2  501    0  0.63684288897E+02 -0.34753445127E+02 -0.89927048930E+03  0.90219227636E+03  0.00000000000E+00 0. -1.
          1    1    1    2  502    0  0.41771316379E+02 -0.14943802508E+02  0.19306445889E+03  0.19809605093E+03  0.00000000000E+00 0. -1.
         22    1    3    3    0    0 -0.78370635793E+02  0.83368682729E+02 -0.13054827267E+03  0.17359477329E+03  0.00000000000E+00 0.  1.
         22    1    3    3    0    0 -0.27084969484E+02 -0.33671435094E+02 -0.13914686770E+03  0.14570247734E+03  0.00000000000E+00 0.  1.
</event>
<event>
 7    1  0.5537228E-006  0.1238999E+03  0.7818608E-02  0.1308220E+00
          2   -1    0    0  502    0  0.00000000000E+00  0.00000000000E+00  0.17646294366E+03  0.17646294366E+03  0.00000000000E+00 0. -1.
          1   -1    0    0  501    0 -0.00000000000E+00 -0.00000000000E+00 -0.10872572732E+04  0.10872572732E+04  0.00000000000E+00 0. -1.
         25    2    1    2    0    0  0.77472530824E+02 -0.91308039612E+02  0.43877131456E+02  0.17861226871E+03  0.12505194417E+03 0.  0.
          2    1    1    2  501    0  0.48036541511E+02  0.39585872936E+02 -0.94710528871E+03  0.94914855452E+03  0.00000000000E+00 0. -1.
          1    1    1    2  502    0 -0.12550907233E+03  0.51722166676E+02 -0.75661723300E+01  0.13595939367E+03  0.00000000000E+00 0. -1.
         22    1    3    3    0    0 -0.10669453800E+02 -0.53424014399E+02  0.60314146905E+02  0.81275819749E+02  0.00000000000E+00 0. -1.
         22    1    3    3    0    0  0.88141984624E+02 -0.37884025213E+02 -0.16437015449E+02  0.97336448963E+02  0.00000000000E+00 0. -1.
</event>
<event>
 7    1  0.5537228E-006  0.1371970E+03  0.7818608E-02  0.1379971E+00
          2   -1    0    0  502    0  0.00000000000E+00  0.00000000000E+00  0.26610324728E+04  0.26610324728E+04  0.00000000000E+00 0. -1.
          1   -1    0    0  501    0 -0.00000000000E+00 -0.00000000000E+00 -0.43750944161E+03  0.43750944161E+03  0.00000000000E+00 0. -1.
         25    2    1    2    0    0  0.14304761855E+03 -0.10104982269E+02  0.39469435149E+03  0.43814681716E+03  0.12499708174E+03 0.  0.
          2    1    1    2  501    0 -0.13168706085E+03  0.38190534634E+02 -0.40437370066E+03  0.42698722313E+03  0.00000000000E+00 0. -1.
          1    1    1    2  502    0 -0.11360557701E+02 -0.28085552365E+02  0.22332023803E+04  0.22334078741E+04  0.00000000000E+00 0. -1.
         22    1    3    3    0    0  0.10510032871E+03 -0.63996375826E+02  0.23210709378E+03  0.26270766680E+03  0.00000000000E+00 0. -1.
         22    1    3    3    0    0  0.37947289839E+02  0.53891393557E+02  0.16258725771E+03  0.17543915035E+03  0.00000000000E+00 0. -1.
</event>
<event>
 7    1  0.5537228E-006  0.1394920E+03  0.7818608E-02  0.1234234E+00
          2   -1    0    0  502    0  0.00000000000E+00  0.00000000000E+00  0.15454468813E+04  0.15454468813E+04  0.00000000000E+00 0. -1.
          1   -1    0    0  501    0 -0.00000000000E+00 -0.00000000000E+00 -0.21512012611E+03  0.21512012611E+03  0.00000000000E+00 0. -1.
         25    2    1    2    0    0  0.99856052608E+02 -0.28332922837E+02  0.10747248081E+03  0.19481545045E+03  0.12501495848E+03 0.  0.
          2    1    1    2  501    0 -0.41227283333E+02 -0.10518581967E+03 -0.14854216812E+03  0.18662401041E+03  0.00000000000E+00 0. -1.
          1    1    1    2  502    0 -0.58628769275E+02  0.13351874251E+03  0.13713964425E+04  0.13791275466E+04  0.00000000000E+00 0. -1.
         22    1    3    3    0    0  0.43093349964E+02 -0.66245361019E+02  0.15917737468E+02  0.80615501200E+02  0.00000000000E+00 0. -1.
         22    1    3    3    0    0  0.56762702645E+02  0.37912438182E+02  0.91554743341E+02  0.11419994925E+03  0.00000000000E+00 0. -1.
</event>
<event>
 7    1  0.5537228E-006  0.4184811E+02  0.7818608E-02  0.1602822E+00
          2   -1    0    0  502    0  0.00000000000E+00  0.00000000000E+00  0.24780864466E+02  0.24780864466E+02  0.00000000000E+00 0. -1.
          1   -1    0    0  501    0 -0.00000000000E+00 -0.00000000000E+00 -0.16201304143E+04  0.16201304143E+04  0.00000000000E+00 0. -1.
         25    2    1    2    0    0 -0.42128491667E+02 -0.34803982891E+02 -0.95939135157E+03  0.96904241489E+03  0.12500123742E+03 0.  0.
          2    1    1    2  501    0  0.20879323352E+02 -0.99258058226E+00 -0.63384217414E+03  0.63418674937E+03  0.00000000000E+00 0. -1.
          1    1    1    2  502    0  0.21249168314E+02  0.35796563473E+02 -0.21160241132E+01  0.41682114493E+02  0.00000000000E+00 0. -1.
         22    1    3    3    0    0 -0.19849874515E+02 -0.61887744536E+02 -0.87818986286E+03  0.88059158846E+03  0.00000000000E+00 0.  1.
         22    1    3    3    0    0 -0.22278617152E+02  0.27083761645E+02 -0.81201488709E+02  0.88450826427E+02  0.00000000000E+00 0.  1.
</event>
<event>
 7    1  0.5537228E-006  0.1469985E+03  0.7818608E-02  0.1238464E+00
          2   -1    0    0  502    0  0.00000000000E+00  0.00000000000E+00  0.10364816770E+04  0.10364816770E+04  0.00000000000E+00 0. -1.
          1   -1    0    0  501    0 -0.00000000000E+00 -0.00000000000E+00 -0.36104328667E+03  0.36104328667E+03  0.00000000000E+00 0. -1.
         25    2    1    2    0    0 -0.21331479908E+03  0.35768460072E+02  0.94547127714E+02  0.26710403463E+03  0.12499127856E+03 0.  0.
          2    1    1    2  501    0  0.13747652380E+03  0.33443869820E+02 -0.25319191520E+03  0.29004212271E+03  0.00000000000E+00 0. -1.
          1    1    1    2  502    0  0.75838275280E+02 -0.69212329892E+02  0.83408317783E+03  0.84037880634E+03  0.00000000000E+00 0. -1.
         22    1    3    3    0    0 -0.15766469914E+01  0.80225855780E+01 -0.22248284222E+02  0.23703034530E+02  0.00000000000E+00 0. -1.
         22    1    3    3    0    0 -0.21173815209E+03  0.27745874494E+02  0.11679541194E+03  0.24340100010E+03  0.00000000000E+00 0. -1.
</event>
<event>
 7    1  0.1193522E-005  0.7820082E+02  0.7818608E-02  0.1365693E+00
          2   -1    0    0  502    0  0.00000000000E+00  0.00000000000E+00  0.15856017140E+04  0.15856017140E+04  0.00000000000E+00 0. -1.
          1   -1    0    0  501    0 -0.00000000000E+00 -0.00000000000E+00 -0.10931093445E+04  0.10931093445E+04  0.00000000000E+00 0. -1.
         25    2    1    2    0    0  0.13444718657E+03  0.14591581279E+02 -0.20741217110E+03  0.27736012146E+03  0.12497947044E+03 0.  0.
          2    1    1    2  501    0 -0.75156840678E+02 -0.68700235579E+01 -0.84847126882E+03  0.85182113260E+03  0.00000000000E+00 0. -1.
          1    1    1    2  502    0 -0.59290345894E+02 -0.77215577214E+01  0.15483758094E+04  0.15495298044E+04  0.00000000000E+00 0. -1.
         22    1    3    3    0    0  0.61331392881E+02  0.26997348151E+02 -0.11642223439E+02  0.68014247967E+02  0.00000000000E+00 0. -1.
         22    1    3    3    0    0  0.73115793692E+02 -0.12405766872E+02 -0.19576994767E+03  0.20934587349E+03  0.00000000000E+00 0. -1.
</event>
<event>
 7    1  0.5537228E-006  0.4092236E+02  0.7818608E-02  0.1548241E+00
          2   -1    0    0  502    0  0.00000000000E+00  0.00000000000E+00  0.77727818420E+03  0.77727818420E+03  0.00000000000E+00 0. -1.
          1   -1    0    0  501    0 -0.00000000000E+00 -0.00000000000E+00 -0.15159668349E+03  0.15159668349E+03  0.00000000000E+00 0. -1.
         25    2    1    2    0    0 -0.29494784318E+02  0.42861667661E+02  0.15413923927E+03  0.20515754135E+03  0.12499458722E+03 0.  0.
          2    1    1    2  501    0  0.29937838426E+02 -0.19941911855E+01 -0.12359174013E+03  0.12718163860E+03  0.00000000000E+00 0. -1.
          1    1    1    2  502    0 -0.44305410771E+00 -0.40867476475E+02  0.59513400156E+03  0.59653568774E+03  0.00000000000E+00 0. -1.
         22    1    3    3    0    0 -0.89310018110E+01  0.16985606738E+01  0.15866177569E+03  0.15892201537E+03  0.00000000000E+00 0.  1.
         22    1    3    3    0    0 -0.20563782507E+02  0.41163106987E+02 -0.45225364199E+01  0.46235525989E+02  0.00000000000E+00 0.  1.
</event>
<event>
 7    1  0.5537228E-006  0.1228080E+03  0.7818608E-02  0.1425848E+00
          2   -1    0    0  502    0  0.00000000000E+00  0.00000000000E+00  0.72699559957E+03  0.72699559957E+03  0.00000000000E+00 0. -1.
          1   -1    0    0  501    0 -0.00000000000E+00 -0.00000000000E+00 -0.59993032600E+03  0.59993032600E+03  0.00000000000E+00 0. -1.
         25    2    1    2    0    0  0.11574960846E+03 -0.10282961484E+02  0.24955687287E+03  0.30233650237E+03  0.12500006684E+03 0.  0.
          2    1    1    2  501    0  0.91966222420E+01  0.21702844057E+02 -0.56456462866E+03  0.56505646730E+03  0.00000000000E+00 0. -1.
          1    1    1    2  502    0 -0.12494623070E+03 -0.11419882573E+02  0.44207302935E+03  0.45953295591E+03  0.00000000000E+00 0. -1.
         22    1    3    3    0    0  0.11926345452E+03 -0.17584956054E+02  0.26147329477E+03  0.28792583445E+03  0.00000000000E+00 0.  1.
         22    1    3    3    0    0 -0.35138460655E+01  0.73019945698E+01 -0.11916421902E+02  0.14410667917E+02  0.00000000000E+00 0.  1.
</event>
<event>
 7    1  0.5537228E-006  0.6326772E+02  0.7818608E-02  0.1390005E+00
          2   -1    0    0  502    0  0.00000000000E+00  0.00000000000E+00  0.18027961829E+03  0.18027961829E+03  0.00000000000E+00 0. -1.
          1   -1    0    0  501    0 -0.00000000000E+00 -0.00000000000E+00 -0.30585633129E+03  0.30585633129E+03  0.00000000000E+00 0. -1.
         25    2    1    2    0    0  0.84688494290E+01  0.22549100895E+01  0.82817010103E+02  0.15020199797E+03  0.12500070800E+03 0.  0.
          2    1    1    2  501    0 -0.23767686170E+02 -0.60863375915E+02 -0.25262063078E+03  0.26093377805E+03  0.00000000000E+00 0. -1.
          1    1    1    2  502    0  0.15298836741E+02  0.58608465825E+02  0.44226907670E+02  0.75000173560E+02  0.00000000000E+00 0. -1.
         22    1    3    3    0    0  0.41010187092E+02  0.17137179763E+01 -0.17586852916E+02  0.44655007223E+02  0.00000000000E+00 0.  1.
         22    1    3    3    0    0 -0.32541337663E+02  0.54119211316E+00  0.10040386302E+03  0.10554699074E+03  0.00000000000E+00 0.  1.
</event>
<event>
 7    1  0.5537228E-006  0.9338646E+02  0.7818608E-02  0.1410959E+00
          2   -1    0    0  502    0  0.00000000000E+00  0.00000000000E+00  0.14916296995E+04  0.14916296995E+04  0.00000000000E+00 0. -1.
          1   -1    0    0  501    0 -0.00000000000E+00 -0.00000000000E+00 -0.47731670650E+03  0.47731670650E+03  0.00000000000E+00 0. -1.
         25    2    1    2    0    0 -0.31940788289E+02  0.98153290089E+02 -0.18540513814E+03  0.24628268327E+03  0.12500325002E+03 0.  0.
          2    1    1    2  501    0  0.34430137422E+02 -0.48271531402E+01 -0.25881803160E+03  0.26114269902E+03  0.00000000000E+00 0. -1.
          1    1    1    2  502    0 -0.24893491325E+01 -0.93326136949E+02  0.14585361627E+04  0.14615210237E+04  0.00000000000E+00 0. -1.
         22    1    3    3    0    0 -0.49462372128E+02  0.26268541568E+01 -0.11825300746E+03  0.12820764561E+03  0.00000000000E+00 0.  1.
         22    1    3    3    0    0  0.17521583839E+02  0.95526435933E+02 -0.67152130680E+02  0.11807503765E+03  0.00000000000E+00 0.  1.
</event>
<event>
 7    1  0.5537228E-006  0.1040262E+03  0.7818608E-02  0.1386199E+00
          2   -1    0    0  502    0  0.00000000000E+00  0.00000000000E+00  0.71337116335E+03  0.71337116335E+03  0.00000000000E+00 0. -1.
          1   -1    0    0  501    0 -0.00000000000E+00 -0.00000000000E+00 -0.74775942157E+02  0.74775942157E+02  0.00000000000E+00 0. -1.
         25    2    1    2    0    0  0.10483393827E+03 -0.81127249146E+02  0.18532580823E+03  0.25989882308E+03  0.12501982993E+03 0.  0.
          2    1    1    2  501    0 -0.70141089662E+02  0.65653894377E+02  0.26322343655E+02  0.99614617809E+02  0.00000000000E+00 0. -1.
          1    1    1    2  502    0 -0.34692848609E+02  0.15473354768E+02  0.42694706930E+03  0.42863366461E+03  0.00000000000E+00 0. -1.
         22    1    3    3    0    0  0.12974110958E+03 -0.87473697683E+02  0.15736607919E+03  0.22191999951E+03  0.00000000000E+00 0. -1.
         22    1    3    3    0    0 -0.24907171314E+02  0.63464485378E+01  0.27959729045E+02  0.37978823576E+02  0.00000000000E+00 0. -1.
</event>
<event>
 7    1  0.5537228E-006  0.6375892E+02  0.7818608E-02  0.1485379E+00
          2   -1    0    0  502    0  0.00000000000E+00  0.00000000000E+00  0.16591185222E+03  0.16591185222E+03  0.00000000000E+00 0. -1.
          1   -1    0    0  501    0 -0.00000000000E+00 -0.00000000000E+00 -0.67476376577E+03  0.67476376577E+03  0.00000000000E+00 0. -1.
         25    2    1    2    0    0 -0.34987561502E+02 -0.39407945959E+02 -0.13300064430E+03  0.18997645816E+03  0.12499907041E+03 0.  0.
          2    1    1    2  501    0  0.60203157125E+02  0.24333793332E+02 -0.50962111086E+03  0.51374140408E+03  0.00000000000E+00 0. -1.
          1    1    1    2  502    0 -0.25215595623E+02  0.15074152628E+02  0.13376984161E+03  0.13695775576E+03  0.00000000000E+00 0. -1.
         22    1    3    3    0    0 -0.38490480566E+02 -0.69923059779E+02 -0.13744620595E+03  0.15894090384E+03  0.00000000000E+00 0. -1.
         22    1    3    3    0    0  0.35029190646E+01  0.30515113820E+02  0.44455616494E+01  0.31035554317E+02  0.00000000000E+00 0. -1.
</event>
<event>
 7    1  0.5537228E-006  0.2447678E+03  0.7818608E-02  0.1213597E+00
          2   -1    0    0  502    0  0.00000000000E+00  0.00000000000E+00  0.14153829167E+04  0.14153829167E+04  0.00000000000E+00 0. -1.
          1   -1    0    0  501    0 -0.00000000000E+00 -0.00000000000E+00 -0.11683207547E+03  0.11683207547E+03  0.00000000000E+00 0. -1.
         25    2    1    2    0    0  0.13762844696E+03  0.21341247293E+03  0.59719929395E+03  0.66087776499E+03  0.12500380212E+03 0.  0.
          2    1    1    2  501    0 -0.76524882491E+02  0.22797568604E+02 -0.41113171303E+02  0.89811355791E+02  0.00000000000E+00 0. -1.
          1    1    1    2  502    0 -0.61103564467E+02 -0.23621004153E+03  0.74246471862E+03  0.78152587142E+03  0.00000000000E+00 0. -1.
         22    1    3    3    0    0  0.77097631166E+02  0.40944145235E+02  0.29554216042E+03  0.30816494990E+03  0.00000000000E+00 0. -1.
         22    1    3    3    0    0  0.60530815792E+02  0.17246832769E+03  0.30165713353E+03  0.35271281509E+03  0.00000000000E+00 0. -1.
</event>
<event>
 7    1  0.5537228E-006  0.4759336E+02  0.7818608E-02  0.1527146E+00
          2   -1    0    0  502    0  0.00000000000E+00  0.00000000000E+00  0.81341673969E+03  0.81341673969E+03  0.00000000000E+00 0. -1.
          1   -1    0    0  501    0 -0.00000000000E+00 -0.00000000000E+00 -0.38097900504E+03  0.38097900504E+03  0.00000000000E+00 0. -1.
         25    2    1    2    0    0 -0.54697163767E+02  0.53666243653E+02  0.82113541861E+02  0.16803057820E+03  0.12497918235E+03 0.  0.
          2    1    1    2  501    0  0.20386982885E+02 -0.21471598131E+02 -0.33656581480E+03  0.33786566308E+03  0.00000000000E+00 0. -1.
          1    1    1    2  502    0  0.34310180882E+02 -0.32194645523E+02  0.68689000759E+03  0.68849950344E+03  0.00000000000E+00 0. -1.
         22    1    3    3    0    0 -0.36350755388E+02  0.59577359644E+02 -0.12992920533E+02  0.70990528829E+02  0.00000000000E+00 0.  1.
         22    1    3    3    0    0 -0.18346408379E+02 -0.59111159903E+01  0.95106462394E+02  0.97040049370E+02  0.00000000000E+00 0.  1.
</event>
<event>
 7    1  0.5537228E-006  0.4380413E+02  0.7818608E-02  0.1548253E+00
          2   -1    0    0  502    0  0.00000000000E+00  0.00000000000E+00  0.17257501752E+03  0.17257501752E+03  0.00000000000E+00 0. -1.
          1   -1    0    0  501    0 -0.00000000000E+00 -0.00000000000E+00 -0.90354033967E+03  0.90354033967E+03  0.00000000000E+00 0. -1.
         25    2    1    2    0    0  0.18875821458E+02 -0.16377084189E+01  0.73474729334E+02  0.14622667455E+03  0.12499890309E+03 0.  0.
          2    1    1    2  501    0 -0.41173605711E+02 -0.15344161461E+02 -0.86344651609E+03  0.86456381791E+03  0.00000000000E+00 0. -1.
          1    1    1    2  502    0  0.22297784253E+02  0.16981869880E+02  0.59006464606E+02  0.65324864734E+02  0.00000000000E+00 0. -1.
         22    1    3    3    0    0 -0.19301837263E+01  0.59473857763E+02  0.49362094177E+02  0.77314175337E+02  0.00000000000E+00 0.  1.
         22    1    3    3    0    0  0.20806005184E+02 -0.61111566182E+02  0.24112635156E+02  0.68912499208E+02  0.00000000000E+00 0.  1.
</event>
<event>
 7    1  0.5537228E-006  0.1817267E+03  0.7818608E-02  0.1235706E+00
          2   -1    0    0  502    0  0.00000000000E+00  0.00000000000E+00  0.12556840756E+04  0.12556840756E+04  0.00000000000E+00 0. -1.
          1   -1    0    0  501    0 -0.00000000000E+00 -0.00000000000E+00 -0.14244789835E+04  0.14244789835E+04  0.00000000000E+00 0. -1.
         25    2    1    2    0    0  0.88236176139E+02 -0.13910015548E+03  0.22970516462E+03  0.30907294522E+03  0.12500858683E+03 0.  0.
          2    1    1    2  501    0 -0.14344971010E+02  0.18196169257E+03 -0.13769114531E+04  0.13889567975E+04  0.00000000000E+00 0. -1.
          1    1    1    2  502    0 -0.73891205129E+02 -0.42861537099E+02  0.97841138054E+03  0.98213331637E+03  0.00000000000E+00 0. -1.
         22    1    3    3    0    0  0.84802161874E+02 -0.21223691846E+02  0.11606162072E+03  0.14530021184E+03  0.00000000000E+00 0.  1.
         22    1    3    3    0    0  0.34340142656E+01 -0.11787646363E+03  0.11364354389E+03  0.16377273338E+03  0.00000000000E+00 0.  1.
</event>
<event>
 7    1  0.5537228E-006  0.2815704E+02  0.7818608E-02  0.1657039E+00
          2   -1    0    0  502    0  0.00000000000E+00  0.00000000000E+00  0.17176740392E+04  0.17176740392E+04  0.00000000000E+00 0. -1.
          1   -1    0    0  501    0 -0.00000000000E+00 -0.00000000000E+00 -0.19478008804E+03  0.19478008804E+03  0.00000000000E+00 0. -1.
         25    2    1    2    0    0  0.16790973159E+02 -0.25600625997E+02 -0.60311183769E+02  0.14212651475E+03  0.12500071390E+03 0.  0.
          2    1    1    2  501    0  0.10802606740E+02  0.19957423102E+02 -0.92065036522E+02  0.94820704485E+02  0.00000000000E+00 0. -1.
          1    1    1    2  502    0 -0.27593579899E+02  0.56432028949E+01  0.16752701714E+04  0.16755069080E+04  0.00000000000E+00 0. -1.
         22    1    3    3    0    0  0.41681699703E+02 -0.25477563673E+02 -0.90594578475E+02  0.10292642027E+03  0.00000000000E+00 0.  1.
         22    1    3    3    0    0 -0.24890726543E+02 -0.12306232438E+00  0.30283394706E+02  0.39200094478E+02  0.00000000000E+00 0.  1.
</event>
<event>
 7    1  0.5537228E-006  0.1380197E+03  0.7818608E-02  0.1325662E+00
          2   -1    0    0  502    0  0.00000000000E+00  0.00000000000E+00  0.51252027959E+03  0.51252027959E+03  0.00000000000E+00 0. -1.
          1   -1    0    0  501    0 -0.00000000000E+00 -0.00000000000E+00 -0.55127521766E+03  0.55127521766E+03  0.00000000000E+00 0. -1.
         25    2    1    2    0    0 -0.19931772168E+02  0.15868682658E+03  0.34294138663E+02  0.20586861434E+03  0.12500805555E+03 0.  0.
          2    1    1    2  501    0 -0.21541062888E+02 -0.13496191615E+03 -0.45393134762E+03  0.47405949474E+03  0.00000000000E+00 0. -1.
          1    1    1    2  502    0  0.41472835055E+02 -0.23724910433E+02  0.38088227089E+03  0.38386738817E+03  0.00000000000E+00 0. -1.
         22    1    3    3    0    0  0.27949673985E+02 -0.74611027923E+01 -0.26721448912E+01  0.29051552266E+02  0.00000000000E+00 0.  1.
         22    1    3    3    0    0 -0.47881446152E+02  0.16614792937E+03  0.36966283554E+02  0.17681706208E+03  0.00000000000E+00 0.  1.
</event>
<event>
 7    1  0.5537228E-006  0.1961784E+03  0.7818608E-02  0.1252774E+00
          2   -1    0    0  502    0  0.00000000000E+00  0.00000000000E+00  0.78842800493E+03  0.78842800493E+03  0.00000000000E+00 0. -1.
          1   -1    0    0  501    0 -0.00000000000E+00 -0.00000000000E+00 -0.97450010187E+03  0.97450010187E+03  0.00000000000E+00 0. -1.
         25    2    1    2    0    0  0.55090051325E+02 -0.18327245894E+03 -0.29557414256E+03  0.37364787027E+03  0.12499979698E+03 0.  0.
          2    1    1    2  501    0  0.90963720592E+01  0.20110456075E+03 -0.62250592382E+03  0.65424721133E+03  0.00000000000E+00 0. -1.
          1    1    1    2  502    0 -0.64186423384E+02 -0.17832101811E+02  0.73200796945E+03  0.73503302520E+03  0.00000000000E+00 0. -1.
         22    1    3    3    0    0  0.15798905498E+02  0.14982421522E+02 -0.10437504802E+02  0.24145804524E+02  0.00000000000E+00 0.  1.
         22    1    3    3    0    0  0.39291145826E+02 -0.19825488046E+03 -0.28513663776E+03  0.34950206574E+03  0.00000000000E+00 0.  1.
</event>
<event>
 7    1  0.5537228E-006  0.1069636E+03  0.7818608E-02  0.1366638E+00
          2   -1    0    0  502    0  0.00000000000E+00  0.00000000000E+00  0.11729841111E+03  0.11729841111E+03  0.00000000000E+00 0. -1.
          1   -1    0    0  501    0 -0.00000000000E+00 -0.00000000000E+00 -0.60963013081E+03  0.60963013081E+03  0.00000000000E+00 0. -1.
         25    2    1    2    0    0  0.39494351078E+02  0.14249004649E+03 -0.51340076575E+03  0.54869731771E+03  0.12500073229E+03 0.  0.
          2    1    1    2  501    0 -0.14280509187E+02 -0.40952069179E+02 -0.38366890520E+02  0.57905295102E+02  0.00000000000E+00 0. -1.
          1    1    1    2  502    0 -0.25213841890E+02 -0.10153797731E+03  0.59435936575E+02  0.12032592910E+03  0.00000000000E+00 0. -1.
         22    1    3    3    0    0  0.62678454521E+02  0.14172182177E+03 -0.49615613440E+03  0.51979281750E+03  0.00000000000E+00 0.  1.
         22    1    3    3    0    0 -0.23184103444E+02  0.76822471968E+00 -0.17244631351E+02  0.28904500206E+02  0.00000000000E+00 0.  1.
</event>
<event>
 7    1  0.5537228E-006  0.4338419E+02  0.7818608E-02  0.1529667E+00
          2   -1    0    0  502    0  0.00000000000E+00  0.00000000000E+00  0.37253944145E+04  0.37253944145E+04  0.00000000000E+00 0. -1.
          1   -1    0    0  501    0 -0.00000000000E+00 -0.00000000000E+00 -0.45612736339E+02  0.45612736339E+02  0.00000000000E+00 0. -1.
         25    2    1    2    0    0 -0.15948360556E+02 -0.29477922850E+01  0.18761502485E+04  0.18803795742E+04  0.12499819398E+03 0.  0.
          2    1    1    2  501    0 -0.26940800212E+02 -0.17164665174E+02 -0.37287201347E+02  0.49099570578E+02  0.00000000000E+00 0. -1.
          1    1    1    2  502    0  0.42889160768E+02  0.20112457459E+02  0.18409186311E+04  0.18415280061E+04  0.00000000000E+00 0. -1.
         22    1    3    3    0    0 -0.50770051342E+02 -0.38704819243E+02  0.14341538840E+04  0.14355741096E+04  0.00000000000E+00 0.  1.
         22    1    3    3    0    0  0.34821690786E+02  0.35757026958E+02  0.44199636451E+03  0.44480546463E+03  0.00000000000E+00 0.  1.
</event>
<event>
 7    1  0.5537228E-006  0.6922644E+02  0.7818608E-02  0.1515553E+00
          2   -1    0    0  502    0  0.00000000000E+00  0.00000000000E+00  0.30706942438E+03  0.30706942438E+03  0.00000000000E+00 0. -1.
          1   -1    0    0  501    0 -0.00000000000E+00 -0.00000000000E+00 -0.12649010991E+04  0.12649010991E+04  0.00000000000E+00 0. -1.
         25    2    1    2    0    0  0.82482084534E+02 -0.14084803060E+02  0.51903294559E+02  0.15912345666E+03  0.12499858610E+03 0.  0.
          2    1    1    2  501    0 -0.14672339566E+02  0.16383926401E+02 -0.12054779833E+04  0.12056785968E+04  0.00000000000E+00 0. -1.
          1    1    1    2  502    0 -0.67809744967E+02 -0.22991233406E+01  0.19574301395E+03  0.20716847007E+03  0.00000000000E+00 0. -1.
         22    1    3    3    0    0  0.18431371762E+02  0.53436328404E+02  0.27764018732E+02  0.62976165289E+02  0.00000000000E+00 0.  1.
         22    1    3    3    0    0  0.64050712772E+02 -0.67521131464E+02  0.24139275827E+02  0.96147291372E+02  0.00000000000E+00 0.  1.
</event>
<event>
 7    1  0.5537228E-006  0.7532652E+02  0.7818608E-02  0.1367201E+00
          2   -1    0    0  502    0  0.00000000000E+00  0.00000000000E+00  0.19912202823E+04  0.19912202823E+04  0.00000000000E+00 0. -1.
          1   -1    0    0  501    0 -0.00000000000E+00 -0.00000000000E+00 -0.12686886476E+02  0.12686886476E+02  0.00000000000E+00 0. -1.
         25    2    1    2    0    0 -0.48018675562E+01  0.80968711419E+01  0.75841913791E+03  0.76870901953E+03  0.12500140277E+03 0.  0.
          2    1    1    2  501    0  0.80074722223E+02 -0.10939799803E+02  0.26332184259E+03  0.27544515451E+03  0.00000000000E+00 0. -1.
          1    1    1    2  502    0 -0.75272854667E+02  0.28429286606E+01  0.95679241532E+03  0.95975299474E+03  0.00000000000E+00 0. -1.
         22    1    3    3    0    0 -0.59221941335E+00 -0.56064271769E+02  0.46241989356E+03  0.46580651697E+03  0.00000000000E+00 0.  1.
         22    1    3    3    0    0 -0.42096481429E+01  0.64161142911E+02  0.29599924436E+03  0.30290250256E+03  0.00000000000E+00 0.  1.
</event>
<event>
 7    1  0.5537228E-006  0.1176409E+03  0.7818608E-02  0.1384780E+00
          2   -1    0    0  502    0  0.00000000000E+00  0.00000000000E+00  0.62179008452E+03  0.62179008452E+03  0.00000000000E+00 0. -1.
          1   -1    0    0  501    0 -0.00000000000E+00 -0.00000000000E+00 -0.62218649250E+03  0.62218649250E+03  0.00000000000E+00 0. -1.
         25    2    1    2    0    0  0.11720792139E+02 -0.10452957349E+03  0.17609527604E+03  0.24020450017E+03  0.12499938781E+03 0.  0.
          2    1    1    2  501    0 -0.29948998592E+02 -0.16049883538E+02 -0.58063610726E+03  0.58162946137E+03  0.00000000000E+00 0. -1.
          1    1    1    2  502    0  0.18228206453E+02  0.12057945703E+03  0.40414442324E+03  0.42214261548E+03  0.00000000000E+00 0. -1.
         22    1    3    3    0    0 -0.41356263219E+02  0.15468769378E+01  0.68658554715E+02  0.80166891366E+02  0.00000000000E+00 0. -1.
         22    1    3    3    0    0  0.53077055359E+02 -0.10607645043E+03  0.10743672133E+03  0.16003760880E+03  0.00000000000E+00 0. -1.
</event>
<event>
 7    1  0.5537228E-006  0.3112838E+03  0.7818608E-02  0.1088748E+00
          2   -1    0    0  502    0  0.00000000000E+00  0.00000000000E+00  0.10737744063E+04  0.10737744063E+04  0.00000000000E+00 0. -1.
          1   -1    0    0  501    0 -0.00000000000E+00 -0.00000000000E+00 -0.13244356242E+04  0.13244356242E+04  0.00000000000E+00 0. -1.
         25    2    1    2    0    0  0.19540559096E+02 -0.11296133965E+03 -0.11696853105E+03  0.20603031787E+03  0.12499902768E+03 0.  0.
          2    1    1    2  501    0 -0.18815100518E+03  0.37462553707E+03 -0.10998912554E+04  0.11770751325E+04  0.00000000000E+00 0. -1.
          1    1    1    2  502    0  0.16861044609E+03 -0.26166419742E+03  0.96619856859E+03  0.10151045802E+04  0.00000000000E+00 0. -1.
         22    1    3    3    0    0 -0.10647751190E+02 -0.12267478366E+03 -0.51863629651E+02  0.13361254893E+03  0.00000000000E+00 0. -1.
         22    1    3    3    0    0  0.30188310286E+02  0.97134440119E+01 -0.65104901395E+02  0.72417768939E+02  0.00000000000E+00 0. -1.
</event>
<event>
 7    1  0.5537228E-006  0.4057870E+02  0.7818608E-02  0.1569464E+00
          2   -1    0    0  502    0  0.00000000000E+00  0.00000000000E+00  0.15216129613E+04  0.15216129613E+04  0.00000000000E+00 0. -1.
          1   -1    0    0  501    0 -0.00000000000E+00 -0.00000000000E+00 -0.14271476860E+03  0.14271476860E+03  0.00000000000E+00 0. -1.
         25    2    1    2    0    0  0.38185658509E+02  0.12271727700E+02  0.72290054170E+03  0.73472330087E+03  0.12499758331E+03 0.  0.
          2    1    1    2  501    0  0.64670011689E+00 -0.26436358489E+02 -0.13498074473E+03  0.13754672195E+03  0.00000000000E+00 0. -1.
          1    1    1    2  502    0 -0.38832358626E+02  0.14164630789E+02  0.79097839574E+03  0.79205770710E+03  0.00000000000E+00 0. -1.
         22    1    3    3    0    0 -0.31258232214E+02  0.44389639280E+02  0.26979876241E+03  0.27520699365E+03  0.00000000000E+00 0.  1.
         22    1    3    3    0    0  0.69443890722E+02 -0.32117911580E+02  0.45310177930E+03  0.45951630722E+03  0.00000000000E+00 0.  1.
</event>
<event>
 7    1  0.5537228E-006  0.4442052E+02  0.7818608E-02  0.1527620E+00
          2   -1    0    0  502    0  0.00000000000E+00  0.00000000000E+00  0.18755557593E+03  0.18755557593E+03  0.00000000000E+00 0. -1.
          1   -1    0    0  501    0 -0.00000000000E+00 -0.00000000000E+00 -0.94960822452E+03  0.94960822452E+03  0.00000000000E+00 0. -1.
         25    2    1    2    0    0  0.46688069964E+02 -0.23455529725E+02 -0.98177827370E+02  0.16731496726E+03  0.12500189891E+03 0.  0.
          2    1    1    2  501    0 -0.27015652932E+02 -0.16438522890E+02 -0.81331484821E+03  0.81392942744E+03  0.00000000000E+00 0. -1.
          1    1    1    2  502    0 -0.19672417031E+02  0.39894052615E+02  0.14944002698E+03  0.15591940575E+03  0.00000000000E+00 0. -1.
         22    1    3    3    0    0 -0.18748032355E+02  0.10676536880E+02  0.19055391605E+02  0.28785154266E+02  0.00000000000E+00 0.  1.
         22    1    3    3    0    0  0.65436102318E+02 -0.34132066605E+02 -0.11723321897E+03  0.13852981300E+03  0.00000000000E+00 0.  1.
</event>
<event>
 7    1  0.5537228E-006  0.1065298E+03  0.7818608E-02  0.1271964E+00
          2   -1    0    0  502    0  0.00000000000E+00  0.00000000000E+00  0.72119871653E+03  0.72119871653E+03  0.00000000000E+00 0. -1.
          1   -1    0    0  501    0 -0.00000000000E+00 -0.00000000000E+00 -0.35924464418E+03  0.35924464418E+03  0.00000000000E+00 0. -1.
         25    2    1    2    0    0  0.29292060262E+01  0.30081114850E+02  0.10250512269E+03  0.16445493104E+03  0.12499868178E+03 0.  0.
          2    1    1    2  501    0  0.10476565218E+03  0.19306802633E+02 -0.31340246327E+03  0.33101313945E+03  0.00000000000E+00 0. -1.
          1    1    1    2  502    0 -0.10769485821E+03 -0.49387917484E+02  0.57285141293E+03  0.58497529022E+03  0.00000000000E+00 0. -1.
         22    1    3    3    0    0 -0.50917115839E+02 -0.11228680970E+02  0.74735310729E+02  0.91126300438E+02  0.00000000000E+00 0.  1.
         22    1    3    3    0    0  0.53846321865E+02  0.41309795820E+02  0.27769811960E+02  0.73328630598E+02  0.00000000000E+00 0.  1.
</event>
<event>
 7    1  0.5537228E-006  0.7760890E+02  0.7818608E-02  0.1497919E+00
          2   -1    0    0  502    0  0.00000000000E+00  0.00000000000E+00  0.26993644276E+03  0.26993644276E+03  0.00000000000E+00 0. -1.
          1   -1    0    0  501    0 -0.00000000000E+00 -0.00000000000E+00 -0.31527745408E+03  0.31527745408E+03  0.00000000000E+00 0. -1.
         25    2    1    2    0    0 -0.10715772944E+02 -0.59776011366E+02  0.42233180179E+02  0.14524457312E+03  0.12499738072E+03 0.  0.
          2    1    1    2  501    0  0.72842589480E+01 -0.20886729260E+02 -0.25401729049E+03  0.25497862607E+03  0.00000000000E+00 0. -1.
          1    1    1    2  502    0  0.34315139961E+01  0.80662740626E+02  0.16644309899E+03  0.18499069765E+03  0.00000000000E+00 0. -1.
         22    1    3    3    0    0  0.56085400939E+02 -0.16461530537E+02  0.97543999426E+01  0.59259619509E+02  0.00000000000E+00 0.  1.
         22    1    3    3    0    0 -0.66801173883E+02 -0.43314480829E+02  0.32478780236E+02  0.85984953610E+02  0.00000000000E+00 0.  1.
</event>
<event>
 7    1  0.5537228E-006  0.1413007E+03  0.7818608E-02  0.1331327E+00
          2   -1    0    0  502    0  0.00000000000E+00  0.00000000000E+00  0.75018590887E+03  0.75018590887E+03  0.00000000000E+00 0. -1.
          1   -1    0    0  501    0 -0.00000000000E+00 -0.00000000000E+00 -0.75617910424E+03  0.75617910424E+03  0.00000000000E+00 0. -1.
         25    2    1    2    0    0 -0.13408591540E+03 -0.50709156300E+02  0.29607375315E+03  0.35190248429E+03  0.12500095961E+03 0.  0.
          2    1    1    2  501    0  0.11045011093E+03  0.88290463342E+02 -0.72021480949E+03  0.73396444378E+03  0.00000000000E+00 0. -1.
          1    1    1    2  502    0  0.23635804473E+02 -0.37581307042E+02  0.41814786096E+03  0.42049808504E+03  0.00000000000E+00 0. -1.
         22    1    3    3    0    0 -0.11454251615E+03  0.20171626377E+02  0.17060548046E+03  0.20647787407E+03  0.00000000000E+00 0.  1.
         22    1    3    3    0    0 -0.19543399256E+02 -0.70880782677E+02  0.12546827269E+03  0.14542461022E+03  0.00000000000E+00 0.  1.
</event>
<event>
 7    1  0.5537228E-006  0.5201526E+02  0.7818608E-02  0.1519671E+00
          2   -1    0    0  502    0  0.00000000000E+00  0.00000000000E+00  0.34006706567E+02  0.34006706567E+02  0.00000000000E+00 0. -1.
          1   -1    0    0  501    0 -0.00000000000E+00 -0.00000000000E+00 -0.87462274711E+03  0.87462274711E+03  0.00000000000E+00 0. -1.
         25    2    1    2    0    0  0.42834773417E+02  0.13146534235E+02 -0.71951332894E+03  0.73166179261E+03  0.12498759566E+03 0.  0.
          2    1    1    2  501    0 -0.89839262947E+01  0.27018807613E+02 -0.12113889755E+03  0.12444018401E+03  0.00000000000E+00 0. -1.
          1    1    1    2  502    0 -0.33850847122E+02 -0.40165341848E+02  0.36185945950E-01  0.52527477057E+02  0.00000000000E+00 0. -1.
         22    1    3    3    0    0 -0.23801076535E+01  0.40287422110E+02 -0.76527829331E+02  0.86517339042E+02  0.00000000000E+00 0.  1.
         22    1    3    3    0    0  0.45214881070E+02 -0.27140887875E+02 -0.64298549961E+03  0.64514445357E+03  0.00000000000E+00 0.  1.
</event>
<event>
 7    1  0.5537228E-006  0.2534893E+02  0.7818608E-02  0.1670694E+00
          2   -1    0    0  502    0  0.00000000000E+00  0.00000000000E+00  0.32001713320E+02  0.32001713320E+02  0.00000000000E+00 0. -1.
          1   -1    0    0  501    0 -0.00000000000E+00 -0.00000000000E+00 -0.17446911315E+04  0.17446911315E+04  0.00000000000E+00 0. -1.
         25    2    1    2    0    0  0.34133981077E+02  0.33075761149E+02 -0.16177860619E+03  0.20989494483E+03  0.12499774321E+03 0.  0.
          2    1    1    2  501    0 -0.14193697004E+02 -0.20892414163E+02 -0.15413387871E+04  0.15415457212E+04  0.00000000000E+00 0. -1.
          1    1    1    2  502    0 -0.19940284073E+02 -0.12183346987E+02 -0.95720249242E+01  0.25252178794E+02  0.00000000000E+00 0. -1.
         22    1    3    3    0    0 -0.11687305588E+02 -0.33852808389E+02 -0.10485509989E+03  0.11080251676E+03  0.00000000000E+00 0.  1.
         22    1    3    3    0    0  0.45821286665E+02  0.66928569539E+02 -0.56923506297E+02  0.99092428072E+02  0.00000000000E+00 0.  1.
</event>
<event>
 7    1  0.5537228E-006  0.1336685E+03  0.7818608E-02  0.1281350E+00
          2   -1    0    0  502    0  0.00000000000E+00  0.00000000000E+00  0.13013340656E+04  0.13013340656E+04  0.00000000000E+00 0. -1.
          1   -1    0    0  501    0 -0.00000000000E+00 -0.00000000000E+00 -0.79761544237E+02  0.79761544237E+02  0.00000000000E+00 0. -1.
         25    2    1    2    0    0  0.45527407488E+02  0.18687704993E+03  0.69397748185E+03  0.73090611143E+03  0.12499288692E+03 0.  0.
          2    1    1    2  501    0 -0.13394819615E+00 -0.12835147127E+03  0.11565395541E+02  0.12887155036E+03  0.00000000000E+00 0. -1.
          1    1    1    2  502    0 -0.45393459292E+02 -0.58525578662E+02  0.51602964401E+03  0.52131794810E+03  0.00000000000E+00 0. -1.
         22    1    3    3    0    0  0.63217153590E+02  0.11704879021E+03  0.27158855104E+03  0.30241886326E+03  0.00000000000E+00 0.  1.
         22    1    3    3    0    0 -0.17689746102E+02  0.69828259721E+02  0.42238893081E+03  0.42848724817E+03  0.00000000000E+00 0.  1.
</event>
<event>
 7    1  0.5537228E-006  0.2294487E+03  0.7818608E-02  0.1184105E+00
          2   -1    0    0  502    0  0.00000000000E+00  0.00000000000E+00  0.80481094310E+03  0.80481094310E+03  0.00000000000E+00 0. -1.
          1   -1    0    0  501    0 -0.00000000000E+00 -0.00000000000E+00 -0.13637143784E+04  0.13637143784E+04  0.00000000000E+00 0. -1.
         25    2    1    2    0    0  0.25640982842E+03  0.94183621900E+02 -0.37230674661E+03  0.47838054065E+03  0.12497629118E+03 0.  0.
          2    1    1    2  501    0 -0.15785943188E+03 -0.15801108349E+03 -0.92034595121E+03  0.94706059608E+03  0.00000000000E+00 0. -1.
          1    1    1    2  502    0 -0.98550396536E+02  0.63827461594E+02  0.73374926249E+03  0.74308418481E+03  0.00000000000E+00 0. -1.
         22    1    3    3    0    0  0.25028774017E+03  0.10429847315E+03 -0.37805063958E+03  0.46523586541E+03  0.00000000000E+00 0. -1.
         22    1    3    3    0    0  0.61220882546E+01 -0.10114851252E+02  0.57438929759E+01  0.13144675233E+02  0.00000000000E+00 0. -1.
</event>
<event>
 7    1  0.5537228E-006  0.5460774E+02  0.7818608E-02  0.1445649E+00
          2   -1    0    0  502    0  0.00000000000E+00  0.00000000000E+00  0.17680090267E+04  0.17680090267E+04  0.00000000000E+00 0. -1.
          1   -1    0    0  501    0 -0.00000000000E+00 -0.00000000000E+00 -0.14911166911E+02  0.14911166911E+02  0.00000000000E+00 0. -1.
         25    2    1    2    0    0 -0.55922401068E+02 -0.40633897429E+01  0.12081555787E+04  0.12158980760E+04  0.12499761157E+03 0.  0.
          2    1    1    2  501    0  0.33944683422E+02  0.44105214527E+02  0.67885221353E+02  0.87783339873E+02  0.00000000000E+00 0. -1.
          1    1    1    2  502    0  0.21977717646E+02 -0.40041824784E+02  0.47705705977E+03  0.47923877773E+03  0.00000000000E+00 0. -1.
         22    1    3    3    0    0 -0.85725113308E+02 -0.18365874012E+02  0.55275395546E+03  0.55966332349E+03  0.00000000000E+00 0. -1.
         22    1    3    3    0    0  0.29802712240E+02  0.14302484269E+02  0.65540162320E+03  0.65623475252E+03  0.00000000000E+00 0. -1.
</event>
<event>
 7    1  0.5537228E-006  0.6728479E+02  0.7818608E-02  0.1421321E+00
          2   -1    0    0  502    0  0.00000000000E+00  0.00000000000E+00  0.38382985927E+03  0.38382985927E+03  0.00000000000E+00 0. -1.
          1   -1    0    0  501    0 -0.00000000000E+00 -0.00000000000E+00 -0.35546150060E+03  0.35546150060E+03  0.00000000000E+00 0. -1.
         25    2    1    2    0    0  0.13187542835E+02 -0.84294707173E+02  0.19529423407E+03  0.24707121986E+03  0.12499936352E+03 0.  0.
          2    1    1    2  501    0 -0.43243541670E+02  0.51427100911E+02 -0.32300041360E+03  0.32991516757E+03  0.00000000000E+00 0. -1.
          1    1    1    2  502    0  0.30055998834E+02  0.32867606262E+02  0.15607453819E+03  0.16230497244E+03  0.00000000000E+00 0. -1.
         22    1    3    3    0    0  0.18289317663E+02 -0.11767368798E+02 -0.13759474870E+02  0.25735058922E+02  0.00000000000E+00 0.  1.
         22    1    3    3    0    0 -0.51017748276E+01 -0.72527338375E+02  0.20905370894E+03  0.22133616094E+03  0.00000000000E+00 0.  1.
</event>
<event>
 7    1  0.5537228E-006  0.6247965E+02  0.7818608E-02  0.1401651E+00
          2   -1    0    0  502    0  0.00000000000E+00  0.00000000000E+00  0.89955779666E+03  0.89955779666E+03  0.00000000000E+00 0. -1.
          1   -1    0    0  501    0 -0.00000000000E+00 -0.00000000000E+00 -0.15903689371E+04  0.15903689371E+04  0.00000000000E+00 0. -1.
         25    2    1    2    0    0  0.55979467353E+02 -0.68690841332E+01 -0.19702459155E+02  0.13854223483E+03  0.12499951541E+03 0.  0.
          2    1    1    2  501    0 -0.28896920920E+02  0.55772704759E+02 -0.15096628386E+04  0.15109690642E+04  0.00000000000E+00 0. -1.
          1    1    1    2  502    0 -0.27082546433E+02 -0.48903620626E+02  0.83855415726E+03  0.84041543482E+03  0.00000000000E+00 0. -1.
         22    1    3    3    0    0  0.17618576070E+02  0.35970823911E+02 -0.57245647476E+02  0.69866863036E+02  0.00000000000E+00 0.  1.
         22    1    3    3    0    0  0.38360891283E+02 -0.42839908044E+02  0.37543188320E+02  0.68675371790E+02  0.00000000000E+00 0.  1.
</event>
<event>
 7    1  0.5537228E-006  0.8790936E+02  0.7818608E-02  0.1340176E+00
          2   -1    0    0  502    0  0.00000000000E+00  0.00000000000E+00  0.29440315607E+03  0.29440315607E+03  0.00000000000E+00 0. -1.
          1   -1    0    0  501    0 -0.00000000000E+00 -0.00000000000E+00 -0.13714081869E+03  0.13714081869E+03  0.00000000000E+00 0. -1.
         25    2    1    2    0    0 -0.62976000003E+02 -0.53421203716E+01  0.33348634908E+02  0.14398501403E+03  0.12500015195E+03 0.  0.
          2    1    1    2  501    0 -0.22899122517E+01 -0.66021629492E+02 -0.53825782010E+02  0.85213344424E+02  0.00000000000E+00 0. -1.
          1    1    1    2  502    0  0.65265912254E+02  0.71363749864E+02  0.17773948448E+03  0.20234561631E+03  0.00000000000E+00 0. -1.
         22    1    3    3    0    0 -0.69892351621E+02  0.56612354678E+01 -0.32199499522E+02  0.77160859065E+02  0.00000000000E+00 0. -1.
         22    1    3    3    0    0  0.69163516188E+01 -0.11003355839E+02  0.65548134430E+02  0.66824154965E+02  0.00000000000E+00 0. -1.
</event>
<event>
 7    1  0.5537228E-006  0.7304651E+02  0.7818608E-02  0.1507222E+00
          2   -1    0    0  502    0  0.00000000000E+00  0.00000000000E+00  0.11039825782E+03  0.11039825782E+03  0.00000000000E+00 0. -1.
          1   -1    0    0  501    0 -0.00000000000E+00 -0.00000000000E+00 -0.51365968567E+03  0.51365968567E+03  0.00000000000E+00 0. -1.
         25    2    1    2    0    0  0.83481925757E+02  0.90713863008E-01 -0.36207463868E+03  0.39203756133E+03  0.12500466137E+03 0.  0.
          2    1    1    2  501    0 -0.12974318909E+02  0.17831093661E+02 -0.12159945158E+03  0.12358279604E+03  0.00000000000E+00 0. -1.
          1    1    1    2  502    0 -0.70507606848E+02 -0.17921807524E+02  0.80412662401E+02  0.10843758612E+03  0.00000000000E+00 0. -1.
         22    1    3    3    0    0  0.36068817259E+01  0.45993603064E+02 -0.20332332198E+03  0.20849171298E+03  0.00000000000E+00 0.  1.
         22    1    3    3    0    0  0.79875044031E+02 -0.45902889201E+02 -0.15875131669E+03  0.18354584835E+03  0.00000000000E+00 0.  1.
</event>
<event>
 7    1  0.5537228E-006  0.5015959E+02  0.7818608E-02  0.1499281E+00
          2   -1    0    0  502    0  0.00000000000E+00  0.00000000000E+00  0.37531744735E+03  0.37531744735E+03  0.00000000000E+00 0. -1.
          1   -1    0    0  501    0 -0.00000000000E+00 -0.00000000000E+00 -0.12728983964E+04  0.12728983964E+04  0.00000000000E+00 0. -1.
         25    2    1    2    0    0 -0.49664520317E+02  0.70067065175E+01 -0.37987124912E+02  0.13994118728E+03  0.12499942289E+03 0.  0.
          2    1    1    2  501    0  0.42901300155E+02  0.26218098851E+02 -0.11825124551E+04  0.11835808451E+04  0.00000000000E+00 0. -1.
          1    1    1    2  502    0  0.67632201617E+01 -0.33224805368E+02  0.32291863106E+03  0.32469381134E+03  0.00000000000E+00 0. -1.
         22    1    3    3    0    0 -0.30517075363E+02 -0.51113420087E+02 -0.49805559687E+02  0.77617442481E+02  0.00000000000E+00 0.  1.
         22    1    3    3    0    0 -0.19147444954E+02  0.58120126604E+02  0.11818434775E+02  0.62323744795E+02  0.00000000000E+00 0.  1.
</event>
<event>
 7    1  0.8016789E-006  0.7196029E+02  0.7818608E-02  0.1459075E+00
          2   -1    0    0  502    0  0.00000000000E+00  0.00000000000E+00  0.59631628932E+03  0.59631628932E+03  0.00000000000E+00 0. -1.
          1   -1    0    0  501    0 -0.00000000000E+00 -0.00000000000E+00 -0.15228942523E+04  0.15228942523E+04  0.00000000000E+00 0. -1.
         25    2    1    2    0    0  0.43846509551E+02 -0.13726566219E+02 -0.23369951647E+03  0.26898156781E+03  0.12499873919E+03 0.  0.
          2    1    1    2  501    0  0.15610615028E+02 -0.27253941411E+02 -0.12691058626E+04  0.12694944502E+04  0.00000000000E+00 0. -1.
          1    1    1    2  502    0 -0.59457124579E+02  0.40980507630E+02  0.57622741617E+03  0.58073452352E+03  0.00000000000E+00 0. -1.
         22    1    3    3    0    0 -0.39917814181E+02  0.11793812707E+02 -0.47093399156E+02  0.62851524653E+02  0.00000000000E+00 0.  1.
         22    1    3    3    0    0  0.83764323731E+02 -0.25520378926E+02 -0.18660611732E+03  0.20613004315E+03  0.00000000000E+00 0.  1.
</event>
<event>
 7    1  0.5537228E-006  0.3887985E+02  0.7818608E-02  0.1547093E+00
          2   -1    0    0  502    0  0.00000000000E+00  0.00000000000E+00  0.14290748535E+04  0.14290748535E+04  0.00000000000E+00 0. -1.
          1   -1    0    0  501    0 -0.00000000000E+00 -0.00000000000E+00 -0.87577122701E+03  0.87577122701E+03  0.00000000000E+00 0. -1.
         25    2    1    2    0    0  0.56312286021E+02 -0.33751656237E+02  0.31688531096E+03  0.34691637404E+03  0.12499768965E+03 0.  0.
          2    1    1    2  501    0 -0.18820521412E+02  0.25650897997E+02 -0.86012627348E+03  0.86071446306E+03  0.00000000000E+00 0. -1.
          1    1    1    2  502    0 -0.37491764609E+02  0.81007582399E+01  0.10965445890E+04  0.10972152434E+04  0.00000000000E+00 0. -1.
         22    1    3    3    0    0  0.53176659920E+02  0.39238427153E+02  0.12134367710E+03  0.13817271546E+03  0.00000000000E+00 0.  1.
         22    1    3    3    0    0  0.31356261010E+01 -0.72990083390E+02  0.19554163385E+03  0.20874365857E+03  0.00000000000E+00 0.  1.
</event>
<event>
 7    1  0.5537228E-006  0.3943914E+02  0.7818608E-02  0.1543278E+00
          2   -1    0    0  502    0  0.00000000000E+00  0.00000000000E+00  0.13673296660E+04  0.13673296660E+04  0.00000000000E+00 0. -1.
          1   -1    0    0  501    0 -0.00000000000E+00 -0.00000000000E+00 -0.43227980986E+02  0.43227980986E+02  0.00000000000E+00 0. -1.
         25    2    1    2    0    0 -0.48306264137E+02 -0.29857983439E+02  0.32304764087E+03  0.35102581773E+03  0.12503740284E+03 0.  0.
          2    1    1    2  501    0  0.16638429840E+02  0.35386354545E+02 -0.15796703808E+02  0.42173063520E+02  0.00000000000E+00 0. -1.
          1    1    1    2  502    0  0.31667834298E+02 -0.55283711056E+01  0.10168507479E+04  0.10173587657E+04  0.00000000000E+00 0. -1.
         22    1    3    3    0    0 -0.15138077690E+02 -0.25802162898E+02  0.31531063518E+03  0.31672655346E+03  0.00000000000E+00 0. -1.
         22    1    3    3    0    0 -0.33168186447E+02 -0.40558205417E+01  0.77370056890E+01  0.34299264271E+02  0.00000000000E+00 0. -1.
</event>
<event>
 7    1  0.5537228E-006  0.6565024E+02  0.7818608E-02  0.1471912E+00
          2   -1    0    0  502    0  0.00000000000E+00  0.00000000000E+00  0.36963462110E+02  0.36963462110E+02  0.00000000000E+00 0. -1.
          1   -1    0    0  501    0 -0.00000000000E+00 -0.00000000000E+00 -0.11256551901E+04  0.11256551901E+04  0.00000000000E+00 0. -1.
         25    2    1    2    0    0  0.11798781113E+02 -0.92261756220E+02 -0.43414872783E+03  0.46127244049E+03  0.12504280701E+03 0.  0.
          2    1    1    2  501    0 -0.11519615916E+02  0.29193823534E+02 -0.63434707194E+03  0.63512297121E+03  0.00000000000E+00 0. -1.
          1    1    1    2  502    0 -0.27916519764E+00  0.63067932686E+02 -0.20195928222E+02  0.66223240507E+02  0.00000000000E+00 0. -1.
         22    1    3    3    0    0 -0.49708548254E+02 -0.61191169792E+02 -0.30340760515E+03  0.31348281275E+03  0.00000000000E+00 0. -1.
         22    1    3    3    0    0  0.61507329367E+02 -0.31070586428E+02 -0.13074112268E+03  0.14778962774E+03  0.00000000000E+00 0. -1.
</event>
<event>
 7    1  0.5537228E-006  0.5269118E+02  0.7818608E-02  0.1482703E+00
          2   -1    0    0  502    0  0.00000000000E+00  0.00000000000E+00  0.29787653405E+04  0.29787653405E+04  0.00000000000E+00 0. -1.
          1   -1    0    0  501    0 -0.00000000000E+00 -0.00000000000E+00 -0.76158185146E+02  0.76158185146E+02  0.00000000000E+00 0. -1.
         25    2    1    2    0    0 -0.63337308735E+02 -0.27484047740E+02  0.76272786124E+03  0.77598009974E+03  0.12499734923E+03 0.  0.
          2    1    1    2  501    0  0.30530189372E+02  0.42839889247E+02 -0.59411636370E+02  0.79354212931E+02  0.00000000000E+00 0. -1.
          1    1    1    2  502    0  0.32807119363E+02 -0.15355841507E+02  0.21992909305E+04  0.21995892130E+04  0.00000000000E+00 0. -1.
         22    1    3    3    0    0 -0.57361148170E+02 -0.16992594859E+02  0.12965051837E+03  0.14278762731E+03  0.00000000000E+00 0.  1.
         22    1    3    3    0    0 -0.59761605646E+01 -0.10491452881E+02  0.63307734287E+03  0.63319247243E+03  0.00000000000E+00 0.  1.
</event>
<event>
 7    1  0.5537228E-006  0.3697897E+02  0.7818608E-02  0.1543116E+00
          2   -1    0    0  502    0  0.00000000000E+00  0.00000000000E+00  0.16373931118E+04  0.16373931118E+04  0.00000000000E+00 0. -1.
          1   -1    0    0  501    0 -0.00000000000E+00 -0.00000000000E+00 -0.12900063393E+02  0.12900063393E+02  0.00000000000E+00 0. -1.
         25    2    1    2    0    0  0.49948912406E+02  0.68307569067E+01  0.86036108406E+03  0.87085430372E+03  0.12499788095E+03 0.  0.
          2    1    1    2  501    0 -0.19791759671E+02 -0.28040012503E+02  0.33778413043E+02  0.48155344872E+02  0.00000000000E+00 0. -1.
          1    1    1    2  502    0 -0.30157152735E+02  0.21209255596E+02  0.73035355132E+03  0.73128352663E+03  0.00000000000E+00 0. -1.
         22    1    3    3    0    0  0.69240431187E+02 -0.42706822565E+02  0.54682581248E+03  0.55284408218E+03  0.00000000000E+00 0.  1.
         22    1    3    3    0    0 -0.19291518781E+02  0.49537579472E+02  0.31353527158E+03  0.31801022154E+03  0.00000000000E+00 0.  1.
</event>
<event>
 7    1  0.5537228E-006  0.1256131E+03  0.7818608E-02  0.1392627E+00
          2   -1    0    0  502    0  0.00000000000E+00  0.00000000000E+00  0.56723241713E+03  0.56723241713E+03  0.00000000000E+00 0. -1.
          1   -1    0    0  501    0 -0.00000000000E+00 -0.00000000000E+00 -0.90656088289E+02  0.90656088289E+02  0.00000000000E+00 0. -1.
         25    2    1    2    0    0 -0.92542672627E+02 -0.88663596102E+02  0.25792766925E+03  0.31396712628E+03  0.12499317698E+03 0.  0.
          2    1    1    2  501    0  0.68003239304E+02  0.10570084986E+03  0.24931710781E+01  0.12571128080E+03  0.00000000000E+00 0. -1.
          1    1    1    2  502    0  0.24539433322E+02 -0.17037253759E+02  0.21615548851E+03  0.21821009834E+03  0.00000000000E+00 0. -1.
         22    1    3    3    0    0  0.27406804124E+02 -0.42287796367E+02  0.75065739344E+02  0.90411591386E+02  0.00000000000E+00 0. -1.
         22    1    3    3    0    0 -0.11994947675E+03 -0.46375799735E+02  0.18286192990E+03  0.22355553490E+03  0.00000000000E+00 0. -1.
</event>
<event>
 7    1  0.5537228E-006  0.6260477E+02  0.7818608E-02  0.1418152E+00
          2   -1    0    0  502    0  0.00000000000E+00  0.00000000000E+00  0.70861931850E+03  0.70861931850E+03  0.00000000000E+00 0. -1.
          1   -1    0    0  501    0 -0.00000000000E+00 -0.00000000000E+00 -0.67248607701E+03  0.67248607701E+03  0.00000000000E+00 0. -1.
         25    2    1    2    0    0 -0.84548581748E+02  0.65510853010E+02 -0.21807842773E+03  0.27317266716E+03  0.12499988362E+03 0.  0.
          2    1    1    2  501    0  0.27312901135E+02 -0.40740706666E+02 -0.42401610745E+03  0.42684360031E+03  0.00000000000E+00 0. -1.
          1    1    1    2  502    0  0.57235680613E+02 -0.24770146344E+02  0.67822777667E+03  0.68108912803E+03  0.00000000000E+00 0. -1.
         22    1    3    3    0    0 -0.43731576153E+02  0.96694323887E+02 -0.18101914130E+03  0.20983367828E+03  0.00000000000E+00 0.  1.
         22    1    3    3    0    0 -0.40817005595E+02 -0.31183470877E+02 -0.37059286431E+02  0.63338988881E+02  0.00000000000E+00 0.  1.
</event>
<event>
 7    1  0.5537228E-006  0.3609989E+02  0.7818608E-02  0.1572869E+00
          2   -1    0    0  502    0  0.00000000000E+00  0.00000000000E+00  0.39304129985E+03  0.39304129985E+03  0.00000000000E+00 0. -1.
          1   -1    0    0  501    0 -0.00000000000E+00 -0.00000000000E+00 -0.67090433360E+03  0.67090433360E+03  0.00000000000E+00 0. -1.
         25    2    1    2    0    0  0.50928491809E+02  0.83532572312E+01 -0.48080954298E+02  0.14352825757E+03  0.12500037748E+03 0.  0.
          2    1    1    2  501    0 -0.26584524167E+02 -0.24295568495E+02 -0.57392125242E+03  0.57505009830E+03  0.00000000000E+00 0. -1.
          1    1    1    2  502    0 -0.24343967642E+02  0.15942311264E+02  0.34413917297E+03  0.34536727758E+03  0.00000000000E+00 0. -1.
         22    1    3    3    0    0  0.38203323151E+02  0.43608243628E+02 -0.76859340431E+02  0.96273210311E+02  0.00000000000E+00 0. -1.
         22    1    3    3    0    0  0.12725168657E+02 -0.35254986396E+02  0.28778386133E+02  0.47255047261E+02  0.00000000000E+00 0. -1.
</event>
<event>
 7    1  0.5537228E-006  0.3841900E+02  0.7818608E-02  0.1560911E+00
          2   -1    0    0  502    0  0.00000000000E+00  0.00000000000E+00  0.14904199967E+04  0.14904199967E+04  0.00000000000E+00 0. -1.
          1   -1    0    0  501    0 -0.00000000000E+00 -0.00000000000E+00 -0.63599392220E+03  0.63599392220E+03  0.00000000000E+00 0. -1.
         25    2    1    2    0    0 -0.54869806369E+02 -0.32734950409E+02 -0.17982566870E+03  0.22813261932E+03  0.12499979298E+03 0.  0.
          2    1    1    2  501    0  0.36326272880E+02  0.98227652005E+01 -0.43104681199E+03  0.43268630547E+03  0.00000000000E+00 0. -1.
          1    1    1    2  502    0  0.18543533489E+02  0.22912185209E+02  0.14652985552E+04  0.14655949941E+04  0.00000000000E+00 0. -1.
         22    1    3    3    0    0  0.64823346746E+01  0.41257500113E+02 -0.75474773133E+02  0.86259163907E+02  0.00000000000E+00 0. -1.
         22    1    3    3    0    0 -0.61352141044E+02 -0.73992450523E+02 -0.10435089557E+03  0.14187345541E+03  0.00000000000E+00 0. -1.
</event>
<event>
 7    1  0.5537228E-006  0.4708794E+02  0.7818608E-02  0.1560831E+00
          2   -1    0    0  502    0  0.00000000000E+00  0.00000000000E+00  0.18646255907E+03  0.18646255907E+03  0.00000000000E+00 0. -1.
          1   -1    0    0  501    0 -0.00000000000E+00 -0.00000000000E+00 -0.26105504917E+03  0.26105504917E+03  0.00000000000E+00 0. -1.
         25    2    1    2    0    0 -0.93299948801E+01 -0.23502641326E+02 -0.13720383875E+03  0.18732251521E+03  0.12500163352E+03 0.  0.
          2    1    1    2  501    0 -0.19066814515E+02 -0.14676960908E+02 -0.93732159458E+02  0.96771247351E+02  0.00000000000E+00 0. -1.
          1    1    1    2  502    0  0.28396809395E+02  0.38179602234E+02  0.15634350811E+03  0.16342384568E+03  0.00000000000E+00 0. -1.
         22    1    3    3    0    0 -0.27806938227E+02 -0.71060311413E+02 -0.87391754965E+02  0.11601772497E+03  0.00000000000E+00 0.  1.
         22    1    3    3    0    0  0.18476943347E+02  0.47557670087E+02 -0.49812083784E+02  0.71304790235E+02  0.00000000000E+00 0.  1.
</event>
<event>
 7    1  0.5537228E-006  0.9789089E+02  0.7818608E-02  0.1339429E+00
          2   -1    0    0  502    0  0.00000000000E+00  0.00000000000E+00  0.21059255390E+03  0.21059255390E+03  0.00000000000E+00 0. -1.
          1   -1    0    0  501    0 -0.00000000000E+00 -0.00000000000E+00 -0.51867413254E+03  0.51867413254E+03  0.00000000000E+00 0. -1.
         25    2    1    2    0    0  0.78815494382E+02 -0.74108136014E+02 -0.19001101674E+03  0.25186361547E+03  0.12500878504E+03 0.  0.
          2    1    1    2  501    0 -0.97301043254E+02  0.17331146123E+02 -0.28418639366E+03  0.30088165113E+03  0.00000000000E+00 0. -1.
          1    1    1    2  502    0  0.18485548872E+02  0.56776989891E+02  0.16611583176E+03  0.17652141983E+03  0.00000000000E+00 0. -1.
         22    1    3    3    0    0 -0.42101398699E+01  0.59175069412E+00  0.16525925930E+02  0.17064046251E+02  0.00000000000E+00 0.  1.
         22    1    3    3    0    0  0.83025634252E+02 -0.74699886708E+02 -0.20653694267E+03  0.23479956922E+03  0.00000000000E+00 0.  1.
</event>
<event>
 7    1  0.5537228E-006  0.9194635E+02  0.7818608E-02  0.1376237E+00
          2   -1    0    0  502    0  0.00000000000E+00  0.00000000000E+00  0.27908582975E+03  0.27908582975E+03  0.00000000000E+00 0. -1.
          1   -1    0    0  501    0 -0.00000000000E+00 -0.00000000000E+00 -0.48983104896E+03  0.48983104896E+03  0.00000000000E+00 0. -1.
         25    2    1    2    0    0  0.71516752673E+02  0.47551664566E+02 -0.12863834551E+03  0.19886510326E+03  0.12499479447E+03 0.  0.
          2    1    1    2  501    0 -0.94746813901E+02 -0.71451284306E+01 -0.31681723899E+03  0.33075848368E+03  0.00000000000E+00 0. -1.
          1    1    1    2  502    0  0.23230061228E+02 -0.40406536136E+02  0.23471036530E+03  0.23929329177E+03  0.00000000000E+00 0. -1.
         22    1    3    3    0    0  0.11992429173E+02  0.43893907154E+02  0.11183037762E+02  0.46856736723E+02  0.00000000000E+00 0. -1.
         22    1    3    3    0    0  0.59524323499E+02  0.36577574125E+01 -0.13982138327E+03  0.15200836654E+03  0.00000000000E+00 0. -1.
</event>
<event>
 7    1  0.5537228E-006  0.1080821E+03  0.7818608E-02  0.1315151E+00
          2   -1    0    0  502    0  0.00000000000E+00  0.00000000000E+00  0.18173978595E+04  0.18173978595E+04  0.00000000000E+00 0. -1.
          1   -1    0    0  501    0 -0.00000000000E+00 -0.00000000000E+00 -0.20127236957E+03  0.20127236957E+03  0.00000000000E+00 0. -1.
         25    2    1    2    0    0 -0.31896149620E+02 -0.39739637606E+02 -0.54376899209E+02  0.14551838636E+03  0.12498860125E+03 0.  0.
          2    1    1    2  501    0 -0.66629765089E+02 -0.71948073748E+01 -0.88363940113E+02  0.11090300610E+03  0.00000000000E+00 0. -1.
          1    1    1    2  502    0  0.98525914709E+02  0.46934444981E+02  0.17588663292E+04  0.17622488366E+04  0.00000000000E+00 0. -1.
         22    1    3    3    0    0 -0.14181673693E+02 -0.74042221250E+02 -0.70932015086E+02  0.10351193729E+03  0.00000000000E+00 0. -1.
         22    1    3    3    0    0 -0.17714475927E+02  0.34302583644E+02  0.16555115877E+02  0.42006449073E+02  0.00000000000E+00 0. -1.
</event>
<event>
 7    1  0.5537228E-006  0.3095771E+03  0.7818608E-02  0.1290023E+00
          2   -1    0    0  502    0  0.00000000000E+00  0.00000000000E+00  0.19546512947E+04  0.19546512947E+04  0.00000000000E+00 0. -1.
          1   -1    0    0  501    0 -0.00000000000E+00 -0.00000000000E+00 -0.12646369625E+04  0.12646369625E+04  0.00000000000E+00 0. -1.
         25    2    1    2    0    0  0.87655403105E+00  0.30533693359E+03 -0.32385822883E+03  0.46232056817E+03  0.12499897604E+03 0.  0.
          2    1    1    2  501    0 -0.29937027836E+02 -0.31022604741E+03 -0.84356374800E+03  0.89929762763E+03  0.00000000000E+00 0. -1.
          1    1    1    2  502    0  0.29060473805E+02  0.48891138251E+01  0.18574363090E+04  0.18576700613E+04  0.00000000000E+00 0. -1.
         22    1    3    3    0    0  0.20069244502E+02  0.26795790625E+03 -0.21024089741E+03  0.34118242780E+03  0.00000000000E+00 0.  1.
         22    1    3    3    0    0 -0.19192690471E+02  0.37379027334E+02 -0.11361733142E+03  0.12113814037E+03  0.00000000000E+00 0.  1.
</event>
<event>
 7    1  0.5537228E-006  0.5942864E+02  0.7818608E-02  0.1422002E+00
          2   -1    0    0  502    0  0.00000000000E+00  0.00000000000E+00  0.15666567740E+04  0.15666567740E+04  0.00000000000E+00 0. -1.
          1   -1    0    0  501    0 -0.00000000000E+00 -0.00000000000E+00 -0.51255644078E+02  0.51255644078E+02  0.00000000000E+00 0. -1.
         25    2    1    2    0    0 -0.66997812134E+00 -0.92177193854E+02  0.33867377075E+03  0.37259073696E+03  0.12500740111E+03 0.  0.
          2    1    1    2  501    0 -0.27706850101E+02  0.50812201883E+02 -0.89677418751E+01  0.58565944003E+02  0.00000000000E+00 0. -1.
          1    1    1    2  502    0  0.28376828222E+02  0.41364991972E+02  0.11856951011E+04  0.11867557372E+04  0.00000000000E+00 0. -1.
         22    1    3    3    0    0 -0.30210837000E+02 -0.10144899302E+03  0.16399721553E+03  0.19519139212E+03  0.00000000000E+00 0.  1.
         22    1    3    3    0    0  0.29540858879E+02  0.92717991667E+01  0.17467655523E+03  0.17739934484E+03  0.00000000000E+00 0.  1.
</event>
<event>
 7    1  0.5537228E-006  0.6400111E+02  0.7818608E-02  0.1451252E+00
          2   -1    0    0  502    0  0.00000000000E+00  0.00000000000E+00  0.20611849161E+03  0.20611849161E+03  0.00000000000E+00 0. -1.
          1   -1    0    0  501    0 -0.00000000000E+00 -0.00000000000E+00 -0.77709460409E+03  0.77709460409E+03  0.00000000000E+00 0. -1.
         25    2    1    2    0    0 -0.28244442810E+01  0.35787129859E+02 -0.46044552374E+03  0.47845963021E+03  0.12499936505E+03 0.  0.
          2    1    1    2  501    0 -0.32911994488E+02  0.17750059841E+02 -0.30119982924E+03  0.30351211037E+03  0.00000000000E+00 0. -1.
          1    1    1    2  502    0  0.35736438769E+02 -0.53537189700E+02  0.19066924050E+03  0.20124135512E+03  0.00000000000E+00 0. -1.
         22    1    3    3    0    0 -0.33307302065E+02  0.34515601824E+02 -0.59826662442E+02  0.76680719083E+02  0.00000000000E+00 0.  1.
         22    1    3    3    0    0  0.30482857784E+02  0.12715280355E+01 -0.40061886129E+03  0.40177891113E+03  0.00000000000E+00 0.  1.
</event>
<event>
 7    1  0.5537228E-006  0.2375282E+02  0.7818608E-02  0.1684348E+00
          2   -1    0    0  502    0  0.00000000000E+00  0.00000000000E+00  0.99960742307E+03  0.99960742307E+03  0.00000000000E+00 0. -1.
          1   -1    0    0  501    0 -0.00000000000E+00 -0.00000000000E+00 -0.65855913476E+02  0.65855913476E+02  0.00000000000E+00 0. -1.
         25    2    1    2    0    0  0.35879696039E+02  0.29668917703E+02  0.30030303199E+03  0.32859559435E+03  0.12500222535E+03 0.  0.
          2    1    1    2  501    0 -0.18252897007E+02 -0.14234784996E+02 -0.48908056217E+02  0.54109105666E+02  0.00000000000E+00 0. -1.
          1    1    1    2  502    0 -0.17626799032E+02 -0.15434132707E+02  0.68235653383E+03  0.68275863653E+03  0.00000000000E+00 0. -1.
         22    1    3    3    0    0  0.64922141255E+02 -0.26526793376E+02  0.15873805240E+03  0.17354055569E+03  0.00000000000E+00 0.  1.
         22    1    3    3    0    0 -0.29042445216E+02  0.56195711079E+02  0.14156497959E+03  0.15505503866E+03  0.00000000000E+00 0.  1.
</event>
<event>
 7    1  0.5537228E-006  0.4726873E+02  0.7818608E-02  0.1522482E+00
          2   -1    0    0  502    0  0.00000000000E+00  0.00000000000E+00  0.17512624521E+03  0.17512624521E+03  0.00000000000E+00 0. -1.
          1   -1    0    0  501    0 -0.00000000000E+00 -0.00000000000E+00 -0.12479293188E+04  0.12479293188E+04  0.00000000000E+00 0. -1.
         25    2    1    2    0    0  0.13987677953E+02  0.36551345580E+02 -0.73249442754E+03  0.74411338556E+03  0.12499995280E+03 0.  0.
          2    1    1    2  501    0  0.27505712736E+02 -0.13747356440E+02 -0.50583941668E+03  0.50677319336E+03  0.00000000000E+00 0. -1.
          1    1    1    2  502    0 -0.41493390688E+02 -0.22803989140E+02  0.16553077064E+03  0.17216898507E+03  0.00000000000E+00 0. -1.
         22    1    3    3    0    0 -0.94651816849E+01 -0.18299205123E+02 -0.58000470765E+03  0.58037049500E+03  0.00000000000E+00 0. -1.
         22    1    3    3    0    0  0.23452859638E+02  0.54850550703E+02 -0.15248971989E+03  0.16374289056E+03  0.00000000000E+00 0. -1.
</event>
<event>
 7    1  0.5537228E-006  0.6509417E+02  0.7818608E-02  0.1466060E+00
          2   -1    0    0  502    0  0.00000000000E+00  0.00000000000E+00  0.68131696109E+03  0.68131696109E+03  0.00000000000E+00 0. -1.
          1   -1    0    0  501    0 -0.00000000000E+00 -0.00000000000E+00 -0.13127172770E+04  0.13127172770E+04  0.00000000000E+00 0. -1.
         25    2    1    2    0    0  0.96415111221E+01 -0.89401435448E+02 -0.73784464519E+02  0.17074405968E+03  0.12499524517E+03 0.  0.
          2    1    1    2  501    0  0.14934432259E+02  0.29437875014E+02 -0.11885642299E+04  0.11890225205E+04  0.00000000000E+00 0. -1.
          1    1    1    2  502    0 -0.24575943381E+02  0.59963560434E+02  0.63094837848E+03  0.63426765791E+03  0.00000000000E+00 0. -1.
         22    1    3    3    0    0 -0.19852089913E+02 -0.11322711431E+03 -0.64074627038E+02  0.13160563331E+03  0.00000000000E+00 0.  1.
         22    1    3    3    0    0  0.29493601036E+02  0.23825678857E+02 -0.97098374818E+01  0.39138426373E+02  0.00000000000E+00 0.  1.
</event>
<event>
 7    1  0.5569703E-006  0.4948912E+02  0.7818608E-02  0.1507946E+00
          2   -1    0    0  502    0  0.00000000000E+00  0.00000000000E+00  0.50683941246E+03  0.50683941246E+03  0.00000000000E+00 0. -1.
          1   -1    0    0  501    0 -0.00000000000E+00 -0.00000000000E+00 -0.23176487526E+04  0.23176487526E+04  0.00000000000E+00 0. -1.
         25    2    1    2    0    0  0.35453682102E+02  0.53250701307E+02 -0.36092666370E+03  0.38727748786E+03  0.12499278089E+03 0.  0.
          2    1    1    2  501    0  0.88124263260E+01 -0.31166697346E+02 -0.19421720149E+04  0.19424420602E+04  0.00000000000E+00 0. -1.
          1    1    1    2  502    0 -0.44266108428E+02 -0.22084003961E+02  0.49228933845E+03  0.49476861697E+03  0.00000000000E+00 0. -1.
         22    1    3    3    0    0  0.73816790016E+02  0.31058269613E+02 -0.13435863765E+03  0.15641540241E+03  0.00000000000E+00 0. -1.
         22    1    3    3    0    0 -0.38363107915E+02  0.22192431695E+02 -0.22656802605E+03  0.23086208546E+03  0.00000000000E+00 0. -1.
</event>
<event>
 7    1  0.5537228E-006  0.4676699E+02  0.7818608E-02  0.1508827E+00
          2   -1    0    0  502    0  0.00000000000E+00  0.00000000000E+00  0.24196024929E+03  0.24196024929E+03  0.00000000000E+00 0. -1.
          1   -1    0    0  501    0 -0.00000000000E+00 -0.00000000000E+00 -0.68903578661E+02  0.68903578661E+02  0.00000000000E+00 0. -1.
         25    2    1    2    0    0 -0.32587659950E+02 -0.16396260204E+02  0.17375819824E+03  0.21713491737E+03  0.12499947183E+03 0.  0.
          2    1    1    2  501    0  0.48403255623E+02 -0.13779696088E+02  0.19669598683E+02  0.54033769918E+02  0.00000000000E+00 0. -1.
          1    1    1    2  502    0 -0.15815595674E+02  0.30175956292E+02 -0.20371126302E+02  0.39695140653E+02  0.00000000000E+00 0. -1.
         22    1    3    3    0    0 -0.45476317146E+02  0.46090780107E+02  0.10479456093E+03  0.12318423370E+03  0.00000000000E+00 0.  1.
         22    1    3    3    0    0  0.12888657197E+02 -0.62487040311E+02  0.68963637311E+02  0.93950683672E+02  0.00000000000E+00 0.  1.
</event>
<event>
 7    1  0.5537228E-006  0.5233628E+02  0.7818608E-02  0.1434984E+00
          2   -1    0    0  502    0  0.00000000000E+00  0.00000000000E+00  0.95525798510E+03  0.95525798510E+03  0.00000000000E+00 0. -1.
          1   -1    0    0  501    0 -0.00000000000E+00 -0.00000000000E+00 -0.45653137836E+03  0.45653137836E+03  0.00000000000E+00 0. -1.
         25    2    1    2    0    0  0.29185427528E+02 -0.70126059355E+02 -0.15334265895E+03  0.21191778884E+03  0.12500289914E+03 0.  0.
          2    1    1    2  501    0  0.18340081959E+02  0.48242713490E+02 -0.27072222660E+03  0.27559797167E+03  0.00000000000E+00 0. -1.
          1    1    1    2  502    0 -0.47525509488E+02  0.21883345865E+02  0.92279149229E+03  0.92427360295E+03  0.00000000000E+00 0. -1.
         22    1    3    3    0    0 -0.29066708034E+02 -0.59051894005E+02 -0.24758899518E+02  0.70320713925E+02  0.00000000000E+00 0.  1.
         22    1    3    3    0    0  0.58252135562E+02 -0.11074165350E+02 -0.12858375943E+03  0.14159707491E+03  0.00000000000E+00 0.  1.
</event>
<event>
 7    1  0.5537228E-006  0.1063844E+03  0.7818608E-02  0.1443537E+00
          2   -1    0    0  502    0  0.00000000000E+00  0.00000000000E+00  0.29273607436E+04  0.29273607436E+04  0.00000000000E+00 0. -1.
          1   -1    0    0  501    0 -0.00000000000E+00 -0.00000000000E+00 -0.41412574955E+02  0.41412574955E+02  0.00000000000E+00 0. -1.
         25    2    1    2    0    0 -0.16438692853E+02 -0.10417405733E+03  0.13877635392E+03  0.21448853340E+03  0.12499595876E+03 0.  0.
          2    1    1    2  501    0  0.23727600364E+02 -0.20580916227E+01  0.54120938103E+02  0.59129609345E+02  0.00000000000E+00 0. -1.
          1    1    1    2  502    0 -0.72889075109E+01  0.10623214896E+03  0.26930508767E+04  0.26951551759E+04  0.00000000000E+00 0. -1.
         22    1    3    3    0    0  0.12886042453E+02 -0.68206615867E+02  0.15126463463E+03  0.16643071300E+03  0.00000000000E+00 0. -1.
         22    1    3    3    0    0 -0.29324735306E+02 -0.35967441467E+02 -0.12488280711E+02  0.48057820399E+02  0.00000000000E+00 0. -1.
</event>
<event>
 7    1  0.5537228E-006  0.1200597E+03  0.7818608E-02  0.1380021E+00
          2   -1    0    0  502    0  0.00000000000E+00  0.00000000000E+00  0.10603951156E+03  0.10603951156E+03  0.00000000000E+00 0. -1.
          1   -1    0    0  501    0 -0.00000000000E+00 -0.00000000000E+00 -0.46638341102E+03  0.46638341102E+03  0.00000000000E+00 0. -1.
         25    2    1    2    0    0 -0.70696821213E+02  0.10119591860E+03 -0.27334531544E+03  0.32493190620E+03  0.12499771086E+03 0.  0.
          2    1    1    2  501    0  0.32292633845E+02  0.12442476628E+02  0.52896178429E+02  0.63211036359E+02  0.00000000000E+00 0. -1.
          1    1    1    2  502    0  0.38404187368E+02 -0.11363839523E+03 -0.13989476244E+03  0.18427998002E+03  0.00000000000E+00 0. -1.
         22    1    3    3    0    0 -0.28838675932E+02 -0.17934576538E+02 -0.12785391340E+03  0.13228734420E+03  0.00000000000E+00 0. -1.
         22    1    3    3    0    0 -0.41858145282E+02  0.11913049514E+03 -0.14549140204E+03  0.19264456199E+03  0.00000000000E+00 0. -1.
</event>
<event>
 7    1  0.5537228E-006  0.9028681E+02  0.7818608E-02  0.1477967E+00
          2   -1    0    0  502    0  0.00000000000E+00  0.00000000000E+00  0.13552676647E+04  0.13552676647E+04  0.00000000000E+00 0. -1.
          1   -1    0    0  501    0 -0.00000000000E+00 -0.00000000000E+00 -0.12109964983E+03  0.12109964983E+03  0.00000000000E+00 0. -1.
         25    2    1    2    0    0 -0.10082868809E+02 -0.10731450112E+03  0.24107930894E+03  0.29219243416E+03  0.12505646319E+03 0.  0.
          2    1    1    2  501    0  0.18321834901E+02  0.87068279053E+02 -0.74692282421E+02  0.11617018509E+03  0.00000000000E+00 0. -1.
          1    1    1    2  502    0 -0.82389660922E+01  0.20246222071E+02  0.10677809884E+04  0.10680046953E+04  0.00000000000E+00 0. -1.
         22    1    3    3    0    0 -0.29407379202E+02 -0.89719919985E+02  0.24782523697E+03  0.26520144433E+03  0.00000000000E+00 0.  1.
         22    1    3    3    0    0  0.19324510393E+02 -0.17594581139E+02 -0.67459280269E+01  0.26990989836E+02  0.00000000000E+00 0.  1.
</event>
<event>
 7    1  0.5537228E-006  0.1846549E+03  0.7818608E-02  0.1187692E+00
          2   -1    0    0  502    0  0.00000000000E+00  0.00000000000E+00  0.37706346047E+04  0.37706346047E+04  0.00000000000E+00 0. -1.
          1   -1    0    0  501    0 -0.00000000000E+00 -0.00000000000E+00 -0.17953546914E+03  0.17953546914E+03  0.00000000000E+00 0. -1.
         25    2    1    2    0    0 -0.21971033780E+03  0.20108854380E+03  0.20406185906E+03  0.38206704105E+03  0.12499898619E+03 0.  0.
          2    1    1    2  501    0  0.11825454609E+03 -0.10434379825E+03 -0.19298056465E+02  0.15888417444E+03  0.00000000000E+00 0. -1.
          1    1    1    2  502    0  0.10145579170E+03 -0.96744745553E+02  0.34063353330E+04  0.34092188583E+04  0.00000000000E+00 0. -1.
         22    1    3    3    0    0 -0.83785720819E+02  0.17459104250E+02  0.98223398821E+02  0.13027932841E+03  0.00000000000E+00 0. -1.
         22    1    3    3    0    0 -0.13592461698E+03  0.18362943955E+03  0.10583846023E+03  0.25178771264E+03  0.00000000000E+00 0. -1.
</event>
<event>
 7    1  0.5537228E-006  0.1358206E+03  0.7818608E-02  0.1280615E+00
          2   -1    0    0  502    0  0.00000000000E+00  0.00000000000E+00  0.27674095938E+03  0.27674095938E+03  0.00000000000E+00 0. -1.
          1   -1    0    0  501    0 -0.00000000000E+00 -0.00000000000E+00 -0.63637254210E+03  0.63637254210E+03  0.00000000000E+00 0. -1.
         25    2    1    2    0    0 -0.87679843442E+02 -0.18017315085E+03  0.10062543326E+03  0.25671173581E+03  0.12500127300E+03 0.  0.
          2    1    1    2  501    0  0.78559246420E+02  0.10733880806E+03 -0.53521050574E+03  0.55149203110E+03  0.00000000000E+00 0. -1.
          1    1    1    2  502    0  0.91205970215E+01  0.72834342794E+02  0.74953489761E+02  0.10490973457E+03  0.00000000000E+00 0. -1.
         22    1    3    3    0    0 -0.90561911613E+02 -0.80155648050E+02  0.99558546241E+02  0.15664702959E+03  0.00000000000E+00 0. -1.
         22    1    3    3    0    0  0.28820681709E+01 -0.10001750280E+03  0.10668870156E+01  0.10006470622E+03  0.00000000000E+00 0. -1.
</event>
<event>
 7    1  0.5537228E-006  0.1228489E+03  0.7818608E-02  0.1337768E+00
          2   -1    0    0  502    0  0.00000000000E+00  0.00000000000E+00  0.45788155788E+03  0.45788155788E+03  0.00000000000E+00 0. -1.
          1   -1    0    0  501    0 -0.00000000000E+00 -0.00000000000E+00 -0.40554394425E+03  0.40554394425E+03  0.00000000000E+00 0. -1.
         25    2    1    2    0    0 -0.11542192548E+02  0.11382713545E+03  0.73979636137E+02  0.18489798428E+03  0.12499775620E+03 0.  0.
          2    1    1    2  501    0 -0.48203536417E+02 -0.25468726018E+01 -0.33615385612E+03  0.33960194709E+03  0.00000000000E+00 0. -1.
          1    1    1    2  502    0  0.59745728965E+02 -0.11128026285E+03  0.31451183361E+03  0.33892557075E+03  0.00000000000E+00 0. -1.
         22    1    3    3    0    0 -0.33855171637E+02  0.10979567789E+03  0.80501597582E+01  0.11517842073E+03  0.00000000000E+00 0.  1.
         22    1    3    3    0    0  0.22312979089E+02  0.40314575555E+01  0.65929476379E+02  0.69719563549E+02  0.00000000000E+00 0.  1.
</event>
<event>
 7    1  0.5537228E-006  0.1098296E+03  0.7818608E-02  0.1332195E+00
          2   -1    0    0  502    0  0.00000000000E+00  0.00000000000E+00  0.62594233902E+03  0.62594233902E+03  0.00000000000E+00 0. -1.
          1   -1    0    0  501    0 -0.00000000000E+00 -0.00000000000E+00 -0.14087820870E+03  0.14087820870E+03  0.00000000000E+00 0. -1.
         25    2    1    2    0    0 -0.76294974045E+02  0.13088773681E+03  0.24811360067E+03  0.31644550686E+03  0.12499950904E+03 0.  0.
          2    1    1    2  501    0  0.27065150290E+02 -0.10278903870E+03 -0.77061264533E+02  0.13128803193E+03  0.00000000000E+00 0. -1.
          1    1    1    2  502    0  0.49229823754E+02 -0.28098698114E+02  0.31401179419E+03  0.31908700893E+03  0.00000000000E+00 0. -1.
         22    1    3    3    0    0 -0.94558069524E+01  0.21378857683E+00  0.12362489443E+03  0.12398617872E+03  0.00000000000E+00 0. -1.
         22    1    3    3    0    0 -0.66839167092E+02  0.13067394824E+03  0.12448870624E+03  0.19245932814E+03  0.00000000000E+00 0. -1.
</event>
<event>
 7    1  0.5537228E-006  0.7950848E+02  0.7818608E-02  0.1405183E+00
          2   -1    0    0  502    0  0.00000000000E+00  0.00000000000E+00  0.28190139793E+03  0.28190139793E+03  0.00000000000E+00 0. -1.
          1   -1    0    0  501    0 -0.00000000000E+00 -0.00000000000E+00 -0.29504310216E+03  0.29504310216E+03  0.00000000000E+00 0. -1.
         25    2    1    2    0    0  0.98895954828E+02  0.33554985445E+02 -0.79776252329E+02  0.18136665164E+03  0.12499305965E+03 0.  0.
          2    1    1    2  501    0 -0.20421546289E+02 -0.37526497925E+02 -0.15481477751E+03  0.16060165919E+03  0.00000000000E+00 0. -1.
          1    1    1    2  502    0 -0.78474408538E+02  0.39715124805E+01  0.22144932561E+03  0.23497618926E+03  0.00000000000E+00 0. -1.
         22    1    3    3    0    0  0.19118139823E+02  0.32123350698E+02  0.28400340174E+02  0.46946695862E+02  0.00000000000E+00 0.  1.
         22    1    3    3    0    0  0.79777815005E+02  0.14316347465E+01 -0.10817659250E+03  0.13441995577E+03  0.00000000000E+00 0.  1.
</event>
<event>
 7    1  0.5537228E-006  0.2533152E+03  0.7818608E-02  0.1191710E+00
          2   -1    0    0  502    0  0.00000000000E+00  0.00000000000E+00  0.14326575185E+03  0.14326575185E+03  0.00000000000E+00 0. -1.
          1   -1    0    0  501    0 -0.00000000000E+00 -0.00000000000E+00 -0.16077170865E+04  0.16077170865E+04  0.00000000000E+00 0. -1.
         25    2    1    2    0    0  0.86112926387E+02  0.20011467235E+03 -0.33512791281E+03  0.41880341510E+03  0.12499705747E+03 0.  0.
          2    1    1    2  501    0 -0.63421135426E+02  0.74385802242E+02 -0.10371245144E+04  0.10417210502E+04  0.00000000000E+00 0. -1.
          1    1    1    2  502    0 -0.22691790960E+02 -0.27450047459E+03 -0.92198907362E+02  0.29045837300E+03  0.00000000000E+00 0. -1.
         22    1    3    3    0    0 -0.32383604183E+02  0.52653159990E+02 -0.75808576656E+02  0.97816120202E+02  0.00000000000E+00 0.  1.
         22    1    3    3    0    0  0.11849653057E+03  0.14746151236E+03 -0.25931933615E+03  0.32098729490E+03  0.00000000000E+00 0.  1.
</event>
<event>
 7    1  0.5537228E-006  0.8633044E+02  0.7818608E-02  0.1320326E+00
          2   -1    0    0  502    0  0.00000000000E+00  0.00000000000E+00  0.47454860170E+03  0.47454860170E+03  0.00000000000E+00 0. -1.
          1   -1    0    0  501    0 -0.00000000000E+00 -0.00000000000E+00 -0.85042815975E+03  0.85042815975E+03  0.00000000000E+00 0. -1.
         25    2    1    2    0    0 -0.10679792422E+03  0.30092429346E+02 -0.13311601107E+03  0.21366378269E+03  0.12498395380E+03 0.  0.
          2    1    1    2  501    0  0.41367622460E+02 -0.76294697970E+02 -0.67052429357E+03  0.67611758548E+03  0.00000000000E+00 0. -1.
          1    1    1    2  502    0  0.65430301763E+02  0.46202268624E+02  0.42776074659E+03  0.43519539329E+03  0.00000000000E+00 0. -1.
         22    1    3    3    0    0 -0.59895457850E+02  0.97346080247E+01 -0.14837614878E+03  0.16030505292E+03  0.00000000000E+00 0. -1.
         22    1    3    3    0    0 -0.46902466373E+02  0.20357821321E+02  0.15260137703E+02  0.53358729778E+02  0.00000000000E+00 0. -1.
</event>
<event>
 7    1  0.5537228E-006  0.9499763E+02  0.7818608E-02  0.1391971E+00
          2   -1    0    0  502    0  0.00000000000E+00  0.00000000000E+00  0.23548290478E+04  0.23548290478E+04  0.00000000000E+00 0. -1.
          1   -1    0    0  501    0 -0.00000000000E+00 -0.00000000000E+00 -0.20807400601E+04  0.20807400601E+04  0.00000000000E+00 0. -1.
         25    2    1    2    0    0  0.91898584427E+02  0.27249419580E+02  0.11318184400E+03  0.19397013439E+03  0.12500561002E+03 0.  0.
          2    1    1    2  501    0 -0.94239701507E+02  0.12390962131E+02 -0.20390596424E+04  0.20412738382E+04  0.00000000000E+00 0. -1.
          1    1    1    2  502    0  0.23411170804E+01 -0.39640381711E+02  0.21999667861E+04  0.22003251352E+04  0.00000000000E+00 0. -1.
         22    1    3    3    0    0  0.12098381793E+03  0.24843861640E+02  0.70344527091E+02  0.14213604101E+03  0.00000000000E+00 0.  1.
         22    1    3    3    0    0 -0.29085233500E+02  0.24055579395E+01  0.42837316913E+02  0.51834093385E+02  0.00000000000E+00 0.  1.
</event>
<event>
 7    1  0.5537228E-006  0.3750921E+02  0.7818608E-02  0.1568556E+00
          2   -1    0    0  502    0  0.00000000000E+00  0.00000000000E+00  0.17506224216E+02  0.17506224216E+02  0.00000000000E+00 0. -1.
          1   -1    0    0  501    0 -0.00000000000E+00 -0.00000000000E+00 -0.14696268474E+04  0.14696268474E+04  0.00000000000E+00 0. -1.
         25    2    1    2    0    0  0.24474868661E+02 -0.17620595753E+02 -0.39442716713E+03  0.41486248156E+03  0.12501433456E+03 0.  0.
          2    1    1    2  501    0 -0.18916837726E+02 -0.21678133841E+02 -0.10091804721E+04  0.10095905177E+04  0.00000000000E+00 0. -1.
          1    1    1    2  502    0 -0.55580309347E+01  0.39298729594E+02 -0.48512984027E+02  0.62680072389E+02  0.00000000000E+00 0. -1.
         22    1    3    3    0    0  0.13506542386E+02 -0.82507281460E+01 -0.39931707481E+03  0.39963061374E+03  0.00000000000E+00 0. -1.
         22    1    3    3    0    0  0.10968326274E+02 -0.93698676070E+01  0.48899076810E+01  0.15231867822E+02  0.00000000000E+00 0. -1.
</event>
<event>
 7    1  0.5537228E-006  0.9905625E+02  0.7818608E-02  0.1399734E+00
          2   -1    0    0  502    0  0.00000000000E+00  0.00000000000E+00  0.63094115354E+03  0.63094115354E+03  0.00000000000E+00 0. -1.
          1   -1    0    0  501    0 -0.00000000000E+00 -0.00000000000E+00 -0.26787937301E+03  0.26787937301E+03  0.00000000000E+00 0. -1.
         25    2    1    2    0    0 -0.27536227318E+02  0.63354070767E+02 -0.72635489421E+02  0.16022839086E+03  0.12500096326E+03 0.  0.
          2    1    1    2  501    0  0.78893732933E+01  0.34918591230E+02 -0.14497788385E+03  0.14933230404E+03  0.00000000000E+00 0. -1.
          1    1    1    2  502    0  0.19646854025E+02 -0.98272661997E+02  0.58067515380E+03  0.58925983166E+03  0.00000000000E+00 0. -1.
         22    1    3    3    0    0  0.13525830023E+02 -0.31618357965E+02 -0.37679926226E+02  0.51014169391E+02  0.00000000000E+00 0. -1.
         22    1    3    3    0    0 -0.41062057341E+02  0.94972428732E+02 -0.34955563195E+02  0.10921422147E+03  0.00000000000E+00 0. -1.
</event>
<event>
 7    1  0.5537228E-006  0.1366494E+03  0.7818608E-02  0.1238568E+00
          2   -1    0    0  502    0  0.00000000000E+00  0.00000000000E+00  0.14406512547E+04  0.14406512547E+04  0.00000000000E+00 0. -1.
          1   -1    0    0  501    0 -0.00000000000E+00 -0.00000000000E+00 -0.60130226726E+02  0.60130226726E+02  0.00000000000E+00 0. -1.
         25    2    1    2    0    0  0.53746607584E+02  0.49140598523E+02  0.53200069335E+03  0.55131954358E+03  0.12500002062E+03 0.  0.
          2    1    1    2  501    0 -0.20567544502E+02 -0.15436586376E+03  0.83842696952E+02  0.17686560326E+03  0.00000000000E+00 0. -1.
          1    1    1    2  502    0 -0.33179063082E+02  0.10522526524E+03  0.76467763769E+03  0.77259633462E+03  0.00000000000E+00 0. -1.
         22    1    3    3    0    0 -0.20819658062E+01  0.34974066508E+02  0.44858093422E+03  0.44994707962E+03  0.00000000000E+00 0. -1.
         22    1    3    3    0    0  0.55828573390E+02  0.14166532015E+02  0.83419759131E+02  0.10137246396E+03  0.00000000000E+00 0. -1.
</event>
<event>
 7    1  0.5537228E-006  0.6849951E+02  0.7818608E-02  0.1499238E+00
          2   -1    0    0  502    0  0.00000000000E+00  0.00000000000E+00  0.93201553037E+03  0.93201553037E+03  0.00000000000E+00 0. -1.
          1   -1    0    0  501    0 -0.00000000000E+00 -0.00000000000E+00 -0.19749227415E+03  0.19749227415E+03  0.00000000000E+00 0. -1.
         25    2    1    2    0    0 -0.72739502947E+02  0.41633340552E+02  0.99043479840E+02  0.18016294263E+03  0.12499881865E+03 0.  0.
          2    1    1    2  501    0  0.65421517484E+02 -0.17900408582E+02 -0.14939831684E+03  0.16407393654E+03  0.00000000000E+00 0. -1.
          1    1    1    2  502    0  0.73179854626E+01 -0.23732931971E+02  0.78487809323E+03  0.78527092535E+03  0.00000000000E+00 0. -1.
         22    1    3    3    0    0 -0.11686128599E+02  0.18977671781E+02  0.11163279367E+03  0.11383583905E+03  0.00000000000E+00 0. -1.
         22    1    3    3    0    0 -0.61053374348E+02  0.22655668772E+02 -0.12589313834E+02  0.66327103582E+02  0.00000000000E+00 0. -1.
</event>
<event>
 7    1  0.5537228E-006  0.9003554E+02  0.7818608E-02  0.1420097E+00
          2   -1    0    0  502    0  0.00000000000E+00  0.00000000000E+00  0.30656028258E+03  0.30656028258E+03  0.00000000000E+00 0. -1.
          1   -1    0    0  501    0 -0.00000000000E+00 -0.00000000000E+00 -0.73706297323E+03  0.73706297323E+03  0.00000000000E+00 0. -1.
         25    2    1    2    0    0  0.22085461467E+02 -0.96720539614E+02 -0.34459965878E+02  0.16325620327E+03  0.12498987265E+03 0.  0.
          2    1    1    2  501    0 -0.32717470944E+02  0.76428377764E+01 -0.62943309443E+03  0.63032917292E+03  0.00000000000E+00 0. -1.
          1    1    1    2  502    0  0.10632009477E+02  0.89077701838E+02  0.23339036966E+03  0.25003787961E+03  0.00000000000E+00 0. -1.
         22    1    3    3    0    0 -0.43190910677E+02 -0.21951860033E+02  0.17138453145E+02  0.51391297904E+02  0.00000000000E+00 0. -1.
         22    1    3    3    0    0  0.65276372144E+02 -0.74768679581E+02 -0.51598419023E+02  0.11186490537E+03  0.00000000000E+00 0. -1.
</event>
<event>
 7    1  0.5537228E-006  0.7168204E+02  0.7818608E-02  0.1363101E+00
          2   -1    0    0  502    0  0.00000000000E+00  0.00000000000E+00  0.18538135173E+04  0.18538135173E+04  0.00000000000E+00 0. -1.
          1   -1    0    0  501    0 -0.00000000000E+00 -0.00000000000E+00 -0.36840831508E+02  0.36840831508E+02  0.00000000000E+00 0. -1.
         25    2    1    2    0    0  0.43334432760E+02 -0.25255385915E+02  0.24113243008E+03  0.27619924123E+03  0.12500185774E+03 0.  0.
          2    1    1    2  501    0 -0.13457014758E+02  0.84839603225E+02  0.80801028637E+02  0.11793072437E+03  0.00000000000E+00 0. -1.
          1    1    1    2  502    0 -0.29877418002E+02 -0.59584217310E+02  0.14950392271E+04  0.14965243832E+04  0.00000000000E+00 0. -1.
         22    1    3    3    0    0 -0.60715420054E+01 -0.28354184271E+02 -0.10434140360E+01  0.29015721615E+02  0.00000000000E+00 0. -1.
         22    1    3    3    0    0  0.49405974765E+02  0.30987983558E+01  0.24217584412E+03  0.24718351961E+03  0.00000000000E+00 0. -1.
</event>
<event>
 7    1  0.5537228E-006  0.5205080E+02  0.7818608E-02  0.1501227E+00
          2   -1    0    0  502    0  0.00000000000E+00  0.00000000000E+00  0.47840586911E+02  0.47840586911E+02  0.00000000000E+00 0. -1.
          1   -1    0    0  501    0 -0.00000000000E+00 -0.00000000000E+00 -0.14245546325E+04  0.14245546325E+04  0.00000000000E+00 0. -1.
         25    2    1    2    0    0 -0.88848296087E+01 -0.40672612495E+02 -0.88563300084E+03  0.89537936759E+03  0.12500079250E+03 0.  0.
          2    1    1    2  501    0 -0.31426634423E+02  0.71984704330E+01 -0.51738340863E+03  0.51838696246E+03  0.00000000000E+00 0. -1.
          1    1    1    2  502    0  0.40311464032E+02  0.33474142062E+02  0.26302363895E+02  0.58628889343E+02  0.00000000000E+00 0. -1.
         22    1    3    3    0    0  0.40854723244E+02 -0.31126304456E+02 -0.16134384792E+03  0.16932156537E+03  0.00000000000E+00 0. -1.
         22    1    3    3    0    0 -0.49739552852E+02 -0.95463080391E+01 -0.72428915293E+03  0.72605780222E+03  0.00000000000E+00 0. -1.
</event>
<event>
 7    1  0.5537228E-006  0.6370568E+02  0.7818608E-02  0.1494270E+00
          2   -1    0    0  502    0  0.00000000000E+00  0.00000000000E+00  0.16171082124E+04  0.16171082124E+04  0.00000000000E+00 0. -1.
          1   -1    0    0  501    0 -0.00000000000E+00 -0.00000000000E+00 -0.15384198222E+04  0.15384198222E+04  0.00000000000E+00 0. -1.
         25    2    1    2    0    0  0.45088948006E+01  0.38762121724E+02  0.40780403211E+03  0.42831482868E+03  0.12500652642E+03 0.  0.
          2    1    1    2  501    0  0.11272171861E+02  0.25232686497E+02 -0.15271335130E+04  0.15273835526E+04  0.00000000000E+00 0. -1.
          1    1    1    2  502    0 -0.15781066662E+02 -0.63994808221E+02  0.11980178711E+04  0.11998296533E+04  0.00000000000E+00 0. -1.
         22    1    3    3    0    0 -0.38220826761E+02  0.58385584784E+02  0.14015232176E+03  0.15656430437E+03  0.00000000000E+00 0.  1.
         22    1    3    3    0    0  0.42729721562E+02 -0.19623463060E+02  0.26765171035E+03  0.27175052431E+03  0.00000000000E+00 0.  1.
</event>
<event>
 7    1  0.5537228E-006  0.1755800E+03  0.7818608E-02  0.1272346E+00
          2   -1    0    0  502    0  0.00000000000E+00  0.00000000000E+00  0.24542274773E+03  0.24542274773E+03  0.00000000000E+00 0. -1.
          1   -1    0    0  501    0 -0.00000000000E+00 -0.00000000000E+00 -0.56573688574E+03  0.56573688574E+03  0.00000000000E+00 0. -1.
         25    2    1    2    0    0  0.35850496147E+02 -0.16332143012E+03  0.18055895844E+02  0.20954497942E+03  0.12499574158E+03 0.  0.
          2    1    1    2  501    0  0.61220919822E+02  0.53830490099E+01 -0.40119440796E+03  0.40587428007E+03  0.00000000000E+00 0. -1.
          1    1    1    2  502    0 -0.97071415969E+02  0.15793838111E+03  0.62824374112E+02  0.19574037399E+03  0.00000000000E+00 0. -1.
         22    1    3    3    0    0  0.40952458068E+01 -0.15964516872E+03 -0.18750137175E+02  0.16079464723E+03  0.00000000000E+00 0.  1.
         22    1    3    3    0    0  0.31755250340E+02 -0.36762614074E+01  0.36806033019E+02  0.48750332191E+02  0.00000000000E+00 0.  1.
</event>
<event>
 7    1  0.5537228E-006  0.4656589E+02  0.7818608E-02  0.1529708E+00
          2   -1    0    0  502    0  0.00000000000E+00  0.00000000000E+00  0.10812843767E+04  0.10812843767E+04  0.00000000000E+00 0. -1.
          1   -1    0    0  501    0 -0.00000000000E+00 -0.00000000000E+00 -0.88974088149E+02  0.88974088149E+02  0.00000000000E+00 0. -1.
         25    2    1    2    0    0 -0.47730130344E+02  0.48210161009E+02  0.19017892844E+03  0.23747679053E+03  0.12499926499E+03 0.  0.
          2    1    1    2  501    0  0.29142881436E+02 -0.59964280537E+01 -0.61289446477E+02  0.68129736072E+02  0.00000000000E+00 0. -1.
          1    1    1    2  502    0  0.18587248908E+02 -0.42213732955E+02  0.86342080657E+03  0.86465193823E+03  0.00000000000E+00 0. -1.
         22    1    3    3    0    0 -0.66872744287E+02  0.58283580836E+02  0.63818607802E+02  0.10927833466E+03  0.00000000000E+00 0.  1.
         22    1    3    3    0    0  0.19142613942E+02 -0.10073419827E+02  0.12636032064E+03  0.12819845587E+03  0.00000000000E+00 0.  1.
</event>
<event>
 7    1  0.5537228E-006  0.7996938E+02  0.7818608E-02  0.1371777E+00
          2   -1    0    0  502    0  0.00000000000E+00  0.00000000000E+00  0.28837933052E+04  0.28837933052E+04  0.00000000000E+00 0. -1.
          1   -1    0    0  501    0 -0.00000000000E+00 -0.00000000000E+00 -0.45088897458E+03  0.45088897458E+03  0.00000000000E+00 0. -1.
         25    2    1    2    0    0  0.75087136577E+02  0.23035342200E+02  0.58690261605E+03  0.60518363039E+03  0.12499536266E+03 0.  0.
          2    1    1    2  501    0 -0.42362711553E+02 -0.67975043426E+02 -0.43777685311E+03  0.44504356975E+03  0.00000000000E+00 0. -1.
          1    1    1    2  502    0 -0.32724425024E+02  0.44939701227E+02  0.22837785677E+04  0.22844550796E+04  0.00000000000E+00 0. -1.
         22    1    3    3    0    0 -0.51733941720E+01 -0.33784535463E+02  0.29905905950E+03  0.30100578053E+03  0.00000000000E+00 0.  1.
         22    1    3    3    0    0  0.80260530749E+02  0.56819877662E+02  0.28784355656E+03  0.30417784986E+03  0.00000000000E+00 0.  1.
</event>
<event>
 7    1  0.5537228E-006  0.8521235E+02  0.7818608E-02  0.1329966E+00
          2   -1    0    0  502    0  0.00000000000E+00  0.00000000000E+00  0.23275190546E+03  0.23275190546E+03  0.00000000000E+00 0. -1.
          1   -1    0    0  501    0 -0.00000000000E+00 -0.00000000000E+00 -0.96889387501E+03  0.96889387501E+03  0.00000000000E+00 0. -1.
         25    2    1    2    0    0 -0.83711696652E+02  0.41699446635E+02 -0.15940587123E+03  0.22311958677E+03  0.12500250483E+03 0.  0.
          2    1    1    2  501    0  0.38516230382E+01 -0.74404898962E+02 -0.76647315629E+03  0.77008572465E+03  0.00000000000E+00 0. -1.
          1    1    1    2  502    0  0.79860073614E+02  0.32705452326E+02  0.18973705797E+03  0.20844046905E+03  0.00000000000E+00 0. -1.
         22    1    3    3    0    0 -0.62735478638E+02  0.77193325130E+02 -0.61654160772E+02  0.11702899327E+03  0.00000000000E+00 0. -1.
         22    1    3    3    0    0 -0.20976218014E+02 -0.35493878495E+02 -0.97751710461E+02  0.10609059351E+03  0.00000000000E+00 0. -1.
</event>
<event>
 7    1  0.5537228E-006  0.1432278E+03  0.7818608E-02  0.1268386E+00
          2   -1    0    0  502    0  0.00000000000E+00  0.00000000000E+00  0.14073408523E+04  0.14073408523E+04  0.00000000000E+00 0. -1.
          1   -1    0    0  501    0 -0.00000000000E+00 -0.00000000000E+00 -0.23628592188E+03  0.23628592188E+03  0.00000000000E+00 0. -1.
         25    2    1    2    0    0 -0.14263472756E+03  0.81549819020E+02  0.31270677253E+01  0.20646719267E+03  0.12499553835E+03 0.  0.
          2    1    1    2  501    0  0.74238743499E+02 -0.11962123159E+03 -0.96261647891E+02  0.17054892242E+03  0.00000000000E+00 0. -1.
          1    1    1    2  502    0  0.68395984060E+02  0.38071412567E+02  0.12641895106E+04  0.12666106591E+04  0.00000000000E+00 0. -1.
         22    1    3    3    0    0  0.22455344363E+01  0.46818174518E+02 -0.27532386610E+02  0.54360060730E+02  0.00000000000E+00 0. -1.
         22    1    3    3    0    0 -0.14488026200E+03  0.34731644501E+02  0.30659454335E+02  0.15210713194E+03  0.00000000000E+00 0. -1.
</event>
<event>
 7    1  0.5537228E-006  0.1200260E+03  0.7818608E-02  0.1319129E+00
          2   -1    0    0  502    0  0.00000000000E+00  0.00000000000E+00  0.22716476871E+03  0.22716476871E+03  0.00000000000E+00 0. -1.
          1   -1    0    0  501    0 -0.00000000000E+00 -0.00000000000E+00 -0.12763553116E+04  0.12763553116E+04  0.00000000000E+00 0. -1.
         25    2    1    2    0    0  0.12417515304E+03  0.38291259654E+02 -0.29037172800E+03  0.34179482324E+03  0.12498908583E+03 0.  0.
          2    1    1    2  501    0 -0.11869704530E+03  0.19682242692E+02 -0.95219761821E+03  0.95976907815E+03  0.00000000000E+00 0. -1.
          1    1    1    2  502    0 -0.54781077397E+01 -0.57973502347E+02  0.19337880331E+03  0.20195617893E+03  0.00000000000E+00 0. -1.
         22    1    3    3    0    0  0.43602250461E+02 -0.28428564608E+02 -0.18932816427E+03  0.19635298143E+03  0.00000000000E+00 0.  1.
         22    1    3    3    0    0  0.80572902574E+02  0.66719824263E+02 -0.10104356373E+03  0.14544184181E+03  0.00000000000E+00 0.  1.
</event>
<event>
 7    1  0.5537228E-006  0.3417185E+02  0.7818608E-02  0.1601224E+00
          2   -1    0    0  502    0  0.00000000000E+00  0.00000000000E+00  0.58042899192E+03  0.58042899192E+03  0.00000000000E+00 0. -1.
          1   -1    0    0  501    0 -0.00000000000E+00 -0.00000000000E+00 -0.31220411475E+02  0.31220411475E+02  0.00000000000E+00 0. -1.
         25    2    1    2    0    0  0.15656473846E+02 -0.10945189248E+02  0.15801204806E+03  0.20238002448E+03  0.12499977854E+03 0.  0.
          2    1    1    2  501    0 -0.10523699261E+02 -0.23605496529E+02  0.12048073342E+02  0.28515325419E+02  0.00000000000E+00 0. -1.
          1    1    1    2  502    0 -0.51327745850E+01  0.34550685777E+02  0.37914845904E+03  0.38075405350E+03  0.00000000000E+00 0. -1.
         22    1    3    3    0    0  0.58394157657E+02  0.31388154892E+02  0.83143659830E+02  0.10633890204E+03  0.00000000000E+00 0.  1.
         22    1    3    3    0    0 -0.42737683812E+02 -0.42333344140E+02  0.74868388232E+02  0.96041122443E+02  0.00000000000E+00 0.  1.
</event>
<event>
 7    1  0.5537228E-006  0.5194356E+02  0.7818608E-02  0.1528768E+00
          2   -1    0    0  502    0  0.00000000000E+00  0.00000000000E+00  0.88792257302E+03  0.88792257302E+03  0.00000000000E+00 0. -1.
          1   -1    0    0  501    0 -0.00000000000E+00 -0.00000000000E+00 -0.67675495363E+03  0.67675495363E+03  0.00000000000E+00 0. -1.
         25    2    1    2    0    0  0.51502000801E+02  0.76771262760E+01  0.86901200861E+02  0.16089772690E+03  0.12499946182E+03 0.  0.
          2    1    1    2  501    0 -0.10634419001E+02  0.24642393051E+02 -0.63858618737E+03  0.63914994884E+03  0.00000000000E+00 0. -1.
          1    1    1    2  502    0 -0.40867581800E+02 -0.32319519328E+02  0.76285260590E+03  0.76462985091E+03  0.00000000000E+00 0. -1.
         22    1    3    3    0    0  0.44333408522E+02 -0.31804124351E+02 -0.10492904436E+02  0.55561267808E+02  0.00000000000E+00 0. -1.
         22    1    3    3    0    0  0.71685922790E+01  0.39481250627E+02  0.97394105297E+02  0.10533645909E+03  0.00000000000E+00 0. -1.
</event>
<event>
 7    1  0.5537228E-006  0.2232584E+03  0.7818608E-02  0.1183123E+00
          2   -1    0    0  502    0  0.00000000000E+00  0.00000000000E+00  0.84417889107E+03  0.84417889107E+03  0.00000000000E+00 0. -1.
          1   -1    0    0  501    0 -0.00000000000E+00 -0.00000000000E+00 -0.46906078670E+03  0.46906078670E+03  0.00000000000E+00 0. -1.
         25    2    1    2    0    0 -0.92800470599E+02  0.10274388639E+03  0.77497017236E+02  0.20198888894E+03  0.12500196015E+03 0.  0.
          2    1    1    2  501    0  0.10615670967E+03 -0.22401182248E+03 -0.36293992528E+03  0.43951784148E+03  0.00000000000E+00 0. -1.
          1    1    1    2  502    0 -0.13356239073E+02  0.12126793609E+03  0.66056101241E+03  0.67173294735E+03  0.00000000000E+00 0. -1.
         22    1    3    3    0    0 -0.86872556634E+02  0.85348509239E+02  0.11035190604E+03  0.16434339747E+03  0.00000000000E+00 0.  1.
         22    1    3    3    0    0 -0.59279139650E+01  0.17395377149E+02 -0.32854888800E+02  0.37645491472E+02  0.00000000000E+00 0.  1.
</event>
<event>
 7    1  0.5537228E-006  0.3588053E+02  0.7818608E-02  0.1545277E+00
          2   -1    0    0  502    0  0.00000000000E+00  0.00000000000E+00  0.19534782894E+04  0.19534782894E+04  0.00000000000E+00 0. -1.
          1   -1    0    0  501    0 -0.00000000000E+00 -0.00000000000E+00 -0.11569506925E+03  0.11569506925E+03  0.00000000000E+00 0. -1.
         25    2    1    2    0    0 -0.31004209670E+02  0.39721710025E+02  0.30194958256E+03  0.33066138320E+03  0.12499729865E+03 0.  0.
          2    1    1    2  501    0 -0.36426822651E+01 -0.35688512170E+02 -0.97972344597E+02  0.10433369226E+03  0.00000000000E+00 0. -1.
          1    1    1    2  502    0  0.34646891935E+02 -0.40331978549E+01  0.16338059822E+04  0.16341782832E+04  0.00000000000E+00 0. -1.
         22    1    3    3    0    0  0.35659766050E+02  0.43858111493E+02  0.73946904180E+02  0.93076836518E+02  0.00000000000E+00 0. -1.
         22    1    3    3    0    0 -0.66663975719E+02 -0.41364014685E+01  0.22800267838E+03  0.23758454668E+03  0.00000000000E+00 0. -1.
</event>
<event>
 7    1  0.5537228E-006  0.5363282E+02  0.7818608E-02  0.1510465E+00
          2   -1    0    0  502    0  0.00000000000E+00  0.00000000000E+00  0.21423664709E+04  0.21423664709E+04  0.00000000000E+00 0. -1.
          1   -1    0    0  501    0 -0.00000000000E+00 -0.00000000000E+00 -0.81113783036E+03  0.81113783036E+03  0.00000000000E+00 0. -1.
         25    2    1    2    0    0 -0.18594878783E+02  0.77549281701E+02  0.55128592280E+03  0.57087790669E+03  0.12500302022E+03 0.  0.
          2    1    1    2  501    0  0.22848916474E+02 -0.48479063872E+02 -0.80030905259E+03  0.80210153489E+03  0.00000000000E+00 0. -1.
          1    1    1    2  502    0 -0.42540376912E+01 -0.29070217828E+02  0.15802517703E+04  0.15805248597E+04  0.00000000000E+00 0. -1.
         22    1    3    3    0    0  0.46237524746E+02  0.26975292335E+02  0.11418349714E+03  0.12610886610E+03  0.00000000000E+00 0. -1.
         22    1    3    3    0    0 -0.64832403528E+02  0.50573989366E+02  0.43710242566E+03  0.44476904059E+03  0.00000000000E+00 0. -1.
</event>
<event>
 7    1  0.5537228E-006  0.5848688E+02  0.7818608E-02  0.1484500E+00
          2   -1    0    0  502    0  0.00000000000E+00  0.00000000000E+00  0.16953496438E+04  0.16953496438E+04  0.00000000000E+00 0. -1.
          1   -1    0    0  501    0 -0.00000000000E+00 -0.00000000000E+00 -0.14517960297E+03  0.14517960297E+03  0.00000000000E+00 0. -1.
         25    2    1    2    0    0 -0.44953217928E+02  0.28686296374E+02  0.13445548074E+03  0.19117118203E+03  0.12499779652E+03 0.  0.
          2    1    1    2  501    0  0.20594359338E+02  0.24784134290E+02 -0.11402481118E+03  0.11849066847E+03  0.00000000000E+00 0. -1.
          1    1    1    2  502    0  0.24358858590E+02 -0.53470430664E+02  0.15297393712E+04  0.15308673962E+04  0.00000000000E+00 0. -1.
         22    1    3    3    0    0  0.27443964132E+02  0.32365946616E+02  0.49037678701E+01  0.42717357210E+02  0.00000000000E+00 0. -1.
         22    1    3    3    0    0 -0.72397182061E+02 -0.36796502418E+01  0.12955171287E+03  0.14845382482E+03  0.00000000000E+00 0. -1.
</event>
<event>
 7    1  0.5537228E-006  0.7305317E+02  0.7818608E-02  0.1436619E+00
          2   -1    0    0  502    0  0.00000000000E+00  0.00000000000E+00  0.42710063415E+03  0.42710063415E+03  0.00000000000E+00 0. -1.
          1   -1    0    0  501    0 -0.00000000000E+00 -0.00000000000E+00 -0.10223807994E+03  0.10223807994E+03  0.00000000000E+00 0. -1.
         25    2    1    2    0    0  0.35127889737E+02 -0.69224935749E+02  0.13380007126E+03  0.19888206264E+03  0.12500222159E+03 0.  0.
          2    1    1    2  501    0 -0.36265994814E+02 -0.43275878713E+01 -0.59225930946E+02  0.69582047204E+02  0.00000000000E+00 0. -1.
          1    1    1    2  502    0  0.11381050774E+01  0.73552523620E+02  0.25028841390E+03  0.26087460426E+03  0.00000000000E+00 0. -1.
         22    1    3    3    0    0 -0.17676019439E+02 -0.43782579728E+02 -0.57091115621E+01  0.47559961161E+02  0.00000000000E+00 0. -1.
         22    1    3    3    0    0  0.52803909175E+02 -0.25442356021E+02  0.13950918282E+03  0.15132210147E+03  0.00000000000E+00 0. -1.
</event>
<event>
 7    1  0.5537228E-006  0.1501079E+03  0.7818608E-02  0.1266877E+00
          2   -1    0    0  502    0  0.00000000000E+00  0.00000000000E+00  0.16017174260E+04  0.16017174260E+04  0.00000000000E+00 0. -1.
          1   -1    0    0  501    0 -0.00000000000E+00 -0.00000000000E+00 -0.20207917964E+03  0.20207917964E+03  0.00000000000E+00 0. -1.
         25    2    1    2    0    0  0.31962079093E+02  0.16803489479E+03  0.62372512410E+02  0.22084491739E+03  0.12499938746E+03 0.  0.
          2    1    1    2  501    0  0.39317802969E+02 -0.14227342889E+03 -0.77118670548E+02  0.16653800631E+03  0.00000000000E+00 0. -1.
          1    1    1    2  502    0 -0.71279882062E+02 -0.25761465902E+02  0.14143844045E+04  0.14164136820E+04  0.00000000000E+00 0. -1.
         22    1    3    3    0    0  0.45485721597E+01  0.17884791111E+03  0.66950196387E+02  0.19102249504E+03  0.00000000000E+00 0.  1.
         22    1    3    3    0    0  0.27413506933E+02 -0.10813016315E+02 -0.45776839768E+01  0.29822422350E+02  0.00000000000E+00 0.  1.
</event>
<event>
 7    1  0.5537228E-006  0.6186729E+02  0.7818608E-02  0.1441919E+00
          2   -1    0    0  502    0  0.00000000000E+00  0.00000000000E+00  0.21238428472E+03  0.21238428472E+03  0.00000000000E+00 0. -1.
          1   -1    0    0  501    0 -0.00000000000E+00 -0.00000000000E+00 -0.21422913164E+03  0.21422913164E+03  0.00000000000E+00 0. -1.
         25    2    1    2    0    0  0.62677222178E+02  0.46965608816E+02  0.24171895840E+02  0.14948233145E+03  0.12500593696E+03 0.  0.
          2    1    1    2  501    0 -0.18286384239E+01 -0.41410164099E+02 -0.14097553251E+03  0.14694300384E+03  0.00000000000E+00 0. -1.
          1    1    1    2  502    0 -0.60848583755E+02 -0.55554447180E+01  0.11495878975E+03  0.13018808107E+03  0.00000000000E+00 0. -1.
         22    1    3    3    0    0  0.70289752507E+02  0.44514179817E+02  0.66434761124E+02  0.10646942753E+03  0.00000000000E+00 0. -1.
         22    1    3    3    0    0 -0.76125303288E+01  0.24514289995E+01 -0.42262865284E+02  0.43012903926E+02  0.00000000000E+00 0. -1.
</event>
<event>
 7    1  0.7545736E-006  0.6871779E+02  0.7818608E-02  0.1417658E+00
          2   -1    0    0  502    0  0.00000000000E+00  0.00000000000E+00  0.17485208657E+04  0.17485208657E+04  0.00000000000E+00 0. -1.
          1   -1    0    0  501    0 -0.00000000000E+00 -0.00000000000E+00 -0.10420479307E+04  0.10420479307E+04  0.00000000000E+00 0. -1.
         25    2    1    2    0    0 -0.35382212222E+02  0.35609477101E+02 -0.44230342111E+02  0.14177404655E+03  0.12499448512E+03 0.  0.
          2    1    1    2  501    0 -0.33337333328E+02 -0.30011451659E+02 -0.94781592522E+03  0.94887675339E+03  0.00000000000E+00 0. -1.
          1    1    1    2  502    0  0.68719545550E+02 -0.55980254419E+01  0.16985192024E+04  0.16999179965E+04  0.00000000000E+00 0. -1.
         22    1    3    3    0    0 -0.41253318920E+02 -0.27913234091E+02 -0.58060743202E+02  0.76498593846E+02  0.00000000000E+00 0.  1.
         22    1    3    3    0    0  0.58711066984E+01  0.63522711191E+02  0.13830401091E+02  0.65275452701E+02  0.00000000000E+00 0.  1.
</event>
<event>
 7    1  0.5537228E-006  0.2628543E+02  0.7818608E-02  0.1660964E+00
          2   -1    0    0  502    0  0.00000000000E+00  0.00000000000E+00  0.15832523591E+04  0.15832523591E+04  0.00000000000E+00 0. -1.
          1   -1    0    0  501    0 -0.00000000000E+00 -0.00000000000E+00 -0.18756915282E+03  0.18756915282E+03  0.00000000000E+00 0. -1.
         25    2    1    2    0    0  0.68300236665E+01 -0.16885502968E+01  0.50391722474E+02  0.13495816622E+03  0.12499952204E+03 0.  0.
          2    1    1    2  501    0 -0.86124025106E-01 -0.23782320517E+02 -0.14419537078E+03  0.14614346082E+03  0.00000000000E+00 0. -1.
          1    1    1    2  502    0 -0.67438996414E+01  0.25470870813E+02  0.14894868546E+04  0.14897198849E+04  0.00000000000E+00 0. -1.
         22    1    3    3    0    0 -0.27489077577E+02  0.16814620610E+01 -0.34022365460E+02  0.43772115007E+02  0.00000000000E+00 0. -1.
         22    1    3    3    0    0  0.34319101244E+02 -0.33700123578E+01  0.84414087935E+02  0.91186051210E+02  0.00000000000E+00 0. -1.
</event>
<event>
 7    1  0.5537228E-006  0.5370452E+02  0.7818608E-02  0.1520979E+00
          2   -1    0    0  502    0  0.00000000000E+00  0.00000000000E+00  0.47183796234E+03  0.47183796234E+03  0.00000000000E+00 0. -1.
          1   -1    0    0  501    0 -0.00000000000E+00 -0.00000000000E+00 -0.29460368914E+03  0.29460368914E+03  0.00000000000E+00 0. -1.
         25    2    1    2    0    0  0.22968109224E+02  0.76222414068E+02  0.18141461907E+03  0.23425129809E+03  0.12500006479E+03 0.  0.
          2    1    1    2  501    0 -0.21326925026E+02 -0.48934065713E+02 -0.26480716886E+03  0.27013370245E+03  0.00000000000E+00 0. -1.
          1    1    1    2  502    0 -0.16411841976E+01 -0.27288348355E+02  0.26062682299E+03  0.26205665094E+03  0.00000000000E+00 0. -1.
         22    1    3    3    0    0  0.17419588175E+02  0.91181009905E+02  0.57246299860E+02  0.10906217249E+03  0.00000000000E+00 0.  1.
         22    1    3    3    0    0  0.55485210485E+01 -0.14958595837E+02  0.12416831921E+03  0.12518912561E+03  0.00000000000E+00 0.  1.
</event>
<event>
 7    1  0.5537228E-006  0.5177987E+02  0.7818608E-02  0.1558094E+00
          2   -1    0    0  502    0  0.00000000000E+00  0.00000000000E+00  0.22290039832E+03  0.22290039832E+03  0.00000000000E+00 0. -1.
          1   -1    0    0  501    0 -0.00000000000E+00 -0.00000000000E+00 -0.11427743670E+04  0.11427743670E+04  0.00000000000E+00 0. -1.
         25    2    1    2    0    0  0.17629381642E+02 -0.42059467645E+02 -0.18070725024E+03  0.22441071449E+03  0.12500105828E+03 0.  0.
          2    1    1    2  501    0  0.22548744390E+01  0.52075311000E+02 -0.93887387043E+03  0.94031966217E+03  0.00000000000E+00 0. -1.
          1    1    1    2  502    0 -0.19884256081E+02 -0.10015843356E+02  0.19970715202E+03  0.20094438864E+03  0.00000000000E+00 0. -1.
         22    1    3    3    0    0  0.16207011428E+02 -0.49257905176E+02 -0.91016919133E+01  0.52648354556E+02  0.00000000000E+00 0.  1.
         22    1    3    3    0    0  0.14223702146E+01  0.71984375317E+01 -0.17160555833E+03  0.17176235993E+03  0.00000000000E+00 0.  1.
</event>
<event>
 7    1  0.5537228E-006  0.7701072E+02  0.7818608E-02  0.1420220E+00
          2   -1    0    0  502    0  0.00000000000E+00  0.00000000000E+00  0.11323824775E+04  0.11323824775E+04  0.00000000000E+00 0. -1.
          1   -1    0    0  501    0 -0.00000000000E+00 -0.00000000000E+00 -0.16118313003E+03  0.16118313003E+03  0.00000000000E+00 0. -1.
         25    2    1    2    0    0 -0.52831945778E+01  0.48957693935E+02  0.80746824206E+02  0.15674730162E+03  0.12499959602E+03 0.  0.
          2    1    1    2  501    0 -0.21663245486E+02 -0.77487501379E+02 -0.10961867102E+03  0.13597743236E+03  0.00000000000E+00 0. -1.
          1    1    1    2  502    0  0.26946440064E+02  0.28529807444E+02  0.10000711942E+04  0.10008408735E+04  0.00000000000E+00 0. -1.
         22    1    3    3    0    0  0.50948928347E+02  0.27272160197E+02  0.77120278621E+02  0.96369608260E+02  0.00000000000E+00 0.  1.
         22    1    3    3    0    0 -0.56232122925E+02  0.21685533738E+02  0.36265455849E+01  0.60377693356E+02  0.00000000000E+00 0.  1.
</event>
<event>
 7    1  0.5537228E-006  0.6611116E+02  0.7818608E-02  0.1445413E+00
          2   -1    0    0  502    0  0.00000000000E+00  0.00000000000E+00  0.18707639678E+04  0.18707639678E+04  0.00000000000E+00 0. -1.
          1   -1    0    0  501    0 -0.00000000000E+00 -0.00000000000E+00 -0.22926066046E+02  0.22926066046E+02  0.00000000000E+00 0. -1.
         25    2    1    2    0    0  0.46060178138E+02 -0.70090330868E+02  0.10433822729E+04  0.10541869305E+04  0.12501728919E+03 0.  0.
          2    1    1    2  501    0 -0.86172359527E+01  0.64942193141E+02  0.45863510925E+02  0.79970037137E+02  0.00000000000E+00 0. -1.
          1    1    1    2  502    0 -0.37442942185E+02  0.51481377268E+01  0.75859211792E+03  0.75953306618E+03  0.00000000000E+00 0. -1.
         22    1    3    3    0    0  0.26466713949E+01 -0.76580458129E+02  0.30419961976E+03  0.31370205625E+03  0.00000000000E+00 0. -1.
         22    1    3    3    0    0  0.43413506743E+02  0.64901272613E+01  0.73918265311E+03  0.74048487424E+03  0.00000000000E+00 0. -1.
</event>
<event>
 7    1  0.5537228E-006  0.5112181E+02  0.7818608E-02  0.1439983E+00
          2   -1    0    0  502    0  0.00000000000E+00  0.00000000000E+00  0.53773967280E+03  0.53773967280E+03  0.00000000000E+00 0. -1.
          1   -1    0    0  501    0 -0.00000000000E+00 -0.00000000000E+00 -0.10899860669E+03  0.10899860669E+03  0.00000000000E+00 0. -1.
         25    2    1    2    0    0 -0.15820323418E+02  0.50827460489E+02 -0.40687838458E+02  0.14187753954E+03  0.12506007618E+03 0.  0.
          2    1    1    2  501    0  0.57321402412E+02 -0.21369833969E+02  0.41516702680E+02  0.73932736861E+02  0.00000000000E+00 0. -1.
          1    1    1    2  502    0 -0.41501078994E+02 -0.29457626520E+02  0.42791220189E+03  0.43092800309E+03  0.00000000000E+00 0. -1.
         22    1    3    3    0    0 -0.41915584621E+02  0.18051824734E+02  0.33544102021E+02  0.56639133033E+02  0.00000000000E+00 0.  1.
         22    1    3    3    0    0  0.26095261203E+02  0.32775635755E+02 -0.74231940479E+02  0.85238406506E+02  0.00000000000E+00 0.  1.
</event>
<event>
 7    1  0.5537228E-006  0.9458123E+02  0.7818608E-02  0.1432194E+00
          2   -1    0    0  502    0  0.00000000000E+00  0.00000000000E+00  0.18526141878E+04  0.18526141878E+04  0.00000000000E+00 0. -1.
          1   -1    0    0  501    0 -0.00000000000E+00 -0.00000000000E+00 -0.18830029165E+04  0.18830029165E+04  0.00000000000E+00 0. -1.
         25    2    1    2    0    0 -0.17560720733E+02  0.64015510338E+02  0.20345363356E+02  0.14298503183E+03  0.12499768414E+03 0.  0.
          2    1    1    2  501    0 -0.12953691446E+02  0.26131680933E+02 -0.18202875316E+04  0.18205211783E+04  0.00000000000E+00 0. -1.
          1    1    1    2  502    0  0.30514412179E+02 -0.90147191271E+02  0.17695534396E+04  0.17721108941E+04  0.00000000000E+00 0. -1.
         22    1    3    3    0    0  0.40453862229E+02 -0.12317250155E+02 -0.79322858351E+01  0.43025001792E+02  0.00000000000E+00 0.  1.
         22    1    3    3    0    0 -0.58014582961E+02  0.76332760493E+02  0.28277649191E+02  0.99960030035E+02  0.00000000000E+00 0.  1.
</event>
<event>
 7    1  0.5537228E-006  0.1157318E+03  0.7818608E-02  0.1399937E+00
          2   -1    0    0  502    0  0.00000000000E+00  0.00000000000E+00  0.21410853201E+04  0.21410853201E+04  0.00000000000E+00 0. -1.
          1   -1    0    0  501    0 -0.00000000000E+00 -0.00000000000E+00 -0.16868479989E+03  0.16868479989E+03  0.00000000000E+00 0. -1.
         25    2    1    2    0    0 -0.59556784045E+02  0.96300396524E+02  0.50460909241E+03  0.53204903601E+03  0.12500025470E+03 0.  0.
          2    1    1    2  501    0  0.32864402983E+02 -0.11124502719E+03 -0.13309082485E+03  0.17654657380E+03  0.00000000000E+00 0. -1.
          1    1    1    2  502    0  0.26692381062E+02  0.14944630670E+02  0.16008822527E+04  0.16011745102E+04  0.00000000000E+00 0. -1.
         22    1    3    3    0    0 -0.37897873860E+02  0.12576919148E+03  0.41395574333E+03  0.43429655283E+03  0.00000000000E+00 0. -1.
         22    1    3    3    0    0 -0.21658910185E+02 -0.29468794956E+02  0.90653349083E+02  0.97752483174E+02  0.00000000000E+00 0. -1.
</event>
<event>
 7    1  0.5537228E-006  0.1387898E+03  0.7818608E-02  0.1245945E+00
          2   -1    0    0  502    0  0.00000000000E+00  0.00000000000E+00  0.29563472679E+04  0.29563472679E+04  0.00000000000E+00 0. -1.
          1   -1    0    0  501    0 -0.00000000000E+00 -0.00000000000E+00 -0.30919719611E+04  0.30919719611E+04  0.00000000000E+00 0. -1.
         25    2    1    2    0    0  0.16762965678E+02 -0.19786818763E+03 -0.37434858366E+02  0.23761167874E+03  0.12500049823E+03 0.  0.
          2    1    1    2  501    0 -0.71683536210E+02  0.70892144613E+02 -0.29519124246E+04  0.29536335568E+04  0.00000000000E+00 0. -1.
          1    1    1    2  502    0  0.54920570532E+02  0.12697604302E+03  0.28537225898E+04  0.28570739935E+04  0.00000000000E+00 0. -1.
         22    1    3    3    0    0  0.15665277419E+02 -0.10662508783E+03  0.42942059529E+02  0.11601004589E+03  0.00000000000E+00 0.  1.
         22    1    3    3    0    0  0.10976882594E+01 -0.91243099799E+02 -0.80376917895E+02  0.12160163285E+03  0.00000000000E+00 0.  1.
</event>
<event>
 7    1  0.5537228E-006  0.7645405E+02  0.7818608E-02  0.1393420E+00
          2   -1    0    0  502    0  0.00000000000E+00  0.00000000000E+00  0.32302209663E+04  0.32302209663E+04  0.00000000000E+00 0. -1.
          1   -1    0    0  501    0 -0.00000000000E+00 -0.00000000000E+00 -0.85610737101E+03  0.85610737101E+03  0.00000000000E+00 0. -1.
         25    2    1    2    0    0 -0.11032352198E+03 -0.35930581616E+02  0.14306681512E+03  0.22260900886E+03  0.12499748413E+03 0.  0.
          2    1    1    2  501    0  0.34291758277E+02  0.34680911723E+02 -0.81513289830E+03  0.81659067605E+03  0.00000000000E+00 0. -1.
          1    1    1    2  502    0  0.76031763705E+02  0.12496698930E+01  0.30461796785E+04  0.30471286524E+04  0.00000000000E+00 0. -1.
         22    1    3    3    0    0 -0.36559355930E+01  0.19246347987E+02 -0.14586652261E+02  0.24424540939E+02  0.00000000000E+00 0.  1.
         22    1    3    3    0    0 -0.10666758639E+03 -0.55176929604E+02  0.15765346738E+03  0.19818446792E+03  0.00000000000E+00 0.  1.
</event>
<event>
 7    1  0.5537228E-006  0.4238570E+02  0.7818608E-02  0.1535606E+00
          2   -1    0    0  502    0  0.00000000000E+00  0.00000000000E+00  0.39210198549E+03  0.39210198549E+03  0.00000000000E+00 0. -1.
          1   -1    0    0  501    0 -0.00000000000E+00 -0.00000000000E+00 -0.46368681355E+02  0.46368681355E+02  0.00000000000E+00 0. -1.
         25    2    1    2    0    0  0.14353222709E+02  0.28968565575E+02  0.82898811689E+02  0.15343561049E+03  0.12500032317E+03 0.  0.
          2    1    1    2  501    0 -0.36157292396E+02 -0.51625880140E+02  0.23410830874E+03  0.24244438850E+03  0.00000000000E+00 0. -1.
          1    1    1    2  502    0  0.21804069687E+02  0.22657314564E+02  0.28726183703E+02  0.42590667855E+02  0.00000000000E+00 0. -1.
         22    1    3    3    0    0 -0.42585942478E+02 -0.21087565586E+02  0.54916758021E+02  0.72622986929E+02  0.00000000000E+00 0. -1.
         22    1    3    3    0    0  0.56939165187E+02  0.50056131161E+02  0.27982053669E+02  0.80812623559E+02  0.00000000000E+00 0. -1.
</event>
<event>
 7    1  0.5537228E-006  0.1317855E+03  0.7818608E-02  0.1268643E+00
          2   -1    0    0  502    0  0.00000000000E+00  0.00000000000E+00  0.13257135875E+04  0.13257135875E+04  0.00000000000E+00 0. -1.
          1   -1    0    0  501    0 -0.00000000000E+00 -0.00000000000E+00 -0.14169815677E+04  0.14169815677E+04  0.00000000000E+00 0. -1.
         25    2    1    2    0    0  0.54162096500E+02 -0.15317423433E+03  0.65655472861E+02  0.21524586625E+03  0.12499705220E+03 0.  0.
          2    1    1    2  501    0 -0.10204852862E+03  0.83113014733E+02 -0.13374331572E+04  0.13438932716E+04  0.00000000000E+00 0. -1.
          1    1    1    2  502    0  0.47886432123E+02  0.70061219596E+02  0.11805097041E+04  0.11835560174E+04  0.00000000000E+00 0. -1.
         22    1    3    3    0    0  0.61800761794E+02 -0.11561640172E+02  0.25545742638E+02  0.67864502125E+02  0.00000000000E+00 0.  1.
         22    1    3    3    0    0 -0.76386652943E+01 -0.14161259416E+03  0.40109730223E+02  0.14738136412E+03  0.00000000000E+00 0.  1.
</event>
<event>
 7    1  0.5537228E-006  0.1195513E+03  0.7818608E-02  0.1278562E+00
          2   -1    0    0  502    0  0.00000000000E+00  0.00000000000E+00  0.22984061595E+04  0.22984061595E+04  0.00000000000E+00 0. -1.
          1   -1    0    0  501    0 -0.00000000000E+00 -0.00000000000E+00 -0.76057022515E+03  0.76057022515E+03  0.00000000000E+00 0. -1.
         25    2    1    2    0    0  0.27306279263E+02  0.20141508196E+03  0.16033578973E+04  0.16210167910E+04  0.12500088720E+03 0.  0.
          2    1    1    2  501    0 -0.26252216104E+02 -0.11638280969E+03 -0.74433734085E+03  0.75383832101E+03  0.00000000000E+00 0. -1.
          1    1    1    2  502    0 -0.10540631588E+01 -0.85032272269E+02  0.67881537793E+03  0.68412127265E+03  0.00000000000E+00 0. -1.
         22    1    3    3    0    0 -0.36907549772E+02  0.15348042707E+03  0.10064218660E+04  0.10187263524E+04  0.00000000000E+00 0.  1.
         22    1    3    3    0    0  0.64213829035E+02  0.47934654881E+02  0.59693603129E+03  0.60229043860E+03  0.00000000000E+00 0.  1.
</event>
<event>
 7    1  0.5537228E-006  0.1796810E+03  0.7818608E-02  0.1369811E+00
          2   -1    0    0  502    0  0.00000000000E+00  0.00000000000E+00  0.15180764895E+04  0.15180764895E+04  0.00000000000E+00 0. -1.
          1   -1    0    0  501    0 -0.00000000000E+00 -0.00000000000E+00 -0.10227412318E+03  0.10227412318E+03  0.00000000000E+00 0. -1.
         25    2    1    2    0    0 -0.19854100034E+03  0.37418973456E+02  0.77381161649E+03  0.80946202906E+03  0.12500260107E+03 0.  0.
          2    1    1    2  501    0  0.17447159654E+03 -0.30135224184E+02  0.88788765744E+01  0.17727747794E+03  0.00000000000E+00 0. -1.
          1    1    1    2  502    0  0.24069403802E+02 -0.72837492726E+01  0.63311187324E+03  0.63361110568E+03  0.00000000000E+00 0. -1.
         22    1    3    3    0    0 -0.21026598948E+03  0.39639985928E+02  0.63381710925E+03  0.66895982151E+03  0.00000000000E+00 0. -1.
         22    1    3    3    0    0  0.11724989144E+02 -0.22210124711E+01  0.13999450724E+03  0.14050220755E+03  0.00000000000E+00 0. -1.
</event>
<event>
 7    1  0.5537228E-006  0.7173260E+02  0.7818608E-02  0.1483783E+00
          2   -1    0    0  502    0  0.00000000000E+00  0.00000000000E+00  0.21009783902E+04  0.21009783902E+04  0.00000000000E+00 0. -1.
          1   -1    0    0  501    0 -0.00000000000E+00 -0.00000000000E+00 -0.28027107859E+03  0.28027107859E+03  0.00000000000E+00 0. -1.
         25    2    1    2    0    0  0.87515502623E+02 -0.29948341230E+02  0.16163443544E+03  0.22428958946E+03  0.12499705148E+03 0.  0.
          2    1    1    2  501    0 -0.70564287769E+02  0.97011909311E+01 -0.24375505489E+03  0.25394873223E+03  0.00000000000E+00 0. -1.
          1    1    1    2  502    0 -0.16951214854E+02  0.20247150299E+02  0.19028279310E+04  0.19030111471E+04  0.00000000000E+00 0. -1.
         22    1    3    3    0    0  0.81718363544E+02 -0.72340647800E+02  0.92885905603E+02  0.14331382252E+03  0.00000000000E+00 0.  1.
         22    1    3    3    0    0  0.57971390789E+01  0.42392306570E+02  0.68748529836E+02  0.80975766946E+02  0.00000000000E+00 0.  1.
</event>
<event>
 7    1  0.5537228E-006  0.8588301E+02  0.7818608E-02  0.1455069E+00
          2   -1    0    0  502    0  0.00000000000E+00  0.00000000000E+00  0.22013868924E+03  0.22013868924E+03  0.00000000000E+00 0. -1.
          1   -1    0    0  501    0 -0.00000000000E+00 -0.00000000000E+00 -0.10711561047E+04  0.10711561047E+04  0.00000000000E+00 0. -1.
         25    2    1    2    0    0 -0.31525963646E+01 -0.10347336228E+03  0.25199545651E+02  0.16424655530E+03  0.12500095304E+03 0.  0.
          2    1    1    2  501    0  0.20899233083E+02  0.82996737109E+02 -0.99831627176E+03  0.10019783505E+04  0.00000000000E+00 0. -1.
          1    1    1    2  502    0 -0.17746636718E+02  0.20476625170E+02  0.12209931060E+03  0.12506988824E+03  0.00000000000E+00 0. -1.
         22    1    3    3    0    0 -0.13904485082E+02  0.19403535636E+02 -0.21723909584E+02  0.32276309395E+02  0.00000000000E+00 0. -1.
         22    1    3    3    0    0  0.10751888717E+02 -0.12287689792E+03  0.46923455235E+02  0.13197024590E+03  0.00000000000E+00 0. -1.
</event>
<event>
 7    1  0.5537228E-006  0.7167471E+02  0.7818608E-02  0.1452809E+00
          2   -1    0    0  502    0  0.00000000000E+00  0.00000000000E+00  0.10078602418E+04  0.10078602418E+04  0.00000000000E+00 0. -1.
          1   -1    0    0  501    0 -0.00000000000E+00 -0.00000000000E+00 -0.18995933813E+03  0.18995933813E+03  0.00000000000E+00 0. -1.
         25    2    1    2    0    0  0.35558588632E+02  0.93029042646E+02  0.53786535587E+03  0.56110910081E+03  0.12500186385E+03 0.  0.
          2    1    1    2  501    0 -0.11525121907E+02 -0.70399996217E+02 -0.17057555377E+03  0.18489188042E+03  0.00000000000E+00 0. -1.
          1    1    1    2  502    0 -0.24033466725E+02 -0.22629046429E+02  0.45061110158E+03  0.45181859870E+03  0.00000000000E+00 0. -1.
         22    1    3    3    0    0  0.80382113449E+02  0.38566363133E+02  0.28880438554E+03  0.30225257920E+03  0.00000000000E+00 0. -1.
         22    1    3    3    0    0 -0.44823524817E+02  0.54462679514E+02  0.24906097033E+03  0.25885652161E+03  0.00000000000E+00 0. -1.
</event>
<event>
 7    1  0.5537228E-006  0.2819652E+02  0.7818608E-02  0.1671712E+00
          2   -1    0    0  502    0  0.00000000000E+00  0.00000000000E+00  0.15755474453E+04  0.15755474453E+04  0.00000000000E+00 0. -1.
          1   -1    0    0  501    0 -0.00000000000E+00 -0.00000000000E+00 -0.33924041426E+03  0.33924041426E+03  0.00000000000E+00 0. -1.
         25    2    1    2    0    0  0.45686772428E+02  0.17739579370E+02 -0.12315558747E+03  0.18220321336E+03  0.12501495264E+03 0.  0.
          2    1    1    2  501    0 -0.19874873426E+02 -0.64345053071E+01 -0.18584734557E+03  0.18701777805E+03  0.00000000000E+00 0. -1.
          1    1    1    2  502    0 -0.25811899002E+02 -0.11305074063E+02  0.15453099641E+04  0.15455668682E+04  0.00000000000E+00 0. -1.
         22    1    3    3    0    0  0.82499044989E+02 -0.62939848120E+01 -0.49472605809E+02  0.96401480251E+02  0.00000000000E+00 0.  1.
         22    1    3    3    0    0 -0.36812272562E+02  0.24033564182E+02 -0.73682981663E+02  0.85801733113E+02  0.00000000000E+00 0.  1.
</event>
<event>
 7    1  0.5537228E-006  0.1207786E+03  0.7818608E-02  0.1432303E+00
          2   -1    0    0  502    0  0.00000000000E+00  0.00000000000E+00  0.47104659895E+03  0.47104659895E+03  0.00000000000E+00 0. -1.
          1   -1    0    0  501    0 -0.00000000000E+00 -0.00000000000E+00 -0.44278062183E+03  0.44278062183E+03  0.00000000000E+00 0. -1.
         25    2    1    2    0    0 -0.48733218276E+02 -0.93123271990E+02 -0.14449309693E+03  0.21805943031E+03  0.12499915895E+03 0.  0.
          2    1    1    2  501    0  0.54419863439E+02  0.11522449653E+03 -0.24565109026E+03  0.27673573005E+03  0.00000000000E+00 0. -1.
          1    1    1    2  502    0 -0.56866451630E+01 -0.22101224542E+02  0.41841016431E+03  0.41903206042E+03  0.00000000000E+00 0. -1.
         22    1    3    3    0    0  0.20546780929E+02 -0.91696757207E+02 -0.80509522791E+02  0.12374267150E+03  0.00000000000E+00 0. -1.
         22    1    3    3    0    0 -0.69279999205E+02 -0.14265147837E+01 -0.63983574136E+02  0.94316758815E+02  0.00000000000E+00 0. -1.
</event>
<event>
 7    1  0.5537228E-006  0.7879997E+02  0.7818608E-02  0.1362764E+00
          2   -1    0    0  502    0  0.00000000000E+00  0.00000000000E+00  0.23111211025E+03  0.23111211025E+03  0.00000000000E+00 0. -1.
          1   -1    0    0  501    0 -0.00000000000E+00 -0.00000000000E+00 -0.21085241988E+04  0.21085241988E+04  0.00000000000E+00 0. -1.
         25    2    1    2    0    0  0.51326285023E+01  0.50739433532E+02 -0.72639477584E+02  0.15330573608E+03  0.12500128408E+03 0.  0.
          2    1    1    2  501    0  0.55308419660E+02 -0.57389064483E+02 -0.19898884113E+04  0.19914839732E+04  0.00000000000E+00 0. -1.
          1    1    1    2  502    0 -0.60441048162E+02  0.66496309515E+01  0.18511580036E+03  0.19484659976E+03  0.00000000000E+00 0. -1.
         22    1    3    3    0    0 -0.59938206242E+02  0.26926358717E+02 -0.34733247831E+02  0.74323723441E+02  0.00000000000E+00 0. -1.
         22    1    3    3    0    0  0.65070834744E+02  0.23813074815E+02 -0.37906229753E+02  0.78982012639E+02  0.00000000000E+00 0. -1.
</event>
<event>
 7    1  0.5537228E-006  0.8858150E+02  0.7818608E-02  0.1470163E+00
          2   -1    0    0  502    0  0.00000000000E+00  0.00000000000E+00  0.45718842370E+03  0.45718842370E+03  0.00000000000E+00 0. -1.
          1   -1    0    0  501    0 -0.00000000000E+00 -0.00000000000E+00 -0.13618377179E+04  0.13618377179E+04  0.00000000000E+00 0. -1.
         25    2    1    2    0    0 -0.43018665665E+02 -0.80751622727E+02  0.12711098862E+03  0.20038477837E+03  0.12500170322E+03 0.  0.
          2    1    1    2  501    0  0.20120922991E+02  0.86267358106E+02 -0.13232449622E+04  0.13262066727E+04  0.00000000000E+00 0. -1.
          1    1    1    2  502    0  0.22897742674E+02 -0.55157353795E+01  0.29148467937E+03  0.29243469059E+03  0.00000000000E+00 0. -1.
         22    1    3    3    0    0  0.14565968567E+02  0.28095097877E+02  0.29256775639E+02  0.43098270103E+02  0.00000000000E+00 0.  1.
         22    1    3    3    0    0 -0.57584634232E+02 -0.10884672060E+03  0.97854212976E+02  0.15728650827E+03  0.00000000000E+00 0.  1.
</event>
<event>
 7    1  0.5537228E-006  0.9963776E+02  0.7818608E-02  0.1387844E+00
          2   -1    0    0  502    0  0.00000000000E+00  0.00000000000E+00  0.46447469407E+02  0.46447469407E+02  0.00000000000E+00 0. -1.
          1   -1    0    0  501    0 -0.00000000000E+00 -0.00000000000E+00 -0.17619507415E+04  0.17619507415E+04  0.00000000000E+00 0. -1.
         25    2    1    2    0    0 -0.66804053012E+02  0.82497855461E+01 -0.21447149909E+03  0.25720671832E+03  0.12500572614E+03 0.  0.
          2    1    1    2  501    0  0.96765724359E+02 -0.33429248300E+02 -0.15079725323E+04  0.15114437728E+04  0.00000000000E+00 0. -1.
          1    1    1    2  502    0 -0.29961671348E+02  0.25179462754E+02  0.69407592645E+01  0.39747719856E+02  0.00000000000E+00 0. -1.
         22    1    3    3    0    0 -0.88583625896E+02  0.44302558083E+02 -0.13740788487E+03  0.16938329981E+03  0.00000000000E+00 0. -1.
         22    1    3    3    0    0  0.21779572884E+02 -0.36052772537E+02 -0.77063614226E+02  0.87823418518E+02  0.00000000000E+00 0. -1.
</event>
<event>
 7    1  0.5537228E-006  0.2139351E+03  0.7818608E-02  0.1227610E+00
          2   -1    0    0  502    0  0.00000000000E+00  0.00000000000E+00  0.54373815962E+03  0.54373815962E+03  0.00000000000E+00 0. -1.
          1   -1    0    0  501    0 -0.00000000000E+00 -0.00000000000E+00 -0.58536175497E+03  0.58536175497E+03  0.00000000000E+00 0. -1.
         25    2    1    2    0    0  0.17814392943E+03 -0.67075144742E+02  0.17419532828E+03  0.28671120312E+03  0.12499986786E+03 0.  0.
          2    1    1    2  501    0 -0.16251215111E+03  0.14438054318E+03 -0.50119844645E+03  0.54631110481E+03  0.00000000000E+00 0. -1.
          1    1    1    2  502    0 -0.15631778310E+02 -0.77305398441E+02  0.28537952282E+03  0.29607760666E+03  0.00000000000E+00 0. -1.
         22    1    3    3    0    0  0.17928290309E+03 -0.72607267585E+02  0.18926341324E+03  0.27061931608E+03  0.00000000000E+00 0. -1.
         22    1    3    3    0    0 -0.11389736622E+01  0.55321228426E+01 -0.15068084958E+02  0.16091887038E+02  0.00000000000E+00 0. -1.
</event>
<event>
 7    1  0.5537228E-006  0.2633871E+03  0.7818608E-02  0.1222340E+00
          2   -1    0    0  502    0  0.00000000000E+00  0.00000000000E+00  0.30905833411E+03  0.30905833411E+03  0.00000000000E+00 0. -1.
          1   -1    0    0  501    0 -0.00000000000E+00 -0.00000000000E+00 -0.18843429452E+04  0.18843429452E+04  0.00000000000E+00 0. -1.
         25    2    1    2    0    0  0.20383042904E+03  0.14648582835E+03 -0.50101228511E+03  0.57414581427E+03  0.12500065799E+03 0.  0.
          2    1    1    2  501    0  0.44271820205E+02 -0.51184439742E+02 -0.12808507980E+04  0.12826373641E+04  0.00000000000E+00 0. -1.
          1    1    1    2  502    0 -0.24810224925E+03 -0.95301388605E+02  0.20657847208E+03  0.33661810094E+03  0.00000000000E+00 0. -1.
         22    1    3    3    0    0  0.17600386348E+03  0.56532936597E+02 -0.35816279495E+03  0.40305572886E+03  0.00000000000E+00 0. -1.
         22    1    3    3    0    0  0.27826565559E+02  0.89952891751E+02 -0.14284949016E+03  0.17109008541E+03  0.00000000000E+00 0. -1.
</event>
<event>
 7    1  0.5537228E-006  0.7339475E+02  0.7818608E-02  0.1437949E+00
          2   -1    0    0  502    0  0.00000000000E+00  0.00000000000E+00  0.74162645610E+03  0.74162645610E+03  0.00000000000E+00 0. -1.
          1   -1    0    0  501    0 -0.00000000000E+00 -0.00000000000E+00 -0.56954771044E+03  0.56954771044E+03  0.00000000000E+00 0. -1.
         25    2    1    2    0    0  0.22719453120E+02 -0.64049357293E+02 -0.24549425359E+03  0.28371924875E+03  0.12494274627E+03 0.  0.
          2    1    1    2  501    0  0.32473977428E+02  0.15520931813E+02 -0.30200064132E+03  0.30413787316E+03  0.00000000000E+00 0. -1.
          1    1    1    2  502    0 -0.55193430548E+02  0.48528425481E+02  0.71957364057E+03  0.72331704463E+03  0.00000000000E+00 0. -1.
         22    1    3    3    0    0 -0.24287169357E+02 -0.84263274381E+02 -0.12386693618E+03  0.15176687347E+03  0.00000000000E+00 0. -1.
         22    1    3    3    0    0  0.47006622477E+02  0.20213917088E+02 -0.12162731741E+03  0.13195237528E+03  0.00000000000E+00 0. -1.
</event>
<event>
 7    1  0.5537228E-006  0.1364226E+03  0.7818608E-02  0.1249377E+00
          2   -1    0    0  502    0  0.00000000000E+00  0.00000000000E+00  0.42529935084E+03  0.42529935084E+03  0.00000000000E+00 0. -1.
          1   -1    0    0  501    0 -0.00000000000E+00 -0.00000000000E+00 -0.13100846651E+04  0.13100846651E+04  0.00000000000E+00 0. -1.
         25    2    1    2    0    0  0.96131272457E+02  0.14494330497E+03  0.22288745208E+03  0.30911743869E+03  0.12499996564E+03 0.  0.
          2    1    1    2  501    0  0.25883282967E+01 -0.13629802242E+03 -0.12474766626E+04  0.12549031334E+04  0.00000000000E+00 0. -1.
          1    1    1    2  502    0 -0.98719600754E+02 -0.86452825412E+01  0.13980389628E+03  0.17136344388E+03  0.00000000000E+00 0. -1.
         22    1    3    3    0    0  0.63081006139E+02  0.15784568129E+03  0.21255200984E+03  0.27216324022E+03  0.00000000000E+00 0. -1.
         22    1    3    3    0    0  0.33050266318E+02 -0.12902376327E+02  0.10335442235E+02  0.36954198473E+02  0.00000000000E+00 0. -1.
</event>
<event>
 7    1  0.5537228E-006  0.4198516E+02  0.7818608E-02  0.1531092E+00
          2   -1    0    0  502    0  0.00000000000E+00  0.00000000000E+00  0.77871434313E+03  0.77871434313E+03  0.00000000000E+00 0. -1.
          1   -1    0    0  501    0 -0.00000000000E+00 -0.00000000000E+00 -0.11631820939E+04  0.11631820939E+04  0.00000000000E+00 0. -1.
         25    2    1    2    0    0 -0.25908790371E+00 -0.48733329659E+02 -0.95151149557E+02  0.16447913563E+03  0.12499856099E+03 0.  0.
          2    1    1    2  501    0  0.27882882409E+02  0.17082961653E+02 -0.10325149300E+04  0.10330326052E+04  0.00000000000E+00 0. -1.
          1    1    1    2  502    0 -0.27623794505E+02  0.31650368007E+02  0.74319832886E+03  0.74438469613E+03  0.00000000000E+00 0. -1.
         22    1    3    3    0    0  0.28049011405E+02  0.26240045142E+02  0.20950041542E+01  0.38466557583E+02  0.00000000000E+00 0.  1.
         22    1    3    3    0    0 -0.28308099309E+02 -0.74973374801E+02 -0.97246153712E+02  0.12601257805E+03  0.00000000000E+00 0.  1.
</event>
<event>
 7    1  0.5537228E-006  0.4651525E+02  0.7818608E-02  0.1514371E+00
          2   -1    0    0  502    0  0.00000000000E+00  0.00000000000E+00  0.70125950752E+02  0.70125950752E+02  0.00000000000E+00 0. -1.
          1   -1    0    0  501    0 -0.00000000000E+00 -0.00000000000E+00 -0.10639098288E+04  0.10639098288E+04  0.00000000000E+00 0. -1.
         25    2    1    2    0    0 -0.17130575212E+02  0.15453558838E+02 -0.14623326835E+03  0.19375762082E+03  0.12500231103E+03 0.  0.
          2    1    1    2  501    0  0.73489533755E+01  0.32164437880E+02 -0.88077760082E+03  0.88139533711E+03  0.00000000000E+00 0. -1.
          1    1    1    2  502    0  0.97816218367E+01 -0.47617996717E+02  0.33226991157E+02  0.58882821591E+02  0.00000000000E+00 0. -1.
         22    1    3    3    0    0  0.51550791619E+02  0.23490776386E+02 -0.79821318340E+02  0.97881272740E+02  0.00000000000E+00 0. -1.
         22    1    3    3    0    0 -0.68681366831E+02 -0.80372175483E+01 -0.66411950014E+02  0.95876348076E+02  0.00000000000E+00 0. -1.
</event>
<event>
 7    1  0.5537228E-006  0.4977013E+02  0.7818608E-02  0.1502216E+00
          2   -1    0    0  502    0  0.00000000000E+00  0.00000000000E+00  0.18013257527E+04  0.18013257527E+04  0.00000000000E+00 0. -1.
          1   -1    0    0  501    0 -0.00000000000E+00 -0.00000000000E+00 -0.28564259346E+03  0.28564259346E+03  0.00000000000E+00 0. -1.
         25    2    1    2    0    0  0.76973024098E+02 -0.19001686974E+02  0.10961968509E+03  0.18419358068E+03  0.12499955704E+03 0.  0.
          2    1    1    2  501    0 -0.33229821294E+02 -0.41669490455E+01 -0.24685443625E+03  0.24911583086E+03  0.00000000000E+00 0. -1.
          1    1    1    2  502    0 -0.43743202804E+02  0.23168636020E+02  0.16529179104E+04  0.16536589346E+04  0.00000000000E+00 0. -1.
         22    1    3    3    0    0  0.84161413364E+02 -0.24281179473E+02  0.14655644796E+02  0.88811638317E+02  0.00000000000E+00 0.  1.
         22    1    3    3    0    0 -0.71883892668E+01  0.52794924990E+01  0.94964040289E+02  0.95381942365E+02  0.00000000000E+00 0.  1.
</event>
<event>
 7    1  0.5537228E-006  0.5704718E+02  0.7818608E-02  0.1417692E+00
          2   -1    0    0  502    0  0.00000000000E+00  0.00000000000E+00  0.47717052592E+03  0.47717052592E+03  0.00000000000E+00 0. -1.
          1   -1    0    0  501    0 -0.00000000000E+00 -0.00000000000E+00 -0.23061094701E+03  0.23061094701E+03  0.00000000000E+00 0. -1.
         25    2    1    2    0    0 -0.24839192908E+02 -0.60523078260E+02  0.54627053947E+02  0.15127977753E+03  0.12498570942E+03 0.  0.
          2    1    1    2  501    0 -0.28217175184E+02  0.50373610644E+02 -0.17568863857E+03  0.18493298069E+03  0.00000000000E+00 0. -1.
          1    1    1    2  502    0  0.53056368092E+02  0.10149467617E+02  0.36762116352E+03  0.37156871472E+03  0.00000000000E+00 0. -1.
         22    1    3    3    0    0  0.28550365446E+02 -0.78048485832E+02  0.20721966424E+02  0.85650974310E+02  0.00000000000E+00 0. -1.
         22    1    3    3    0    0 -0.53389558354E+02  0.17525407572E+02  0.33905087523E+02  0.65628803217E+02  0.00000000000E+00 0. -1.
</event>
<event>
 7    1  0.5537228E-006  0.7681670E+02  0.7818608E-02  0.1366448E+00
          2   -1    0    0  502    0  0.00000000000E+00  0.00000000000E+00  0.59242155900E+03  0.59242155900E+03  0.00000000000E+00 0. -1.
          1   -1    0    0  501    0 -0.00000000000E+00 -0.00000000000E+00 -0.14384667765E+03  0.14384667765E+03  0.00000000000E+00 0. -1.
         25    2    1    2    0    0  0.44668838210E+01  0.49297263718E+01 -0.12310170009E+02  0.12578459452E+03  0.12500387466E+03 0.  0.
          2    1    1    2  501    0 -0.54679269120E+02 -0.63063379675E+02 -0.47696129725E+02  0.96133933230E+02  0.00000000000E+00 0. -1.
          1    1    1    2  502    0  0.50212385299E+02  0.58133653303E+02  0.50858118109E+03  0.51434970890E+03  0.00000000000E+00 0. -1.
         22    1    3    3    0    0 -0.34686075999E+02 -0.16960851091E+02 -0.52762786139E+02  0.65381235374E+02  0.00000000000E+00 0.  1.
         22    1    3    3    0    0  0.39152959820E+02  0.21890577462E+02  0.40452616130E+02  0.60403359145E+02  0.00000000000E+00 0.  1.
</event>
<event>
 7    1  0.5537228E-006  0.1034437E+03  0.7818608E-02  0.1310474E+00
          2   -1    0    0  502    0  0.00000000000E+00  0.00000000000E+00  0.65843426354E+03  0.65843426354E+03  0.00000000000E+00 0. -1.
          1   -1    0    0  501    0 -0.00000000000E+00 -0.00000000000E+00 -0.42152058604E+03  0.42152058604E+03  0.00000000000E+00 0. -1.
         25    2    1    2    0    0 -0.59703310949E+02 -0.79029965437E+02 -0.17860526550E+03  0.23944650273E+03  0.12499826410E+03 0.  0.
          2    1    1    2  501    0 -0.46024208499E+01  0.11367390646E+03 -0.19493242744E+03  0.22570243808E+03  0.00000000000E+00 0. -1.
          1    1    1    2  502    0  0.64305731799E+02 -0.34643941019E+02  0.61045137045E+03  0.61480590878E+03  0.00000000000E+00 0. -1.
         22    1    3    3    0    0 -0.70077947356E+02  0.91487232029E+01 -0.81196783529E+02  0.10764541559E+03  0.00000000000E+00 0.  1.
         22    1    3    3    0    0  0.10374636407E+02 -0.88178688640E+02 -0.97408481974E+02  0.13180108714E+03  0.00000000000E+00 0.  1.
</event>
<event>
 7    1  0.5537228E-006  0.4179893E+02  0.7818608E-02  0.1578264E+00
          2   -1    0    0  502    0  0.00000000000E+00  0.00000000000E+00  0.77007342076E+02  0.77007342076E+02  0.00000000000E+00 0. -1.
          1   -1    0    0  501    0 -0.00000000000E+00 -0.00000000000E+00 -0.42684124219E+03  0.42684124219E+03  0.00000000000E+00 0. -1.
         25    2    1    2    0    0  0.24056755770E+02 -0.30470272012E+02 -0.49706130356E+02  0.13999776485E+03  0.12498603839E+03 0.  0.
          2    1    1    2  501    0 -0.40240639261E+02  0.12338367377E+02 -0.32579507643E+03  0.32850262736E+03  0.00000000000E+00 0. -1.
          1    1    1    2  502    0  0.16183883491E+02  0.18131904634E+02  0.25667306668E+02  0.35348192063E+02  0.00000000000E+00 0. -1.
         22    1    3    3    0    0  0.42693854214E+02 -0.72533813573E+02 -0.38991623775E+02  0.92759182962E+02  0.00000000000E+00 0.  1.
         22    1    3    3    0    0 -0.18637098445E+02  0.42063541561E+02 -0.10714506581E+02  0.47238581883E+02  0.00000000000E+00 0.  1.
</event>
<event>
 7    1  0.5537228E-006  0.6650598E+02  0.7818608E-02  0.1379939E+00
          2   -1    0    0  502    0  0.00000000000E+00  0.00000000000E+00  0.51595121912E+03  0.51595121912E+03  0.00000000000E+00 0. -1.
          1   -1    0    0  501    0 -0.00000000000E+00 -0.00000000000E+00 -0.57452472888E+03  0.57452472888E+03  0.00000000000E+00 0. -1.
         25    2    1    2    0    0  0.11896431622E+03 -0.34078601443E+02  0.45623888053E+01  0.17595493698E+03  0.12500185937E+03 0.  0.
          2    1    1    2  501    0 -0.56466407877E+02  0.32608793885E+02 -0.48433665349E+03  0.48870623341E+03  0.00000000000E+00 0. -1.
          1    1    1    2  502    0 -0.62497908343E+02  0.14698075579E+01  0.42120075492E+03  0.42581477761E+03  0.00000000000E+00 0. -1.
         22    1    3    3    0    0  0.41663882781E+02 -0.35026259697E+01  0.62095176154E+02  0.74859591361E+02  0.00000000000E+00 0. -1.
         22    1    3    3    0    0  0.77300433439E+02 -0.30575975474E+02 -0.57532787349E+02  0.10109534562E+03  0.00000000000E+00 0. -1.
</event>
<event>
 7    1  0.5537228E-006  0.1253007E+03  0.7818608E-02  0.1355144E+00
          2   -1    0    0  502    0  0.00000000000E+00  0.00000000000E+00  0.32352849133E+04  0.32352849133E+04  0.00000000000E+00 0. -1.
          1   -1    0    0  501    0 -0.00000000000E+00 -0.00000000000E+00 -0.43712714728E+02  0.43712714728E+02  0.00000000000E+00 0. -1.
         25    2    1    2    0    0  0.68268852623E+02 -0.57183202903E+02  0.19530617073E+04  0.19590829385E+04  0.12500149016E+03 0.  0.
          2    1    1    2  501    0 -0.85592411523E+02  0.94092619312E+02  0.59896068141E+02  0.14059523782E+03  0.00000000000E+00 0. -1.
          1    1    1    2  502    0  0.17323558900E+02 -0.36909416409E+02  0.11786144232E+04  0.11793194517E+04  0.00000000000E+00 0. -1.
         22    1    3    3    0    0  0.29284559418E+02  0.28402297041E+02  0.24007217044E+03  0.24351370170E+03  0.00000000000E+00 0. -1.
         22    1    3    3    0    0  0.38984293205E+02 -0.85585499944E+02  0.17129895368E+04  0.17155692368E+04  0.00000000000E+00 0. -1.
</event>
<event>
 7    1  0.5537228E-006  0.4086445E+02  0.7818608E-02  0.1556391E+00
          2   -1    0    0  502    0  0.00000000000E+00  0.00000000000E+00  0.17328920087E+03  0.17328920087E+03  0.00000000000E+00 0. -1.
          1   -1    0    0  501    0 -0.00000000000E+00 -0.00000000000E+00 -0.62205861773E+03  0.62205861773E+03  0.00000000000E+00 0. -1.
         25    2    1    2    0    0 -0.21454558558E+02 -0.32963154467E+02 -0.53262599199E+03  0.54850665991E+03  0.12498896348E+03 0.  0.
          2    1    1    2  501    0 -0.38276091319E+01  0.46159066986E+02 -0.73524287515E+02  0.86897243404E+02  0.00000000000E+00 0. -1.
          1    1    1    2  502    0  0.25282167690E+02 -0.13195912519E+02  0.15738086264E+03  0.15994391528E+03  0.00000000000E+00 0. -1.
         22    1    3    3    0    0 -0.35928491430E+01 -0.79349915099E+02 -0.28061633470E+03  0.29164163779E+03  0.00000000000E+00 0. -1.
         22    1    3    3    0    0 -0.17861709415E+02  0.46386760632E+02 -0.25200965729E+03  0.25686502212E+03  0.00000000000E+00 0. -1.
</event>
<event>
 7    1  0.5537228E-006  0.1143719E+03  0.7818608E-02  0.1406080E+00
          2   -1    0    0  502    0  0.00000000000E+00  0.00000000000E+00  0.15514347054E+03  0.15514347054E+03  0.00000000000E+00 0. -1.
          1   -1    0    0  501    0 -0.00000000000E+00 -0.00000000000E+00 -0.16882439870E+04  0.16882439870E+04  0.00000000000E+00 0. -1.
         25    2    1    2    0    0  0.38334537981E+02 -0.13515933169E+03 -0.44099565375E+03  0.47941592179E+03  0.12499951078E+03 0.  0.
          2    1    1    2  501    0 -0.16940544440E+02  0.24141034079E+02 -0.12043171565E+04  0.12046782081E+04  0.00000000000E+00 0. -1.
          1    1    1    2  502    0 -0.21393993541E+02  0.11101829761E+03  0.11221229378E+03  0.15929332767E+03  0.00000000000E+00 0. -1.
         22    1    3    3    0    0  0.47421023510E+01 -0.13701410782E+03 -0.41452330603E+03  0.43660614347E+03  0.00000000000E+00 0. -1.
         22    1    3    3    0    0  0.33592435630E+02  0.18547761276E+01 -0.26472347722E+02  0.42809778322E+02  0.00000000000E+00 0. -1.
</event>
<event>
 7    1  0.5537228E-006  0.6797535E+02  0.7818608E-02  0.1379326E+00
          2   -1    0    0  502    0  0.00000000000E+00  0.00000000000E+00  0.30142114817E+03  0.30142114817E+03  0.00000000000E+00 0. -1.
          1   -1    0    0  501    0 -0.00000000000E+00 -0.00000000000E+00 -0.12782140573E+04  0.12782140573E+04  0.00000000000E+00 0. -1.
         25    2    1    2    0    0  0.19380641151E+02 -0.66114665028E+01 -0.20823698355E+03  0.24373457643E+03  0.12499832674E+03 0.  0.
          2    1    1    2  501    0 -0.59879028034E+02 -0.39632916561E+02 -0.10476546687E+04  0.10501126468E+04  0.00000000000E+00 0. -1.
          1    1    1    2  502    0  0.40498386883E+02  0.46244383064E+02  0.27909874320E+03  0.28578798218E+03  0.00000000000E+00 0. -1.
         22    1    3    3    0    0  0.14451287434E+02  0.58529520710E+02 -0.84362336356E+02  0.10368967306E+03  0.00000000000E+00 0.  1.
         22    1    3    3    0    0  0.49293537174E+01 -0.65140987213E+02 -0.12387464719E+03  0.14004490337E+03  0.00000000000E+00 0.  1.
</event>
<event>
 7    1  0.5537228E-006  0.5109656E+02  0.7818608E-02  0.1536309E+00
          2   -1    0    0  502    0  0.00000000000E+00  0.00000000000E+00  0.23849142646E+03  0.23849142646E+03  0.00000000000E+00 0. -1.
          1   -1    0    0  501    0 -0.00000000000E+00 -0.00000000000E+00 -0.30197880960E+03  0.30197880960E+03  0.00000000000E+00 0. -1.
         25    2    1    2    0    0 -0.14028236772E+02  0.47171527753E+02 -0.20292445003E+03  0.24336229967E+03  0.12499972810E+03 0.  0.
          2    1    1    2  501    0 -0.23084388945E+02 -0.11885188973E+02 -0.73577441066E+02  0.78024269069E+02  0.00000000000E+00 0. -1.
          1    1    1    2  502    0  0.37112625716E+02 -0.35286338779E+02  0.21301450795E+03  0.21908366733E+03  0.00000000000E+00 0. -1.
         22    1    3    3    0    0 -0.40319989317E+02 -0.19807224629E+02 -0.24934957361E+02  0.51378787302E+02  0.00000000000E+00 0.  1.
         22    1    3    3    0    0  0.26291752545E+02  0.66978752382E+02 -0.17798949266E+03  0.19198351237E+03  0.00000000000E+00 0.  1.
</event>
<event>
 7    1  0.5537228E-006  0.1213681E+03  0.7818608E-02  0.1276578E+00
          2   -1    0    0  502    0  0.00000000000E+00  0.00000000000E+00  0.46211297519E+03  0.46211297519E+03  0.00000000000E+00 0. -1.
          1   -1    0    0  501    0 -0.00000000000E+00 -0.00000000000E+00 -0.35454248321E+04  0.35454248321E+04  0.00000000000E+00 0. -1.
         25    2    1    2    0    0  0.19962430359E+03  0.38673963424E+02 -0.15333443098E+03  0.28369340557E+03  0.12499985044E+03 0.  0.
          2    1    1    2  501    0 -0.83135264069E+02 -0.19400249677E+02 -0.33175691091E+04  0.33186672981E+04  0.00000000000E+00 0. -1.
          1    1    1    2  502    0 -0.11648903952E+03 -0.19273713747E+02  0.38759168322E+03  0.40517710358E+03  0.00000000000E+00 0. -1.
         22    1    3    3    0    0  0.21666797098E+03  0.27947689920E+02 -0.14244094650E+03  0.26079782641E+03  0.00000000000E+00 0. -1.
         22    1    3    3    0    0 -0.17043667385E+02  0.10726273504E+02 -0.10893484481E+02  0.22895579166E+02  0.00000000000E+00 0. -1.
</event>
<event>
 7    1  0.5537228E-006  0.5235547E+02  0.7818608E-02  0.1528993E+00
          2   -1    0    0  502    0  0.00000000000E+00  0.00000000000E+00  0.25361619183E+03  0.25361619183E+03  0.00000000000E+00 0. -1.
          1   -1    0    0  501    0 -0.00000000000E+00 -0.00000000000E+00 -0.18143122000E+03  0.18143122000E+03  0.00000000000E+00 0. -1.
         25    2    1    2    0    0  0.44473867766E+02  0.15693870503E+02 -0.86456099270E+01  0.13387762985E+03  0.12499700283E+03 0.  0.
          2    1    1    2  501    0 -0.10119093306E+02  0.24587490478E+02 -0.10480883177E+03  0.10812877487E+03  0.00000000000E+00 0. -1.
          1    1    1    2  502    0 -0.34354774460E+02 -0.40281360982E+02  0.18563941353E+03  0.19304100711E+03  0.00000000000E+00 0. -1.
         22    1    3    3    0    0  0.59512377168E+02 -0.42707566924E+02 -0.63905186842E+01  0.73528892538E+02  0.00000000000E+00 0.  1.
         22    1    3    3    0    0 -0.15038509402E+02  0.58401437427E+02 -0.22550912427E+01  0.60348737312E+02  0.00000000000E+00 0.  1.
</event>
<event>
 7    1  0.5537228E-006  0.7118414E+02  0.7818608E-02  0.1406423E+00
          2   -1    0    0  502    0  0.00000000000E+00  0.00000000000E+00  0.10515116969E+04  0.10515116969E+04  0.00000000000E+00 0. -1.
          1   -1    0    0  501    0 -0.00000000000E+00 -0.00000000000E+00 -0.16421306465E+03  0.16421306465E+03  0.00000000000E+00 0. -1.
         25    2    1    2    0    0  0.92553600720E+02  0.48682957139E+02  0.11512768571E+03  0.19954763353E+03  0.12501469798E+03 0.  0.
          2    1    1    2  501    0 -0.22599496690E+02 -0.41503066639E+02 -0.11598437025E+03  0.12524222903E+03  0.00000000000E+00 0. -1.
          1    1    1    2  502    0 -0.69954104030E+02 -0.71798904996E+01  0.88815531676E+03  0.89093489896E+03  0.00000000000E+00 0. -1.
         22    1    3    3    0    0 -0.98125949768E+01  0.12916921956E+02 -0.20346586274E+02  0.26021480857E+02  0.00000000000E+00 0. -1.
         22    1    3    3    0    0  0.10236619570E+03  0.35766035183E+02  0.13547427198E+03  0.17352615268E+03  0.00000000000E+00 0. -1.
</event>
<event>
 7    1  0.5537228E-006  0.6132708E+02  0.7818608E-02  0.1413816E+00
          2   -1    0    0  502    0  0.00000000000E+00  0.00000000000E+00  0.31602728826E+03  0.31602728826E+03  0.00000000000E+00 0. -1.
          1   -1    0    0  501    0 -0.00000000000E+00 -0.00000000000E+00 -0.16694211833E+04  0.16694211833E+04  0.00000000000E+00 0. -1.
         25    2    1    2    0    0  0.34990706085E+01  0.21278660471E+02 -0.68677677694E+03  0.69839289950E+03  0.12500110333E+03 0.  0.
          2    1    1    2  501    0  0.51352944295E+02  0.66249872699E+01 -0.97308909324E+03  0.97446569911E+03  0.00000000000E+00 0. -1.
          1    1    1    2  502    0 -0.54852014904E+02 -0.27903647741E+02  0.30647197516E+03  0.31258987293E+03  0.00000000000E+00 0. -1.
         22    1    3    3    0    0  0.83666567459E+01  0.66662075561E+02 -0.23800444542E+03  0.24730537662E+03  0.00000000000E+00 0.  1.
         22    1    3    3    0    0 -0.48675861374E+01 -0.45383415090E+02 -0.44877233152E+03  0.45108752288E+03  0.00000000000E+00 0.  1.
</event>
<event>
 7    1  0.6243101E-006  0.9404582E+02  0.7818608E-02  0.1346647E+00
          2   -1    0    0  502    0  0.00000000000E+00  0.00000000000E+00  0.27267092226E+04  0.27267092226E+04  0.00000000000E+00 0. -1.
          1   -1    0    0  501    0 -0.00000000000E+00 -0.00000000000E+00 -0.64152296579E+03  0.64152296579E+03  0.00000000000E+00 0. -1.
         25    2    1    2    0    0 -0.75249648150E+02  0.35855627926E+02 -0.62542766490E+02  0.16274138822E+03  0.12500010480E+03 0.  0.
          2    1    1    2  501    0  0.32820479675E+02  0.48306801734E+02 -0.52643587417E+03  0.52966542325E+03  0.00000000000E+00 0. -1.
          1    1    1    2  502    0  0.42429168475E+02 -0.84162429659E+02  0.26741648975E+04  0.26758253769E+04  0.00000000000E+00 0. -1.
         22    1    3    3    0    0  0.32783438851E+02 -0.20658587303E+01 -0.12499511382E+01  0.32872237725E+02  0.00000000000E+00 0. -1.
         22    1    3    3    0    0 -0.10803308700E+03  0.37921486656E+02 -0.61292815351E+02  0.12986915050E+03  0.00000000000E+00 0. -1.
</event>
<event>
 7    1  0.5537228E-006  0.7176796E+02  0.7818608E-02  0.1398038E+00
          2   -1    0    0  502    0  0.00000000000E+00  0.00000000000E+00  0.32461154650E+03  0.32461154650E+03  0.00000000000E+00 0. -1.
          1   -1    0    0  501    0 -0.00000000000E+00 -0.00000000000E+00 -0.25440622073E+04  0.25440622073E+04  0.00000000000E+00 0. -1.
         25    2    1    2    0    0  0.99643630240E+02 -0.59827430386E+02 -0.27267741619E+03  0.32169471189E+03  0.12500535943E+03 0.  0.
          2    1    1    2  501    0 -0.31629097076E+02  0.38827376859E+02 -0.22423715967E+04  0.22429307485E+04  0.00000000000E+00 0. -1.
          1    1    1    2  502    0 -0.68014533164E+02  0.21000053527E+02  0.29559835208E+03  0.30404829340E+03  0.00000000000E+00 0. -1.
         22    1    3    3    0    0  0.32869790765E+00 -0.11809096420E+02 -0.17181549612E+03  0.17222115871E+03  0.00000000000E+00 0.  1.
         22    1    3    3    0    0  0.99314932332E+02 -0.48018333966E+02 -0.10086192007E+03  0.14947355318E+03  0.00000000000E+00 0.  1.
</event>
<event>
 7    1  0.5537228E-006  0.9724086E+02  0.7818608E-02  0.1308043E+00
          2   -1    0    0  502    0  0.00000000000E+00  0.00000000000E+00  0.27845903232E+04  0.27845903232E+04  0.00000000000E+00 0. -1.
          1   -1    0    0  501    0 -0.00000000000E+00 -0.00000000000E+00 -0.43161865132E+03  0.43161865132E+03  0.00000000000E+00 0. -1.
         25    2    1    2    0    0  0.15119708160E+03 -0.53713479339E+02  0.45938196030E+03  0.50239693569E+03  0.12500080078E+03 0.  0.
          2    1    1    2  501    0 -0.56408052233E+02  0.55934200088E+02 -0.40527792257E+03  0.41298994857E+03  0.00000000000E+00 0. -1.
          1    1    1    2  502    0 -0.94789029365E+02 -0.22207207487E+01  0.22988676341E+04  0.23008220902E+04  0.00000000000E+00 0. -1.
         22    1    3    3    0    0  0.12422812631E+03  0.11149591971E+02  0.21973428381E+03  0.25266597763E+03  0.00000000000E+00 0. -1.
         22    1    3    3    0    0  0.26968955284E+02 -0.64863071310E+02  0.23964767649E+03  0.24973095807E+03  0.00000000000E+00 0. -1.
</event>
<event>
 7    1  0.5537228E-006  0.1534774E+03  0.7818608E-02  0.1227146E+00
          2   -1    0    0  502    0  0.00000000000E+00  0.00000000000E+00  0.55315802107E+03  0.55315802107E+03  0.00000000000E+00 0. -1.
          1   -1    0    0  501    0 -0.00000000000E+00 -0.00000000000E+00 -0.48269531188E+03  0.48269531188E+03  0.00000000000E+00 0. -1.
         25    2    1    2    0    0 -0.15961324068E+02 -0.67479516645E+02  0.39742017062E+00  0.14294655654E+03  0.12500124420E+03 0.  0.
          2    1    1    2  501    0  0.36454909531E+02 -0.10427958874E+03 -0.38792083040E+03  0.40334323313E+03  0.00000000000E+00 0. -1.
          1    1    1    2  502    0 -0.20493585463E+02  0.17175910539E+03  0.45798611941E+03  0.48956354328E+03  0.00000000000E+00 0. -1.
         22    1    3    3    0    0 -0.60168029773E+02 -0.51064167820E+02  0.33083227032E+02  0.85570093799E+02  0.00000000000E+00 0.  1.
         22    1    3    3    0    0  0.44206705705E+02 -0.16415348825E+02 -0.32685806861E+02  0.57376462740E+02  0.00000000000E+00 0.  1.
</event>
<event>
 7    1  0.5537228E-006  0.6767621E+02  0.7818608E-02  0.1392251E+00
          2   -1    0    0  502    0  0.00000000000E+00  0.00000000000E+00  0.25973891721E+04  0.25973891721E+04  0.00000000000E+00 0. -1.
          1   -1    0    0  501    0 -0.00000000000E+00 -0.00000000000E+00 -0.23473056289E+03  0.23473056289E+03  0.00000000000E+00 0. -1.
         25    2    1    2    0    0  0.11636056999E+03 -0.34447950037E+02  0.73496813714E+03  0.75533448668E+03  0.12500232253E+03 0.  0.
          2    1    1    2  501    0 -0.66644206692E+02  0.95198628802E+01 -0.21907354356E+03  0.22918397754E+03  0.00000000000E+00 0. -1.
          1    1    1    2  502    0 -0.49716363300E+02  0.24928087156E+02  0.18467640156E+04  0.18476012708E+04  0.00000000000E+00 0. -1.
         22    1    3    3    0    0 -0.20761356095E+02  0.11269516143E+02  0.19233234124E+03  0.19377761839E+03  0.00000000000E+00 0.  1.
         22    1    3    3    0    0  0.13712192609E+03 -0.45717466180E+02  0.54263579590E+03  0.56155686828E+03  0.00000000000E+00 0.  1.
</event>
<event>
 7    1  0.5537228E-006  0.4650650E+02  0.7818608E-02  0.1588740E+00
          2   -1    0    0  502    0  0.00000000000E+00  0.00000000000E+00  0.14315428378E+04  0.14315428378E+04  0.00000000000E+00 0. -1.
          1   -1    0    0  501    0 -0.00000000000E+00 -0.00000000000E+00 -0.17452187452E+02  0.17452187452E+02  0.00000000000E+00 0. -1.
         25    2    1    2    0    0  0.37902517891E+02 -0.15874734099E+02  0.85871095262E+03  0.86873424271E+03  0.12500430499E+03 0.  0.
          2    1    1    2  501    0  0.10376594183E+02  0.17658451862E+02 -0.21932825235E+01  0.20598667851E+02  0.00000000000E+00 0. -1.
          1    1    1    2  502    0 -0.48279112074E+02 -0.17837177630E+01  0.55757298025E+03  0.55966211469E+03  0.00000000000E+00 0. -1.
         22    1    3    3    0    0 -0.16877532366E+02 -0.59257699223E+02  0.38612043882E+03  0.39100552336E+03  0.00000000000E+00 0.  1.
         22    1    3    3    0    0  0.54780050257E+02  0.43382965124E+02  0.47259051379E+03  0.47772871935E+03  0.00000000000E+00 0.  1.
</event>
<event>
 7    1  0.5537228E-006  0.8046470E+02  0.7818608E-02  0.1378293E+00
          2   -1    0    0  502    0  0.00000000000E+00  0.00000000000E+00  0.26999874440E+03  0.26999874440E+03  0.00000000000E+00 0. -1.
          1   -1    0    0  501    0 -0.00000000000E+00 -0.00000000000E+00 -0.10243815208E+04  0.10243815208E+04  0.00000000000E+00 0. -1.
         25    2    1    2    0    0  0.63165985507E+02 -0.12721337126E+02  0.12928224568E+03  0.19102317583E+03  0.12499672202E+03 0.  0.
          2    1    1    2  501    0  0.27003357624E+02  0.44871132717E+02 -0.97181456391E+03  0.97322461256E+03  0.00000000000E+00 0. -1.
          1    1    1    2  502    0 -0.90169343131E+02 -0.32149795590E+02  0.88149541820E+02  0.13013247681E+03  0.00000000000E+00 0. -1.
         22    1    3    3    0    0 -0.11547412922E+02 -0.48844470645E+02  0.20538137273E+02  0.54230435555E+02  0.00000000000E+00 0. -1.
         22    1    3    3    0    0  0.74713398429E+02  0.36123133519E+02  0.10874410841E+03  0.13679274028E+03  0.00000000000E+00 0. -1.
</event>
<event>
 7    1  0.5537228E-006  0.8307996E+02  0.7818608E-02  0.1355515E+00
          2   -1    0    0  502    0  0.00000000000E+00  0.00000000000E+00  0.90286126927E+03  0.90286126927E+03  0.00000000000E+00 0. -1.
          1   -1    0    0  501    0 -0.00000000000E+00 -0.00000000000E+00 -0.30543971857E+03  0.30543971857E+03  0.00000000000E+00 0. -1.
         25    2    1    2    0    0 -0.28163150533E+02 -0.52048438055E+01 -0.80334762351E+02  0.15132568774E+03  0.12500214511E+03 0.  0.
          2    1    1    2  501    0 -0.50704596141E+02  0.34449440616E+02 -0.18254958694E+03  0.19256705773E+03  0.00000000000E+00 0. -1.
          1    1    1    2  502    0  0.78867746674E+02 -0.29244596810E+02  0.86030590000E+03  0.86440824237E+03  0.00000000000E+00 0. -1.
         22    1    3    3    0    0 -0.42713470225E+02  0.50570258893E+02 -0.23139290536E+02  0.70122880644E+02  0.00000000000E+00 0. -1.
         22    1    3    3    0    0  0.14550319692E+02 -0.55775102699E+02 -0.57195471815E+02  0.81202807096E+02  0.00000000000E+00 0. -1.
</event>
<event>
 7    1  0.5537228E-006  0.1567254E+03  0.7818608E-02  0.1262818E+00
          2   -1    0    0  502    0  0.00000000000E+00  0.00000000000E+00  0.21936158588E+04  0.21936158588E+04  0.00000000000E+00 0. -1.
          1   -1    0    0  501    0 -0.00000000000E+00 -0.00000000000E+00 -0.40396498105E+03  0.40396498105E+03  0.00000000000E+00 0. -1.
         25    2    1    2    0    0 -0.12679503534E+03  0.25189543378E+02 -0.48055438759E+02  0.18613175798E+03  0.12499684817E+03 0.  0.
          2    1    1    2  501    0 -0.24020456408E+02 -0.71600832454E+02 -0.27891254002E+03  0.28895651319E+03  0.00000000000E+00 0. -1.
          1    1    1    2  502    0  0.15081549175E+03  0.46411289076E+02  0.21166188565E+04  0.21224925687E+04  0.00000000000E+00 0. -1.
         22    1    3    3    0    0 -0.83545664691E+02  0.24695288997E+02  0.33884727580E+02  0.93476789367E+02  0.00000000000E+00 0.  1.
         22    1    3    3    0    0 -0.43249370648E+02  0.49425438113E+00 -0.81940166340E+02  0.92654968613E+02  0.00000000000E+00 0.  1.
</event>
<event>
 7    1  0.5537228E-006  0.5503585E+02  0.7818608E-02  0.1474046E+00
          2   -1    0    0  502    0  0.00000000000E+00  0.00000000000E+00  0.67892321602E+03  0.67892321602E+03  0.00000000000E+00 0. -1.
          1   -1    0    0  501    0 -0.00000000000E+00 -0.00000000000E+00 -0.24065789055E+03  0.24065789055E+03  0.00000000000E+00 0. -1.
         25    2    1    2    0    0  0.28130209131E+02  0.22658278809E+02  0.40343887320E+02  0.13622803016E+03  0.12500296274E+03 0.  0.
          2    1    1    2  501    0  0.27636133633E+02 -0.24408195563E+02 -0.18961841756E+03  0.19317002917E+03  0.00000000000E+00 0. -1.
          1    1    1    2  502    0 -0.55766342764E+02  0.17499167545E+01  0.58753985571E+03  0.59018304723E+03  0.00000000000E+00 0. -1.
         22    1    3    3    0    0  0.73121101712E+02 -0.98371479058E+01  0.15345098047E+02  0.75358722313E+02  0.00000000000E+00 0. -1.
         22    1    3    3    0    0 -0.44990892582E+02  0.32495426714E+02  0.24998789272E+02  0.60869307846E+02  0.00000000000E+00 0. -1.
</event>
<event>
 7    1  0.5537228E-006  0.3041727E+02  0.7818608E-02  0.1594861E+00
          2   -1    0    0  502    0  0.00000000000E+00  0.00000000000E+00  0.51960973499E+03  0.51960973499E+03  0.00000000000E+00 0. -1.
          1   -1    0    0  501    0 -0.00000000000E+00 -0.00000000000E+00 -0.36068404697E+03  0.36068404697E+03  0.00000000000E+00 0. -1.
         25    2    1    2    0    0 -0.24462179925E+02  0.50479672625E+02  0.40559667962E+02  0.14288230859E+03  0.12499468728E+03 0.  0.
          2    1    1    2  501    0  0.21966508348E+01 -0.30091231617E+02 -0.30825276523E+03  0.30972580578E+03  0.00000000000E+00 0. -1.
          1    1    1    2  502    0  0.22265529090E+02 -0.20388441008E+02  0.42661878527E+03  0.42768566759E+03  0.00000000000E+00 0. -1.
         22    1    3    3    0    0 -0.74684428899E+02  0.34028036796E+02  0.36671054425E+02  0.89891253417E+02  0.00000000000E+00 0. -1.
         22    1    3    3    0    0  0.50222248975E+02  0.16451635829E+02  0.38886135371E+01  0.52991055177E+02  0.00000000000E+00 0. -1.
</event>
<event>
 7    1  0.5537228E-006  0.4559046E+02  0.7818608E-02  0.1492247E+00
          2   -1    0    0  502    0  0.00000000000E+00  0.00000000000E+00  0.92815089138E+03  0.92815089138E+03  0.00000000000E+00 0. -1.
          1   -1    0    0  501    0 -0.00000000000E+00 -0.00000000000E+00 -0.19188338335E+04  0.19188338335E+04  0.00000000000E+00 0. -1.
         25    2    1    2    0    0  0.26355641881E+01  0.72870329778E+01 -0.61023602011E+02  0.13932421255E+03  0.12500923627E+03 0.  0.
          2    1    1    2  501    0  0.60350077238E+01 -0.45477923273E+02 -0.18179390967E+04  0.18185178641E+04  0.00000000000E+00 0. -1.
          1    1    1    2  502    0 -0.86705719120E+01  0.38190890296E+02  0.88827975658E+03  0.88914264821E+03  0.00000000000E+00 0. -1.
         22    1    3    3    0    0  0.16654689145E+01  0.34531218809E+01  0.39017287668E+02  0.39205185555E+02  0.00000000000E+00 0. -1.
         22    1    3    3    0    0  0.97009527361E+00  0.38339110969E+01 -0.10004088968E+03  0.10011902700E+03  0.00000000000E+00 0. -1.
</event>
<event>
 7    1  0.5537228E-006  0.3130311E+03  0.7818608E-02  0.1205724E+00
          2   -1    0    0  502    0  0.00000000000E+00  0.00000000000E+00  0.41196261865E+04  0.41196261865E+04  0.00000000000E+00 0. -1.
          1   -1    0    0  501    0 -0.00000000000E+00 -0.00000000000E+00 -0.11593948438E+04  0.11593948438E+04  0.00000000000E+00 0. -1.
         25    2    1    2    0    0  0.91090959094E+02 -0.35891684517E+03  0.64139399743E+03  0.75108540165E+03  0.12499662414E+03 0.  0.
          2    1    1    2  501    0 -0.46365645385E+02  0.30780935819E+03 -0.10822722065E+04  0.11261480822E+04  0.00000000000E+00 0. -1.
          1    1    1    2  502    0 -0.44725313708E+02  0.51107486985E+02  0.34011095517E+04  0.34017875465E+04  0.00000000000E+00 0. -1.
         22    1    3    3    0    0  0.20238694956E+01 -0.24200848703E+03  0.43358413642E+03  0.49655554292E+03  0.00000000000E+00 0. -1.
         22    1    3    3    0    0  0.89067089598E+02 -0.11690835814E+03  0.20780986101E+03  0.25452985873E+03  0.00000000000E+00 0. -1.
</event>
<event>
 7    1  0.5537228E-006  0.1168145E+03  0.7818608E-02  0.1366295E+00
          2   -1    0    0  502    0  0.00000000000E+00  0.00000000000E+00  0.69850078172E+03  0.69850078172E+03  0.00000000000E+00 0. -1.
          1   -1    0    0  501    0 -0.00000000000E+00 -0.00000000000E+00 -0.71387690410E+03  0.71387690410E+03  0.00000000000E+00 0. -1.
         25    2    1    2    0    0  0.76033734552E+02 -0.11044456534E+03  0.12249423349E+03  0.22047355284E+03  0.12499847783E+03 0.  0.
          2    1    1    2  501    0 -0.90473740414E+02  0.73327806941E+02 -0.65902208709E+03  0.66923282664E+03  0.00000000000E+00 0. -1.
          1    1    1    2  502    0  0.14440005863E+02  0.37116758402E+02  0.52115173122E+03  0.52267130635E+03  0.00000000000E+00 0. -1.
         22    1    3    3    0    0  0.11008948901E+03 -0.96885615713E+02  0.97250462287E+02  0.17596639036E+03  0.00000000000E+00 0. -1.
         22    1    3    3    0    0 -0.34055754459E+02 -0.13558949630E+02  0.25243771204E+02  0.44507162474E+02  0.00000000000E+00 0. -1.
</event>
<event>
 7    1  0.5537228E-006  0.4453749E+02  0.7818608E-02  0.1504521E+00
          2   -1    0    0  502    0  0.00000000000E+00  0.00000000000E+00  0.27313918562E+04  0.27313918562E+04  0.00000000000E+00 0. -1.
          1   -1    0    0  501    0 -0.00000000000E+00 -0.00000000000E+00 -0.19182464333E+03  0.19182464333E+03  0.00000000000E+00 0. -1.
         25    2    1    2    0    0  0.40753244360E+01 -0.71117785507E+02  0.24735170728E+03  0.28614938156E+03  0.12499701511E+03 0.  0.
          2    1    1    2  501    0  0.17528146036E+02  0.32402107189E+02 -0.17025628066E+03  0.17419625012E+03  0.00000000000E+00 0. -1.
          1    1    1    2  502    0 -0.21603470472E+02  0.38715678318E+02  0.24624717862E+04  0.24628708678E+04  0.00000000000E+00 0. -1.
         22    1    3    3    0    0  0.15642975108E+02  0.34360016532E+02  0.66117754394E+02  0.76137184427E+02  0.00000000000E+00 0.  1.
         22    1    3    3    0    0 -0.11567650672E+02 -0.10547780204E+03  0.18123395289E+03  0.21001219713E+03  0.00000000000E+00 0.  1.
</event>
<event>
 7    1  0.5537228E-006  0.7227363E+02  0.7818608E-02  0.1386840E+00
          2   -1    0    0  502    0  0.00000000000E+00  0.00000000000E+00  0.21263520922E+04  0.21263520922E+04  0.00000000000E+00 0. -1.
          1   -1    0    0  501    0 -0.00000000000E+00 -0.00000000000E+00 -0.24726062136E+03  0.24726062136E+03  0.00000000000E+00 0. -1.
         25    2    1    2    0    0 -0.20710873964E+02 -0.64016516551E+02  0.18279109873E+04  0.18334147786E+04  0.12499647284E+03 0.  0.
          2    1    1    2  501    0  0.64804299605E+02  0.32166018895E+02 -0.23655244170E+03  0.24736876863E+03  0.00000000000E+00 0. -1.
          1    1    1    2  502    0 -0.44093425641E+02  0.31850497655E+02  0.28773292528E+03  0.29282916637E+03  0.00000000000E+00 0. -1.
         22    1    3    3    0    0 -0.80996984320E+01  0.35261321092E+02  0.28945963622E+03  0.29171192448E+03  0.00000000000E+00 0.  1.
         22    1    3    3    0    0 -0.12611175532E+02 -0.99277837643E+02  0.15384513511E+04  0.15417028541E+04  0.00000000000E+00 0.  1.
</event>
<event>
 7    1  0.5537228E-006  0.2868005E+02  0.7818608E-02  0.1636881E+00
          2   -1    0    0  502    0  0.00000000000E+00  0.00000000000E+00  0.11584358880E+04  0.11584358880E+04  0.00000000000E+00 0. -1.
          1   -1    0    0  501    0 -0.00000000000E+00 -0.00000000000E+00 -0.84239076622E+01  0.84239076622E+01  0.00000000000E+00 0. -1.
         25    2    1    2    0    0  0.29904785691E+02 -0.32104419437E+02  0.79951767261E+03  0.81041834087E+03  0.12499755379E+03 0.  0.
          2    1    1    2  501    0 -0.34071895669E+01  0.24743091779E+02  0.65127756544E+02  0.69752807857E+02  0.00000000000E+00 0. -1.
          1    1    1    2  502    0 -0.26497596124E+02  0.73613276579E+01  0.28536655122E+03  0.28668864697E+03  0.00000000000E+00 0. -1.
         22    1    3    3    0    0 -0.31127250838E+02 -0.97881842089E+01  0.59346465612E+03  0.59436101180E+03  0.00000000000E+00 0. -1.
         22    1    3    3    0    0  0.61032036529E+02 -0.22316235228E+02  0.20605301649E+03  0.21605732906E+03  0.00000000000E+00 0. -1.
</event>
<event>
 7    1  0.5537228E-006  0.5288528E+02  0.7818608E-02  0.1472419E+00
          2   -1    0    0  502    0  0.00000000000E+00  0.00000000000E+00  0.21575245694E+03  0.21575245694E+03  0.00000000000E+00 0. -1.
          1   -1    0    0  501    0 -0.00000000000E+00 -0.00000000000E+00 -0.85774917380E+03  0.85774917380E+03  0.00000000000E+00 0. -1.
         25    2    1    2    0    0 -0.34996941712E+02  0.60208652457E+02 -0.47579381754E+02  0.15078494868E+03  0.12498974126E+03 0.  0.
          2    1    1    2  501    0  0.38055999708E+02 -0.76581482938E+01 -0.75383461205E+03  0.75483344433E+03  0.00000000000E+00 0. -1.
          1    1    1    2  502    0 -0.30590579960E+01 -0.52550504163E+02  0.15941727695E+03  0.16788323774E+03  0.00000000000E+00 0. -1.
         22    1    3    3    0    0 -0.34884298357E+02  0.12248154544E+02  0.37788691841E+02  0.52866972607E+02  0.00000000000E+00 0.  1.
         22    1    3    3    0    0 -0.11264335551E+00  0.47960497913E+02 -0.85368073594E+02  0.97917976071E+02  0.00000000000E+00 0.  1.
</event>
<event>
 7    1  0.5537228E-006  0.1101953E+03  0.7818608E-02  0.1413878E+00
          2   -1    0    0  502    0  0.00000000000E+00  0.00000000000E+00  0.18240149571E+04  0.18240149571E+04  0.00000000000E+00 0. -1.
          1   -1    0    0  501    0 -0.00000000000E+00 -0.00000000000E+00 -0.27769321889E+03  0.27769321889E+03  0.00000000000E+00 0. -1.
         25    2    1    2    0    0 -0.54614687841E+02 -0.68479309531E+02 -0.47896713865E+02  0.15997384219E+03  0.12500142009E+03 0.  0.
          2    1    1    2  501    0 -0.28441496997E+02 -0.45460947251E+01 -0.17082163308E+03  0.17323283770E+03  0.00000000000E+00 0. -1.
          1    1    1    2  502    0  0.83056184838E+02  0.73025404256E+02  0.17650400852E+04  0.17685014961E+04  0.00000000000E+00 0. -1.
         22    1    3    3    0    0 -0.24028371380E+02 -0.17018445306E+01 -0.77218335638E+02  0.80888381519E+02  0.00000000000E+00 0.  1.
         22    1    3    3    0    0 -0.30586316460E+02 -0.66777465001E+02  0.29321621773E+02  0.79085460673E+02  0.00000000000E+00 0.  1.
</event>
<event>
 7    1  0.5537228E-006  0.3083169E+03  0.7818608E-02  0.1200185E+00
          2   -1    0    0  502    0  0.00000000000E+00  0.00000000000E+00  0.60236794315E+03  0.60236794315E+03  0.00000000000E+00 0. -1.
          1   -1    0    0  501    0 -0.00000000000E+00 -0.00000000000E+00 -0.71300316434E+03  0.71300316434E+03  0.00000000000E+00 0. -1.
         25    2    1    2    0    0 -0.27725532554E+03  0.53322884977E+02 -0.24650677079E+03  0.39509935437E+03  0.12499626463E+03 0.  0.
          2    1    1    2  501    0  0.31490593745E+03 -0.11610384507E+03 -0.31691417370E+03  0.46160637536E+03  0.00000000000E+00 0. -1.
          1    1    1    2  502    0 -0.37650611908E+02  0.62780960095E+02  0.45278572331E+03  0.45866537776E+03  0.00000000000E+00 0. -1.
         22    1    3    3    0    0 -0.79053453847E+02  0.27024668048E+02 -0.80790078072E+01  0.83934805745E+02  0.00000000000E+00 0.  1.
         22    1    3    3    0    0 -0.19820187170E+03  0.26298216928E+02 -0.23842776299E+03  0.31116454862E+03  0.00000000000E+00 0.  1.
</event>
<event>
 7    1  0.5537228E-006  0.6737825E+02  0.7818608E-02  0.1417863E+00
          2   -1    0    0  502    0  0.00000000000E+00  0.00000000000E+00  0.29316065340E+03  0.29316065340E+03  0.00000000000E+00 0. -1.
          1   -1    0    0  501    0 -0.00000000000E+00 -0.00000000000E+00 -0.42514652556E+03  0.42514652556E+03  0.00000000000E+00 0. -1.
         25    2    1    2    0    0  0.69741917894E+02 -0.45819854774E+02 -0.27750373148E+03  0.31558925574E+03  0.12499945261E+03 0.  0.
          2    1    1    2  501    0 -0.64247250940E+02  0.47576387120E+00 -0.11848999463E+03  0.13478803520E+03  0.00000000000E+00 0. -1.
          1    1    1    2  502    0 -0.54946669532E+01  0.45344090903E+02  0.26400785395E+03  0.26792988802E+03  0.00000000000E+00 0. -1.
         22    1    3    3    0    0  0.98516079420E+02 -0.36900636214E+01 -0.19679466336E+03  0.22010718753E+03  0.00000000000E+00 0. -1.
         22    1    3    3    0    0 -0.28774161526E+02 -0.42129791152E+02 -0.80709068118E+02  0.95482068215E+02  0.00000000000E+00 0. -1.
</event>
<event>
 7    1  0.5537228E-006  0.1373124E+03  0.7818608E-02  0.1260245E+00
          2   -1    0    0  502    0  0.00000000000E+00  0.00000000000E+00  0.28928984112E+04  0.28928984112E+04  0.00000000000E+00 0. -1.
          1   -1    0    0  501    0 -0.00000000000E+00 -0.00000000000E+00 -0.10112301440E+04  0.10112301440E+04  0.00000000000E+00 0. -1.
         25    2    1    2    0    0 -0.56804882772E+02 -0.84411663441E+02  0.28037169465E+03  0.32339657236E+03  0.12499972889E+03 0.  0.
          2    1    1    2  501    0 -0.78632577241E+02  0.40395189228E+02 -0.98578145022E+03  0.98973729904E+03  0.00000000000E+00 0. -1.
          1    1    1    2  502    0  0.13543746001E+03  0.44016474212E+02  0.25870780228E+04  0.25909946838E+04  0.00000000000E+00 0. -1.
         22    1    3    3    0    0  0.13767265615E+02 -0.13734201027E+02 -0.58024200274E+01  0.20293692580E+02  0.00000000000E+00 0.  1.
         22    1    3    3    0    0 -0.70572148386E+02 -0.70677462413E+02  0.28617411468E+03  0.30310287978E+03  0.00000000000E+00 0.  1.
</event>
<event>
 7    1  0.5537228E-006  0.1262522E+03  0.7818608E-02  0.1241130E+00
          2   -1    0    0  502    0  0.00000000000E+00  0.00000000000E+00  0.52970981139E+03  0.52970981139E+03  0.00000000000E+00 0. -1.
          1   -1    0    0  501    0 -0.00000000000E+00 -0.00000000000E+00 -0.76533310516E+03  0.76533310516E+03  0.00000000000E+00 0. -1.
         25    2    1    2    0    0  0.19228817319E+03  0.12767650598E+03  0.20605472141E+03  0.33370642417E+03  0.12500159033E+03 0.  0.
          2    1    1    2  501    0 -0.11835440070E+03 -0.37835812034E+02 -0.68258582303E+03  0.69380308347E+03  0.00000000000E+00 0. -1.
          1    1    1    2  502    0 -0.73933772492E+02 -0.89840693951E+02  0.24090780785E+03  0.26753340891E+03  0.00000000000E+00 0. -1.
         22    1    3    3    0    0  0.19603465666E+03  0.81597943356E+02  0.14500277439E+03  0.25712568046E+03  0.00000000000E+00 0. -1.
         22    1    3    3    0    0 -0.37464834669E+01  0.46078562628E+02  0.61051947013E+02  0.76580743705E+02  0.00000000000E+00 0. -1.
</event>
<event>
 7    1  0.5537228E-006  0.8001095E+02  0.7818608E-02  0.1334054E+00
          2   -1    0    0  502    0  0.00000000000E+00  0.00000000000E+00  0.74274882024E+03  0.74274882024E+03  0.00000000000E+00 0. -1.
          1   -1    0    0  501    0 -0.00000000000E+00 -0.00000000000E+00 -0.32811467727E+03  0.32811467727E+03  0.00000000000E+00 0. -1.
         25    2    1    2    0    0  0.32757422235E+02 -0.99147852939E+02  0.14632428900E+03  0.21894793309E+03  0.12499621753E+03 0.  0.
          2    1    1    2  501    0 -0.71093253454E+02  0.28392898793E+02 -0.28381444255E+03  0.29395755678E+03  0.00000000000E+00 0. -1.
          1    1    1    2  502    0  0.38335831219E+02  0.70754954147E+02  0.55212429652E+03  0.55795800764E+03  0.00000000000E+00 0. -1.
         22    1    3    3    0    0  0.34981779028E+02 -0.21409799946E+02  0.13408943721E+03  0.14022154460E+03  0.00000000000E+00 0.  1.
         22    1    3    3    0    0 -0.22243567938E+01 -0.77738052994E+02  0.12234851791E+02  0.78726388490E+02  0.00000000000E+00 0.  1.
</event>
<event>
 7    1  0.5537228E-006  0.1276770E+03  0.7818608E-02  0.1270723E+00
          2   -1    0    0  502    0  0.00000000000E+00  0.00000000000E+00  0.42694045361E+03  0.42694045361E+03  0.00000000000E+00 0. -1.
          1   -1    0    0  501    0 -0.00000000000E+00 -0.00000000000E+00 -0.30172891694E+03  0.30172891694E+03  0.00000000000E+00 0. -1.
         25    2    1    2    0    0 -0.24947432478E+02 -0.42286041460E+02 -0.94585181342E+02  0.16426792724E+03  0.12500844652E+03 0.  0.
          2    1    1    2  501    0 -0.42116939734E+02 -0.74807389049E+02 -0.14885120464E+03  0.17183324240E+03  0.00000000000E+00 0. -1.
          1    1    1    2  502    0  0.67064372212E+02  0.11709343051E+03  0.36864792265E+03  0.39256820091E+03  0.00000000000E+00 0. -1.
         22    1    3    3    0    0  0.22225571254E+02 -0.55714034611E+02 -0.98218588831E+02  0.11508657985E+03  0.00000000000E+00 0.  1.
         22    1    3    3    0    0 -0.47173003732E+02  0.13427993151E+02  0.36334074892E+01  0.49181347391E+02  0.00000000000E+00 0.  1.
</event>
<event>
 7    1  0.5537228E-006  0.2808763E+03  0.7818608E-02  0.1203031E+00
          2   -1    0    0  502    0  0.00000000000E+00  0.00000000000E+00  0.36077657699E+03  0.36077657699E+03  0.00000000000E+00 0. -1.
          1   -1    0    0  501    0 -0.00000000000E+00 -0.00000000000E+00 -0.14742101617E+04  0.14742101617E+04  0.00000000000E+00 0. -1.
         25    2    1    2    0    0  0.64484422787E+02  0.24920784585E+03  0.61168193927E+02  0.29262507026E+03  0.12500037031E+03 0.  0.
          2    1    1    2  501    0  0.54604024352E+01 -0.28354367423E+03 -0.13346002040E+04  0.13643989650E+04  0.00000000000E+00 0. -1.
          1    1    1    2  502    0 -0.69944825222E+02  0.34335828376E+02  0.15999842537E+03  0.17796270342E+03  0.00000000000E+00 0. -1.
         22    1    3    3    0    0  0.24487559916E+01  0.21458988453E+03  0.53495276075E+02  0.22117088305E+03  0.00000000000E+00 0. -1.
         22    1    3    3    0    0  0.62035666795E+02  0.34617961325E+02  0.76729178525E+01  0.71454187207E+02  0.00000000000E+00 0. -1.
</event>
<event>
 7    1  0.5537228E-006  0.1049490E+03  0.7818608E-02  0.1280369E+00
          2   -1    0    0  502    0  0.00000000000E+00  0.00000000000E+00  0.11080242830E+04  0.11080242830E+04  0.00000000000E+00 0. -1.
          1   -1    0    0  501    0 -0.00000000000E+00 -0.00000000000E+00 -0.50783931448E+03  0.50783931448E+03  0.00000000000E+00 0. -1.
         25    2    1    2    0    0 -0.52876135179E+02 -0.85413163164E+02  0.26120427917E+03  0.30650250018E+03  0.12499925220E+03 0.  0.
          2    1    1    2  501    0  0.10571948013E+03  0.62041969397E+01 -0.47660859997E+03  0.48823238126E+03  0.00000000000E+00 0. -1.
          1    1    1    2  502    0 -0.52843344951E+02  0.79208966225E+02  0.81558928933E+03  0.82112871604E+03  0.00000000000E+00 0. -1.
         22    1    3    3    0    0 -0.30523288917E+01 -0.81935588974E+02  0.23742816010E+03  0.25118695957E+03  0.00000000000E+00 0.  1.
         22    1    3    3    0    0 -0.49823806287E+02 -0.34775741905E+01  0.23776119075E+02  0.55315540614E+02  0.00000000000E+00 0.  1.
</event>
<event>
 7    1  0.5537228E-006  0.2117275E+03  0.7818608E-02  0.1226557E+00
          2   -1    0    0  502    0  0.00000000000E+00  0.00000000000E+00  0.26618718105E+03  0.26618718105E+03  0.00000000000E+00 0. -1.
          1   -1    0    0  501    0 -0.00000000000E+00 -0.00000000000E+00 -0.86392813191E+03  0.86392813191E+03  0.00000000000E+00 0. -1.
         25    2    1    2    0    0  0.41432917790E+02 -0.15842550400E+03 -0.19215552445E+03  0.28171317261E+03  0.12499295600E+03 0.  0.
          2    1    1    2  501    0 -0.45870579798E+02 -0.66234095907E+02 -0.56638749517E+03  0.57208903174E+03  0.00000000000E+00 0. -1.
          1    1    1    2  502    0  0.44376620082E+01  0.22465959991E+03  0.16080206876E+03  0.27631310862E+03  0.00000000000E+00 0. -1.
         22    1    3    3    0    0 -0.86485849963E+01 -0.40546579900E+02 -0.13543565146E+03  0.14163911483E+03  0.00000000000E+00 0.  1.
         22    1    3    3    0    0  0.50081502786E+02 -0.11787892410E+03 -0.56719872986E+02  0.14007405777E+03  0.00000000000E+00 0.  1.
</event>
<event>
 7    1  0.5537228E-006  0.1034136E+03  0.7818608E-02  0.1366125E+00
          2   -1    0    0  502    0  0.00000000000E+00  0.00000000000E+00  0.15946767456E+04  0.15946767456E+04  0.00000000000E+00 0. -1.
          1   -1    0    0  501    0 -0.00000000000E+00 -0.00000000000E+00 -0.35127323626E+03  0.35127323626E+03  0.00000000000E+00 0. -1.
         25    2    1    2    0    0 -0.10175892512E+02  0.66294592944E+02  0.34738452481E+03  0.37522183099E+03  0.12496756590E+03 0.  0.
          2    1    1    2  501    0  0.11109887170E+02  0.43659842245E+02 -0.33338571685E+03  0.33641588490E+03  0.00000000000E+00 0. -1.
          1    1    1    2  502    0 -0.93399465758E+00 -0.10995443519E+03  0.12294047014E+04  0.12343122660E+04  0.00000000000E+00 0. -1.
         22    1    3    3    0    0 -0.61733225771E+02  0.53169470621E+01  0.14912441636E+03  0.16148483720E+03  0.00000000000E+00 0. -1.
         22    1    3    3    0    0  0.51557333259E+02  0.60977645881E+02  0.19826010845E+03  0.21373699379E+03  0.00000000000E+00 0. -1.
</event>
<event>
 7    1  0.5537228E-006  0.3479487E+02  0.7818608E-02  0.1589639E+00
          2   -1    0    0  502    0  0.00000000000E+00  0.00000000000E+00  0.12616542351E+04  0.12616542351E+04  0.00000000000E+00 0. -1.
          1   -1    0    0  501    0 -0.00000000000E+00 -0.00000000000E+00 -0.16123421926E+04  0.16123421926E+04  0.00000000000E+00 0. -1.
         25    2    1    2    0    0  0.47709542721E+01 -0.37397491059E+02  0.13330960453E+03  0.18659699763E+03  0.12500261807E+03 0.  0.
          2    1    1    2  501    0 -0.25553734503E+02  0.93943400190E+01 -0.15853056223E+04  0.15855393918E+04  0.00000000000E+00 0. -1.
          1    1    1    2  502    0  0.20782780231E+02  0.28003151040E+02  0.11013080602E+04  0.11018600382E+04  0.00000000000E+00 0. -1.
         22    1    3    3    0    0  0.24359939467E+02  0.30800149080E+02  0.44852214532E+01  0.39524334854E+02  0.00000000000E+00 0.  1.
         22    1    3    3    0    0 -0.19588985194E+02 -0.68197640140E+02  0.12882438307E+03  0.14707266278E+03  0.00000000000E+00 0.  1.
</event>
<event>
 7    1  0.5537228E-006  0.7627792E+02  0.7818608E-02  0.1409201E+00
          2   -1    0    0  502    0  0.00000000000E+00  0.00000000000E+00  0.11057528460E+04  0.11057528460E+04  0.00000000000E+00 0. -1.
          1   -1    0    0  501    0 -0.00000000000E+00 -0.00000000000E+00 -0.28030977464E+02  0.28030977464E+02  0.00000000000E+00 0. -1.
         25    2    1    2    0    0 -0.64567929684E+02  0.49113231470E+02  0.93646027140E+03  0.94824256943E+03  0.12500001409E+03 0.  0.
          2    1    1    2  501    0 -0.95740900850E+01 -0.42077197366E+02  0.33892890879E+02  0.54871502542E+02  0.00000000000E+00 0. -1.
          1    1    1    2  502    0  0.74142019769E+02 -0.70360341039E+01  0.10736870626E+03  0.13066975149E+03  0.00000000000E+00 0. -1.
         22    1    3    3    0    0 -0.86619300153E+02  0.67652311413E+02  0.85075181012E+03  0.85782188175E+03  0.00000000000E+00 0.  1.
         22    1    3    3    0    0  0.22051370469E+02 -0.18539079943E+02  0.85708461283E+02  0.90420687678E+02  0.00000000000E+00 0.  1.
</event>
<event>
 7    1  0.5537228E-006  0.2359091E+03  0.7818608E-02  0.1264426E+00
          2   -1    0    0  502    0  0.00000000000E+00  0.00000000000E+00  0.14950509018E+03  0.14950509018E+03  0.00000000000E+00 0. -1.
          1   -1    0    0  501    0 -0.00000000000E+00 -0.00000000000E+00 -0.22925585379E+04  0.22925585379E+04  0.00000000000E+00 0. -1.
         25    2    1    2    0    0  0.27296823949E+03  0.27082245084E+02 -0.32713218205E+03  0.44484389381E+03  0.12500207024E+03 0.  0.
          2    1    1    2  501    0 -0.23144514777E+03 -0.33650156476E+00 -0.18922242115E+04  0.19063261621E+04  0.00000000000E+00 0. -1.
          1    1    1    2  502    0 -0.41523091720E+02 -0.26745743520E+02  0.76302945768E+02  0.90893572244E+02  0.00000000000E+00 0. -1.
         22    1    3    3    0    0  0.19805187632E+03  0.28292600374E+02 -0.30840625002E+03  0.36761315537E+03  0.00000000000E+00 0. -1.
         22    1    3    3    0    0  0.74916363162E+02 -0.12103552894E+01 -0.18725932025E+02  0.77230738437E+02  0.00000000000E+00 0. -1.
</event>
<event>
 7    1  0.5537228E-006  0.1067182E+03  0.7818608E-02  0.1321980E+00
          2   -1    0    0  502    0  0.00000000000E+00  0.00000000000E+00  0.75122229605E+03  0.75122229605E+03  0.00000000000E+00 0. -1.
          1   -1    0    0  501    0 -0.00000000000E+00 -0.00000000000E+00 -0.76747285580E+03  0.76747285580E+03  0.00000000000E+00 0. -1.
         25    2    1    2    0    0  0.92930450620E+01  0.49597456518E+02  0.46907185586E+02  0.14272481994E+03  0.12499528706E+03 0.  0.
          2    1    1    2  501    0  0.33106043039E+02  0.54593864799E+02 -0.71330842911E+03  0.71616018822E+03  0.00000000000E+00 0. -1.
          1    1    1    2  502    0 -0.42399088101E+02 -0.10419132132E+03  0.65015068377E+03  0.65981014369E+03  0.00000000000E+00 0. -1.
         22    1    3    3    0    0  0.23832990582E+02  0.68982062858E+02 -0.16517450604E+02  0.74828888877E+02  0.00000000000E+00 0. -1.
         22    1    3    3    0    0 -0.14539945520E+02 -0.19384606340E+02  0.63424636189E+02  0.67895931059E+02  0.00000000000E+00 0. -1.
</event>
<event>
 7    1  0.5537228E-006  0.7755311E+02  0.7818608E-02  0.1345450E+00
          2   -1    0    0  502    0  0.00000000000E+00  0.00000000000E+00  0.13984577312E+04  0.13984577312E+04  0.00000000000E+00 0. -1.
          1   -1    0    0  501    0 -0.00000000000E+00 -0.00000000000E+00 -0.23471652227E+02  0.23471652227E+02  0.00000000000E+00 0. -1.
         25    2    1    2    0    0 -0.60225018302E+02 -0.86453491855E+02  0.58619686163E+03  0.60856617695E+03  0.12499908828E+03 0.  0.
          2    1    1    2  501    0 -0.10468442891E+02  0.75398704704E+02  0.12960074622E+03  0.15030271584E+03  0.00000000000E+00 0. -1.
          1    1    1    2  502    0  0.70693461192E+02  0.11054787151E+02  0.65918847117E+03  0.66306049068E+03  0.00000000000E+00 0. -1.
         22    1    3    3    0    0 -0.78407193737E+01  0.32029341042E+02  0.14753555950E+03  0.15117571526E+03  0.00000000000E+00 0. -1.
         22    1    3    3    0    0 -0.52384298928E+02 -0.11848283290E+03  0.43866130213E+03  0.45739046170E+03  0.00000000000E+00 0. -1.
</event>
<event>
 7    1  0.5537228E-006  0.3206691E+02  0.7818608E-02  0.1578934E+00
          2   -1    0    0  502    0  0.00000000000E+00  0.00000000000E+00  0.13167502968E+04  0.13167502968E+04  0.00000000000E+00 0. -1.
          1   -1    0    0  501    0 -0.00000000000E+00 -0.00000000000E+00 -0.53785859992E+03  0.53785859992E+03  0.00000000000E+00 0. -1.
         25    2    1    2    0    0 -0.20479748101E+02 -0.56364981584E+01 -0.14161050327E+02  0.12758635543E+03  0.12500621005E+03 0.  0.
          2    1    1    2  501    0  0.14260266852E+01  0.31516652860E+02 -0.46624680575E+03  0.46731297525E+03  0.00000000000E+00 0. -1.
          1    1    1    2  502    0  0.19053721415E+02 -0.25880154702E+02  0.12592995530E+04  0.12597095661E+04  0.00000000000E+00 0. -1.
         22    1    3    3    0    0 -0.67463604738E+02 -0.28782960519E+02 -0.66645022061E-01  0.73347128247E+02  0.00000000000E+00 0. -1.
         22    1    3    3    0    0  0.46983856637E+02  0.23146462361E+02 -0.14094405305E+02  0.54239227181E+02  0.00000000000E+00 0. -1.
</event>
<event>
 7    1  0.5537228E-006  0.2496017E+03  0.7818608E-02  0.1263623E+00
          2   -1    0    0  502    0  0.00000000000E+00  0.00000000000E+00  0.15647624855E+04  0.15647624855E+04  0.00000000000E+00 0. -1.
          1   -1    0    0  501    0 -0.00000000000E+00 -0.00000000000E+00 -0.14415919940E+04  0.14415919940E+04  0.00000000000E+00 0. -1.
         25    2    1    2    0    0  0.18210017065E+03 -0.13531999675E+03  0.85037097475E+03  0.88894749337E+03  0.12499951041E+03 0.  0.
          2    1    1    2  501    0 -0.17205133235E+03  0.18128362912E+03 -0.14105089288E+04  0.14324806642E+04  0.00000000000E+00 0. -1.
          1    1    1    2  502    0 -0.10048838307E+02 -0.45963632376E+02  0.68330844553E+03  0.68492632187E+03  0.00000000000E+00 0. -1.
         22    1    3    3    0    0  0.18048769126E+03 -0.10522975416E+03  0.57218897142E+03  0.60913818372E+03  0.00000000000E+00 0. -1.
         22    1    3    3    0    0  0.16124793969E+01 -0.30090242584E+02  0.27818200333E+03  0.27980930965E+03  0.00000000000E+00 0. -1.
</event>
<event>
 7    1  0.5537228E-006  0.6371887E+02  0.7818608E-02  0.1506041E+00
          2   -1    0    0  502    0  0.00000000000E+00  0.00000000000E+00  0.37487722043E+03  0.37487722043E+03  0.00000000000E+00 0. -1.
          1   -1    0    0  501    0 -0.00000000000E+00 -0.00000000000E+00 -0.15191082488E+03  0.15191082488E+03  0.00000000000E+00 0. -1.
         25    2    1    2    0    0 -0.52715699417E+02 -0.55510896452E+02  0.19172411270E+03  0.24133738876E+03  0.12500078093E+03 0.  0.
          2    1    1    2  501    0  0.25475809101E+02  0.64279593656E+00 -0.11978870079E+03  0.12246943648E+03  0.00000000000E+00 0. -1.
          1    1    1    2  502    0  0.27239890316E+02  0.54868100515E+02  0.15103098364E+03  0.16298122008E+03  0.00000000000E+00 0. -1.
         22    1    3    3    0    0 -0.66996963011E+02 -0.59286131393E+02  0.20359722492E+03  0.22238540515E+03  0.00000000000E+00 0. -1.
         22    1    3    3    0    0  0.14281263594E+02  0.37752349413E+01 -0.11873112226E+02  0.18951983607E+02  0.00000000000E+00 0. -1.
</event>
<event>
 7    1  0.5537228E-006  0.1502171E+03  0.7818608E-02  0.1343330E+00
          2   -1    0    0  502    0  0.00000000000E+00  0.00000000000E+00  0.39180631130E+03  0.39180631130E+03  0.00000000000E+00 0. -1.
          1   -1    0    0  501    0 -0.00000000000E+00 -0.00000000000E+00 -0.15636710942E+04  0.15636710942E+04  0.00000000000E+00 0. -1.
         25    2    1    2    0    0 -0.23371440801E+02  0.15353858142E+03 -0.62463084177E+02  0.20891828466E+03  0.12499957019E+03 0.  0.
          2    1    1    2  501    0 -0.14034238357E+02 -0.14952178451E+03 -0.14229041616E+04  0.14308074563E+04  0.00000000000E+00 0. -1.
          1    1    1    2  502    0  0.37405679157E+02 -0.40167969142E+01  0.31350246284E+03  0.31575166460E+03  0.00000000000E+00 0. -1.
         22    1    3    3    0    0 -0.52253766709E+02  0.46621099422E+02  0.17664091297E+02  0.72221902273E+02  0.00000000000E+00 0.  1.
         22    1    3    3    0    0  0.28882325908E+02  0.10691748200E+03 -0.80127175475E+02  0.13669638238E+03  0.00000000000E+00 0.  1.
</event>
<event>
 7    1  0.5537228E-006  0.5053794E+02  0.7818608E-02  0.1472480E+00
          2   -1    0    0  502    0  0.00000000000E+00  0.00000000000E+00  0.13863842822E+03  0.13863842822E+03  0.00000000000E+00 0. -1.
          1   -1    0    0  501    0 -0.00000000000E+00 -0.00000000000E+00 -0.52717349928E+03  0.52717349928E+03  0.00000000000E+00 0. -1.
         25    2    1    2    0    0 -0.68870295202E+02 -0.43682255612E+02 -0.21230511852E+03  0.25951709714E+03  0.12499761335E+03 0.  0.
          2    1    1    2  501    0  0.40524616377E+02  0.25396693623E+01 -0.28432620346E+03  0.28721087101E+03  0.00000000000E+00 0. -1.
          1    1    1    2  502    0  0.28345678825E+02  0.41142586249E+02  0.10809625092E+03  0.11908395935E+03  0.00000000000E+00 0. -1.
         22    1    3    3    0    0 -0.21269066245E+02 -0.35415075508E+02  0.48219025248E+00  0.41313838597E+02  0.00000000000E+00 0.  1.
         22    1    3    3    0    0 -0.47601228957E+02 -0.82671801036E+01 -0.21278730877E+03  0.21820325855E+03  0.00000000000E+00 0.  1.
</event>
<event>
 7    1  0.5537228E-006  0.6600396E+02  0.7818608E-02  0.1481543E+00
          2   -1    0    0  502    0  0.00000000000E+00  0.00000000000E+00  0.12174258444E+04  0.12174258444E+04  0.00000000000E+00 0. -1.
          1   -1    0    0  501    0 -0.00000000000E+00 -0.00000000000E+00 -0.61501685952E+02  0.61501685952E+02  0.00000000000E+00 0. -1.
         25    2    1    2    0    0 -0.45262670926E+02  0.10632012657E+02  0.48099089866E+03  0.49913859283E+03  0.12500136475E+03 0.  0.
          2    1    1    2  501    0  0.55134724605E+02 -0.38063954605E+02 -0.30598976304E+02  0.73654598284E+02  0.00000000000E+00 0. -1.
          1    1    1    2  502    0 -0.98720536793E+01  0.27431941948E+02  0.70553223609E+03  0.70613433923E+03  0.00000000000E+00 0. -1.
         22    1    3    3    0    0 -0.73595862447E+02 -0.30222580515E+02  0.23287591315E+03  0.24609133725E+03  0.00000000000E+00 0.  1.
         22    1    3    3    0    0  0.28333191521E+02  0.40854593172E+02  0.24811498550E+03  0.25304725558E+03  0.00000000000E+00 0.  1.
</event>
<event>
 7    1  0.5537228E-006  0.9950601E+02  0.7818608E-02  0.1311701E+00
          2   -1    0    0  502    0  0.00000000000E+00  0.00000000000E+00  0.42997840265E+03  0.42997840265E+03  0.00000000000E+00 0. -1.
          1   -1    0    0  501    0 -0.00000000000E+00 -0.00000000000E+00 -0.17867129020E+04  0.17867129020E+04  0.00000000000E+00 0. -1.
         25    2    1    2    0    0  0.78740853365E+02 -0.91496453906E+02  0.13765324038E+03  0.22168514156E+03  0.12499665729E+03 0.  0.
          2    1    1    2  501    0 -0.97742727211E+02  0.18845043804E+02 -0.17376079161E+04  0.17404568500E+04  0.00000000000E+00 0. -1.
          1    1    1    2  502    0  0.19001873847E+02  0.72651410102E+02  0.24322017640E+03  0.25454931312E+03  0.00000000000E+00 0. -1.
         22    1    3    3    0    0  0.44506984908E+02 -0.11528476955E+03  0.69464632304E+02  0.14176312968E+03  0.00000000000E+00 0.  1.
         22    1    3    3    0    0  0.34233868456E+02  0.23788315645E+02  0.68188608078E+02  0.79922011876E+02  0.00000000000E+00 0.  1.
</event>
<event>
 7    1  0.5537228E-006  0.1251989E+03  0.7818608E-02  0.1441461E+00
          2   -1    0    0  502    0  0.00000000000E+00  0.00000000000E+00  0.64116819042E+02  0.64116819042E+02  0.00000000000E+00 0. -1.
          1   -1    0    0  501    0 -0.00000000000E+00 -0.00000000000E+00 -0.12318121722E+04  0.12318121722E+04  0.00000000000E+00 0. -1.
         25    2    1    2    0    0 -0.12632561419E+03  0.15350179935E+02 -0.10036765563E+03  0.20467896734E+03  0.12500409813E+03 0.  0.
          2    1    1    2  501    0  0.12018139490E+03 -0.34963231391E+02 -0.10628763195E+04  0.10702205688E+04  0.00000000000E+00 0. -1.
          1    1    1    2  502    0  0.61442192963E+01  0.19613051456E+02 -0.44513780473E+01  0.21029455169E+02  0.00000000000E+00 0. -1.
         22    1    3    3    0    0  0.19796626251E+02 -0.11514609716E+02 -0.36215115248E+02  0.42848888203E+02  0.00000000000E+00 0. -1.
         22    1    3    3    0    0 -0.14612224045E+03  0.26864789650E+02 -0.64152540383E+02  0.16183007914E+03  0.00000000000E+00 0. -1.
</event>
<event>
 7    1  0.5537228E-006  0.2374134E+03  0.7818608E-02  0.1315265E+00
          2   -1    0    0  502    0  0.00000000000E+00  0.00000000000E+00  0.51269368462E+03  0.51269368462E+03  0.00000000000E+00 0. -1.
          1   -1    0    0  501    0 -0.00000000000E+00 -0.00000000000E+00 -0.15135637162E+04  0.15135637162E+04  0.00000000000E+00 0. -1.
         25    2    1    2    0    0  0.15134063616E+03  0.15508013232E+03 -0.44385545003E+02  0.25406336233E+03  0.12499711950E+03 0.  0.
          2    1    1    2  501    0 -0.15153442647E+03 -0.18555761958E+03 -0.13532334175E+04  0.13742761713E+04  0.00000000000E+00 0. -1.
          1    1    1    2  502    0  0.19379030593E+00  0.30477487265E+02  0.39674893099E+03  0.39791786718E+03  0.00000000000E+00 0. -1.
         22    1    3    3    0    0  0.11707406092E+03  0.31578473666E+02 -0.31280458606E+02  0.12522780374E+03  0.00000000000E+00 0.  1.
         22    1    3    3    0    0  0.34266575242E+02  0.12350165865E+03 -0.13105086397E+02  0.12883555859E+03  0.00000000000E+00 0.  1.
</event>
<event>
 7    1  0.5537228E-006  0.8548754E+02  0.7818608E-02  0.1483014E+00
          2   -1    0    0  502    0  0.00000000000E+00  0.00000000000E+00  0.60211499262E+03  0.60211499262E+03  0.00000000000E+00 0. -1.
          1   -1    0    0  501    0 -0.00000000000E+00 -0.00000000000E+00 -0.14569733773E+04  0.14569733773E+04  0.00000000000E+00 0. -1.
         25    2    1    2    0    0 -0.67523997257E+02  0.72188672924E+02 -0.42686232862E+03  0.45563980281E+03  0.12500195042E+03 0.  0.
          2    1    1    2  501    0 -0.17321329132E+01 -0.22210138855E+02 -0.10124963903E+04  0.10127414433E+04  0.00000000000E+00 0. -1.
          1    1    1    2  502    0  0.69256130171E+02 -0.49978534070E+02  0.58450033423E+03  0.59070712384E+03  0.00000000000E+00 0. -1.
         22    1    3    3    0    0  0.22802751500E+02  0.58381759094E+02 -0.23363615553E+03  0.24189718568E+03  0.00000000000E+00 0. -1.
         22    1    3    3    0    0 -0.90326748757E+02  0.13806913830E+02 -0.19322617309E+03  0.21374261713E+03  0.00000000000E+00 0. -1.
</event>
<event>
 7    1  0.5537228E-006  0.1383623E+03  0.7818608E-02  0.1378144E+00
          2   -1    0    0  502    0  0.00000000000E+00  0.00000000000E+00  0.89180625572E+03  0.89180625572E+03  0.00000000000E+00 0. -1.
          1   -1    0    0  501    0 -0.00000000000E+00 -0.00000000000E+00 -0.79700655012E+03  0.79700655012E+03  0.00000000000E+00 0. -1.
         25    2    1    2    0    0 -0.35184416244E+02  0.14478809263E+03  0.41286157347E+03  0.45637824365E+03  0.12499955006E+03 0.  0.
          2    1    1    2  501    0  0.28586550060E+02 -0.10611819279E+02 -0.76506953936E+03  0.76567695643E+03  0.00000000000E+00 0. -1.
          1    1    1    2  502    0  0.65978661839E+01 -0.13417627335E+03  0.44700767148E+03  0.46675760576E+03  0.00000000000E+00 0. -1.
         22    1    3    3    0    0 -0.19926379600E+02  0.10501915341E+03  0.39665199874E+03  0.41080274013E+03  0.00000000000E+00 0.  1.
         22    1    3    3    0    0 -0.15258036643E+02  0.39768939220E+02  0.16209574730E+02  0.45575503528E+02  0.00000000000E+00 0.  1.
</event>
<event>
 7    1  0.5537228E-006  0.5459185E+02  0.7818608E-02  0.1433916E+00
          2   -1    0    0  502    0  0.00000000000E+00  0.00000000000E+00  0.42727849869E+02  0.42727849869E+02  0.00000000000E+00 0. -1.
          1   -1    0    0  501    0 -0.00000000000E+00 -0.00000000000E+00 -0.36912944121E+03  0.36912944121E+03  0.00000000000E+00 0. -1.
         25    2    1    2    0    0 -0.81599965146E+01  0.26831986587E+02 -0.12552253631E+03  0.17935703551E+03  0.12500599193E+03 0.  0.
          2    1    1    2  501    0 -0.45502271924E+02 -0.36863469865E+02 -0.13351273998E+03  0.14579102818E+03  0.00000000000E+00 0. -1.
          1    1    1    2  502    0  0.53662268439E+02  0.10031483278E+02 -0.67366315045E+02  0.86709227384E+02  0.00000000000E+00 0. -1.
         22    1    3    3    0    0 -0.42197398519E+02 -0.12922728617E+02 -0.84417400858E+00  0.44139891101E+02  0.00000000000E+00 0. -1.
         22    1    3    3    0    0  0.34037402004E+02  0.39754715204E+02 -0.12467836230E+03  0.13521714441E+03  0.00000000000E+00 0. -1.
</event>
<event>
 7    1  0.5537228E-006  0.1309673E+03  0.7818608E-02  0.1316440E+00
          2   -1    0    0  502    0  0.00000000000E+00  0.00000000000E+00  0.23949210223E+04  0.23949210223E+04  0.00000000000E+00 0. -1.
          1   -1    0    0  501    0 -0.00000000000E+00 -0.00000000000E+00 -0.15216800746E+03  0.15216800746E+03  0.00000000000E+00 0. -1.
         25    2    1    2    0    0  0.85988205312E+02 -0.83367646901E+02  0.45513176851E+03  0.48694387514E+03  0.12500109931E+03 0.  0.
          2    1    1    2  501    0 -0.36166482093E+02 -0.40996229632E+02 -0.12834367803E+03  0.13950198909E+03  0.00000000000E+00 0. -1.
          1    1    1    2  502    0 -0.49821723219E+02  0.12436387653E+03  0.19159649244E+04  0.19206431656E+04  0.00000000000E+00 0. -1.
         22    1    3    3    0    0  0.30104164437E+02 -0.10093625832E+03  0.36118056327E+03  0.37622571449E+03  0.00000000000E+00 0. -1.
         22    1    3    3    0    0  0.55884040875E+02  0.17568611421E+02  0.93951205232E+02  0.11071816064E+03  0.00000000000E+00 0. -1.
</event>
<event>
 7    1  0.5537228E-006  0.6779241E+02  0.7818608E-02  0.1431421E+00
          2   -1    0    0  502    0  0.00000000000E+00  0.00000000000E+00  0.18200267115E+04  0.18200267115E+04  0.00000000000E+00 0. -1.
          1   -1    0    0  501    0 -0.00000000000E+00 -0.00000000000E+00 -0.35493125388E+02  0.35493125388E+02  0.00000000000E+00 0. -1.
         25    2    1    2    0    0 -0.18723238064E+02 -0.22749178512E+02  0.99677348851E+03  0.10050130325E+04  0.12500289343E+03 0.  0.
          2    1    1    2  501    0  0.54125999984E+02  0.43289389770E+02  0.81074722274E+01  0.69780557800E+02  0.00000000000E+00 0. -1.
          1    1    1    2  502    0 -0.35402761920E+02 -0.20540211259E+02  0.77965262537E+03  0.78072624656E+03  0.00000000000E+00 0. -1.
         22    1    3    3    0    0 -0.77538935520E+01 -0.70771483720E+02  0.74997348908E+03  0.75334517991E+03  0.00000000000E+00 0.  1.
         22    1    3    3    0    0 -0.10969344512E+02  0.48022305209E+02  0.24679999943E+03  0.25166785261E+03  0.00000000000E+00 0.  1.
</event>
<event>
 7    1  0.5537228E-006  0.1087583E+03  0.7818608E-02  0.1362952E+00
          2   -1    0    0  502    0  0.00000000000E+00  0.00000000000E+00  0.27686801407E+03  0.27686801407E+03  0.00000000000E+00 0. -1.
          1   -1    0    0  501    0 -0.00000000000E+00 -0.00000000000E+00 -0.22935843073E+04  0.22935843073E+04  0.00000000000E+00 0. -1.
         25    2    1    2    0    0 -0.64407001834E+02  0.11419135541E+03 -0.78421358918E+03  0.80486330102E+03  0.12500420925E+03 0.  0.
          2    1    1    2  501    0  0.21775087034E+02 -0.10335812338E+03 -0.14953553727E+04  0.14990813009E+04  0.00000000000E+00 0. -1.
          1    1    1    2  502    0  0.42631914800E+02 -0.10833232034E+02  0.26285266867E+03  0.26650771941E+03  0.00000000000E+00 0. -1.
         22    1    3    3    0    0 -0.94327645454E+00  0.34962826665E+02 -0.37491659821E+02  0.51272932187E+02  0.00000000000E+00 0.  1.
         22    1    3    3    0    0 -0.63463725380E+02  0.79228528745E+02 -0.74672192936E+03  0.75359036883E+03  0.00000000000E+00 0.  1.
</event>
<event>
 7    1  0.5537228E-006  0.4437345E+03  0.7818608E-02  0.1159166E+00
          2   -1    0    0  502    0  0.00000000000E+00  0.00000000000E+00  0.10305656875E+04  0.10305656875E+04  0.00000000000E+00 0. -1.
          1   -1    0    0  501    0 -0.00000000000E+00 -0.00000000000E+00 -0.69138853206E+03  0.69138853206E+03  0.00000000000E+00 0. -1.
         25    2    1    2    0    0 -0.13283463658E+03  0.45398611942E+03  0.63892772007E+03  0.80473704473E+03  0.12499856953E+03 0.  0.
          2    1    1    2  501    0  0.53788560810E+02 -0.43778400924E+03 -0.52045919366E+03  0.68222123998E+03  0.00000000000E+00 0. -1.
          1    1    1    2  502    0  0.79046075774E+02 -0.16202110181E+02  0.22070862906E+03  0.23499593488E+03  0.00000000000E+00 0. -1.
         22    1    3    3    0    0 -0.86265071144E+02  0.15812682934E+03  0.32008430375E+03  0.36728696977E+03  0.00000000000E+00 0. -1.
         22    1    3    3    0    0 -0.46569565440E+02  0.29585929007E+03  0.31884341632E+03  0.43745007496E+03  0.00000000000E+00 0. -1.
</event>
<event>
 7    1  0.5537228E-006  0.5951083E+02  0.7818608E-02  0.1452215E+00
          2   -1    0    0  502    0  0.00000000000E+00  0.00000000000E+00  0.19547830630E+04  0.19547830630E+04  0.00000000000E+00 0. -1.
          1   -1    0    0  501    0 -0.00000000000E+00 -0.00000000000E+00 -0.85727062849E+02  0.85727062849E+02  0.00000000000E+00 0. -1.
         25    2    1    2    0    0 -0.90246903607E+02  0.40155593710E+02  0.84828920889E+03  0.86311999908E+03  0.12499830232E+03 0.  0.
          2    1    1    2  501    0  0.54947243494E+02 -0.21489066155E+02 -0.66780432261E+02  0.89110076112E+02  0.00000000000E+00 0. -1.
          1    1    1    2  502    0  0.35299660113E+02 -0.18666527555E+02  0.10875472235E+04  0.10882800507E+04  0.00000000000E+00 0. -1.
         22    1    3    3    0    0 -0.12859025249E+02 -0.42130436588E+02  0.17736318292E+03  0.18275127051E+03  0.00000000000E+00 0.  1.
         22    1    3    3    0    0 -0.77387878359E+02  0.82286030298E+02  0.67092602597E+03  0.68036872857E+03  0.00000000000E+00 0.  1.
</event>
<event>
 7    1  0.5537228E-006  0.1050337E+03  0.7818608E-02  0.1336511E+00
          2   -1    0    0  502    0  0.00000000000E+00  0.00000000000E+00  0.16117375983E+04  0.16117375983E+04  0.00000000000E+00 0. -1.
          1   -1    0    0  501    0 -0.00000000000E+00 -0.00000000000E+00 -0.83218191814E+02  0.83218191814E+02  0.00000000000E+00 0. -1.
         25    2    1    2    0    0  0.71631006725E+02 -0.59211670390E+02  0.68675492020E+02  0.17022983655E+03  0.12499940406E+03 0.  0.
          2    1    1    2  501    0  0.33585482828E+02  0.46151882804E+02 -0.38393635783E+01  0.57207706262E+02  0.00000000000E+00 0. -1.
          1    1    1    2  502    0 -0.10521648955E+03  0.13059787586E+02  0.14636832781E+04  0.14675182473E+04  0.00000000000E+00 0. -1.
         22    1    3    3    0    0 -0.35196727021E+02 -0.14737344353E+02  0.59867919518E+01  0.38624352285E+02  0.00000000000E+00 0.  1.
         22    1    3    3    0    0  0.10682773375E+03 -0.44474326037E+02  0.62688700068E+02  0.13160548427E+03  0.00000000000E+00 0.  1.
</event>
<event>
 7    1  0.5537228E-006  0.1394132E+03  0.7818608E-02  0.1373752E+00
          2   -1    0    0  502    0  0.00000000000E+00  0.00000000000E+00  0.11899085273E+04  0.11899085273E+04  0.00000000000E+00 0. -1.
          1   -1    0    0  501    0 -0.00000000000E+00 -0.00000000000E+00 -0.20440541803E+03  0.20440541803E+03  0.00000000000E+00 0. -1.
         25    2    1    2    0    0  0.16053996334E+03 -0.35650927340E+02  0.10777616556E+02  0.20684606666E+03  0.12500027930E+03 0.  0.
          2    1    1    2  501    0 -0.22949463828E+02  0.21391750875E+02 -0.99522543002E+02  0.10435047418E+03  0.00000000000E+00 0. -1.
          1    1    1    2  502    0 -0.13759049951E+03  0.14259176465E+02  0.10742480357E+04  0.10831174045E+04  0.00000000000E+00 0. -1.
         22    1    3    3    0    0  0.90036985234E+02 -0.70306162314E-01  0.65002482238E+02  0.11104947704E+03  0.00000000000E+00 0. -1.
         22    1    3    3    0    0  0.70502978108E+02 -0.35580621178E+02 -0.54224865682E+02  0.95796589624E+02  0.00000000000E+00 0. -1.
</event>
<event>
 7    1  0.5537228E-006  0.1188330E+03  0.7818608E-02  0.1382066E+00
          2   -1    0    0  502    0  0.00000000000E+00  0.00000000000E+00  0.15447456274E+04  0.15447456274E+04  0.00000000000E+00 0. -1.
          1   -1    0    0  501    0 -0.00000000000E+00 -0.00000000000E+00 -0.13297546739E+03  0.13297546739E+03  0.00000000000E+00 0. -1.
         25    2    1    2    0    0  0.63064341824E+01  0.14186147726E+03  0.24445125999E+03  0.30909374059E+03  0.12497228542E+03 0.  0.
          2    1    1    2  501    0 -0.22589687705E+02 -0.25925722185E+02 -0.94927283978E+02  0.10096348996E+03  0.00000000000E+00 0. -1.
          1    1    1    2  502    0  0.16283253523E+02 -0.11593575507E+03  0.12622461840E+04  0.12676638643E+04  0.00000000000E+00 0. -1.
         22    1    3    3    0    0 -0.89952627428E+01  0.55844253692E+02  0.81371256587E+01  0.57146375530E+02  0.00000000000E+00 0.  1.
         22    1    3    3    0    0  0.15301696925E+02  0.86017223568E+02  0.23631413433E+03  0.25194736506E+03  0.00000000000E+00 0.  1.
</event>
<event>
 7    1  0.5537228E-006  0.1112845E+03  0.7818608E-02  0.1396325E+00
          2   -1    0    0  502    0  0.00000000000E+00  0.00000000000E+00  0.36460371733E+03  0.36460371733E+03  0.00000000000E+00 0. -1.
          1   -1    0    0  501    0 -0.00000000000E+00 -0.00000000000E+00 -0.72897121738E+03  0.72897121738E+03  0.00000000000E+00 0. -1.
         25    2    1    2    0    0 -0.84923500508E+02 -0.63734785860E+02 -0.74613296231E+02  0.18018746998E+03  0.12500502589E+03 0.  0.
          2    1    1    2  501    0  0.18872850822E+02 -0.26752400180E+02 -0.59104065584E+03  0.59194673094E+03  0.00000000000E+00 0. -1.
          1    1    1    2  502    0  0.66050649686E+02  0.90487186040E+02  0.30128645202E+03  0.32144073378E+03  0.00000000000E+00 0. -1.
         22    1    3    3    0    0 -0.29033097882E+02  0.18907889762E+02 -0.72550094080E+02  0.80398664285E+02  0.00000000000E+00 0.  1.
         22    1    3    3    0    0 -0.55890402626E+02 -0.82642675622E+02 -0.20632021511E+01  0.99788805699E+02  0.00000000000E+00 0.  1.
</event>
<event>
 7    1  0.5537228E-006  0.6118737E+02  0.7818608E-02  0.1414272E+00
          2   -1    0    0  502    0  0.00000000000E+00  0.00000000000E+00  0.67622791496E+03  0.67622791496E+03  0.00000000000E+00 0. -1.
          1   -1    0    0  501    0 -0.00000000000E+00 -0.00000000000E+00 -0.11530253538E+04  0.11530253538E+04  0.00000000000E+00 0. -1.
         25    2    1    2    0    0  0.33935123525E+02  0.29685304614E+02  0.60196858271E+03  0.61645901497E+03  0.12499093028E+03 0.  0.
          2    1    1    2  501    0  0.73784655618E+01 -0.60789715949E+02 -0.11348536375E+04  0.11365045578E+04  0.00000000000E+00 0. -1.
          1    1    1    2  502    0 -0.41313589087E+02  0.31104411335E+02  0.56087615971E+02  0.76289695982E+02  0.00000000000E+00 0. -1.
         22    1    3    3    0    0 -0.37210151502E+02 -0.15348392688E+01  0.74402323866E+02  0.83202505389E+02  0.00000000000E+00 0. -1.
         22    1    3    3    0    0  0.71145275027E+02  0.31220143883E+02  0.52756625884E+03  0.53325650958E+03  0.00000000000E+00 0. -1.
</event>
<event>
 7    1  0.5537228E-006  0.4409557E+02  0.7818608E-02  0.1480242E+00
          2   -1    0    0  502    0  0.00000000000E+00  0.00000000000E+00  0.33098524131E+02  0.33098524131E+02  0.00000000000E+00 0. -1.
          1   -1    0    0  501    0 -0.00000000000E+00 -0.00000000000E+00 -0.98929725675E+03  0.98929725675E+03  0.00000000000E+00 0. -1.
         25    2    1    2    0    0  0.19724643293E+02 -0.53805730647E+02 -0.74393617436E+03  0.75653855850E+03  0.12500176309E+03 0.  0.
          2    1    1    2  501    0 -0.41598955107E+02  0.15518213310E+02 -0.21701134101E+03  0.22150668192E+03  0.00000000000E+00 0. -1.
          1    1    1    2  502    0  0.21874311814E+02  0.38287517337E+02  0.47487827479E+01  0.44350540456E+02  0.00000000000E+00 0. -1.
         22    1    3    3    0    0 -0.25550128734E+02 -0.28333886387E+01 -0.55641760679E+03  0.55701112226E+03  0.00000000000E+00 0. -1.
         22    1    3    3    0    0  0.45274772027E+02 -0.50972342008E+02 -0.18751856757E+03  0.19952743625E+03  0.00000000000E+00 0. -1.
</event>
<event>
 7    1  0.5537228E-006  0.1651754E+03  0.7818608E-02  0.1307242E+00
          2   -1    0    0  502    0  0.00000000000E+00  0.00000000000E+00  0.39085672151E+03  0.39085672151E+03  0.00000000000E+00 0. -1.
          1   -1    0    0  501    0 -0.00000000000E+00 -0.00000000000E+00 -0.71991244682E+03  0.71991244682E+03  0.00000000000E+00 0. -1.
         25    2    1    2    0    0 -0.76025272999E+02  0.98398148464E+02 -0.11162220314E+03  0.20867723140E+03  0.12499853165E+03 0.  0.
          2    1    1    2  501    0 -0.36201903341E+02  0.30144063851E+02 -0.53740346665E+03  0.53946429757E+03  0.00000000000E+00 0. -1.
          1    1    1    2  502    0  0.11222717634E+03 -0.12854221232E+03  0.31996994448E+03  0.36262763936E+03  0.00000000000E+00 0. -1.
         22    1    3    3    0    0 -0.93907962054E+02  0.11559125505E+03 -0.81902892711E+02  0.16996507705E+03  0.00000000000E+00 0. -1.
         22    1    3    3    0    0  0.17882689055E+02 -0.17193106590E+02 -0.29719310429E+02  0.38712154350E+02  0.00000000000E+00 0. -1.
</event>
<event>
 7    1  0.5537228E-006  0.2811986E+03  0.7818608E-02  0.1254058E+00
          2   -1    0    0  502    0  0.00000000000E+00  0.00000000000E+00  0.21730388557E+04  0.21730388557E+04  0.00000000000E+00 0. -1.
          1   -1    0    0  501    0 -0.00000000000E+00 -0.00000000000E+00 -0.80964134317E+03  0.80964134317E+03  0.00000000000E+00 0. -1.
         25    2    1    2    0    0  0.21324021245E+03  0.18519527019E+03  0.10719439103E+04  0.11155523781E+04  0.12499874015E+03 0.  0.
          2    1    1    2  501    0 -0.33198089956E+02  0.31677400214E+02 -0.76873825637E+03  0.77010653657E+03  0.00000000000E+00 0. -1.
          1    1    1    2  502    0 -0.18004212249E+03 -0.21687267040E+03  0.10601918586E+04  0.10970212842E+04  0.00000000000E+00 0. -1.
         22    1    3    3    0    0  0.88189397127E+02  0.12508116997E+03  0.74204490623E+03  0.75766305948E+03  0.00000000000E+00 0. -1.
         22    1    3    3    0    0  0.12505081532E+03  0.60114100213E+02  0.32989900410E+03  0.35788931859E+03  0.00000000000E+00 0. -1.
</event>
<event>
 7    1  0.5537228E-006  0.1071635E+03  0.7818608E-02  0.1271631E+00
          2   -1    0    0  502    0  0.00000000000E+00  0.00000000000E+00  0.24462033512E+03  0.24462033512E+03  0.00000000000E+00 0. -1.
          1   -1    0    0  501    0 -0.00000000000E+00 -0.00000000000E+00 -0.19539785197E+04  0.19539785197E+04  0.00000000000E+00 0. -1.
         25    2    1    2    0    0  0.76194056797E+02  0.91095235234E+01  0.39800849039E+02  0.15197918004E+03  0.12500018349E+03 0.  0.
          2    1    1    2  501    0 -0.36003008732E+02 -0.10219357374E+03 -0.18788657861E+04  0.18819873499E+04  0.00000000000E+00 0. -1.
          1    1    1    2  502    0 -0.40191048065E+02  0.93084050214E+02  0.12970675247E+03  0.16463232485E+03  0.00000000000E+00 0. -1.
         22    1    3    3    0    0  0.70384016322E+02  0.51691648470E+02  0.58500388313E+02  0.10511056896E+03  0.00000000000E+00 0. -1.
         22    1    3    3    0    0  0.58100404745E+01 -0.42582124947E+02 -0.18699539274E+02  0.46868611078E+02  0.00000000000E+00 0. -1.
</event>
<event>
 7    1  0.5537228E-006  0.1034229E+03  0.7818608E-02  0.1339394E+00
          2   -1    0    0  502    0  0.00000000000E+00  0.00000000000E+00  0.46945479503E+03  0.46945479503E+03  0.00000000000E+00 0. -1.
          1   -1    0    0  501    0 -0.00000000000E+00 -0.00000000000E+00 -0.26400556972E+03  0.26400556972E+03  0.00000000000E+00 0. -1.
         25    2    1    2    0    0  0.24010195794E+02  0.52766673017E+02 -0.71882105949E+01  0.13797635940E+03  0.12499997640E+03 0.  0.
          2    1    1    2  501    0 -0.13104652892E+02  0.54993809123E+02 -0.17974569230E+03  0.18842655033E+03  0.00000000000E+00 0. -1.
          1    1    1    2  502    0 -0.10905542902E+02 -0.10776048214E+03  0.39238312821E+03  0.40705745501E+03  0.00000000000E+00 0. -1.
         22    1    3    3    0    0  0.15299626163E+02  0.13809299475E+02  0.57990786139E+02  0.61544346530E+02  0.00000000000E+00 0.  1.
         22    1    3    3    0    0  0.87105696313E+01  0.38957373541E+02 -0.65178996734E+02  0.76432012873E+02  0.00000000000E+00 0.  1.
</event>
<event>
 7    1  0.5537228E-006  0.1602070E+03  0.7818608E-02  0.1302361E+00
          2   -1    0    0  502    0  0.00000000000E+00  0.00000000000E+00  0.58057660639E+02  0.58057660639E+02  0.00000000000E+00 0. -1.
          1   -1    0    0  501    0 -0.00000000000E+00 -0.00000000000E+00 -0.20922981645E+04  0.20922981645E+04  0.00000000000E+00 0. -1.
         25    2    1    2    0    0 -0.58559968927E+02  0.13634074928E+03 -0.86478454116E+03  0.88628194338E+03  0.12500124264E+03 0.  0.
          2    1    1    2  501    0  0.43552172828E+02  0.26127041074E+02 -0.10736803862E+04  0.10748809171E+04  0.00000000000E+00 0. -1.
          1    1    1    2  502    0  0.15007796099E+02 -0.16246779035E+03 -0.95775576442E+02  0.18919296469E+03  0.00000000000E+00 0. -1.
         22    1    3    3    0    0 -0.22378910755E+01 -0.81361096210E+01 -0.31323347765E+03  0.31334711736E+03  0.00000000000E+00 0.  1.
         22    1    3    3    0    0 -0.56322077851E+02  0.14447685890E+03 -0.55155106351E+03  0.57293482602E+03  0.00000000000E+00 0.  1.
</event>
<event>
 7    1  0.5537228E-006  0.1050834E+03  0.7818608E-02  0.1417151E+00
          2   -1    0    0  502    0  0.00000000000E+00  0.00000000000E+00  0.13725980755E+03  0.13725980755E+03  0.00000000000E+00 0. -1.
          1   -1    0    0  501    0 -0.00000000000E+00 -0.00000000000E+00 -0.48699072680E+03  0.48699072680E+03  0.00000000000E+00 0. -1.
         25    2    1    2    0    0  0.10347624915E+03 -0.56960768871E+02 -0.16685346340E+03  0.23961778109E+03  0.12499895775E+03 0.  0.
          2    1    1    2  501    0 -0.26587683084E+02 -0.12660265059E+02 -0.25602279620E+03  0.25771080571E+03  0.00000000000E+00 0. -1.
          1    1    1    2  502    0 -0.76888566064E+02  0.69621033929E+02  0.73145340346E+02  0.12692194756E+03  0.00000000000E+00 0. -1.
         22    1    3    3    0    0 -0.13649573455E+02  0.25055600137E+02 -0.21519820434E+02  0.35737887811E+02  0.00000000000E+00 0. -1.
         22    1    3    3    0    0  0.11712582260E+03 -0.82016369007E+02 -0.14533364296E+03  0.20387989328E+03  0.00000000000E+00 0. -1.
</event>
<event>
 7    1  0.5537228E-006  0.2129197E+03  0.7818608E-02  0.1177208E+00
          2   -1    0    0  502    0  0.00000000000E+00  0.00000000000E+00  0.78859404877E+03  0.78859404877E+03  0.00000000000E+00 0. -1.
          1   -1    0    0  501    0 -0.00000000000E+00 -0.00000000000E+00 -0.13707782242E+04  0.13707782242E+04  0.00000000000E+00 0. -1.
         25    2    1    2    0    0 -0.15062195115E+03 -0.11176094269E+03 -0.37562200367E+02  0.22850111430E+03  0.12499743942E+03 0.  0.
          2    1    1    2  501    0  0.91746195803E+02 -0.10135979474E+03 -0.12161857189E+04  0.12238459361E+04  0.00000000000E+00 0. -1.
          1    1    1    2  502    0  0.58875755351E+02  0.21312073743E+03  0.67156374384E+03  0.70702522256E+03  0.00000000000E+00 0. -1.
         22    1    3    3    0    0  0.20238103058E+02  0.10370987131E+01  0.43657467402E+00  0.20269360783E+02  0.00000000000E+00 0.  1.
         22    1    3    3    0    0 -0.17086005421E+03 -0.11279804140E+03 -0.37998775041E+02  0.20823175352E+03  0.00000000000E+00 0.  1.
</event>
<event>
 7    1  0.5537228E-006  0.1357252E+03  0.7818608E-02  0.1348636E+00
          2   -1    0    0  502    0  0.00000000000E+00  0.00000000000E+00  0.99750433656E+03  0.99750433656E+03  0.00000000000E+00 0. -1.
          1   -1    0    0  501    0 -0.00000000000E+00 -0.00000000000E+00 -0.12513452586E+04  0.12513452586E+04  0.00000000000E+00 0. -1.
         25    2    1    2    0    0  0.11133946963E+03  0.11550639100E+03 -0.11897851108E+03  0.23562570085E+03  0.12500152376E+03 0.  0.
          2    1    1    2  501    0  0.59046242808E+00 -0.39779344539E+02 -0.10688097624E+04  0.10695499302E+04  0.00000000000E+00 0. -1.
          1    1    1    2  502    0 -0.11192993206E+03 -0.75727046462E+02  0.93394735147E+03  0.94367396413E+03  0.00000000000E+00 0. -1.
         22    1    3    3    0    0  0.45683191185E+02  0.12849979986E+03 -0.76848824324E+02  0.15654039198E+03  0.00000000000E+00 0. -1.
         22    1    3    3    0    0  0.65656278447E+02 -0.12993408857E+02 -0.42129686752E+02  0.79085308870E+02  0.00000000000E+00 0. -1.
</event>
<event>
 7    1  0.5537228E-006  0.5600885E+02  0.7818608E-02  0.1420966E+00
          2   -1    0    0  502    0  0.00000000000E+00  0.00000000000E+00  0.44800233921E+03  0.44800233921E+03  0.00000000000E+00 0. -1.
          1   -1    0    0  501    0 -0.00000000000E+00 -0.00000000000E+00 -0.10111429705E+03  0.10111429705E+03  0.00000000000E+00 0. -1.
         25    2    1    2    0    0  0.52208775840E+00  0.31169179647E+02  0.25658773819E+02  0.13135975799E+03  0.12500089204E+03 0.  0.
          2    1    1    2  501    0  0.51968379477E+02 -0.42265488148E+02 -0.21887569148E+02  0.70470913411E+02  0.00000000000E+00 0. -1.
          1    1    1    2  502    0 -0.52490467235E+02  0.11096308501E+02  0.34311683749E+03  0.34728596485E+03  0.00000000000E+00 0. -1.
         22    1    3    3    0    0 -0.58118724655E+02 -0.68565623765E+01  0.64413802155E+01  0.58875206855E+02  0.00000000000E+00 0.  1.
         22    1    3    3    0    0  0.58640812413E+02  0.38025742023E+02  0.19217393604E+02  0.72484551139E+02  0.00000000000E+00 0.  1.
</event>
<event>
 7    1  0.5537228E-006  0.9216357E+02  0.7818608E-02  0.1335118E+00
          2   -1    0    0  502    0  0.00000000000E+00  0.00000000000E+00  0.72818509671E+02  0.72818509671E+02  0.00000000000E+00 0. -1.
          1   -1    0    0  501    0 -0.00000000000E+00 -0.00000000000E+00 -0.19447491441E+04  0.19447491441E+04  0.00000000000E+00 0. -1.
         25    2    1    2    0    0 -0.10522014446E+03  0.88000885237E+02 -0.81953239413E+03  0.84028114065E+03  0.12499446270E+03 0.  0.
          2    1    1    2  501    0  0.81994663677E+02 -0.26388879010E+02 -0.10953110730E+04  0.10986927889E+04  0.00000000000E+00 0. -1.
          1    1    1    2  502    0  0.23225480778E+02 -0.61612006227E+02  0.42912832712E+02  0.78593724178E+02  0.00000000000E+00 0. -1.
         22    1    3    3    0    0 -0.84882776502E+02  0.48927799911E+02 -0.24213009208E+03  0.26120106593E+03  0.00000000000E+00 0.  1.
         22    1    3    3    0    0 -0.20337367953E+02  0.39073085326E+02 -0.57740230204E+03  0.57908007472E+03  0.00000000000E+00 0.  1.
</event>
<event>
 7    1  0.5537228E-006  0.7156296E+02  0.7818608E-02  0.1380724E+00
          2   -1    0    0  502    0  0.00000000000E+00  0.00000000000E+00  0.22806459760E+04  0.22806459760E+04  0.00000000000E+00 0. -1.
          1   -1    0    0  501    0 -0.00000000000E+00 -0.00000000000E+00 -0.19919044115E+03  0.19919044115E+03  0.00000000000E+00 0. -1.
         25    2    1    2    0    0  0.34931589084E+02  0.24085551982E+02  0.12265917447E+04  0.12336743611E+04  0.12499916596E+03 0.  0.
          2    1    1    2  501    0 -0.23982075682E+01 -0.71771839273E+02 -0.18823453881E+03  0.20146759023E+03  0.00000000000E+00 0. -1.
          1    1    1    2  502    0 -0.32533381515E+02  0.47686287290E+02  0.10430983290E+04  0.10446944658E+04  0.00000000000E+00 0. -1.
         22    1    3    3    0    0  0.37175474205E+02  0.54207341684E+02  0.11413160422E+04  0.11432072253E+04  0.00000000000E+00 0.  1.
         22    1    3    3    0    0 -0.22438851217E+01 -0.30121789701E+02  0.85275702445E+02  0.90467135816E+02  0.00000000000E+00 0.  1.
</event>
<event>
 7    1  0.5537228E-006  0.8666650E+02  0.7818608E-02  0.1442506E+00
          2   -1    0    0  502    0  0.00000000000E+00  0.00000000000E+00  0.18092906393E+04  0.18092906393E+04  0.00000000000E+00 0. -1.
          1   -1    0    0  501    0 -0.00000000000E+00 -0.00000000000E+00 -0.40057724067E+03  0.40057724067E+03  0.00000000000E+00 0. -1.
         25    2    1    2    0    0  0.73541196906E+02  0.26222976889E+02  0.66117111483E+03  0.67739878954E+03  0.12500369924E+03 0.  0.
          2    1    1    2  501    0  0.15723757061E+02 -0.24913550674E+02 -0.39015942273E+03  0.39127010707E+03  0.00000000000E+00 0. -1.
          1    1    1    2  502    0 -0.89264953967E+02 -0.13094262154E+01  0.11377017065E+04  0.11411989834E+04  0.00000000000E+00 0. -1.
         22    1    3    3    0    0  0.46232425045E+01  0.48704287949E+02  0.97506022026E+02  0.10909127539E+03  0.00000000000E+00 0. -1.
         22    1    3    3    0    0  0.68917954402E+02 -0.22481311060E+02  0.56366509281E+03  0.56830751415E+03  0.00000000000E+00 0. -1.
</event>
<event>
 7    1  0.5537228E-006  0.1473561E+03  0.7818608E-02  0.1305772E+00
          2   -1    0    0  502    0  0.00000000000E+00  0.00000000000E+00  0.29739190256E+03  0.29739190256E+03  0.00000000000E+00 0. -1.
          1   -1    0    0  501    0 -0.00000000000E+00 -0.00000000000E+00 -0.11363224509E+04  0.11363224509E+04  0.00000000000E+00 0. -1.
         25    2    1    2    0    0 -0.71313838237E+02  0.12535141023E+03  0.66248195681E+01  0.19096496073E+03  0.12500035368E+03 0.  0.
          2    1    1    2  501    0  0.11452026810E+03 -0.93768838061E+02 -0.10351846456E+04  0.10457125500E+04  0.00000000000E+00 0. -1.
          1    1    1    2  502    0 -0.43206429863E+02 -0.31582572170E+02  0.18962927767E+03  0.19703684274E+03  0.00000000000E+00 0. -1.
         22    1    3    3    0    0  0.14036071643E+02  0.48664314396E+02  0.47228546037E+02  0.69251443043E+02  0.00000000000E+00 0. -1.
         22    1    3    3    0    0 -0.85349909880E+02  0.76687095834E+02 -0.40603726469E+02  0.12171351768E+03  0.00000000000E+00 0. -1.
</event>
<event>
 7    1  0.5537228E-006  0.4499527E+02  0.7818608E-02  0.1553493E+00
          2   -1    0    0  502    0  0.00000000000E+00  0.00000000000E+00  0.31998627585E+03  0.31998627585E+03  0.00000000000E+00 0. -1.
          1   -1    0    0  501    0 -0.00000000000E+00 -0.00000000000E+00 -0.67172547259E+03  0.67172547259E+03  0.00000000000E+00 0. -1.
         25    2    1    2    0    0  0.36231039457E+02  0.98413418680E+01 -0.27381471945E+03  0.30332319902E+03  0.12498368792E+03 0.  0.
          2    1    1    2  501    0  0.59662167192E+01 -0.25700604116E+02 -0.38103342909E+03  0.38194579574E+03  0.00000000000E+00 0. -1.
          1    1    1    2  502    0 -0.42197256176E+02  0.15859262248E+02  0.30310895180E+03  0.30644275369E+03  0.00000000000E+00 0. -1.
         22    1    3    3    0    0  0.41292075834E+01  0.40957628837E+02 -0.24862079535E+03  0.25200570945E+03  0.00000000000E+00 0.  1.
         22    1    3    3    0    0  0.32101831873E+02 -0.31116286969E+02 -0.25193924100E+02  0.51317489571E+02  0.00000000000E+00 0.  1.
</event>
<event>
 7    1  0.5537228E-006  0.3146541E+02  0.7818608E-02  0.1608128E+00
          2   -1    0    0  502    0  0.00000000000E+00  0.00000000000E+00  0.47881661054E+03  0.47881661054E+03  0.00000000000E+00 0. -1.
          1   -1    0    0  501    0 -0.00000000000E+00 -0.00000000000E+00 -0.37401684491E+03  0.37401684491E+03  0.00000000000E+00 0. -1.
         25    2    1    2    0    0 -0.42176039084E+02 -0.81109315308E+01 -0.85021108634E+02  0.15715541239E+03  0.12499851699E+03 0.  0.
          2    1    1    2  501    0  0.27775407827E+02 -0.14648732966E+02 -0.25154186494E+03  0.25349431646E+03  0.00000000000E+00 0. -1.
          1    1    1    2  502    0  0.14400631257E+02  0.22759664497E+02  0.44136273920E+03  0.44218372659E+03  0.00000000000E+00 0. -1.
         22    1    3    3    0    0  0.12548760543E+01  0.55298234334E+02 -0.35158210565E+02  0.65540592036E+02  0.00000000000E+00 0. -1.
         22    1    3    3    0    0 -0.43430915138E+02 -0.63409165865E+02 -0.49862898069E+02  0.91614820358E+02  0.00000000000E+00 0. -1.
</event>
<event>
 7    1  0.5537228E-006  0.7099771E+02  0.7818608E-02  0.1494616E+00
          2   -1    0    0  502    0  0.00000000000E+00  0.00000000000E+00  0.44995381295E+03  0.44995381295E+03  0.00000000000E+00 0. -1.
          1   -1    0    0  501    0 -0.00000000000E+00 -0.00000000000E+00 -0.11054655962E+03  0.11054655962E+03  0.00000000000E+00 0. -1.
         25    2    1    2    0    0  0.75669249054E+02  0.42804223532E+00  0.83448580461E+02  0.16826800555E+03  0.12499775053E+03 0.  0.
          2    1    1    2  501    0 -0.85170443264E+01 -0.23225773436E+02 -0.61846726423E+02  0.66610766135E+02  0.00000000000E+00 0. -1.
          1    1    1    2  502    0 -0.67152204727E+02  0.22797731201E+02  0.31780539929E+03  0.32562160089E+03  0.00000000000E+00 0. -1.
         22    1    3    3    0    0 -0.72149351598E+01  0.24796232967E+02 -0.20595851454E+02  0.33031765860E+02  0.00000000000E+00 0.  1.
         22    1    3    3    0    0  0.82884184213E+02 -0.24368190731E+02  0.10404443192E+03  0.13523623969E+03  0.00000000000E+00 0.  1.
</event>
<event>
 7    1  0.5537228E-006  0.3116158E+02  0.7818608E-02  0.1631048E+00
          2   -1    0    0  502    0  0.00000000000E+00  0.00000000000E+00  0.78945637564E+03  0.78945637564E+03  0.00000000000E+00 0. -1.
          1   -1    0    0  501    0 -0.00000000000E+00 -0.00000000000E+00 -0.27588770038E+03  0.27588770038E+03  0.00000000000E+00 0. -1.
         25    2    1    2    0    0  0.17525226319E+02  0.27975017074E+02  0.20749304881E+03  0.24447335565E+03  0.12499648467E+03 0.  0.
          2    1    1    2  501    0  0.61040037801E+01 -0.30588299078E+02 -0.25620050770E+03  0.25809223749E+03  0.00000000000E+00 0. -1.
          1    1    1    2  502    0 -0.23629230099E+02  0.26132820034E+01  0.56227613416E+03  0.56277848289E+03  0.00000000000E+00 0. -1.
         22    1    3    3    0    0 -0.23078049273E+02 -0.33473978451E+02  0.13554469057E+03  0.14151136610E+03  0.00000000000E+00 0.  1.
         22    1    3    3    0    0  0.40603275592E+02  0.61448995526E+02  0.71948358235E+02  0.10296198955E+03  0.00000000000E+00 0.  1.
</event>
<event>
 7    1  0.5537228E-006  0.3497362E+02  0.7818608E-02  0.1575160E+00
          2   -1    0    0  502    0  0.00000000000E+00  0.00000000000E+00  0.94177905618E+02  0.94177905618E+02  0.00000000000E+00 0. -1.
          1   -1    0    0  501    0 -0.00000000000E+00 -0.00000000000E+00 -0.34187966595E+03  0.34187966595E+03  0.00000000000E+00 0. -1.
         25    2    1    2    0    0 -0.20741948949E+01 -0.45612922337E+02 -0.11706210499E+03  0.17723735887E+03  0.12499881594E+03 0.  0.
          2    1    1    2  501    0  0.23518268172E+02  0.17992618233E+02 -0.18871836712E+03  0.19102739420E+03  0.00000000000E+00 0. -1.
          1    1    1    2  502    0 -0.21444073277E+02  0.27620304104E+02  0.58078711777E+02  0.67792818493E+02  0.00000000000E+00 0. -1.
         22    1    3    3    0    0 -0.37644776586E+02  0.12500482558E+02  0.23698415167E+01  0.39736726302E+02  0.00000000000E+00 0. -1.
         22    1    3    3    0    0  0.35570581691E+02 -0.58113404895E+02 -0.11943194651E+03  0.13750063257E+03  0.00000000000E+00 0. -1.
</event>
<event>
 7    1  0.5537228E-006  0.9775698E+02  0.7818608E-02  0.1371639E+00
          2   -1    0    0  502    0  0.00000000000E+00  0.00000000000E+00  0.44963074223E+03  0.44963074223E+03  0.00000000000E+00 0. -1.
          1   -1    0    0  501    0 -0.00000000000E+00 -0.00000000000E+00 -0.16159947585E+03  0.16159947585E+03  0.00000000000E+00 0. -1.
         25    2    1    2    0    0 -0.33231652342E+02 -0.52331613244E+02  0.72716233850E+02  0.15735235495E+03  0.12501668881E+03 0.  0.
          2    1    1    2  501    0 -0.57753752071E+01 -0.45160446647E+02 -0.10625467482E+03  0.11559791011E+03  0.00000000000E+00 0. -1.
          1    1    1    2  502    0  0.39007027549E+02  0.97492059891E+02  0.32156970734E+03  0.33827995302E+03  0.00000000000E+00 0. -1.
         22    1    3    3    0    0 -0.82426410677E+01 -0.90782981958E+02  0.33846079940E+02  0.97237071491E+02  0.00000000000E+00 0.  1.
         22    1    3    3    0    0 -0.24989011274E+02  0.38451368714E+02  0.38870153910E+02  0.60115283459E+02  0.00000000000E+00 0.  1.
</event>
<event>
 7    1  0.5537228E-006  0.1104987E+03  0.7818608E-02  0.1335336E+00
          2   -1    0    0  502    0  0.00000000000E+00  0.00000000000E+00  0.50190953234E+03  0.50190953234E+03  0.00000000000E+00 0. -1.
          1   -1    0    0  501    0 -0.00000000000E+00 -0.00000000000E+00 -0.28902468112E+03  0.28902468112E+03  0.00000000000E+00 0. -1.
         25    2    1    2    0    0  0.12848101180E+03 -0.32341569134E+02 -0.49818756589E+02  0.18883888825E+03  0.12499947889E+03 0.  0.
          2    1    1    2  501    0 -0.10573982890E+03 -0.17532830713E+02 -0.15077992627E+03  0.18499431811E+03  0.00000000000E+00 0. -1.
          1    1    1    2  502    0 -0.22741182902E+02  0.49874399847E+02  0.41348353408E+03  0.41710100709E+03  0.00000000000E+00 0. -1.
         22    1    3    3    0    0  0.11759159183E+03 -0.12813547854E+02 -0.86041850099E+02  0.14627087696E+03  0.00000000000E+00 0. -1.
         22    1    3    3    0    0  0.10889419971E+02 -0.19528021280E+02  0.36223093509E+02  0.42568011297E+02  0.00000000000E+00 0. -1.
</event>
<event>
 7    1  0.5537228E-006  0.7505322E+02  0.7818608E-02  0.1412726E+00
          2   -1    0    0  502    0  0.00000000000E+00  0.00000000000E+00  0.12113576876E+04  0.12113576876E+04  0.00000000000E+00 0. -1.
          1   -1    0    0  501    0 -0.00000000000E+00 -0.00000000000E+00 -0.44569677622E+02  0.44569677622E+02  0.00000000000E+00 0. -1.
         25    2    1    2    0    0  0.78689454762E+02 -0.31407804492E+02  0.39867322060E+03  0.42631688259E+03  0.12500906802E+03 0.  0.
          2    1    1    2  501    0 -0.43945021439E+01  0.42441748867E+02 -0.13223201879E+02  0.44670647677E+02  0.00000000000E+00 0. -1.
          1    1    1    2  502    0 -0.74294952618E+02 -0.11033944374E+02  0.78133799129E+03  0.78493983499E+03  0.00000000000E+00 0. -1.
         22    1    3    3    0    0  0.17938684377E+02  0.34535432657E+02  0.37009406180E+02  0.53704642740E+02  0.00000000000E+00 0. -1.
         22    1    3    3    0    0  0.60750770384E+02 -0.65943237149E+02  0.36166381442E+03  0.37261223985E+03  0.00000000000E+00 0. -1.
</event>
<event>
 7    1  0.5537228E-006  0.1529803E+03  0.7818608E-02  0.1262011E+00
          2   -1    0    0  502    0  0.00000000000E+00  0.00000000000E+00  0.96988030933E+03  0.96988030933E+03  0.00000000000E+00 0. -1.
          1   -1    0    0  501    0 -0.00000000000E+00 -0.00000000000E+00 -0.15460287147E+03  0.15460287147E+03  0.00000000000E+00 0. -1.
         25    2    1    2    0    0 -0.22260540815E+02 -0.22079125020E+03  0.20725488709E+03  0.32836624132E+03  0.12500196950E+03 0.  0.
          2    1    1    2  501    0  0.14253074221E+02  0.76671594134E+02 -0.68847731086E+02  0.10402736922E+03  0.00000000000E+00 0. -1.
          1    1    1    2  502    0  0.80074665943E+01  0.14411965606E+03  0.67687028186E+03  0.69208957025E+03  0.00000000000E+00 0. -1.
         22    1    3    3    0    0 -0.10152166801E+02 -0.85919080128E+02  0.16534886259E+03  0.18661565096E+03  0.00000000000E+00 0.  1.
         22    1    3    3    0    0 -0.12108374014E+02 -0.13487217007E+03  0.41906024492E+02  0.14175059037E+03  0.00000000000E+00 0.  1.
</event>
<event>
 7    1  0.5537228E-006  0.1473767E+03  0.7818608E-02  0.1355311E+00
          2   -1    0    0  502    0  0.00000000000E+00  0.00000000000E+00  0.35935829691E+03  0.35935829691E+03  0.00000000000E+00 0. -1.
          1   -1    0    0  501    0 -0.00000000000E+00 -0.00000000000E+00 -0.18722170266E+04  0.18722170266E+04  0.00000000000E+00 0. -1.
         25    2    1    2    0    0  0.10773588691E+03 -0.39832634652E+02 -0.94037508528E+02  0.19406755503E+03  0.12500201116E+03 0.  0.
          2    1    1    2  501    0 -0.14012119012E+03  0.52058405274E+02 -0.17239516926E+04  0.17304200253E+04  0.00000000000E+00 0. -1.
          1    1    1    2  502    0  0.32385303208E+02 -0.12225770622E+02  0.30513047151E+03  0.30708774312E+03  0.00000000000E+00 0. -1.
         22    1    3    3    0    0 -0.27580882299E+02 -0.94922014465E+01 -0.28142255053E+02  0.40531388777E+02  0.00000000000E+00 0.  1.
         22    1    3    3    0    0  0.13531676921E+03 -0.30340433205E+02 -0.65895253475E+02  0.15353616625E+03  0.00000000000E+00 0.  1.
</event>
<event>
 7    1  0.5537228E-006  0.1909852E+03  0.7818608E-02  0.1383827E+00
          2   -1    0    0  502    0  0.00000000000E+00  0.00000000000E+00  0.57995583597E+03  0.57995583597E+03  0.00000000000E+00 0. -1.
          1   -1    0    0  501    0 -0.00000000000E+00 -0.00000000000E+00 -0.25871046838E+03  0.25871046838E+03  0.00000000000E+00 0. -1.
         25    2    1    2    0    0 -0.10371092738E+03 -0.14517049512E+03 -0.32538557334E+02  0.22025717020E+03  0.12499613675E+03 0.  0.
          2    1    1    2  501    0 -0.20986619693E+02 -0.21039702082E+01 -0.11213844649E+03  0.11410475923E+03  0.00000000000E+00 0. -1.
          1    1    1    2  502    0  0.12469754707E+03  0.14727446532E+03  0.46592237141E+03  0.50430437492E+03  0.00000000000E+00 0. -1.
         22    1    3    3    0    0 -0.96765679371E+02 -0.72645363882E+02 -0.68462111930E+02  0.13902520048E+03  0.00000000000E+00 0. -1.
         22    1    3    3    0    0 -0.69452480080E+01 -0.72525131235E+02  0.35923554597E+02  0.81231969725E+02  0.00000000000E+00 0. -1.
</event>
<event>
 7    1  0.5537228E-006  0.7721963E+02  0.7818608E-02  0.1447028E+00
          2   -1    0    0  502    0  0.00000000000E+00  0.00000000000E+00  0.91118911468E+02  0.91118911468E+02  0.00000000000E+00 0. -1.
          1   -1    0    0  501    0 -0.00000000000E+00 -0.00000000000E+00 -0.13907183207E+04  0.13907183207E+04  0.00000000000E+00 0. -1.
         25    2    1    2    0    0 -0.46038985282E+02  0.18547118106E+02 -0.61497027341E+03  0.62950546502E+03  0.12500043823E+03 0.  0.
          2    1    1    2  501    0 -0.17570336088E+02  0.26712697544E+02 -0.74989483078E+03  0.75057614014E+03  0.00000000000E+00 0. -1.
          1    1    1    2  502    0  0.63609321371E+02 -0.45259815651E+02  0.65265694990E+02  0.10175562697E+03  0.00000000000E+00 0. -1.
         22    1    3    3    0    0 -0.88544410862E+02  0.22052464516E+01 -0.42809800353E+03  0.43716458735E+03  0.00000000000E+00 0.  1.
         22    1    3    3    0    0  0.42505425579E+02  0.16341871655E+02 -0.18687226988E+03  0.19234087767E+03  0.00000000000E+00 0.  1.
</event>
<event>
 7    1  0.5537228E-006  0.5469762E+02  0.7818608E-02  0.1442843E+00
          2   -1    0    0  502    0  0.00000000000E+00  0.00000000000E+00  0.85578790455E+03  0.85578790455E+03  0.00000000000E+00 0. -1.
          1   -1    0    0  501    0 -0.00000000000E+00 -0.00000000000E+00 -0.41572095925E+02  0.41572095925E+02  0.00000000000E+00 0. -1.
         25    2    1    2    0    0 -0.34409772758E+02 -0.41579435674E+01  0.52887651243E+03  0.54455103792E+03  0.12499658612E+03 0.  0.
          2    1    1    2  501    0  0.37139774276E+02 -0.42324210139E+02 -0.70381379983E+01  0.56747131942E+02  0.00000000000E+00 0. -1.
          1    1    1    2  502    0 -0.27300015184E+01  0.46482153706E+02  0.29237743419E+03  0.29606183062E+03  0.00000000000E+00 0. -1.
         22    1    3    3    0    0 -0.17899073181E+02  0.60362332635E+02  0.24379166750E+03  0.25179031984E+03  0.00000000000E+00 0. -1.
         22    1    3    3    0    0 -0.16510699577E+02 -0.64520276202E+02  0.28508484493E+03  0.29276071808E+03  0.00000000000E+00 0. -1.
</event>
<event>
 7    1  0.5537228E-006  0.5211993E+02  0.7818608E-02  0.1503229E+00
          2   -1    0    0  502    0  0.00000000000E+00  0.00000000000E+00  0.81982534375E+03  0.81982534375E+03  0.00000000000E+00 0. -1.
          1   -1    0    0  501    0 -0.00000000000E+00 -0.00000000000E+00 -0.19539894865E+02  0.19539894865E+02  0.00000000000E+00 0. -1.
         25    2    1    2    0    0 -0.26178203307E+02  0.41539576270E+02  0.40632771013E+03  0.42794720679E+03  0.12500307621E+03 0.  0.
          2    1    1    2  501    0 -0.23886064460E+02 -0.20930926079E+02  0.30780933786E+02  0.44227973350E+02  0.00000000000E+00 0. -1.
          1    1    1    2  502    0  0.50064267767E+02 -0.20608650191E+02  0.36317680497E+03  0.36719005847E+03  0.00000000000E+00 0. -1.
         22    1    3    3    0    0 -0.48734455627E+02  0.74680639610E+02  0.32866601225E+03  0.34054895787E+03  0.00000000000E+00 0. -1.
         22    1    3    3    0    0  0.22556252320E+02 -0.33141063339E+02  0.77661697877E+02  0.87398248925E+02  0.00000000000E+00 0. -1.
</event>
<event>
 7    1  0.5537228E-006  0.7446563E+02  0.7818608E-02  0.1413008E+00
          2   -1    0    0  502    0  0.00000000000E+00  0.00000000000E+00  0.26999938914E+03  0.26999938914E+03  0.00000000000E+00 0. -1.
          1   -1    0    0  501    0 -0.00000000000E+00 -0.00000000000E+00 -0.14391077823E+04  0.14391077823E+04  0.00000000000E+00 0. -1.
         25    2    1    2    0    0  0.57929589669E+02 -0.49625228219E+01 -0.51235825074E+03  0.53057902115E+03  0.12499062601E+03 0.  0.
          2    1    1    2  501    0 -0.53129754171E+00 -0.42907875682E+02 -0.91177117993E+03  0.91278039672E+03  0.00000000000E+00 0. -1.
          1    1    1    2  502    0 -0.57398292128E+02  0.47870398504E+02  0.25502103748E+03  0.26574775361E+03  0.00000000000E+00 0. -1.
         22    1    3    3    0    0  0.51591073867E+02 -0.59222373604E+02 -0.23160814288E+03  0.24456340749E+03  0.00000000000E+00 0.  1.
         22    1    3    3    0    0  0.63385158020E+01  0.54259850782E+02 -0.28075010786E+03  0.28601561366E+03  0.00000000000E+00 0.  1.
</event>
<event>
 7    1  0.5537228E-006  0.7140607E+02  0.7818608E-02  0.1485125E+00
          2   -1    0    0  502    0  0.00000000000E+00  0.00000000000E+00  0.21409523008E+03  0.21409523008E+03  0.00000000000E+00 0. -1.
          1   -1    0    0  501    0 -0.00000000000E+00 -0.00000000000E+00 -0.17101282384E+04  0.17101282384E+04  0.00000000000E+00 0. -1.
         25    2    1    2    0    0 -0.38761280036E+02 -0.30071501637E+02  0.17938600483E+02  0.13545986320E+03  0.12498339533E+03 0.  0.
          2    1    1    2  501    0 -0.20817830805E+02 -0.16036427639E+02 -0.16409273884E+04  0.16411377892E+04  0.00000000000E+00 0. -1.
          1    1    1    2  502    0  0.59579110841E+02  0.46107929277E+02  0.12695577963E+03  0.14762581607E+03  0.00000000000E+00 0. -1.
         22    1    3    3    0    0 -0.76832599064E+02 -0.10330508613E+02 -0.17908745360E+02  0.79565638611E+02  0.00000000000E+00 0. -1.
         22    1    3    3    0    0  0.38071319029E+02 -0.19740993025E+02  0.35847345843E+02  0.55894224587E+02  0.00000000000E+00 0. -1.
</event>
<event>
 7    1  0.5537228E-006  0.1070069E+03  0.7818608E-02  0.1429638E+00
          2   -1    0    0  502    0  0.00000000000E+00  0.00000000000E+00  0.73599394770E+03  0.73599394770E+03  0.00000000000E+00 0. -1.
          1   -1    0    0  501    0 -0.00000000000E+00 -0.00000000000E+00 -0.90177155807E+03  0.90177155807E+03  0.00000000000E+00 0. -1.
         25    2    1    2    0    0  0.82077500490E+02  0.37067759254E+02  0.32148092376E+03  0.35649074018E+03  0.12499971451E+03 0.  0.
          2    1    1    2  501    0 -0.86770127334E+02 -0.62928539182E+02 -0.88057825598E+03  0.88707785506E+03  0.00000000000E+00 0. -1.
          1    1    1    2  502    0  0.46926268441E+01  0.25860779928E+02  0.39331972185E+03  0.39419691054E+03  0.00000000000E+00 0. -1.
         22    1    3    3    0    0  0.95426522070E+02  0.27811362989E+02  0.12671119113E+03  0.16104477323E+03  0.00000000000E+00 0. -1.
         22    1    3    3    0    0 -0.13349021581E+02  0.92563962647E+01  0.19476973263E+03  0.19544596695E+03  0.00000000000E+00 0. -1.
</event>
<event>
 7    1  0.5537228E-006  0.3694134E+02  0.7818608E-02  0.1600453E+00
          2   -1    0    0  502    0  0.00000000000E+00  0.00000000000E+00  0.21791603593E+04  0.21791603593E+04  0.00000000000E+00 0. -1.
          1   -1    0    0  501    0 -0.00000000000E+00 -0.00000000000E+00 -0.52796239380E+02  0.52796239380E+02  0.00000000000E+00 0. -1.
         25    2    1    2    0    0 -0.56937190327E+02 -0.16960215620E+02  0.44454901351E+03  0.46559518136E+03  0.12500221971E+03 0.  0.
          2    1    1    2  501    0  0.20713725387E+02  0.12158488067E+02 -0.38651768007E+02  0.45506553611E+02  0.00000000000E+00 0. -1.
          1    1    1    2  502    0  0.36223464940E+02  0.48017275530E+01  0.17204668744E+04  0.17208548637E+04  0.00000000000E+00 0. -1.
         22    1    3    3    0    0 -0.43930355523E+02 -0.66420429731E+02  0.34008816158E+03  0.34928714158E+03  0.00000000000E+00 0.  1.
         22    1    3    3    0    0 -0.13006834803E+02  0.49460214111E+02  0.10446085193E+03  0.11630803978E+03  0.00000000000E+00 0.  1.
</event>
<event>
 7    1  0.5537228E-006  0.4036310E+02  0.7818608E-02  0.1573641E+00
          2   -1    0    0  502    0  0.00000000000E+00  0.00000000000E+00  0.17317771151E+03  0.17317771151E+03  0.00000000000E+00 0. -1.
          1   -1    0    0  501    0 -0.00000000000E+00 -0.00000000000E+00 -0.14746176145E+04  0.14746176145E+04  0.00000000000E+00 0. -1.
         25    2    1    2    0    0 -0.16954805152E+02  0.49730444129E+02 -0.12335297926E+03  0.18330844230E+03  0.12500178012E+03 0.  0.
          2    1    1    2  501    0 -0.12739660227E+02 -0.22551601364E+02 -0.13183281806E+04  0.13185825971E+04  0.00000000000E+00 0. -1.
          1    1    1    2  502    0  0.29694465379E+02 -0.27178842765E+02  0.14024125678E+03  0.14590428668E+03  0.00000000000E+00 0. -1.
         22    1    3    3    0    0 -0.10541222163E+02  0.90987658881E+02 -0.99422738465E+02  0.13518414240E+03  0.00000000000E+00 0.  1.
         22    1    3    3    0    0 -0.64135829891E+01 -0.41257214752E+02 -0.23930240794E+02  0.48124299894E+02  0.00000000000E+00 0.  1.
</event>
<event>
 7    1  0.5537228E-006  0.7270545E+02  0.7818608E-02  0.1384869E+00
          2   -1    0    0  502    0  0.00000000000E+00  0.00000000000E+00  0.24268439643E+04  0.24268439643E+04  0.00000000000E+00 0. -1.
          1   -1    0    0  501    0 -0.00000000000E+00 -0.00000000000E+00 -0.60484037193E+03  0.60484037193E+03  0.00000000000E+00 0. -1.
         25    2    1    2    0    0 -0.66478900508E+01  0.34525514379E+02  0.16875202167E+03  0.21292872111E+03  0.12500075948E+03 0.  0.
          2    1    1    2  501    0  0.47866516641E+02  0.26964483561E+02 -0.58084276167E+03  0.58343517256E+03  0.00000000000E+00 0. -1.
          1    1    1    2  502    0 -0.41218626590E+02 -0.61489997940E+02  0.22340943324E+04  0.22353204426E+04  0.00000000000E+00 0. -1.
         22    1    3    3    0    0  0.10651827893E+02  0.15824498344E+02  0.18282975103E+03  0.18382218051E+03  0.00000000000E+00 0. -1.
         22    1    3    3    0    0 -0.17299717943E+02  0.18701016036E+02 -0.14077729362E+02  0.29106540600E+02  0.00000000000E+00 0. -1.
</event>
<event>
 7    1  0.5537228E-006  0.1102499E+03  0.7818608E-02  0.1292918E+00
          2   -1    0    0  502    0  0.00000000000E+00  0.00000000000E+00  0.36508517742E+03  0.36508517742E+03  0.00000000000E+00 0. -1.
          1   -1    0    0  501    0 -0.00000000000E+00 -0.00000000000E+00 -0.24665617832E+03  0.24665617832E+03  0.00000000000E+00 0. -1.
         25    2    1    2    0    0 -0.51277689170E+01  0.17610652639E+03  0.20992084839E+02  0.21703767756E+03  0.12499953282E+03 0.  0.
          2    1    1    2  501    0 -0.23549855422E+02 -0.77019192651E+02 -0.12546476363E+03  0.14909043779E+03  0.00000000000E+00 0. -1.
          1    1    1    2  502    0  0.28677624339E+02 -0.99087333739E+02  0.22290167790E+03  0.24561324039E+03  0.00000000000E+00 0. -1.
         22    1    3    3    0    0 -0.20988626548E+02  0.36371939366E+02 -0.45122503839E+02  0.61639928377E+02  0.00000000000E+00 0. -1.
         22    1    3    3    0    0  0.15860857631E+02  0.13973458702E+03  0.66114588678E+02  0.15539774919E+03  0.00000000000E+00 0. -1.
</event>
<event>
 7    1  0.5537228E-006  0.1551122E+03  0.7818608E-02  0.1382690E+00
          2   -1    0    0  502    0  0.00000000000E+00  0.00000000000E+00  0.12221170578E+04  0.12221170578E+04  0.00000000000E+00 0. -1.
          1   -1    0    0  501    0 -0.00000000000E+00 -0.00000000000E+00 -0.14309361426E+04  0.14309361426E+04  0.00000000000E+00 0. -1.
         25    2    1    2    0    0 -0.30683122114E+02  0.13837188585E+03 -0.23717477036E+03  0.30325662765E+03  0.12499791097E+03 0.  0.
          2    1    1    2  501    0 -0.25377150995E+02  0.65568607927E+01 -0.11554943313E+04  0.11557915651E+04  0.00000000000E+00 0. -1.
          1    1    1    2  502    0  0.56060273109E+02 -0.14492874664E+03  0.11838500169E+04  0.11940050076E+04  0.00000000000E+00 0. -1.
         22    1    3    3    0    0 -0.11131383792E+02  0.95601097023E+02 -0.46543229067E+02  0.10691000715E+03  0.00000000000E+00 0.  1.
         22    1    3    3    0    0 -0.19551738322E+02  0.42770788825E+02 -0.19063154129E+03  0.19634662050E+03  0.00000000000E+00 0.  1.
</event>
<event>
 7    1  0.5537228E-006  0.9076246E+02  0.7818608E-02  0.1472251E+00
          2   -1    0    0  502    0  0.00000000000E+00  0.00000000000E+00  0.80684882672E+03  0.80684882672E+03  0.00000000000E+00 0. -1.
          1   -1    0    0  501    0 -0.00000000000E+00 -0.00000000000E+00 -0.84139035215E+03  0.84139035215E+03  0.00000000000E+00 0. -1.
         25    2    1    2    0    0 -0.78360501828E+02  0.17356162983E+02 -0.52637402601E+03  0.54693181541E+03  0.12499276302E+03 0.  0.
          2    1    1    2  501    0  0.99067281266E+02 -0.81871885255E+01 -0.29646404391E+03  0.31268560185E+03  0.00000000000E+00 0. -1.
          1    1    1    2  502    0 -0.20706779438E+02 -0.91689744572E+01  0.78829654450E+03  0.78862176161E+03  0.00000000000E+00 0. -1.
         22    1    3    3    0    0 -0.81098152516E+02 -0.81421417162E+01 -0.15908976702E+03  0.17875334622E+03  0.00000000000E+00 0. -1.
         22    1    3    3    0    0  0.27376506884E+01  0.25498304699E+02 -0.36728425899E+03  0.36817846919E+03  0.00000000000E+00 0. -1.
</event>
<event>
 7    1  0.5537228E-006  0.1006084E+03  0.7818608E-02  0.1296058E+00
          2   -1    0    0  502    0  0.00000000000E+00  0.00000000000E+00  0.20724943307E+04  0.20724943307E+04  0.00000000000E+00 0. -1.
          1   -1    0    0  501    0 -0.00000000000E+00 -0.00000000000E+00 -0.18323010621E+03  0.18323010621E+03  0.00000000000E+00 0. -1.
         25    2    1    2    0    0 -0.13725909290E+01 -0.25242600316E+02  0.22462877001E+03  0.25830836320E+03  0.12500421314E+03 0.  0.
          2    1    1    2  501    0 -0.49284143218E+02 -0.70132618969E+02 -0.15364130552E+03  0.17593510672E+03  0.00000000000E+00 0. -1.
          1    1    1    2  502    0  0.50656734147E+02  0.95375219285E+02  0.18182767600E+04  0.18214809670E+04  0.00000000000E+00 0. -1.
         22    1    3    3    0    0  0.54152963759E+02 -0.33336875860E+01  0.16599334849E+03  0.17463518746E+03  0.00000000000E+00 0. -1.
         22    1    3    3    0    0 -0.55525554688E+02 -0.21908912730E+02  0.58635421525E+02  0.83673175736E+02  0.00000000000E+00 0. -1.
</event>
<event>
 7    1  0.5921531E-006  0.1098390E+03  0.7818608E-02  0.1360852E+00
          2   -1    0    0  502    0  0.00000000000E+00  0.00000000000E+00  0.12606011433E+04  0.12606011433E+04  0.00000000000E+00 0. -1.
          1   -1    0    0  501    0 -0.00000000000E+00 -0.00000000000E+00 -0.11258375588E+04  0.11258375588E+04  0.00000000000E+00 0. -1.
         25    2    1    2    0    0  0.14309803433E+03  0.53132463264E+02 -0.83036560369E+03  0.85348071337E+03  0.12498874436E+03 0.  0.
          2    1    1    2  501    0 -0.37356503038E+02 -0.23862054411E+02 -0.27975655797E+03  0.28324660226E+03  0.00000000000E+00 0. -1.
          1    1    1    2  502    0 -0.10574153129E+03 -0.29270408854E+02  0.12448857462E+04  0.12497113864E+04  0.00000000000E+00 0. -1.
         22    1    3    3    0    0  0.69649818233E+02 -0.21445641846E+02 -0.53857942958E+03  0.54348763988E+03  0.00000000000E+00 0. -1.
         22    1    3    3    0    0  0.73448216093E+02  0.74578105111E+02 -0.29178617412E+03  0.30999307349E+03  0.00000000000E+00 0. -1.
</event>
<event>
 7    1  0.5537228E-006  0.4554432E+02  0.7818608E-02  0.1553990E+00
          2   -1    0    0  502    0  0.00000000000E+00  0.00000000000E+00  0.65698388408E+03  0.65698388408E+03  0.00000000000E+00 0. -1.
          1   -1    0    0  501    0 -0.00000000000E+00 -0.00000000000E+00 -0.16691926785E+04  0.16691926785E+04  0.00000000000E+00 0. -1.
         25    2    1    2    0    0  0.14672417785E+02 -0.13884784256E+02 -0.33928272810E+02  0.13108805479E+03  0.12499953334E+03 0.  0.
          2    1    1    2  501    0  0.22782497534E+02 -0.12493565102E+02 -0.15857155571E+04  0.15859284219E+04  0.00000000000E+00 0. -1.
          1    1    1    2  502    0 -0.37454915320E+02  0.26378349358E+02  0.60743503545E+03  0.60916008593E+03  0.00000000000E+00 0. -1.
         22    1    3    3    0    0  0.46795689926E+02 -0.47040888366E+02 -0.49044614399E+02  0.82510944580E+02  0.00000000000E+00 0. -1.
         22    1    3    3    0    0 -0.32123272141E+02  0.33156104110E+02  0.15116341590E+02  0.48577110205E+02  0.00000000000E+00 0. -1.
</event>
<event>
 7    1  0.5537228E-006  0.8729231E+02  0.7818608E-02  0.1349356E+00
          2   -1    0    0  502    0  0.00000000000E+00  0.00000000000E+00  0.34891756835E+03  0.34891756835E+03  0.00000000000E+00 0. -1.
          1   -1    0    0  501    0 -0.00000000000E+00 -0.00000000000E+00 -0.67353721936E+03  0.67353721936E+03  0.00000000000E+00 0. -1.
         25    2    1    2    0    0 -0.35247517002E+02  0.11408342287E+02  0.66033626247E+02  0.14614191132E+03  0.12499792287E+03 0.  0.
          2    1    1    2  501    0  0.85763529712E+02  0.23629939755E+02 -0.62639823784E+03  0.63268357767E+03  0.00000000000E+00 0. -1.
          1    1    1    2  502    0 -0.50516012711E+02 -0.35038282042E+02  0.23574496059E+03  0.24362929872E+03  0.00000000000E+00 0. -1.
         22    1    3    3    0    0 -0.12746617113E+02  0.24239953462E+02 -0.33513187316E+02  0.43280310948E+02  0.00000000000E+00 0. -1.
         22    1    3    3    0    0 -0.22500899889E+02 -0.12831611176E+02  0.99546813562E+02  0.10286160037E+03  0.00000000000E+00 0. -1.
</event>
<event>
 7    1  0.5537228E-006  0.1139515E+03  0.7818608E-02  0.1357066E+00
          2   -1    0    0  502    0  0.00000000000E+00  0.00000000000E+00  0.13978935117E+03  0.13978935117E+03  0.00000000000E+00 0. -1.
          1   -1    0    0  501    0 -0.00000000000E+00 -0.00000000000E+00 -0.10214310722E+04  0.10214310722E+04  0.00000000000E+00 0. -1.
         25    2    1    2    0    0 -0.18486039981E+02  0.10617000291E+03 -0.18737345233E+03  0.24969538430E+03  0.12500068443E+03 0.  0.
          2    1    1    2  501    0  0.61810727598E+02 -0.97877503299E+02 -0.79404166990E+03  0.80243550846E+03  0.00000000000E+00 0. -1.
          1    1    1    2  502    0 -0.43324687616E+02 -0.82924996135E+01  0.99773401194E+02  0.10908953063E+03  0.00000000000E+00 0. -1.
         22    1    3    3    0    0  0.46167369537E+02  0.32810283659E+02 -0.11450290578E+03  0.12774527841E+03  0.00000000000E+00 0. -1.
         22    1    3    3    0    0 -0.64653409518E+02  0.73359719254E+02 -0.72870546544E+02  0.12195010588E+03  0.00000000000E+00 0. -1.
</event>
<event>
 7    1  0.5537228E-006  0.1508050E+03  0.7818608E-02  0.1364915E+00
          2   -1    0    0  502    0  0.00000000000E+00  0.00000000000E+00  0.36658611447E+03  0.36658611447E+03  0.00000000000E+00 0. -1.
          1   -1    0    0  501    0 -0.00000000000E+00 -0.00000000000E+00 -0.26292742706E+04  0.26292742706E+04  0.00000000000E+00 0. -1.
         25    2    1    2    0    0 -0.61531388521E+02 -0.15825478881E+03 -0.11842661328E+03  0.24182537691E+03  0.12499584086E+03 0.  0.
          2    1    1    2  501    0  0.32587397315E+02  0.14658791996E+03 -0.24460410751E+04  0.24506462204E+04  0.00000000000E+00 0. -1.
          1    1    1    2  502    0  0.28943991206E+02  0.11666868845E+02  0.30177953222E+03  0.30338878773E+03  0.00000000000E+00 0. -1.
         22    1    3    3    0    0 -0.76573381161E+01 -0.15651230175E+03 -0.93095919599E+02  0.18226789534E+03  0.00000000000E+00 0.  1.
         22    1    3    3    0    0 -0.53874050405E+02 -0.17424870544E+01 -0.25330693677E+02  0.59557481565E+02  0.00000000000E+00 0.  1.
</event>
<event>
 7    1  0.5537228E-006  0.2183947E+03  0.7818608E-02  0.1269384E+00
          2   -1    0    0  502    0  0.00000000000E+00  0.00000000000E+00  0.40731657363E+03  0.40731657363E+03  0.00000000000E+00 0. -1.
          1   -1    0    0  501    0 -0.00000000000E+00 -0.00000000000E+00 -0.39173033640E+03  0.39173033640E+03  0.00000000000E+00 0. -1.
         25    2    1    2    0    0  0.21294256447E+03  0.93665039574E+02  0.10502274608E+02  0.26429789495E+03  0.12500161639E+03 0.  0.
          2    1    1    2  501    0 -0.17403209529E+03 -0.12638985755E+03 -0.21782240688E+03  0.30611789759E+03  0.00000000000E+00 0. -1.
          1    1    1    2  502    0 -0.38910469176E+02  0.32724817980E+02  0.22290636951E+03  0.22863111750E+03  0.00000000000E+00 0. -1.
         22    1    3    3    0    0  0.10979031540E+03  0.64131383166E+02  0.66260766819E+02  0.14337795117E+03  0.00000000000E+00 0. -1.
         22    1    3    3    0    0  0.10315224907E+03  0.29533656408E+02 -0.55758492211E+02  0.12091994378E+03  0.00000000000E+00 0. -1.
</event>
<event>
 7    1  0.5537228E-006  0.5815689E+02  0.7818608E-02  0.1436315E+00
          2   -1    0    0  502    0  0.00000000000E+00  0.00000000000E+00  0.10257398811E+03  0.10257398811E+03  0.00000000000E+00 0. -1.
          1   -1    0    0  501    0 -0.00000000000E+00 -0.00000000000E+00 -0.94590668661E+03  0.94590668661E+03  0.00000000000E+00 0. -1.
         25    2    1    2    0    0 -0.50039081784E+01  0.16769846604E+02 -0.44356851835E+02  0.13378495916E+03  0.12499847256E+03 0.  0.
          2    1    1    2  501    0  0.46491571936E+02 -0.36599605942E+02 -0.84650100076E+03  0.84856640382E+03  0.00000000000E+00 0. -1.
          1    1    1    2  502    0 -0.41487663758E+02  0.19829759337E+02  0.47525154089E+02  0.66129311736E+02  0.00000000000E+00 0. -1.
         22    1    3    3    0    0 -0.52510713370E+02  0.43893988596E+01 -0.62226799391E+02  0.81540274732E+02  0.00000000000E+00 0. -1.
         22    1    3    3    0    0  0.47506805191E+02  0.12380447745E+02  0.17869947555E+02  0.52244684433E+02  0.00000000000E+00 0. -1.
</event>
<event>
 7    1  0.5537228E-006  0.8683693E+02  0.7818608E-02  0.1409848E+00
          2   -1    0    0  502    0  0.00000000000E+00  0.00000000000E+00  0.74890727507E+03  0.74890727507E+03  0.00000000000E+00 0. -1.
          1   -1    0    0  501    0 -0.00000000000E+00 -0.00000000000E+00 -0.13037103914E+03  0.13037103914E+03  0.00000000000E+00 0. -1.
         25    2    1    2    0    0 -0.64322176320E+02  0.11935121228E+02  0.91727467905E+02  0.16828333272E+03  0.12500224884E+03 0.  0.
          2    1    1    2  501    0  0.78185249866E+02 -0.47009349531E+02 -0.68755867572E+02  0.11423739128E+03  0.00000000000E+00 0. -1.
          1    1    1    2  502    0 -0.13863073545E+02  0.35074228303E+02  0.59556463560E+03  0.59675759022E+03  0.00000000000E+00 0. -1.
         22    1    3    3    0    0 -0.67618995056E+02  0.49173982771E+02  0.17860799455E+02  0.85495129868E+02  0.00000000000E+00 0. -1.
         22    1    3    3    0    0  0.32968187358E+01 -0.37238861543E+02  0.73866668450E+02  0.82788202847E+02  0.00000000000E+00 0. -1.
</event>
<event>
 7    1  0.5537228E-006  0.7170234E+02  0.7818608E-02  0.1430281E+00
          2   -1    0    0  502    0  0.00000000000E+00  0.00000000000E+00  0.37864263798E+02  0.37864263798E+02  0.00000000000E+00 0. -1.
          1   -1    0    0  501    0 -0.00000000000E+00 -0.00000000000E+00 -0.13072687865E+04  0.13072687865E+04  0.00000000000E+00 0. -1.
         25    2    1    2    0    0 -0.83339349704E+02 -0.40634403171E+02 -0.37420700083E+03  0.40528063178E+03  0.12499963638E+03 0.  0.
          2    1    1    2  501    0  0.13891174443E+02  0.36478204031E+02 -0.86179222567E+03  0.86267575851E+03  0.00000000000E+00 0. -1.
          1    1    1    2  502    0  0.69448175260E+02  0.41561991405E+01 -0.33405296233E+02  0.77176660039E+02  0.00000000000E+00 0. -1.
         22    1    3    3    0    0 -0.10576348018E+03 -0.22098645334E+02 -0.35330509169E+03  0.36945737464E+03  0.00000000000E+00 0.  1.
         22    1    3    3    0    0  0.22424130477E+02 -0.18535757837E+02 -0.20901909144E+02  0.35823257140E+02  0.00000000000E+00 0.  1.
</event>
<event>
 7    1  0.5537228E-006  0.2002704E+03  0.7818608E-02  0.1194482E+00
          2   -1    0    0  502    0  0.00000000000E+00  0.00000000000E+00  0.22054099484E+03  0.22054099484E+03  0.00000000000E+00 0. -1.
          1   -1    0    0  501    0 -0.00000000000E+00 -0.00000000000E+00 -0.16277196826E+04  0.16277196826E+04  0.00000000000E+00 0. -1.
         25    2    1    2    0    0 -0.15708324859E+02 -0.13946811846E+03 -0.34276514297E+03  0.39091089125E+03  0.12500109651E+03 0.  0.
          2    1    1    2  501    0 -0.11679974495E+03 -0.27239393086E+02 -0.11992922731E+04  0.12052742930E+04  0.00000000000E+00 0. -1.
          1    1    1    2  502    0  0.13250806981E+03  0.16670751154E+03  0.13487872826E+03  0.25207549327E+03  0.00000000000E+00 0. -1.
         22    1    3    3    0    0 -0.52680684960E+02 -0.10574191801E+03 -0.30826487612E+03  0.33012700835E+03  0.00000000000E+00 0.  1.
         22    1    3    3    0    0  0.36972360101E+02 -0.33726200442E+02 -0.34500266845E+02  0.60783882897E+02  0.00000000000E+00 0.  1.
</event>
<event>
 7    1  0.5537228E-006  0.9241183E+02  0.7818608E-02  0.1330577E+00
          2   -1    0    0  502    0  0.00000000000E+00  0.00000000000E+00  0.20491808751E+04  0.20491808751E+04  0.00000000000E+00 0. -1.
          1   -1    0    0  501    0 -0.00000000000E+00 -0.00000000000E+00 -0.69642578385E+03  0.69642578385E+03  0.00000000000E+00 0. -1.
         25    2    1    2    0    0 -0.95434961076E+02  0.36562638695E+02  0.11763403326E+03  0.19978496329E+03  0.12502642694E+03 0.  0.
          2    1    1    2  501    0  0.80622618341E+01 -0.67854677855E+02 -0.65242590649E+03  0.65599452805E+03  0.00000000000E+00 0. -1.
          1    1    1    2  502    0  0.87372699242E+02  0.31292039160E+02  0.18875469645E+04  0.18898271676E+04  0.00000000000E+00 0. -1.
         22    1    3    3    0    0 -0.99742189289E+02  0.23336146240E+02  0.24113561400E+02  0.10523565883E+03  0.00000000000E+00 0. -1.
         22    1    3    3    0    0  0.43072282135E+01  0.13226492455E+02  0.93520471863E+02  0.94549304466E+02  0.00000000000E+00 0. -1.
</event>
<event>
 7    1  0.5537228E-006  0.4134283E+02  0.7818608E-02  0.1569251E+00
          2   -1    0    0  502    0  0.00000000000E+00  0.00000000000E+00  0.28761454824E+03  0.28761454824E+03  0.00000000000E+00 0. -1.
          1   -1    0    0  501    0 -0.00000000000E+00 -0.00000000000E+00 -0.75437410591E+03  0.75437410591E+03  0.00000000000E+00 0. -1.
         25    2    1    2    0    0  0.21048081772E+02 -0.40708099938E+02 -0.39985674331E+02  0.13901242598E+03  0.12500171710E+03 0.  0.
          2    1    1    2  501    0 -0.25986849713E+02 -0.40514945953E+00 -0.66281806947E+03  0.66332742572E+03  0.00000000000E+00 0. -1.
          1    1    1    2  502    0  0.49387679411E+01  0.41113249397E+02  0.23604418613E+03  0.23964880244E+03  0.00000000000E+00 0. -1.
         22    1    3    3    0    0 -0.47651406395E+02 -0.19755432523E+02  0.86039801150E+01  0.52296865293E+02  0.00000000000E+00 0.  1.
         22    1    3    3    0    0  0.68699488167E+02 -0.20952667415E+02 -0.48589654446E+02  0.86715560688E+02  0.00000000000E+00 0.  1.
</event>
<event>
 7    1  0.5537228E-006  0.1282212E+03  0.7818608E-02  0.1313383E+00
          2   -1    0    0  502    0  0.00000000000E+00  0.00000000000E+00  0.10750263795E+04  0.10750263795E+04  0.00000000000E+00 0. -1.
          1   -1    0    0  501    0 -0.00000000000E+00 -0.00000000000E+00 -0.54020083660E+02  0.54020083660E+02  0.00000000000E+00 0. -1.
         25    2    1    2    0    0 -0.79902627693E+02  0.63880713020E+02  0.56846840692E+03  0.59097126781E+03  0.12500213722E+03 0.  0.
          2    1    1    2  501    0 -0.43391010215E+02  0.37574076272E+02 -0.83809372546E+00  0.57404645947E+02  0.00000000000E+00 0. -1.
          1    1    1    2  502    0  0.12329363791E+03 -0.10145478929E+03  0.45337598267E+03  0.48067054942E+03  0.00000000000E+00 0. -1.
         22    1    3    3    0    0 -0.51694787674E+02 -0.16620956126E+02  0.91212879093E+02  0.10615270401E+03  0.00000000000E+00 0.  1.
         22    1    3    3    0    0 -0.28207840020E+02  0.80501669146E+02  0.47725552782E+03  0.48481856381E+03  0.00000000000E+00 0.  1.
</event>
<event>
 7    1  0.5537228E-006  0.4849894E+02  0.7818608E-02  0.1542596E+00
          2   -1    0    0  502    0  0.00000000000E+00  0.00000000000E+00  0.20816830016E+04  0.20816830016E+04  0.00000000000E+00 0. -1.
          1   -1    0    0  501    0 -0.00000000000E+00 -0.00000000000E+00 -0.35469251626E+03  0.35469251626E+03  0.00000000000E+00 0. -1.
         25    2    1    2    0    0 -0.30043548142E+02  0.20496687364E+02  0.91104207389E+03  0.92029608333E+03  0.12499796644E+03 0.  0.
          2    1    1    2  501    0  0.48497416807E+02 -0.18176656763E+01 -0.34823471937E+03  0.35160023196E+03  0.00000000000E+00 0. -1.
          1    1    1    2  502    0 -0.18453868665E+02 -0.18679021688E+02  0.11641831308E+04  0.11644792025E+04  0.00000000000E+00 0. -1.
         22    1    3    3    0    0 -0.69439864201E+02 -0.19538687627E+02  0.58785069416E+03  0.59226015709E+03  0.00000000000E+00 0.  1.
         22    1    3    3    0    0  0.39396316059E+02  0.40035374991E+02  0.32319137973E+03  0.32803592623E+03  0.00000000000E+00 0.  1.
</event>
<event>
 7    1  0.5537228E-006  0.6498028E+02  0.7818608E-02  0.1450558E+00
          2   -1    0    0  502    0  0.00000000000E+00  0.00000000000E+00  0.10380842722E+03  0.10380842722E+03  0.00000000000E+00 0. -1.
          1   -1    0    0  501    0 -0.00000000000E+00 -0.00000000000E+00 -0.58200281859E+03  0.58200281859E+03  0.00000000000E+00 0. -1.
         25    2    1    2    0    0  0.15142594184E+02 -0.45841408831E+02 -0.12927204799E+03  0.18619320967E+03  0.12500366400E+03 0.  0.
          2    1    1    2  501    0  0.16413063374E+02  0.65196115072E+02 -0.41686156426E+03  0.42224813300E+03  0.00000000000E+00 0. -1.
          1    1    1    2  502    0 -0.31555657558E+02 -0.19354706241E+02  0.67939220879E+02  0.77369903135E+02  0.00000000000E+00 0. -1.
         22    1    3    3    0    0  0.47270807715E+01 -0.16739265416E+02 -0.14868095895E+03  0.14969494265E+03  0.00000000000E+00 0. -1.
         22    1    3    3    0    0  0.10415513413E+02 -0.29102143415E+02  0.19408910963E+02  0.36498267024E+02  0.00000000000E+00 0. -1.
</event>
<event>
 7    1  0.5537228E-006  0.1100457E+03  0.7818608E-02  0.1271583E+00
          2   -1    0    0  502    0  0.00000000000E+00  0.00000000000E+00  0.57361100328E+03  0.57361100328E+03  0.00000000000E+00 0. -1.
          1   -1    0    0  501    0 -0.00000000000E+00 -0.00000000000E+00 -0.10952831514E+03  0.10952831514E+03  0.00000000000E+00 0. -1.
         25    2    1    2    0    0  0.89172827511E+02 -0.64253418477E+02  0.99052484647E+01  0.16674397755E+03  0.12500058060E+03 0.  0.
          2    1    1    2  501    0 -0.13643260646E+03 -0.22487942149E+02  0.19514694380E+03  0.23916917302E+03  0.00000000000E+00 0. -1.
          1    1    1    2  502    0  0.47259778949E+02  0.86741360626E+02  0.25903049587E+03  0.27722616785E+03  0.00000000000E+00 0. -1.
         22    1    3    3    0    0  0.66124417074E+02  0.12378284468E+02  0.43331508116E+02  0.80020497720E+02  0.00000000000E+00 0.  1.
         22    1    3    3    0    0  0.23048410437E+02 -0.76631702945E+02 -0.33426259652E+02  0.86723479832E+02  0.00000000000E+00 0.  1.
</event>
<event>
 7    1  0.5537228E-006  0.6731906E+02  0.7818608E-02  0.1496550E+00
          2   -1    0    0  502    0  0.00000000000E+00  0.00000000000E+00  0.39520668658E+03  0.39520668658E+03  0.00000000000E+00 0. -1.
          1   -1    0    0  501    0 -0.00000000000E+00 -0.00000000000E+00 -0.85302501198E+03  0.85302501198E+03  0.00000000000E+00 0. -1.
         25    2    1    2    0    0  0.63426855974E+02 -0.43403709702E+01 -0.37220065121E+03  0.39774394796E+03  0.12500047401E+03 0.  0.
          2    1    1    2  501    0 -0.65452919748E+02 -0.21323279481E+02 -0.46508312611E+03  0.47015006236E+03  0.00000000000E+00 0. -1.
          1    1    1    2  502    0  0.20260637737E+01  0.25663650452E+02  0.37946545191E+03  0.38033768823E+03  0.00000000000E+00 0. -1.
         22    1    3    3    0    0  0.26414165621E+02 -0.92520415499E+01 -0.35590811966E+03  0.35700685996E+03  0.00000000000E+00 0.  1.
         22    1    3    3    0    0  0.37012690353E+02  0.49116705798E+01 -0.16292531553E+02  0.40737088009E+02  0.00000000000E+00 0.  1.
</event>
<event>
 7    1  0.5537228E-006  0.1108958E+03  0.7818608E-02  0.1271974E+00
          2   -1    0    0  502    0  0.00000000000E+00  0.00000000000E+00  0.36460544920E+03  0.36460544920E+03  0.00000000000E+00 0. -1.
          1   -1    0    0  501    0 -0.00000000000E+00 -0.00000000000E+00 -0.24098526409E+04  0.24098526409E+04  0.00000000000E+00 0. -1.
         25    2    1    2    0    0 -0.12760907078E+03 -0.37597349402E+02 -0.22265106375E+03  0.28791224630E+03  0.12498931857E+03 0.  0.
          2    1    1    2  501    0  0.30657690570E+02  0.92716605197E+02 -0.21440617121E+04  0.21462844379E+04  0.00000000000E+00 0. -1.
          1    1    1    2  502    0  0.96951380211E+02 -0.55119255795E+02  0.32146558423E+03  0.34026140587E+03  0.00000000000E+00 0. -1.
         22    1    3    3    0    0  0.22158622553E+02  0.96028280490E+01 -0.42906668973E+02  0.49236176764E+02  0.00000000000E+00 0.  1.
         22    1    3    3    0    0 -0.14976769333E+03 -0.47200177451E+02 -0.17974439477E+03  0.23867606954E+03  0.00000000000E+00 0.  1.
</event>
<event>
 7    1  0.5537228E-006  0.1192271E+03  0.7818608E-02  0.1306289E+00
          2   -1    0    0  502    0  0.00000000000E+00  0.00000000000E+00  0.16229490953E+04  0.16229490953E+04  0.00000000000E+00 0. -1.
          1   -1    0    0  501    0 -0.00000000000E+00 -0.00000000000E+00 -0.50677981775E+03  0.50677981775E+03  0.00000000000E+00 0. -1.
         25    2    1    2    0    0  0.10717937399E+00  0.18084303361E+03 -0.16481778751E+03  0.27476029197E+03  0.12499640263E+03 0.  0.
          2    1    1    2  501    0  0.17321606302E+02 -0.63514116317E+02 -0.28093674114E+03  0.28854728129E+03  0.00000000000E+00 0. -1.
          1    1    1    2  502    0 -0.17428785676E+02 -0.11732891729E+03  0.15619238062E+04  0.15664213398E+04  0.00000000000E+00 0. -1.
         22    1    3    3    0    0  0.10775855863E+01  0.19941892286E+03 -0.15964912637E+03  0.25545432378E+03  0.00000000000E+00 0.  1.
         22    1    3    3    0    0 -0.97040621234E+00 -0.18575889254E+02 -0.51686611352E+01  0.19305968189E+02  0.00000000000E+00 0.  1.
</event>
<event>
 7    1  0.5537228E-006  0.7610897E+02  0.7818608E-02  0.1435904E+00
          2   -1    0    0  502    0  0.00000000000E+00  0.00000000000E+00  0.48895506218E+03  0.48895506218E+03  0.00000000000E+00 0. -1.
          1   -1    0    0  501    0 -0.00000000000E+00 -0.00000000000E+00 -0.11648572256E+04  0.11648572256E+04  0.00000000000E+00 0. -1.
         25    2    1    2    0    0 -0.10468546412E+02  0.96571865560E+02  0.25687999380E+03  0.30174019535E+03  0.12499639432E+03 0.  0.
          2    1    1    2  501    0 -0.17017608737E+02 -0.30864996518E+02 -0.11360965640E+04  0.11366431497E+04  0.00000000000E+00 0. -1.
          1    1    1    2  502    0  0.27486155149E+02 -0.65706869043E+02  0.20331440679E+03  0.21542894274E+03  0.00000000000E+00 0. -1.
         22    1    3    3    0    0  0.10920051371E+02 -0.23133447628E+02  0.11843393413E+02  0.28189889830E+02  0.00000000000E+00 0.  1.
         22    1    3    3    0    0 -0.21388597784E+02  0.11970531319E+03  0.24503660038E+03  0.27355030552E+03  0.00000000000E+00 0.  1.
</event>
<event>
 7    1  0.5537228E-006  0.9614264E+02  0.7818608E-02  0.1305345E+00
          2   -1    0    0  502    0  0.00000000000E+00  0.00000000000E+00  0.23596820010E+04  0.23596820010E+04  0.00000000000E+00 0. -1.
          1   -1    0    0  501    0 -0.00000000000E+00 -0.00000000000E+00 -0.24351406614E+02  0.24351406614E+02  0.00000000000E+00 0. -1.
         25    2    1    2    0    0  0.13535940543E+02  0.51822111156E+02  0.33303422347E+03  0.35972996730E+03  0.12500040994E+03 0.  0.
          2    1    1    2  501    0 -0.10684642518E+03 -0.74985904279E+02  0.43754499940E+03  0.45660121651E+03  0.00000000000E+00 0. -1.
          1    1    1    2  502    0  0.93310484632E+02  0.23163793123E+02  0.15647513715E+04  0.15677022238E+04  0.00000000000E+00 0. -1.
         22    1    3    3    0    0 -0.49101000064E+02  0.20689863841E+01  0.75732757342E+02  0.90280891924E+02  0.00000000000E+00 0. -1.
         22    1    3    3    0    0  0.62636940607E+02  0.49753124772E+02  0.25730146612E+03  0.26944907538E+03  0.00000000000E+00 0. -1.
</event>
<event>
 7    1  0.5537228E-006  0.3708994E+02  0.7818608E-02  0.1615166E+00
          2   -1    0    0  502    0  0.00000000000E+00  0.00000000000E+00  0.40679400219E+02  0.40679400219E+02  0.00000000000E+00 0. -1.
          1   -1    0    0  501    0 -0.00000000000E+00 -0.00000000000E+00 -0.93051150260E+03  0.93051150260E+03  0.00000000000E+00 0. -1.
         25    2    1    2    0    0 -0.39071200751E+02 -0.79948210538E+00 -0.12788166068E+03  0.18304677432E+03  0.12500081819E+03 0.  0.
          2    1    1    2  501    0  0.79232827268E+01 -0.20432667769E+02 -0.74742511458E+03  0.74774633013E+03  0.00000000000E+00 0. -1.
          1    1    1    2  502    0  0.31147918024E+02  0.21232149874E+02 -0.14525327120E+02  0.40397798374E+02  0.00000000000E+00 0. -1.
         22    1    3    3    0    0  0.32131599534E+02  0.32483888866E+02 -0.20766218329E+02  0.50188430421E+02  0.00000000000E+00 0.  1.
         22    1    3    3    0    0 -0.71202800285E+02 -0.33283370971E+02 -0.10711544235E+03  0.13285834389E+03  0.00000000000E+00 0.  1.
</event>
<event>
 7    1  0.5537228E-006  0.1939040E+03  0.7818608E-02  0.1311118E+00
          2   -1    0    0  502    0  0.00000000000E+00  0.00000000000E+00  0.47312823043E+03  0.47312823043E+03  0.00000000000E+00 0. -1.
          1   -1    0    0  501    0 -0.00000000000E+00 -0.00000000000E+00 -0.15696766831E+03  0.15696766831E+03  0.00000000000E+00 0. -1.
         25    2    1    2    0    0  0.12197480018E+03 -0.15949230869E+03  0.13079402704E+03  0.27026973293E+03  0.12499201021E+03 0.  0.
          2    1    1    2  501    0 -0.14321217695E+03  0.12709158576E+03  0.22938872673E+02  0.19284239855E+03  0.00000000000E+00 0. -1.
          1    1    1    2  502    0  0.21237376764E+02  0.32400722925E+02  0.16242766241E+03  0.16698376727E+03  0.00000000000E+00 0. -1.
         22    1    3    3    0    0  0.99078243210E+02 -0.80477217610E+02  0.15423372736E+02  0.12857278584E+03  0.00000000000E+00 0.  1.
         22    1    3    3    0    0  0.22896556973E+02 -0.79015091079E+02  0.11537065431E+03  0.14169694709E+03  0.00000000000E+00 0.  1.
</event>
<event>
 7    1  0.5537228E-006  0.1463086E+03  0.7818608E-02  0.1372618E+00
          2   -1    0    0  502    0  0.00000000000E+00  0.00000000000E+00  0.29798516005E+04  0.29798516005E+04  0.00000000000E+00 0. -1.
          1   -1    0    0  501    0 -0.00000000000E+00 -0.00000000000E+00 -0.25461544627E+03  0.25461544627E+03  0.00000000000E+00 0. -1.
         25    2    1    2    0    0 -0.12317521825E+03 -0.12502998811E+03  0.70625187664E+03  0.73839114072E+03  0.12500052453E+03 0.  0.
          2    1    1    2  501    0  0.10065788105E+03  0.10494220945E+03 -0.21627433153E+03  0.26061362746E+03  0.00000000000E+00 0. -1.
          1    1    1    2  502    0  0.22517337203E+02  0.20087778659E+02  0.22352586091E+04  0.22354622786E+04  0.00000000000E+00 0. -1.
         22    1    3    3    0    0 -0.13853493535E+03 -0.86830579948E+02  0.63858507403E+03  0.65918311167E+03  0.00000000000E+00 0. -1.
         22    1    3    3    0    0  0.15359717102E+02 -0.38199408157E+02  0.67666802601E+02  0.79208029058E+02  0.00000000000E+00 0. -1.
</event>
<event>
 7    1  0.5537228E-006  0.8323985E+02  0.7818608E-02  0.1332300E+00
          2   -1    0    0  502    0  0.00000000000E+00  0.00000000000E+00  0.14979581603E+04  0.14979581603E+04  0.00000000000E+00 0. -1.
          1   -1    0    0  501    0 -0.00000000000E+00 -0.00000000000E+00 -0.13477807834E+03  0.13477807834E+03  0.00000000000E+00 0. -1.
         25    2    1    2    0    0 -0.15128531726E+02 -0.68520256695E+02  0.13533853833E+02  0.14398841238E+03  0.12500239858E+03 0.  0.
          2    1    1    2  501    0  0.86256052668E+02  0.45622259779E+02 -0.33814163457E+02  0.10327097782E+03  0.00000000000E+00 0. -1.
          1    1    1    2  502    0 -0.71127520942E+02  0.22897996915E+02  0.13834603915E+04  0.13854768484E+04  0.00000000000E+00 0. -1.
         22    1    3    3    0    0 -0.91590177362E+01 -0.51840634441E+02 -0.53259267469E+02  0.74885836821E+02  0.00000000000E+00 0. -1.
         22    1    3    3    0    0 -0.59695139897E+01 -0.16679622254E+02  0.66793121302E+02  0.69102575560E+02  0.00000000000E+00 0. -1.
</event>
<event>
 7    1  0.5537228E-006  0.5370375E+02  0.7818608E-02  0.1458939E+00
          2   -1    0    0  502    0  0.00000000000E+00  0.00000000000E+00  0.21526112896E+04  0.21526112896E+04  0.00000000000E+00 0. -1.
          1   -1    0    0  501    0 -0.00000000000E+00 -0.00000000000E+00 -0.24384638729E+04  0.24384638729E+04  0.00000000000E+00 0. -1.
         25    2    1    2    0    0 -0.16077951198E+02 -0.17795867555E+02  0.50026962991E+03  0.51620676387E+03  0.12499810815E+03 0.  0.
          2    1    1    2  501    0  0.18108754905E+02 -0.38036420926E+02 -0.24298381199E+04  0.24302032806E+04  0.00000000000E+00 0. -1.
          1    1    1    2  502    0 -0.20308037074E+01  0.55832288480E+02  0.16437159066E+04  0.16446651180E+04  0.00000000000E+00 0. -1.
         22    1    3    3    0    0  0.34558642706E+02 -0.33428158599E+01  0.40135067607E+02  0.53068803033E+02  0.00000000000E+00 0.  1.
         22    1    3    3    0    0 -0.50636593903E+02 -0.14453051695E+02  0.46013456230E+03  0.46313796084E+03  0.00000000000E+00 0.  1.
</event>
<event>
 7    1  0.5537228E-006  0.1409524E+03  0.7818608E-02  0.1355101E+00
          2   -1    0    0  502    0  0.00000000000E+00  0.00000000000E+00  0.42423986554E+02  0.42423986554E+02  0.00000000000E+00 0. -1.
          1   -1    0    0  501    0 -0.00000000000E+00 -0.00000000000E+00 -0.20080661792E+04  0.20080661792E+04  0.00000000000E+00 0. -1.
         25    2    1    2    0    0  0.67175940311E+02 -0.11209574467E+03 -0.31459874852E+03  0.36287114054E+03  0.12500011654E+03 0.  0.
          2    1    1    2  501    0  0.36254765663E+02  0.51542294949E+00 -0.13483718697E+04  0.13488592857E+04  0.00000000000E+00 0. -1.
          1    1    1    2  502    0 -0.10343070597E+03  0.11158032172E+03 -0.30267157441E+03  0.33875973947E+03  0.00000000000E+00 0. -1.
         22    1    3    3    0    0  0.98410245333E+02 -0.47982278481E+02 -0.18683949823E+03  0.21655455094E+03  0.00000000000E+00 0. -1.
         22    1    3    3    0    0 -0.31234305022E+02 -0.64113466185E+02 -0.12775925029E+03  0.14631658959E+03  0.00000000000E+00 0. -1.
</event>
<event>
 7    1  0.5537228E-006  0.7829733E+02  0.7818608E-02  0.1373861E+00
          2   -1    0    0  502    0  0.00000000000E+00  0.00000000000E+00  0.16422188792E+03  0.16422188792E+03  0.00000000000E+00 0. -1.
          1   -1    0    0  501    0 -0.00000000000E+00 -0.00000000000E+00 -0.15312341068E+04  0.15312341068E+04  0.00000000000E+00 0. -1.
         25    2    1    2    0    0  0.31967180659E+02 -0.84645923204E+02 -0.92476507287E+03  0.93755117704E+03  0.12499974640E+03 0.  0.
          2    1    1    2  501    0  0.23048780039E+02  0.75254907795E+02 -0.59245670741E+03  0.59766169157E+03  0.00000000000E+00 0. -1.
          1    1    1    2  502    0 -0.55015960697E+02  0.93910154087E+01  0.15020956145E+03  0.16024312607E+03  0.00000000000E+00 0. -1.
         22    1    3    3    0    0  0.69785433927E+02 -0.92224147873E+02 -0.70700495594E+03  0.71640163872E+03  0.00000000000E+00 0. -1.
         22    1    3    3    0    0 -0.37818253268E+02  0.75782246693E+01 -0.21776011694E+03  0.22114953832E+03  0.00000000000E+00 0. -1.
</event>
<event>
 7    1  0.5537228E-006  0.3934914E+02  0.7818608E-02  0.1604430E+00
          2   -1    0    0  502    0  0.00000000000E+00  0.00000000000E+00  0.94931152281E+03  0.94931152281E+03  0.00000000000E+00 0. -1.
          1   -1    0    0  501    0 -0.00000000000E+00 -0.00000000000E+00 -0.25345494037E+03  0.25345494037E+03  0.00000000000E+00 0. -1.
         25    2    1    2    0    0 -0.58571229412E+00  0.20563017388E+02  0.30275897693E+03  0.32819373480E+03  0.12499979481E+03 0.  0.
          2    1    1    2  501    0 -0.14327936401E+02 -0.36760147540E+02 -0.23892809258E+03  0.24216364639E+03  0.00000000000E+00 0. -1.
          1    1    1    2  502    0  0.14913648695E+02  0.16197130152E+02  0.63202569809E+03  0.63240908200E+03  0.00000000000E+00 0. -1.
         22    1    3    3    0    0  0.51311688012E+02  0.81884554496E+01  0.24119461780E+03  0.24672815767E+03  0.00000000000E+00 0.  1.
         22    1    3    3    0    0 -0.51897400306E+02  0.12374561939E+02  0.61564359128E+02  0.81465577127E+02  0.00000000000E+00 0.  1.
</event>
<event>
 7    1  0.5537228E-006  0.4358971E+02  0.7818608E-02  0.1550954E+00
          2   -1    0    0  502    0  0.00000000000E+00  0.00000000000E+00  0.21562472759E+04  0.21562472759E+04  0.00000000000E+00 0. -1.
          1   -1    0    0  501    0 -0.00000000000E+00 -0.00000000000E+00 -0.51136012684E+02  0.51136012684E+02  0.00000000000E+00 0. -1.
         25    2    1    2    0    0  0.24797408075E+01 -0.44750478679E+02  0.44329983767E+03  0.46276242094E+03  0.12500223077E+03 0.  0.
          2    1    1    2  501    0  0.23981738005E+02  0.36623630916E+02 -0.29688513857E+02  0.52894441620E+02  0.00000000000E+00 0. -1.
          1    1    1    2  502    0 -0.26461478813E+02  0.81268477632E+01  0.16914999394E+04  0.16917264260E+04  0.00000000000E+00 0. -1.
         22    1    3    3    0    0 -0.40438513183E+02 -0.98823732877E+01  0.36232111428E+03  0.36470470864E+03  0.00000000000E+00 0. -1.
         22    1    3    3    0    0  0.42918253991E+02 -0.34868105391E+02  0.80978723389E+02  0.98057712297E+02  0.00000000000E+00 0. -1.
</event>
<event>
 7    1  0.5537228E-006  0.4706075E+02  0.7818608E-02  0.1562069E+00
          2   -1    0    0  502    0  0.00000000000E+00  0.00000000000E+00  0.82983451429E+03  0.82983451429E+03  0.00000000000E+00 0. -1.
          1   -1    0    0  501    0 -0.00000000000E+00 -0.00000000000E+00 -0.42825908595E+02  0.42825908595E+02  0.00000000000E+00 0. -1.
         25    2    1    2    0    0 -0.48942598009E+02  0.57197578254E+01  0.35741754570E+03  0.38184233848E+03  0.12501270316E+03 0.  0.
          2    1    1    2  501    0  0.10218191525E+02  0.21591698871E+02 -0.24525326989E+02  0.34236012649E+02  0.00000000000E+00 0. -1.
          1    1    1    2  502    0  0.38724406484E+02 -0.27311456696E+02  0.45411638699E+03  0.45658207176E+03  0.00000000000E+00 0. -1.
         22    1    3    3    0    0 -0.25102856193E+02 -0.26949501924E+01  0.17826219973E+01  0.25309956278E+02  0.00000000000E+00 0. -1.
         22    1    3    3    0    0 -0.23839741816E+02  0.84147080178E+01  0.35563492370E+03  0.35653238220E+03  0.00000000000E+00 0. -1.
</event>
<event>
 7    1  0.5537228E-006  0.7788614E+02  0.7818608E-02  0.1456907E+00
          2   -1    0    0  502    0  0.00000000000E+00  0.00000000000E+00  0.17086865313E+04  0.17086865313E+04  0.00000000000E+00 0. -1.
          1   -1    0    0  501    0 -0.00000000000E+00 -0.00000000000E+00 -0.28416761850E+04  0.28416761850E+04  0.00000000000E+00 0. -1.
         25    2    1    2    0    0  0.71112092726E+02 -0.56092031312E+02  0.49744699831E+03  0.52084801648E+03  0.12500357770E+03 0.  0.
          2    1    1    2  501    0 -0.42989839435E+02  0.64936807840E+02 -0.28292586560E+04  0.28303302736E+04  0.00000000000E+00 0. -1.
          1    1    1    2  502    0 -0.28122253291E+02 -0.88447765281E+01  0.11988220038E+04  0.11991844262E+04  0.00000000000E+00 0. -1.
         22    1    3    3    0    0  0.10089249220E+03 -0.67832235181E+02  0.37099719718E+03  0.39040930755E+03  0.00000000000E+00 0.  1.
         22    1    3    3    0    0 -0.29780399476E+02  0.11740203869E+02  0.12644980114E+03  0.13043870893E+03  0.00000000000E+00 0.  1.
</event>
<event>
 7    1  0.5537228E-006  0.3839577E+02  0.7818608E-02  0.1562966E+00
          2   -1    0    0  502    0  0.00000000000E+00  0.00000000000E+00  0.91851529317E+03  0.91851529317E+03  0.00000000000E+00 0. -1.
          1   -1    0    0  501    0 -0.00000000000E+00 -0.00000000000E+00 -0.26487381562E+02  0.26487381562E+02  0.00000000000E+00 0. -1.
         25    2    1    2    0    0 -0.15572739994E+02  0.53718050136E+02  0.45361729751E+03  0.47384673759E+03  0.12503575081E+03 0.  0.
          2    1    1    2  501    0 -0.82274051666E+01 -0.36951438535E+02  0.66755063668E+01  0.38440361481E+02  0.00000000000E+00 0. -1.
          1    1    1    2  502    0  0.23800145161E+02 -0.16766611601E+02  0.43173510773E+03  0.43271557566E+03  0.00000000000E+00 0. -1.
         22    1    3    3    0    0 -0.13286484549E+02 -0.37213261716E+02  0.78823384677E+02  0.88173031541E+02  0.00000000000E+00 0.  1.
         22    1    3    3    0    0 -0.22862554452E+01  0.90931311852E+02  0.37479391284E+03  0.38567370605E+03  0.00000000000E+00 0.  1.
</event>
<event>
 7    1  0.5537228E-006  0.1310861E+03  0.7818608E-02  0.1293822E+00
          2   -1    0    0  502    0  0.00000000000E+00  0.00000000000E+00  0.57847555161E+03  0.57847555161E+03  0.00000000000E+00 0. -1.
          1   -1    0    0  501    0 -0.00000000000E+00 -0.00000000000E+00 -0.13830263856E+03  0.13830263856E+03  0.00000000000E+00 0. -1.
         25    2    1    2    0    0 -0.13913718480E+03  0.13069671283E+03  0.31856747278E+03  0.39185715752E+03  0.12500404093E+03 0.  0.
          2    1    1    2  501    0  0.95317195645E+02 -0.79789269885E+02 -0.55033077500E+02  0.13594239586E+03  0.00000000000E+00 0. -1.
          1    1    1    2  502    0  0.43819989159E+02 -0.50907442944E+02  0.17663851777E+03  0.18897863678E+03  0.00000000000E+00 0. -1.
         22    1    3    3    0    0 -0.12997100496E+03  0.13888179689E+03  0.32604431205E+03  0.37747252755E+03  0.00000000000E+00 0.  1.
         22    1    3    3    0    0 -0.91661798472E+01 -0.81850840559E+01 -0.74768392692E+01  0.14384629973E+02  0.00000000000E+00 0.  1.
</event>
<event>
 7    1  0.5537228E-006  0.1194613E+03  0.7818608E-02  0.1333960E+00
          2   -1    0    0  502    0  0.00000000000E+00  0.00000000000E+00  0.19096935629E+03  0.19096935629E+03  0.00000000000E+00 0. -1.
          1   -1    0    0  501    0 -0.00000000000E+00 -0.00000000000E+00 -0.16106252913E+03  0.16106252913E+03  0.00000000000E+00 0. -1.
         25    2    1    2    0    0  0.10835735821E+03 -0.43625134405E+02  0.17793067538E+02  0.17202156702E+03  0.12502142552E+03 0.  0.
          2    1    1    2  501    0  0.17100393480E+02  0.48382059311E+02 -0.10667587951E+02  0.52412255752E+02  0.00000000000E+00 0. -1.
          1    1    1    2  502    0 -0.12545775169E+03 -0.47569249062E+01  0.22781347569E+02  0.12759806264E+03  0.00000000000E+00 0. -1.
         22    1    3    3    0    0  0.67763689049E+02 -0.32297241473E+02  0.71556803329E+02  0.10370827095E+03  0.00000000000E+00 0.  1.
         22    1    3    3    0    0  0.40593669161E+02 -0.11327892932E+02 -0.53763735791E+02  0.68313296074E+02  0.00000000000E+00 0.  1.
</event>
<event>
 7    1  0.5537228E-006  0.1813081E+03  0.7818608E-02  0.1267899E+00
          2   -1    0    0  502    0  0.00000000000E+00  0.00000000000E+00  0.36306581848E+03  0.36306581848E+03  0.00000000000E+00 0. -1.
          1   -1    0    0  501    0 -0.00000000000E+00 -0.00000000000E+00 -0.16964236795E+04  0.16964236795E+04  0.00000000000E+00 0. -1.
         25    2    1    2    0    0 -0.14450793750E+01  0.22549511470E+03 -0.37976423900E+03  0.45901660917E+03  0.12500094103E+03 0.  0.
          2    1    1    2  501    0  0.32955737284E+02 -0.17194877300E+03 -0.12679780222E+04  0.12800080961E+04  0.00000000000E+00 0. -1.
          1    1    1    2  502    0 -0.31510657909E+02 -0.53546341701E+02  0.31438440022E+03  0.32046479272E+03  0.00000000000E+00 0. -1.
         22    1    3    3    0    0 -0.33466243964E+02  0.44555883889E+01 -0.39034161443E+02  0.51609180506E+02  0.00000000000E+00 0. -1.
         22    1    3    3    0    0  0.32021164589E+02  0.22103952632E+03 -0.34073007756E+03  0.40740742866E+03  0.00000000000E+00 0. -1.
</event>
<event>
 7    1  0.5537228E-006  0.1847617E+03  0.7818608E-02  0.1312015E+00
          2   -1    0    0  502    0  0.00000000000E+00  0.00000000000E+00  0.36011824924E+04  0.36011824924E+04  0.00000000000E+00 0. -1.
          1   -1    0    0  501    0 -0.00000000000E+00 -0.00000000000E+00 -0.46465746979E+03  0.46465746979E+03  0.00000000000E+00 0. -1.
         25    2    1    2    0    0  0.40632699014E+02 -0.20148569049E+03  0.22365612023E+04  0.22494618627E+04  0.12500064291E+03 0.  0.
          2    1    1    2  501    0 -0.67826693173E+02  0.17170474090E+03 -0.43929544197E+03  0.47651176658E+03  0.00000000000E+00 0. -1.
          1    1    1    2  502    0  0.27193994159E+02  0.29780949593E+02  0.13392592623E+04  0.13398663329E+04  0.00000000000E+00 0. -1.
         22    1    3    3    0    0 -0.42169735078E+02 -0.10004243093E+03  0.90999193835E+03  0.91644536247E+03  0.00000000000E+00 0. -1.
         22    1    3    3    0    0  0.82802434092E+02 -0.10144325956E+03  0.13265692639E+04  0.13330165003E+04  0.00000000000E+00 0. -1.
</event>
<event>
 7    1  0.5537228E-006  0.8700766E+02  0.7818608E-02  0.1348174E+00
          2   -1    0    0  502    0  0.00000000000E+00  0.00000000000E+00  0.34098909195E+03  0.34098909195E+03  0.00000000000E+00 0. -1.
          1   -1    0    0  501    0 -0.00000000000E+00 -0.00000000000E+00 -0.16322609294E+04  0.16322609294E+04  0.00000000000E+00 0. -1.
         25    2    1    2    0    0 -0.39086511512E+02  0.10959467499E+02 -0.13924684204E+02  0.13216367451E+03  0.12500189886E+03 0.  0.
          2    1    1    2  501    0  0.80795991262E+02  0.35325145281E+02 -0.15545088569E+04  0.15570079140E+04  0.00000000000E+00 0. -1.
          1    1    1    2  502    0 -0.41709479750E+02 -0.46284612780E+02  0.27716170360E+03  0.28407843288E+03  0.00000000000E+00 0. -1.
         22    1    3    3    0    0 -0.30804353734E+02  0.67535999259E+02 -0.89809822264E+01  0.74770832860E+02  0.00000000000E+00 0. -1.
         22    1    3    3    0    0 -0.82821577783E+01 -0.56576531759E+02 -0.49437019772E+01  0.57392841650E+02  0.00000000000E+00 0. -1.
</event>
<event>
 7    1  0.5537228E-006  0.3567457E+02  0.7818608E-02  0.1574039E+00
          2   -1    0    0  502    0  0.00000000000E+00  0.00000000000E+00  0.24068864563E+03  0.24068864563E+03  0.00000000000E+00 0. -1.
          1   -1    0    0  501    0 -0.00000000000E+00 -0.00000000000E+00 -0.83891670671E+03  0.83891670671E+03  0.00000000000E+00 0. -1.
         25    2    1    2    0    0  0.35915095343E+02 -0.18549263653E+02 -0.29803459839E+03  0.32570448552E+03  0.12499928317E+03 0.  0.
          2    1    1    2  501    0 -0.34347169408E+02 -0.10641360882E+02 -0.52548845717E+03  0.52671727258E+03  0.00000000000E+00 0. -1.
          1    1    1    2  502    0 -0.15679259349E+01  0.29190624534E+02  0.22529499449E+03  0.22718359425E+03  0.00000000000E+00 0. -1.
         22    1    3    3    0    0  0.36210071937E+02 -0.43100081726E+02 -0.46610410936E+02  0.73084312696E+02  0.00000000000E+00 0. -1.
         22    1    3    3    0    0 -0.29497659448E+00  0.24550818074E+02 -0.25142418746E+03  0.25262017282E+03  0.00000000000E+00 0. -1.
</event>
<event>
 7    1  0.5537228E-006  0.2531230E+02  0.7818608E-02  0.1663784E+00
          2   -1    0    0  502    0  0.00000000000E+00  0.00000000000E+00  0.13555526882E+04  0.13555526882E+04  0.00000000000E+00 0. -1.
          1   -1    0    0  501    0 -0.00000000000E+00 -0.00000000000E+00 -0.43451732320E+03  0.43451732320E+03  0.00000000000E+00 0. -1.
         25    2    1    2    0    0  0.38008985515E+02  0.18441195268E+02  0.11036121377E+03  0.17202219935E+03  0.12500911527E+03 0.  0.
          2    1    1    2  501    0 -0.12839851807E+02 -0.20645511299E+02 -0.40318919305E+03  0.40392155714E+03  0.00000000000E+00 0. -1.
          1    1    1    2  502    0 -0.25169133708E+02  0.22043160315E+01  0.12138633443E+04  0.12141262550E+04  0.00000000000E+00 0. -1.
         22    1    3    3    0    0  0.10214087521E+02 -0.34580892701E+02 -0.10151154137E+02  0.37459466817E+02  0.00000000000E+00 0.  1.
         22    1    3    3    0    0  0.27794897994E+02  0.53022087969E+02  0.12051236791E+03  0.13456273253E+03  0.00000000000E+00 0.  1.
</event>
<event>
 7    1  0.5537228E-006  0.4066677E+02  0.7818608E-02  0.1559364E+00
          2   -1    0    0  502    0  0.00000000000E+00  0.00000000000E+00  0.79057569003E+03  0.79057569003E+03  0.00000000000E+00 0. -1.
          1   -1    0    0  501    0 -0.00000000000E+00 -0.00000000000E+00 -0.14377042516E+04  0.14377042516E+04  0.00000000000E+00 0. -1.
         25    2    1    2    0    0  0.55080543774E+01  0.11970713165E+02 -0.60876608836E+02  0.13964647451E+03  0.12498615805E+03 0.  0.
          2    1    1    2  501    0 -0.91020752372E+01 -0.39861143699E+02 -0.13368668674E+04  0.13374919737E+04  0.00000000000E+00 0. -1.
          1    1    1    2  502    0  0.35940208598E+01  0.27890430533E+02  0.75061491464E+03  0.75114149345E+03  0.00000000000E+00 0. -1.
         22    1    3    3    0    0  0.11138209753E+02  0.22582653125E+01 -0.99130233174E+02  0.99779570092E+02  0.00000000000E+00 0.  1.
         22    1    3    3    0    0 -0.56301553753E+01  0.97124478529E+01  0.38253624338E+02  0.39866904418E+02  0.00000000000E+00 0.  1.
</event>
<event>
 7    1  0.5537228E-006  0.8305159E+02  0.7818608E-02  0.1348499E+00
          2   -1    0    0  502    0  0.00000000000E+00  0.00000000000E+00  0.51439578132E+03  0.51439578132E+03  0.00000000000E+00 0. -1.
          1   -1    0    0  501    0 -0.00000000000E+00 -0.00000000000E+00 -0.52347649714E+03  0.52347649714E+03  0.00000000000E+00 0. -1.
         25    2    1    2    0    0  0.25797773578E+02  0.52267018559E+01 -0.74609030304E+02  0.14793241940E+03  0.12499859908E+03 0.  0.
          2    1    1    2  501    0 -0.90849369297E+02 -0.29311315452E+01 -0.40492655466E+03  0.41500326999E+03  0.00000000000E+00 0. -1.
          1    1    1    2  502    0  0.65051595720E+02 -0.22955703107E+01  0.47045486914E+03  0.47493658908E+03  0.00000000000E+00 0. -1.
         22    1    3    3    0    0  0.35201455502E+02 -0.34393975307E+02  0.13359643671E+02  0.50995765372E+02  0.00000000000E+00 0. -1.
         22    1    3    3    0    0 -0.94036819241E+01  0.39620677163E+02 -0.87968673975E+02  0.96936654025E+02  0.00000000000E+00 0. -1.
</event>
<event>
 7    1  0.5537228E-006  0.9555538E+02  0.7818608E-02  0.1438236E+00
          2   -1    0    0  502    0  0.00000000000E+00  0.00000000000E+00  0.32000022954E+03  0.32000022954E+03  0.00000000000E+00 0. -1.
          1   -1    0    0  501    0 -0.00000000000E+00 -0.00000000000E+00 -0.21576336784E+04  0.21576336784E+04  0.00000000000E+00 0. -1.
         25    2    1    2    0    0  0.13292311419E+02  0.10926146809E+03  0.41032538785E+02  0.17153196262E+03  0.12499916403E+03 0.  0.
          2    1    1    2  501    0 -0.32701014219E+02 -0.89658374102E+02 -0.20904005458E+04  0.20925779370E+04  0.00000000000E+00 0. -1.
          1    1    1    2  502    0  0.19408702800E+02 -0.19603093983E+02  0.21173455814E+03  0.21352400837E+03  0.00000000000E+00 0. -1.
         22    1    3    3    0    0  0.94773458550E+01 -0.25572661142E+02 -0.73229397323E+01  0.28238387501E+02  0.00000000000E+00 0.  1.
         22    1    3    3    0    0  0.38149655642E+01  0.13483412923E+03  0.48355478517E+02  0.14329357512E+03  0.00000000000E+00 0.  1.
</event>
<event>
 7    1  0.5537228E-006  0.1200757E+03  0.7818608E-02  0.1313968E+00
          2   -1    0    0  502    0  0.00000000000E+00  0.00000000000E+00  0.26922104839E+04  0.26922104839E+04  0.00000000000E+00 0. -1.
          1   -1    0    0  501    0 -0.00000000000E+00 -0.00000000000E+00 -0.53264801740E+03  0.53264801740E+03  0.00000000000E+00 0. -1.
         25    2    1    2    0    0 -0.66212201325E+02 -0.12202891440E+03  0.16795083040E+03  0.25121227510E+03  0.12500005669E+03 0.  0.
          2    1    1    2  501    0  0.52846196890E+01  0.11977489954E+03 -0.48331780548E+03  0.49796591736E+03  0.00000000000E+00 0. -1.
          1    1    1    2  502    0  0.60927581636E+02  0.22540148606E+01  0.24749294416E+04  0.24756803088E+04  0.00000000000E+00 0. -1.
         22    1    3    3    0    0 -0.68760989229E+02 -0.10434852548E+03  0.18711857911E+03  0.22501122430E+03  0.00000000000E+00 0. -1.
         22    1    3    3    0    0  0.25487879040E+01 -0.17680388921E+02 -0.19167748715E+02  0.26201050799E+02  0.00000000000E+00 0. -1.
</event>
<event>
 7    1  0.5537228E-006  0.9051051E+02  0.7818608E-02  0.1319487E+00
          2   -1    0    0  502    0  0.00000000000E+00  0.00000000000E+00  0.80224492303E+02  0.80224492303E+02  0.00000000000E+00 0. -1.
          1   -1    0    0  501    0 -0.00000000000E+00 -0.00000000000E+00 -0.49360314001E+04  0.49360314001E+04  0.00000000000E+00 0. -1.
         25    2    1    2    0    0 -0.12295546870E+03  0.68141134585E+01 -0.25072029305E+04  0.25133354958E+04  0.12499720008E+03 0.  0.
          2    1    1    2  501    0  0.71299721321E+02  0.50253428817E+02 -0.24055753159E+04  0.24071563426E+04  0.00000000000E+00 0. -1.
          1    1    1    2  502    0  0.51655747383E+02 -0.57067542275E+02  0.56971338616E+02  0.95764054022E+02  0.00000000000E+00 0. -1.
         22    1    3    3    0    0 -0.13917667652E+01  0.45639222275E+02 -0.85057935516E+03  0.85180403559E+03  0.00000000000E+00 0. -1.
         22    1    3    3    0    0 -0.12156370194E+03 -0.38825108817E+02 -0.16566235754E+04  0.16615314602E+04  0.00000000000E+00 0. -1.
</event>
<event>
 7    1  0.5537228E-006  0.3295519E+02  0.7818608E-02  0.1584918E+00
          2   -1    0    0  502    0  0.00000000000E+00  0.00000000000E+00  0.27832943689E+03  0.27832943689E+03  0.00000000000E+00 0. -1.
          1   -1    0    0  501    0 -0.00000000000E+00 -0.00000000000E+00 -0.63753144635E+03  0.63753144635E+03  0.00000000000E+00 0. -1.
         25    2    1    2    0    0  0.50532033449E+02  0.30797949186E+02 -0.19530793903E+03  0.23931807818E+03  0.12500380560E+03 0.  0.
          2    1    1    2  501    0 -0.31156071714E+02 -0.84370050777E+01 -0.41874141232E+03  0.41998363570E+03  0.00000000000E+00 0. -1.
          1    1    1    2  502    0 -0.19375961735E+02 -0.22360944108E+02  0.25484734189E+03  0.25655916936E+03  0.00000000000E+00 0. -1.
         22    1    3    3    0    0  0.87315966851E+02  0.53043376342E+01 -0.93143113846E+02  0.12778049038E+03  0.00000000000E+00 0. -1.
         22    1    3    3    0    0 -0.36783933402E+02  0.25493611552E+02 -0.10216482518E+03  0.11153758780E+03  0.00000000000E+00 0. -1.
</event>
<event>
 7    1  0.5537228E-006  0.4014263E+02  0.7818608E-02  0.1534636E+00
          2   -1    0    0  502    0  0.00000000000E+00  0.00000000000E+00  0.12578465077E+04  0.12578465077E+04  0.00000000000E+00 0. -1.
          1   -1    0    0  501    0 -0.00000000000E+00 -0.00000000000E+00 -0.12357206368E+04  0.12357206368E+04  0.00000000000E+00 0. -1.
         25    2    1    2    0    0  0.19304051949E+02  0.11324932765E+02  0.66855268869E+02  0.14351214207E+03  0.12500082968E+03 0.  0.
          2    1    1    2  501    0 -0.36234979953E+02  0.17481466157E+02 -0.11968119741E+04  0.11974879861E+04  0.00000000000E+00 0. -1.
          1    1    1    2  502    0  0.16930928004E+02 -0.28806398922E+02  0.11520825762E+04  0.11525670164E+04  0.00000000000E+00 0. -1.
         22    1    3    3    0    0 -0.11382898802E+02  0.22211508840E+02 -0.31337261050E+02  0.40061770308E+02  0.00000000000E+00 0.  1.
         22    1    3    3    0    0  0.30686950751E+02 -0.10886576075E+02  0.98192529919E+02  0.10345037176E+03  0.00000000000E+00 0.  1.
</event>
<event>
 7    1  0.5537228E-006  0.5130632E+02  0.7818608E-02  0.1465832E+00
          2   -1    0    0  502    0  0.00000000000E+00  0.00000000000E+00  0.45383745056E+03  0.45383745056E+03  0.00000000000E+00 0. -1.
          1   -1    0    0  501    0 -0.00000000000E+00 -0.00000000000E+00 -0.18370085366E+04  0.18370085366E+04  0.00000000000E+00 0. -1.
         25    2    1    2    0    0 -0.13836398708E+02  0.27334743475E+01  0.41157986218E+02  0.13235401822E+03  0.12499875398E+03 0.  0.
          2    1    1    2  501    0 -0.35122019722E+02 -0.22938538159E+02 -0.17892529430E+04  0.17897446261E+04  0.00000000000E+00 0. -1.
          1    1    1    2  502    0  0.48958418429E+02  0.20205063811E+02  0.36492387077E+03  0.36874734276E+03  0.00000000000E+00 0. -1.
         22    1    3    3    0    0 -0.22417076233E+02  0.88321359275E+01 -0.42060216456E+02  0.48472608143E+02  0.00000000000E+00 0.  1.
         22    1    3    3    0    0  0.85806775249E+01 -0.60986615800E+01  0.83218202673E+02  0.83881410074E+02  0.00000000000E+00 0.  1.
</event>
<event>
 7    1  0.5537228E-006  0.2436193E+03  0.7818608E-02  0.1189399E+00
          2   -1    0    0  502    0  0.00000000000E+00  0.00000000000E+00  0.26868247990E+04  0.26868247990E+04  0.00000000000E+00 0. -1.
          1   -1    0    0  501    0 -0.00000000000E+00 -0.00000000000E+00 -0.34288553905E+03  0.34288553905E+03  0.00000000000E+00 0. -1.
         25    2    1    2    0    0  0.23417884930E+03  0.23768380379E+03  0.29729096790E+03  0.46404732468E+03  0.12499870360E+03 0.  0.
          2    1    1    2  501    0 -0.14976958372E+03 -0.17647132483E+03 -0.20645043224E+03  0.31015292626E+03  0.00000000000E+00 0. -1.
          1    1    1    2  502    0 -0.84409265578E+02 -0.61212478967E+02  0.22530987243E+04  0.22555100871E+04  0.00000000000E+00 0. -1.
         22    1    3    3    0    0  0.39917317867E+01  0.65638578325E+02  0.32816740078E+02  0.73493505268E+02  0.00000000000E+00 0. -1.
         22    1    3    3    0    0  0.23018711752E+03  0.17204522547E+03  0.26447422782E+03  0.39055381941E+03  0.00000000000E+00 0. -1.
</event>
<event>
 7    1  0.5537228E-006  0.1212896E+03  0.7818608E-02  0.1329442E+00
          2   -1    0    0  502    0  0.00000000000E+00  0.00000000000E+00  0.15499546617E+03  0.15499546617E+03  0.00000000000E+00 0. -1.
          1   -1    0    0  501    0 -0.00000000000E+00 -0.00000000000E+00 -0.21394589542E+04  0.21394589542E+04  0.00000000000E+00 0. -1.
         25    2    1    2    0    0  0.13106745894E+03  0.84734041473E+02 -0.91523597062E+03  0.93682489548E+03  0.12500186519E+03 0.  0.
          2    1    1    2  501    0 -0.78559260015E+02 -0.81891033284E+02 -0.12058804148E+04  0.12112081875E+04  0.00000000000E+00 0. -1.
          1    1    1    2  502    0 -0.52508198926E+02 -0.28430081888E+01  0.13665289744E+03  0.14642133734E+03  0.00000000000E+00 0. -1.
         22    1    3    3    0    0 -0.17000470630E+02  0.30229878725E+02 -0.86335707876E+02  0.93041474751E+02  0.00000000000E+00 0.  1.
         22    1    3    3    0    0  0.14806792957E+03  0.54504162748E+02 -0.82890026274E+03  0.84378342073E+03  0.00000000000E+00 0.  1.
</event>
<event>
 7    1  0.5537228E-006  0.1088645E+03  0.7818608E-02  0.1304593E+00
          2   -1    0    0  502    0  0.00000000000E+00  0.00000000000E+00  0.15650682048E+04  0.15650682048E+04  0.00000000000E+00 0. -1.
          1   -1    0    0  501    0 -0.00000000000E+00 -0.00000000000E+00 -0.24688619812E+04  0.24688619812E+04  0.00000000000E+00 0. -1.
         25    2    1    2    0    0 -0.13072609298E+03 -0.56378059216E+02 -0.17137429119E+03  0.25547632202E+03  0.12502482348E+03 0.  0.
          2    1    1    2  501    0  0.10761087256E+03 -0.13104494921E+02 -0.22532526172E+04  0.22558588574E+04  0.00000000000E+00 0. -1.
          1    1    1    2  502    0  0.23115220419E+02  0.69482554137E+02  0.15208331320E+04  0.15225950066E+04  0.00000000000E+00 0. -1.
         22    1    3    3    0    0 -0.56356553747E+01  0.12341620259E+02 -0.90339129311E+02  0.91352254963E+02  0.00000000000E+00 0.  1.
         22    1    3    3    0    0 -0.12509043761E+03 -0.68719679476E+02 -0.81035161876E+02  0.16412406706E+03  0.00000000000E+00 0.  1.
</event>
<event>
 7    1  0.1117311E-005  0.9001592E+02  0.7818608E-02  0.1347125E+00
          2   -1    0    0  502    0  0.00000000000E+00  0.00000000000E+00  0.28437116876E+04  0.28437116876E+04  0.00000000000E+00 0. -1.
          1   -1    0    0  501    0 -0.00000000000E+00 -0.00000000000E+00 -0.16664860097E+04  0.16664860097E+04  0.00000000000E+00 0. -1.
         25    2    1    2    0    0 -0.45584317096E+02 -0.45428375883E+02 -0.10977665931E+04  0.11067343471E+04  0.12501101935E+03 0.  0.
          2    1    1    2  501    0 -0.44374059185E+02  0.41515038279E+02 -0.56188305478E+03  0.56515937821E+03  0.00000000000E+00 0. -1.
          1    1    1    2  502    0  0.89958376281E+02  0.39133376032E+01  0.28368753257E+04  0.28383039720E+04  0.00000000000E+00 0. -1.
         22    1    3    3    0    0 -0.87984575730E+01 -0.26578088956E+02 -0.43963946281E+02  0.52121360696E+02  0.00000000000E+00 0.  1.
         22    1    3    3    0    0 -0.36785859523E+02 -0.18850286927E+02 -0.10538026468E+04  0.10546129864E+04  0.00000000000E+00 0.  1.
</event>
<event>
 7    1  0.5537228E-006  0.5031416E+02  0.7818608E-02  0.1468490E+00
          2   -1    0    0  502    0  0.00000000000E+00  0.00000000000E+00  0.22510634425E+03  0.22510634425E+03  0.00000000000E+00 0. -1.
          1   -1    0    0  501    0 -0.00000000000E+00 -0.00000000000E+00 -0.30934682792E+03  0.30934682792E+03  0.00000000000E+00 0. -1.
         25    2    1    2    0    0 -0.88930015545E+02  0.17333791741E+02 -0.19693488642E+02  0.15563765196E+03  0.12500494875E+03 0.  0.
          2    1    1    2  501    0  0.47431077401E+02 -0.11087787216E+02 -0.21611944833E+03  0.22154065558E+03  0.00000000000E+00 0. -1.
          1    1    1    2  502    0  0.41498938144E+02 -0.62460045255E+01  0.15157245331E+03  0.15727486462E+03  0.00000000000E+00 0. -1.
         22    1    3    3    0    0  0.22934342684E+02  0.28264891391E+02  0.12888115952E+02  0.38613361580E+02  0.00000000000E+00 0.  1.
         22    1    3    3    0    0 -0.11186435823E+03 -0.10931099650E+02 -0.32581604594E+02  0.11702429038E+03  0.00000000000E+00 0.  1.
</event>
<event>
 7    1  0.5537228E-006  0.4375055E+02  0.7818608E-02  0.1584902E+00
          2   -1    0    0  502    0  0.00000000000E+00  0.00000000000E+00  0.15449892720E+03  0.15449892720E+03  0.00000000000E+00 0. -1.
          1   -1    0    0  501    0 -0.00000000000E+00 -0.00000000000E+00 -0.17782528782E+04  0.17782528782E+04  0.00000000000E+00 0. -1.
         25    2    1    2    0    0  0.17700537593E+02 -0.17075729869E+02 -0.16476987158E+04  0.16526165127E+04  0.12500156191E+03 0.  0.
          2    1    1    2  501    0  0.15996902012E+01 -0.22231817030E+02 -0.12392717113E+03  0.12591567195E+03  0.00000000000E+00 0. -1.
          1    1    1    2  502    0 -0.19300227794E+02  0.39307546898E+02  0.14787193584E+03  0.15421962082E+03  0.00000000000E+00 0. -1.
         22    1    3    3    0    0  0.53042760194E+02 -0.25337220509E+02 -0.39103121036E+03  0.39542498230E+03  0.00000000000E+00 0. -1.
         22    1    3    3    0    0 -0.35342222601E+02  0.82614906409E+01 -0.12566675054E+04  0.12571915304E+04  0.00000000000E+00 0. -1.
</event>
<event>
 7    1  0.5537228E-006  0.9335019E+02  0.7818608E-02  0.1304549E+00
          2   -1    0    0  502    0  0.00000000000E+00  0.00000000000E+00  0.48738446153E+03  0.48738446153E+03  0.00000000000E+00 0. -1.
          1   -1    0    0  501    0 -0.00000000000E+00 -0.00000000000E+00 -0.24486791946E+03  0.24486791946E+03  0.00000000000E+00 0. -1.
         25    2    1    2    0    0  0.62088794097E+02 -0.14214763724E+03  0.86071507687E+02  0.21701934186E+03  0.12501248411E+03 0.  0.
          2    1    1    2  501    0 -0.69332715123E+02  0.57024526267E+02 -0.16217244801E+03  0.18536106624E+03  0.00000000000E+00 0. -1.
          1    1    1    2  502    0  0.72439210260E+01  0.85123110971E+02  0.31861748239E+03  0.32987197289E+03  0.00000000000E+00 0. -1.
         22    1    3    3    0    0  0.33281785703E+02 -0.15253485127E+03  0.39096324391E+02  0.16094434036E+03  0.00000000000E+00 0. -1.
         22    1    3    3    0    0  0.28807008393E+02  0.10387214035E+02  0.46975183295E+02  0.56075001503E+02  0.00000000000E+00 0. -1.
</event>
<event>
 7    1  0.5537228E-006  0.1624056E+03  0.7818608E-02  0.1238448E+00
          2   -1    0    0  502    0  0.00000000000E+00  0.00000000000E+00  0.65333656700E+03  0.65333656700E+03  0.00000000000E+00 0. -1.
          1   -1    0    0  501    0 -0.00000000000E+00 -0.00000000000E+00 -0.21225432876E+04  0.21225432876E+04  0.00000000000E+00 0. -1.
         25    2    1    2    0    0 -0.24287627713E+03  0.23005866243E+02 -0.56760061042E+02  0.27993723408E+03  0.12499997849E+03 0.  0.
          2    1    1    2  501    0  0.86222445915E+02 -0.34713543742E+02 -0.19416715983E+04  0.19438950425E+04  0.00000000000E+00 0. -1.
          1    1    1    2  502    0  0.15665383122E+03  0.11707677499E+02  0.52922493881E+03  0.55204757803E+03  0.00000000000E+00 0. -1.
         22    1    3    3    0    0 -0.20320440349E+02 -0.29616650922E+02  0.16872700006E+02  0.39683174184E+02  0.00000000000E+00 0.  1.
         22    1    3    3    0    0 -0.22255583678E+03  0.52622517165E+02 -0.73632761048E+02  0.24025405990E+03  0.00000000000E+00 0.  1.
</event>
<event>
 7    1  0.5537228E-006  0.6088009E+02  0.7818608E-02  0.1411867E+00
          2   -1    0    0  502    0  0.00000000000E+00  0.00000000000E+00  0.14450091677E+03  0.14450091677E+03  0.00000000000E+00 0. -1.
          1   -1    0    0  501    0 -0.00000000000E+00 -0.00000000000E+00 -0.73333616296E+03  0.73333616296E+03  0.00000000000E+00 0. -1.
         25    2    1    2    0    0  0.24020858527E+00  0.25452105545E+02 -0.43154747174E+03  0.45000242983E+03  0.12498439547E+03 0.  0.
          2    1    1    2  501    0 -0.59770613188E+02 -0.38200316607E+02 -0.28107435106E+03  0.28988718704E+03  0.00000000000E+00 0. -1.
          1    1    1    2  502    0  0.59530404603E+02  0.12748211063E+02  0.12378657661E+03  0.13794746285E+03  0.00000000000E+00 0. -1.
         22    1    3    3    0    0 -0.27235488072E+02  0.54324332202E+02 -0.10729025653E+03  0.12330492296E+03  0.00000000000E+00 0.  1.
         22    1    3    3    0    0  0.27475696657E+02 -0.28872226658E+02 -0.32425721521E+03  0.32669750687E+03  0.00000000000E+00 0.  1.
</event>
<event>
 7    1  0.5537228E-006  0.1765485E+03  0.7818608E-02  0.1171814E+00
          2   -1    0    0  502    0  0.00000000000E+00  0.00000000000E+00  0.11734213038E+04  0.11734213038E+04  0.00000000000E+00 0. -1.
          1   -1    0    0  501    0 -0.00000000000E+00 -0.00000000000E+00 -0.11288638340E+03  0.11288638340E+03  0.00000000000E+00 0. -1.
         25    2    1    2    0    0  0.12440595503E+03 -0.42339390383E+02  0.41710049446E+03  0.45482679264E+03  0.12500049281E+03 0.  0.
          2    1    1    2  501    0 -0.15678438512E+03 -0.13121471547E+03  0.47428850407E+02  0.20987648945E+03  0.00000000000E+00 0. -1.
          1    1    1    2  502    0  0.32378430092E+02  0.17355410585E+03  0.59600557554E+03  0.62160440512E+03  0.00000000000E+00 0. -1.
         22    1    3    3    0    0  0.20855928673E+02 -0.70911771808E+02  0.17434756015E+03  0.18936874312E+03  0.00000000000E+00 0. -1.
         22    1    3    3    0    0  0.10355002635E+03  0.28572381424E+02  0.24275293431E+03  0.26545804952E+03  0.00000000000E+00 0. -1.
</event>
<event>
 7    1  0.5537228E-006  0.1783075E+03  0.7818608E-02  0.1179254E+00
          2   -1    0    0  502    0  0.00000000000E+00  0.00000000000E+00  0.26162871874E+03  0.26162871874E+03  0.00000000000E+00 0. -1.
          1   -1    0    0  501    0 -0.00000000000E+00 -0.00000000000E+00 -0.64335804072E+03  0.64335804072E+03  0.00000000000E+00 0. -1.
         25    2    1    2    0    0 -0.90037086903E+02 -0.26239917671E+03 -0.34113880543E+03  0.45712328837E+03  0.12500404490E+03 0.  0.
          2    1    1    2  501    0 -0.42657635341E+02  0.15372290213E+03 -0.16990292549E+03  0.23306095465E+03  0.00000000000E+00 0. -1.
          1    1    1    2  502    0  0.13269472224E+03  0.10867627458E+03  0.12931240893E+03  0.21480251645E+03  0.00000000000E+00 0. -1.
         22    1    3    3    0    0 -0.42070811034E+02 -0.71414116379E+02 -0.28518501470E+02  0.87654059149E+02  0.00000000000E+00 0. -1.
         22    1    3    3    0    0 -0.47966275869E+02 -0.19098506033E+03 -0.31262030396E+03  0.36946922922E+03  0.00000000000E+00 0. -1.
</event>
<event>
 7    1  0.5537228E-006  0.9699083E+02  0.7818608E-02  0.1350398E+00
          2   -1    0    0  502    0  0.00000000000E+00  0.00000000000E+00  0.74268382435E+02  0.74268382435E+02  0.00000000000E+00 0. -1.
          1   -1    0    0  501    0 -0.00000000000E+00 -0.00000000000E+00 -0.17038635369E+04  0.17038635369E+04  0.00000000000E+00 0. -1.
         25    2    1    2    0    0  0.11366308825E+03  0.31550737774E+02 -0.46025946501E+03  0.49130220895E+03  0.12499735477E+03 0.  0.
          2    1    1    2  501    0 -0.19464986075E+02 -0.51270216245E+02 -0.11876053936E+04  0.11888709314E+04  0.00000000000E+00 0. -1.
          1    1    1    2  502    0 -0.94198102173E+02  0.19719478470E+02  0.18269704128E+02  0.97958778949E+02  0.00000000000E+00 0. -1.
         22    1    3    3    0    0  0.11349803695E+01  0.21538409444E+01  0.82349070103E+01  0.85872524547E+01  0.00000000000E+00 0. -1.
         22    1    3    3    0    0  0.11252810788E+03  0.29396896830E+02 -0.46849437202E+03  0.48271495650E+03  0.00000000000E+00 0. -1.
</event>
<event>
 7    1  0.5537228E-006  0.7547673E+02  0.7818608E-02  0.1452007E+00
          2   -1    0    0  502    0  0.00000000000E+00  0.00000000000E+00  0.10105130756E+03  0.10105130756E+03  0.00000000000E+00 0. -1.
          1   -1    0    0  501    0 -0.00000000000E+00 -0.00000000000E+00 -0.13763833708E+04  0.13763833708E+04  0.00000000000E+00 0. -1.
         25    2    1    2    0    0  0.54923015467E+02  0.87428966883E+02 -0.47163793697E+03  0.49872598874E+03  0.12499962552E+03 0.  0.
          2    1    1    2  501    0 -0.43309385398E+02 -0.58112891474E+02 -0.88683363648E+03  0.88979026169E+03  0.00000000000E+00 0. -1.
          1    1    1    2  502    0 -0.11613630068E+02 -0.29316075409E+02  0.83139510171E+02  0.88918427967E+02  0.00000000000E+00 0. -1.
         22    1    3    3    0    0  0.30278787134E+02 -0.28552182647E+02 -0.15907218946E+03  0.16442625564E+03  0.00000000000E+00 0. -1.
         22    1    3    3    0    0  0.24644228333E+02  0.11598114953E+03 -0.31256574751E+03  0.33429973310E+03  0.00000000000E+00 0. -1.
</event>
<event>
 7    1  0.5537228E-006  0.8763089E+02  0.7818608E-02  0.1352584E+00
          2   -1    0    0  502    0  0.00000000000E+00  0.00000000000E+00  0.45116559389E+03  0.45116559389E+03  0.00000000000E+00 0. -1.
          1   -1    0    0  501    0 -0.00000000000E+00 -0.00000000000E+00 -0.46090397002E+03  0.46090397002E+03  0.00000000000E+00 0. -1.
         25    2    1    2    0    0 -0.18759572152E+02 -0.76377852872E+02 -0.91431367473E+02  0.17369558781E+03  0.12499985724E+03 0.  0.
          2    1    1    2  501    0 -0.40538708151E+02  0.82155475921E+02 -0.31970825650E+03  0.33257522210E+03  0.00000000000E+00 0. -1.
          1    1    1    2  502    0  0.59298280302E+02 -0.57776230489E+01  0.40140124784E+03  0.40579875399E+03  0.00000000000E+00 0. -1.
         22    1    3    3    0    0  0.24179262584E+02 -0.50996464053E+01 -0.86916059151E+02  0.90360635627E+02  0.00000000000E+00 0. -1.
         22    1    3    3    0    0 -0.42938834736E+02 -0.71278206466E+02 -0.45153083220E+01  0.83334952180E+02  0.00000000000E+00 0. -1.
</event>
<event>
 7    1  0.5537228E-006  0.4811178E+02  0.7818608E-02  0.1462131E+00
          2   -1    0    0  502    0  0.00000000000E+00  0.00000000000E+00  0.24779231070E+04  0.24779231070E+04  0.00000000000E+00 0. -1.
          1   -1    0    0  501    0 -0.00000000000E+00 -0.00000000000E+00 -0.18317629637E+04  0.18317629637E+04  0.00000000000E+00 0. -1.
         25    2    1    2    0    0 -0.64269503990E+02 -0.68498227788E+02 -0.40330137370E+02  0.16147624994E+03  0.12500193183E+03 0.  0.
          2    1    1    2  501    0  0.30698078864E+02  0.34186338496E+02 -0.17303164672E+04  0.17309263863E+04  0.00000000000E+00 0. -1.
          1    1    1    2  502    0  0.33571425126E+02  0.34311889292E+02  0.24168067479E+04  0.24172834346E+04  0.00000000000E+00 0. -1.
         22    1    3    3    0    0  0.23073428247E+02 -0.44385910354E+02  0.18619743171E+02  0.53377775944E+02  0.00000000000E+00 0.  1.
         22    1    3    3    0    0 -0.87342932237E+02 -0.24112317434E+02 -0.58949880542E+02  0.10809847399E+03  0.00000000000E+00 0.  1.
</event>
<event>
 7    1  0.5537228E-006  0.5815991E+02  0.7818608E-02  0.1421860E+00
          2   -1    0    0  502    0  0.00000000000E+00  0.00000000000E+00  0.18754375452E+04  0.18754375452E+04  0.00000000000E+00 0. -1.
          1   -1    0    0  501    0 -0.00000000000E+00 -0.00000000000E+00 -0.15852442111E+03  0.15852442111E+03  0.00000000000E+00 0. -1.
         25    2    1    2    0    0  0.46997806831E+02 -0.98345439634E+02 -0.10818641933E+01  0.16585175697E+03  0.12500006207E+03 0.  0.
          2    1    1    2  501    0 -0.19183754064E+02  0.47592181581E+02 -0.65763067761E+02  0.83413507593E+02  0.00000000000E+00 0. -1.
          1    1    1    2  502    0 -0.27814052767E+02  0.50753258054E+02  0.17837580561E+04  0.17846967018E+04  0.00000000000E+00 0. -1.
         22    1    3    3    0    0  0.30411524079E+02 -0.50209186972E+02 -0.62720269378E+02  0.85904920954E+02  0.00000000000E+00 0.  1.
         22    1    3    3    0    0  0.16586282752E+02 -0.48136252662E+02  0.61638405185E+02  0.79946836020E+02  0.00000000000E+00 0.  1.
</event>
<event>
 7    1  0.5537228E-006  0.2563063E+02  0.7818608E-02  0.1691282E+00
          2   -1    0    0  502    0  0.00000000000E+00  0.00000000000E+00  0.48264692455E+02  0.48264692455E+02  0.00000000000E+00 0. -1.
          1   -1    0    0  501    0 -0.00000000000E+00 -0.00000000000E+00 -0.47010297001E+03  0.47010297001E+03  0.00000000000E+00 0. -1.
         25    2    1    2    0    0  0.40299537926E+02 -0.29272077826E+01 -0.23350293192E+03  0.26792098610E+03  0.12500165709E+03 0.  0.
          2    1    1    2  501    0 -0.23467490615E+02 -0.90607667859E+01 -0.21513744379E+03  0.21660318634E+03  0.00000000000E+00 0. -1.
          1    1    1    2  502    0 -0.16832047311E+02  0.11987974568E+02  0.26802098163E+02  0.33843490022E+02  0.00000000000E+00 0. -1.
         22    1    3    3    0    0 -0.27325834974E+02  0.42017845232E+02 -0.85582437488E+02  0.99179404018E+02  0.00000000000E+00 0.  1.
         22    1    3    3    0    0  0.67625372900E+02 -0.44945053015E+02 -0.14792049443E+03  0.16874158208E+03  0.00000000000E+00 0.  1.
</event>
<event>
 7    1  0.5537228E-006  0.1109073E+03  0.7818608E-02  0.1348013E+00
          2   -1    0    0  502    0  0.00000000000E+00  0.00000000000E+00  0.37077801360E+03  0.37077801360E+03  0.00000000000E+00 0. -1.
          1   -1    0    0  501    0 -0.00000000000E+00 -0.00000000000E+00 -0.65277402070E+03  0.65277402070E+03  0.00000000000E+00 0. -1.
         25    2    1    2    0    0 -0.62750708717E+02  0.10116304739E+03  0.10603061082E+03  0.20258077420E+03  0.12499946418E+03 0.  0.
          2    1    1    2  501    0  0.14610201599E+02 -0.11000825186E+03 -0.59654798463E+03  0.60678230976E+03  0.00000000000E+00 0. -1.
          1    1    1    2  502    0  0.48140507118E+02  0.88452044715E+01  0.20852136671E+03  0.21418895033E+03  0.00000000000E+00 0. -1.
         22    1    3    3    0    0 -0.46733402272E+02 -0.17680027305E+02  0.15458510467E+02  0.52302579280E+02  0.00000000000E+00 0.  1.
         22    1    3    3    0    0 -0.16017306444E+02  0.11884307469E+03  0.90572100348E+02  0.15027819492E+03  0.00000000000E+00 0.  1.
</event>
<event>
 7    1  0.5537228E-006  0.1214526E+03  0.7818608E-02  0.1389378E+00
          2   -1    0    0  502    0  0.00000000000E+00  0.00000000000E+00  0.27138091928E+04  0.27138091928E+04  0.00000000000E+00 0. -1.
          1   -1    0    0  501    0 -0.00000000000E+00 -0.00000000000E+00 -0.19090455945E+03  0.19090455945E+03  0.00000000000E+00 0. -1.
         25    2    1    2    0    0  0.93705467733E+02 -0.89696688302E+02  0.50720671645E+03  0.53824671820E+03  0.12499866348E+03 0.  0.
          2    1    1    2  501    0 -0.10528699724E+03  0.60173825769E+02 -0.15429198853E+03  0.19624540459E+03  0.00000000000E+00 0. -1.
          1    1    1    2  502    0  0.11581529509E+02  0.29522862533E+02  0.21699899054E+04  0.21702216295E+04  0.00000000000E+00 0. -1.
         22    1    3    3    0    0 -0.26131163221E+00 -0.78054156146E+02  0.30717647766E+03  0.31693833470E+03  0.00000000000E+00 0. -1.
         22    1    3    3    0    0  0.93966779366E+02 -0.11642532156E+02  0.20003023879E+03  0.22130838350E+03  0.00000000000E+00 0. -1.
</event>
<event>
 7    1  0.5537228E-006  0.1626905E+03  0.7818608E-02  0.1210974E+00
          2   -1    0    0  502    0  0.00000000000E+00  0.00000000000E+00  0.14450717131E+04  0.14450717131E+04  0.00000000000E+00 0. -1.
          1   -1    0    0  501    0 -0.00000000000E+00 -0.00000000000E+00 -0.31349411233E+03  0.31349411233E+03  0.00000000000E+00 0. -1.
         25    2    1    2    0    0  0.47524532845E+02  0.20202184368E+03 -0.35342088811E+02  0.24483366942E+03  0.12499222334E+03 0.  0.
          2    1    1    2  501    0 -0.11961701521E+03 -0.10171001375E+03 -0.13432870692E+03  0.20663339209E+03  0.00000000000E+00 0. -1.
          1    1    1    2  502    0  0.72092482360E+02 -0.10031182993E+03  0.13012483965E+04  0.13070987639E+04  0.00000000000E+00 0. -1.
         22    1    3    3    0    0  0.89623643654E+02  0.12513289738E+03 -0.31383058691E+02  0.15708448644E+03  0.00000000000E+00 0.  1.
         22    1    3    3    0    0 -0.42099110809E+02  0.76888946302E+02 -0.39590301197E+01  0.87749182981E+02  0.00000000000E+00 0.  1.
</event>
<event>
 7    1  0.5537228E-006  0.1021897E+03  0.7818608E-02  0.1302430E+00
          2   -1    0    0  502    0  0.00000000000E+00  0.00000000000E+00  0.22372480206E+04  0.22372480206E+04  0.00000000000E+00 0. -1.
          1   -1    0    0  501    0 -0.00000000000E+00 -0.00000000000E+00 -0.63635883944E+03  0.63635883944E+03  0.00000000000E+00 0. -1.
         25    2    1    2    0    0  0.11423183178E+03  0.57083186665E+02  0.42859128244E+03  0.46435194841E+03  0.12499937205E+03 0.  0.
          2    1    1    2  501    0 -0.99985203824E+02  0.21202820314E+02 -0.61336372723E+03  0.62182124638E+03  0.00000000000E+00 0. -1.
          1    1    1    2  502    0 -0.14246627955E+02 -0.78286006979E+02  0.17856616259E+04  0.17874336652E+04  0.00000000000E+00 0. -1.
         22    1    3    3    0    0  0.10959497815E+03  0.26718263460E+02  0.41622318678E+03  0.43123852571E+03  0.00000000000E+00 0. -1.
         22    1    3    3    0    0  0.46368536242E+01  0.30364923205E+02  0.12368095661E+02  0.33113422702E+02  0.00000000000E+00 0. -1.
</event>
<event>
 7    1  0.5537228E-006  0.3360080E+03  0.7818608E-02  0.1240554E+00
          2   -1    0    0  502    0  0.00000000000E+00  0.00000000000E+00  0.18371714405E+04  0.18371714405E+04  0.00000000000E+00 0. -1.
          1   -1    0    0  501    0 -0.00000000000E+00 -0.00000000000E+00 -0.54043639968E+03  0.54043639968E+03  0.00000000000E+00 0. -1.
         25    2    1    2    0    0  0.57192874507E+02 -0.35757555773E+03  0.13943882745E+03  0.40767538944E+03  0.12499892866E+03 0.  0.
          2    1    1    2  501    0 -0.35812040082E+02  0.25518695341E+02 -0.38735760862E+03  0.38984563994E+03  0.00000000000E+00 0. -1.
          1    1    1    2  502    0 -0.21380834425E+02  0.33205686239E+03  0.15446538220E+04  0.15800868108E+04  0.00000000000E+00 0. -1.
         22    1    3    3    0    0  0.52974948517E+02 -0.26419207357E+03  0.15801899497E+03  0.31236805163E+03  0.00000000000E+00 0.  1.
         22    1    3    3    0    0  0.42179259905E+01 -0.93383484167E+02 -0.18580167520E+02  0.95307337808E+02  0.00000000000E+00 0.  1.
</event>
<event>
 7    1  0.5537228E-006  0.1007706E+03  0.7818608E-02  0.1312891E+00
          2   -1    0    0  502    0  0.00000000000E+00  0.00000000000E+00  0.23589574497E+04  0.23589574497E+04  0.00000000000E+00 0. -1.
          1   -1    0    0  501    0 -0.00000000000E+00 -0.00000000000E+00 -0.14729810974E+04  0.14729810974E+04  0.00000000000E+00 0. -1.
         25    2    1    2    0    0  0.13227675295E+03  0.11054314589E+03 -0.93774912881E+02  0.23267115499E+03  0.12500082241E+03 0.  0.
          2    1    1    2  501    0 -0.62362350618E+02 -0.38633663290E+02 -0.13076311113E+04  0.13096872703E+04  0.00000000000E+00 0. -1.
          1    1    1    2  502    0 -0.69914402332E+02 -0.71909482595E+02  0.22873823766E+04  0.22895801218E+04  0.00000000000E+00 0. -1.
         22    1    3    3    0    0  0.44772914117E+02  0.67900907258E+02  0.19175620725E+02  0.83563457774E+02  0.00000000000E+00 0. -1.
         22    1    3    3    0    0  0.87503838834E+02  0.42642238628E+02 -0.11295053361E+03  0.14910769721E+03  0.00000000000E+00 0. -1.
</event>
<event>
 7    1  0.5537228E-006  0.6044503E+02  0.7818608E-02  0.1510763E+00
          2   -1    0    0  502    0  0.00000000000E+00  0.00000000000E+00  0.68180846109E+03  0.68180846109E+03  0.00000000000E+00 0. -1.
          1   -1    0    0  501    0 -0.00000000000E+00 -0.00000000000E+00 -0.12688345223E+04  0.12688345223E+04  0.00000000000E+00 0. -1.
         25    2    1    2    0    0 -0.62693850902E+02 -0.32047136240E+02 -0.17788919996E+03  0.22853273550E+03  0.12500042341E+03 0.  0.
          2    1    1    2  501    0  0.59946694976E+02  0.61764250527E+01 -0.10645132364E+04  0.10662177006E+04  0.00000000000E+00 0. -1.
          1    1    1    2  502    0  0.27471559269E+01  0.25870711187E+02  0.65537637515E+03  0.65589254735E+03  0.00000000000E+00 0. -1.
         22    1    3    3    0    0  0.75058700406E+01 -0.19448550558E+00 -0.14421535690E+03  0.14441068199E+03  0.00000000000E+00 0. -1.
         22    1    3    3    0    0 -0.70199720943E+02 -0.31852650735E+02 -0.33673843059E+02  0.84122053504E+02  0.00000000000E+00 0. -1.
</event>
<event>
 7    1  0.5537228E-006  0.4718379E+02  0.7818608E-02  0.1561356E+00
          2   -1    0    0  502    0  0.00000000000E+00  0.00000000000E+00  0.27254393862E+04  0.27254393862E+04  0.00000000000E+00 0. -1.
          1   -1    0    0  501    0 -0.00000000000E+00 -0.00000000000E+00 -0.18842551931E+02  0.18842551931E+02  0.00000000000E+00 0. -1.
         25    2    1    2    0    0  0.17753831391E+01  0.32080144937E+02  0.79189793085E+03  0.80234644489E+03  0.12500078823E+03 0.  0.
          2    1    1    2  501    0  0.21719943929E+02  0.10051299398E+02 -0.25603269672E+01  0.24069479804E+02  0.00000000000E+00 0. -1.
          1    1    1    2  502    0 -0.23495327068E+02 -0.42131444335E+02  0.19172592304E+04  0.19178660134E+04  0.00000000000E+00 0. -1.
         22    1    3    3    0    0  0.26452884896E+02 -0.20475693323E+02  0.62011718994E+03  0.62101879070E+03  0.00000000000E+00 0. -1.
         22    1    3    3    0    0 -0.24677501757E+02  0.52555838261E+02  0.17178074091E+03  0.18132765419E+03  0.00000000000E+00 0. -1.
</event>
<event>
 7    1  0.5537228E-006  0.1477087E+03  0.7818608E-02  0.1344997E+00
          2   -1    0    0  502    0  0.00000000000E+00  0.00000000000E+00  0.24751537885E+04  0.24751537885E+04  0.00000000000E+00 0. -1.
          1   -1    0    0  501    0 -0.00000000000E+00 -0.00000000000E+00 -0.32211600027E+02  0.32211600027E+02  0.00000000000E+00 0. -1.
         25    2    1    2    0    0 -0.21829789504E+02  0.11980340920E+03  0.59940572006E+03  0.62429323873E+03  0.12500173646E+03 0.  0.
          2    1    1    2  501    0 -0.25977663156E+02  0.27341279784E+02  0.50082894468E+01  0.38045597990E+02  0.00000000000E+00 0. -1.
          1    1    1    2  502    0  0.47807452660E+02 -0.14714468898E+03  0.18385281790E+04  0.18450265518E+04  0.00000000000E+00 0. -1.
         22    1    3    3    0    0  0.23798842052E+02  0.12280495359E+03  0.37619774190E+03  0.39644947032E+03  0.00000000000E+00 0. -1.
         22    1    3    3    0    0 -0.45628631555E+02 -0.30015443973E+01  0.22320797816E+03  0.22784376840E+03  0.00000000000E+00 0. -1.
</event>
<event>
 7    1  0.5537228E-006  0.4493604E+02  0.7818608E-02  0.1585825E+00
          2   -1    0    0  502    0  0.00000000000E+00  0.00000000000E+00  0.66251903078E+03  0.66251903078E+03  0.00000000000E+00 0. -1.
          1   -1    0    0  501    0 -0.00000000000E+00 -0.00000000000E+00 -0.19576060509E+04  0.19576060509E+04  0.00000000000E+00 0. -1.
         25    2    1    2    0    0  0.41306419020E+02  0.13209798385E+02 -0.14199240582E+04  0.14260738312E+04  0.12498608765E+03 0.  0.
          2    1    1    2  501    0 -0.10060643053E+02  0.19089955579E+02 -0.53362315598E+03  0.53405928092E+03  0.00000000000E+00 0. -1.
          1    1    1    2  502    0 -0.31245775967E+02 -0.32299753964E+02  0.65846019407E+03  0.65999196949E+03  0.00000000000E+00 0. -1.
         22    1    3    3    0    0 -0.44281945610E+02 -0.50427598049E+01 -0.44144997868E+03  0.44369404301E+03  0.00000000000E+00 0.  1.
         22    1    3    3    0    0  0.85588364631E+02  0.18252558190E+02 -0.97847407951E+03  0.98237978823E+03  0.00000000000E+00 0.  1.
</event>
<event>
 7    1  0.5537228E-006  0.7708721E+02  0.7818608E-02  0.1371505E+00
          2   -1    0    0  502    0  0.00000000000E+00  0.00000000000E+00  0.13141924152E+03  0.13141924152E+03  0.00000000000E+00 0. -1.
          1   -1    0    0  501    0 -0.00000000000E+00 -0.00000000000E+00 -0.31227376048E+03  0.31227376048E+03  0.00000000000E+00 0. -1.
         25    2    1    2    0    0 -0.39037616826E+02 -0.15555337252E+02 -0.18689685281E+03  0.22873665644E+03  0.12499648140E+03 0.  0.
          2    1    1    2  501    0 -0.35955875282E+02  0.45255185169E+02 -0.78907898967E+02  0.97812643720E+02  0.00000000000E+00 0. -1.
          1    1    1    2  502    0  0.74993492108E+02 -0.29699847917E+02  0.84950232822E+02  0.11714370184E+03  0.00000000000E+00 0. -1.
         22    1    3    3    0    0 -0.34052319941E+02 -0.62484890231E+02 -0.59094541896E+02  0.92499118279E+02  0.00000000000E+00 0.  1.
         22    1    3    3    0    0 -0.49852968850E+01  0.46929552979E+02 -0.12780231092E+03  0.13623753816E+03  0.00000000000E+00 0.  1.
</event>
<event>
 7    1  0.5537228E-006  0.4348449E+02  0.7818608E-02  0.1526106E+00
          2   -1    0    0  502    0  0.00000000000E+00  0.00000000000E+00  0.12932690878E+03  0.12932690878E+03  0.00000000000E+00 0. -1.
          1   -1    0    0  501    0 -0.00000000000E+00 -0.00000000000E+00 -0.25038154175E+03  0.25038154175E+03  0.00000000000E+00 0. -1.
         25    2    1    2    0    0  0.21613714840E+01  0.38131482898E+02  0.53466792153E+02  0.14121847008E+03  0.12500110765E+03 0.  0.
          2    1    1    2  501    0 -0.33354080688E+02 -0.28553116323E+02 -0.19505573452E+03  0.19993627665E+03  0.00000000000E+00 0. -1.
          1    1    1    2  502    0  0.31192709204E+02 -0.95783665749E+01  0.20534309400E+02  0.38553703794E+02  0.00000000000E+00 0. -1.
         22    1    3    3    0    0  0.60459441849E+02 -0.13696898320E+00  0.18628855566E+02  0.63264501333E+02  0.00000000000E+00 0.  1.
         22    1    3    3    0    0 -0.58298070365E+02  0.38268451881E+02  0.34837936587E+02  0.77953968747E+02  0.00000000000E+00 0.  1.
</event>
<event>
 7    1  0.5537228E-006  0.6987531E+02  0.7818608E-02  0.1461432E+00
          2   -1    0    0  502    0  0.00000000000E+00  0.00000000000E+00  0.17411922415E+04  0.17411922415E+04  0.00000000000E+00 0. -1.
          1   -1    0    0  501    0 -0.00000000000E+00 -0.00000000000E+00 -0.22433007793E+03  0.22433007793E+03  0.00000000000E+00 0. -1.
         25    2    1    2    0    0 -0.30310085146E+02 -0.55068452775E+02  0.92398117953E+03  0.93451448209E+03  0.12499944542E+03 0.  0.
          2    1    1    2  501    0  0.21973158743E+01  0.69924146751E+02 -0.21315658280E+03  0.22434336025E+03  0.00000000000E+00 0. -1.
          1    1    1    2  502    0  0.28112769272E+02 -0.14855693976E+02  0.80603756684E+03  0.80666447709E+03  0.00000000000E+00 0. -1.
         22    1    3    3    0    0  0.30200774774E+02 -0.48287251459E+02  0.19925464720E+03  0.20723455282E+03  0.00000000000E+00 0. -1.
         22    1    3    3    0    0 -0.60510859920E+02 -0.67812013164E+01  0.72472653233E+03  0.72727992927E+03  0.00000000000E+00 0. -1.
</event>
<event>
 7    1  0.5537228E-006  0.5495586E+02  0.7818608E-02  0.1444413E+00
          2   -1    0    0  502    0  0.00000000000E+00  0.00000000000E+00  0.45590577641E+03  0.45590577641E+03  0.00000000000E+00 0. -1.
          1   -1    0    0  501    0 -0.00000000000E+00 -0.00000000000E+00 -0.18203385148E+04  0.18203385148E+04  0.00000000000E+00 0. -1.
         25    2    1    2    0    0  0.71044240679E+02 -0.26100733524E+02 -0.64538067710E+02  0.15974783455E+03  0.12500270412E+03 0.  0.
          2    1    1    2  501    0 -0.52575213005E+02 -0.15816317533E+02 -0.17064680066E+04  0.17073509793E+04  0.00000000000E+00 0. -1.
          1    1    1    2  502    0 -0.18469027674E+02  0.41917051057E+02  0.40657333593E+03  0.40914547736E+03  0.00000000000E+00 0. -1.
         22    1    3    3    0    0  0.27524117790E+00 -0.49888787977E+02 -0.68778640256E+02  0.84967454234E+02  0.00000000000E+00 0. -1.
         22    1    3    3    0    0  0.70768999501E+02  0.23788054454E+02  0.42405725459E+01  0.74780380318E+02  0.00000000000E+00 0. -1.
</event>
<event>
 7    1  0.5537228E-006  0.1285749E+03  0.7818608E-02  0.1269916E+00
          2   -1    0    0  502    0  0.00000000000E+00  0.00000000000E+00  0.38365002513E+04  0.38365002513E+04  0.00000000000E+00 0. -1.
          1   -1    0    0  501    0 -0.00000000000E+00 -0.00000000000E+00 -0.19703597652E+02  0.19703597652E+02  0.00000000000E+00 0. -1.
         25    2    1    2    0    0  0.11196601672E+03 -0.33758567166E+02  0.12598423486E+04  0.12714160965E+04  0.12498046791E+03 0.  0.
          2    1    1    2  501    0 -0.12819745143E+03 -0.50611316461E+02  0.34997039183E+03  0.37613211385E+03  0.00000000000E+00 0. -1.
          1    1    1    2  502    0  0.16231434714E+02  0.84369883627E+02  0.22069839133E+04  0.22086556387E+04  0.00000000000E+00 0. -1.
         22    1    3    3    0    0  0.61681578454E+02  0.42146165709E+02  0.72945227868E+03  0.73326771596E+03  0.00000000000E+00 0.  1.
         22    1    3    3    0    0  0.50284438267E+02 -0.75904732875E+02  0.53039006989E+03  0.53814838051E+03  0.00000000000E+00 0.  1.
</event>
<event>
 7    1  0.5537228E-006  0.4191117E+02  0.7818608E-02  0.1597394E+00
          2   -1    0    0  502    0  0.00000000000E+00  0.00000000000E+00  0.37765782921E+03  0.37765782921E+03  0.00000000000E+00 0. -1.
          1   -1    0    0  501    0 -0.00000000000E+00 -0.00000000000E+00 -0.25688498198E+03  0.25688498198E+03  0.00000000000E+00 0. -1.
         25    2    1    2    0    0  0.29832686676E+00 -0.20503707571E+02 -0.16931154853E+03  0.21143761989E+03  0.12497590014E+03 0.  0.
          2    1    1    2  501    0  0.16019856274E+01 -0.21504654616E+02 -0.63483173946E+02  0.67045729934E+02  0.00000000000E+00 0. -1.
          1    1    1    2  502    0 -0.19003124942E+01  0.42008362187E+02  0.35356756971E+03  0.35605946137E+03  0.00000000000E+00 0. -1.
         22    1    3    3    0    0 -0.45131210480E+02  0.51401385899E+01 -0.13897072734E+02  0.47501324346E+02  0.00000000000E+00 0.  1.
         22    1    3    3    0    0  0.45429537347E+02 -0.25643846161E+02 -0.15541447580E+03  0.16393629555E+03  0.00000000000E+00 0.  1.
</event>
<event>
 7    1  0.6016314E-006  0.1076605E+03  0.7818608E-02  0.1297255E+00
          2   -1    0    0  502    0  0.00000000000E+00  0.00000000000E+00  0.79421433067E+03  0.79421433067E+03  0.00000000000E+00 0. -1.
          1   -1    0    0  501    0 -0.00000000000E+00 -0.00000000000E+00 -0.89510423120E+03  0.89510423120E+03  0.00000000000E+00 0. -1.
         25    2    1    2    0    0  0.12054661858E+02  0.11810454568E+03 -0.13674515381E+03  0.22003913106E+03  0.12499593403E+03 0.  0.
          2    1    1    2  501    0  0.61954180151E+02 -0.89848833589E+02 -0.71044874806E+03  0.71878269105E+03  0.00000000000E+00 0. -1.
          1    1    1    2  502    0 -0.74008842010E+02 -0.28255712093E+02  0.74630400135E+03  0.75049673976E+03  0.00000000000E+00 0. -1.
         22    1    3    3    0    0 -0.56378333979E+02  0.46524336560E+02 -0.64116648346E+02  0.97231553673E+02  0.00000000000E+00 0. -1.
         22    1    3    3    0    0  0.68432995837E+02  0.71580209122E+02 -0.72628505464E+02  0.12280757738E+03  0.00000000000E+00 0. -1.
</event>
<event>
 7    1  0.5537228E-006  0.1419806E+03  0.7818608E-02  0.1291861E+00
          2   -1    0    0  502    0  0.00000000000E+00  0.00000000000E+00  0.17425617746E+03  0.17425617746E+03  0.00000000000E+00 0. -1.
          1   -1    0    0  501    0 -0.00000000000E+00 -0.00000000000E+00 -0.97183426688E+03  0.97183426688E+03  0.00000000000E+00 0. -1.
         25    2    1    2    0    0  0.52926896269E+02 -0.16662153486E+03 -0.29853278068E+03  0.36783817849E+03  0.12497644653E+03 0.  0.
          2    1    1    2  501    0  0.25930150591E+01  0.13651035205E+03 -0.62372152460E+03  0.63849067354E+03  0.00000000000E+00 0. -1.
          1    1    1    2  502    0 -0.55519911328E+02  0.30111182815E+02  0.12467621586E+03  0.13976159231E+03  0.00000000000E+00 0. -1.
         22    1    3    3    0    0  0.19168819353E+02 -0.18048778325E+02 -0.15923983313E+03  0.16140175492E+03  0.00000000000E+00 0. -1.
         22    1    3    3    0    0  0.33758076916E+02 -0.14857275654E+03 -0.13929294755E+03  0.20643642358E+03  0.00000000000E+00 0. -1.
</event>
<event>
 7    1  0.5537228E-006  0.1267509E+03  0.7818608E-02  0.1333026E+00
          2   -1    0    0  502    0  0.00000000000E+00  0.00000000000E+00  0.14016110779E+04  0.14016110779E+04  0.00000000000E+00 0. -1.
          1   -1    0    0  501    0 -0.00000000000E+00 -0.00000000000E+00 -0.10516451173E+04  0.10516451173E+04  0.00000000000E+00 0. -1.
         25    2    1    2    0    0 -0.84147051073E+02 -0.33150963390E+02  0.24899251704E+03  0.29291999560E+03  0.12500055079E+03 0.  0.
          2    1    1    2  501    0 -0.47553768395E+02  0.10781211934E+02 -0.10251540325E+04  0.10263130058E+04  0.00000000000E+00 0. -1.
          1    1    1    2  502    0  0.13170081947E+03  0.22369751456E+02  0.11261274761E+04  0.11340231938E+04  0.00000000000E+00 0. -1.
         22    1    3    3    0    0 -0.23128899030E+02 -0.66019418820E+02  0.18801284435E+03  0.20060493332E+03  0.00000000000E+00 0.  1.
         22    1    3    3    0    0 -0.61018152043E+02  0.32868455430E+02  0.60979672693E+02  0.92315062275E+02  0.00000000000E+00 0.  1.
</event>
<event>
 7    1  0.5537228E-006  0.1166224E+03  0.7818608E-02  0.1265989E+00
          2   -1    0    0  502    0  0.00000000000E+00  0.00000000000E+00  0.22439978063E+04  0.22439978063E+04  0.00000000000E+00 0. -1.
          1   -1    0    0  501    0 -0.00000000000E+00 -0.00000000000E+00 -0.19788325338E+04  0.19788325338E+04  0.00000000000E+00 0. -1.
         25    2    1    2    0    0 -0.48192551311E+02 -0.79316315582E+02  0.31628370604E+03  0.35252467450E+03  0.12499865401E+03 0.  0.
          2    1    1    2  501    0 -0.46090805794E+02  0.10748355134E+03 -0.19576982248E+04  0.19611882662E+04  0.00000000000E+00 0. -1.
          1    1    1    2  502    0  0.94283357105E+02 -0.28167235755E+02  0.19065797912E+04  0.19091173995E+04  0.00000000000E+00 0. -1.
         22    1    3    3    0    0  0.16535259236E+02 -0.15252166514E+02 -0.91214977911E+00  0.22513893457E+02  0.00000000000E+00 0.  1.
         22    1    3    3    0    0 -0.64727810547E+02 -0.64064149068E+02  0.31719585582E+03  0.33001078104E+03  0.00000000000E+00 0.  1.
</event>
<event>
 7    1  0.5537228E-006  0.5872077E+02  0.7818608E-02  0.1458317E+00
          2   -1    0    0  502    0  0.00000000000E+00  0.00000000000E+00  0.12173221378E+04  0.12173221378E+04  0.00000000000E+00 0. -1.
          1   -1    0    0  501    0 -0.00000000000E+00 -0.00000000000E+00 -0.43381032608E+02  0.43381032608E+02  0.00000000000E+00 0. -1.
         25    2    1    2    0    0  0.25445591232E+02  0.10887981097E+02  0.28156676975E+03  0.30930755539E+03  0.12500116699E+03 0.  0.
          2    1    1    2  501    0 -0.42932345529E+02 -0.45414696587E+02  0.44774540140E+01  0.62655634648E+02  0.00000000000E+00 0. -1.
          1    1    1    2  502    0  0.17486754296E+02  0.34526715490E+02  0.88789688145E+03  0.88873998039E+03  0.00000000000E+00 0. -1.
         22    1    3    3    0    0 -0.40453033460E+02  0.31882113336E+02  0.17367226496E+03  0.18114903446E+03  0.00000000000E+00 0. -1.
         22    1    3    3    0    0  0.65898624693E+02 -0.20994132239E+02  0.10789450479E+03  0.12815852094E+03  0.00000000000E+00 0. -1.
</event>
<event>
 7    1  0.5537228E-006  0.1558233E+03  0.7818608E-02  0.1384904E+00
          2   -1    0    0  502    0  0.00000000000E+00  0.00000000000E+00  0.10090873403E+04  0.10090873403E+04  0.00000000000E+00 0. -1.
          1   -1    0    0  501    0 -0.00000000000E+00 -0.00000000000E+00 -0.23053823272E+03  0.23053823272E+03  0.00000000000E+00 0. -1.
         25    2    1    2    0    0  0.16900187114E+03  0.44222607647E+02  0.78678573442E+03  0.81558216413E+03  0.12500081233E+03 0.  0.
          2    1    1    2  501    0 -0.14541053292E+03 -0.54231572673E+02 -0.18725097985E+03  0.24320406250E+03  0.00000000000E+00 0. -1.
          1    1    1    2  502    0 -0.23591338212E+02  0.10008965026E+02  0.17901435304E+03  0.18083934643E+03  0.00000000000E+00 0. -1.
         22    1    3    3    0    0  0.16218972305E+03 -0.71797969404E+01  0.56889698454E+03  0.59160868382E+03  0.00000000000E+00 0.  1.
         22    1    3    3    0    0  0.68121480848E+01  0.51402404587E+02  0.21788874988E+03  0.22397348031E+03  0.00000000000E+00 0.  1.
</event>
<event>
 7    1  0.5537228E-006  0.2291120E+03  0.7818608E-02  0.1301426E+00
          2   -1    0    0  502    0  0.00000000000E+00  0.00000000000E+00  0.67935376732E+03  0.67935376732E+03  0.00000000000E+00 0. -1.
          1   -1    0    0  501    0 -0.00000000000E+00 -0.00000000000E+00 -0.24777484731E+03  0.24777484731E+03  0.00000000000E+00 0. -1.
         25    2    1    2    0    0 -0.18223687036E+03  0.12769874843E+03  0.43949803056E+03  0.50823322979E+03  0.12500099892E+03 0.  0.
          2    1    1    2  501    0  0.20670447751E+03 -0.10153775866E+03 -0.14836713479E+03  0.27395157263E+03  0.00000000000E+00 0. -1.
          1    1    1    2  502    0 -0.24467607156E+02 -0.26160989761E+02  0.14044802424E+03  0.14494381221E+03  0.00000000000E+00 0. -1.
         22    1    3    3    0    0  0.33354198639E+01 -0.10183405834E+02  0.80660363733E+02  0.81369042379E+02  0.00000000000E+00 0. -1.
         22    1    3    3    0    0 -0.18557229022E+03  0.13788215426E+03  0.35883766682E+03  0.42686418741E+03  0.00000000000E+00 0. -1.
</event>
<event>
 7    1  0.5537228E-006  0.4999519E+02  0.7818608E-02  0.1454263E+00
          2   -1    0    0  502    0  0.00000000000E+00  0.00000000000E+00  0.88822514370E+02  0.88822514370E+02  0.00000000000E+00 0. -1.
          1   -1    0    0  501    0 -0.00000000000E+00 -0.00000000000E+00 -0.42256283676E+03  0.42256283676E+03  0.00000000000E+00 0. -1.
         25    2    1    2    0    0  0.11822152600E+02 -0.83413842249E+01 -0.23739243649E+03  0.26868108510E+03  0.12500005842E+03 0.  0.
          2    1    1    2  501    0  0.33931770496E+02  0.32265098459E+02 -0.15654539332E+03  0.16339786350E+03  0.00000000000E+00 0. -1.
          1    1    1    2  502    0 -0.45753923097E+02 -0.23923714234E+02  0.60197507422E+02  0.79306402524E+02  0.00000000000E+00 0. -1.
         22    1    3    3    0    0 -0.16305259198E+02 -0.21114959395E+02 -0.23626723258E+03  0.23776860217E+03  0.00000000000E+00 0. -1.
         22    1    3    3    0    0  0.28127411799E+02  0.12773575170E+02 -0.11252039136E+01  0.30912482931E+02  0.00000000000E+00 0. -1.
</event>
<event>
 7    1  0.5537228E-006  0.1150925E+03  0.7818608E-02  0.1397289E+00
          2   -1    0    0  502    0  0.00000000000E+00  0.00000000000E+00  0.67739271348E+03  0.67739271348E+03  0.00000000000E+00 0. -1.
          1   -1    0    0  501    0 -0.00000000000E+00 -0.00000000000E+00 -0.56349648801E+03  0.56349648801E+03  0.00000000000E+00 0. -1.
         25    2    1    2    0    0  0.57406502646E+02  0.63746095940E+02 -0.38093726388E+03  0.40999647995E+03  0.12499937308E+03 0.  0.
          2    1    1    2  501    0  0.10608664801E+02  0.29568873552E+02 -0.16147556802E+03  0.16450295171E+03  0.00000000000E+00 0. -1.
          1    1    1    2  502    0 -0.68015167447E+02 -0.93314969492E+02  0.65630905738E+03  0.66638976982E+03  0.00000000000E+00 0. -1.
         22    1    3    3    0    0  0.35459850894E+02  0.57640089870E+02 -0.66987569026E+02  0.95221401952E+02  0.00000000000E+00 0. -1.
         22    1    3    3    0    0  0.21946651751E+02  0.61060060694E+01 -0.31394969485E+03  0.31477507800E+03  0.00000000000E+00 0. -1.
</event>
<event>
 7    1  0.5537228E-006  0.4722683E+02  0.7818608E-02  0.1528700E+00
          2   -1    0    0  502    0  0.00000000000E+00  0.00000000000E+00  0.16394281620E+04  0.16394281620E+04  0.00000000000E+00 0. -1.
          1   -1    0    0  501    0 -0.00000000000E+00 -0.00000000000E+00 -0.28516105529E+03  0.28516105529E+03  0.00000000000E+00 0. -1.
         25    2    1    2    0    0 -0.62942976831E+02 -0.23634654026E+02 -0.13212820966E+03  0.19391611255E+03  0.12500071887E+03 0.  0.
          2    1    1    2  501    0  0.33997839480E+02  0.29497622828E+02 -0.11785152435E+03  0.12615444754E+03  0.00000000000E+00 0. -1.
          1    1    1    2  502    0  0.28945137351E+02 -0.58629688018E+01  0.16042468407E+04  0.16045186572E+04  0.00000000000E+00 0. -1.
         22    1    3    3    0    0 -0.30056606597E+02  0.51402461290E+01 -0.14515066988E+03  0.14831904361E+03  0.00000000000E+00 0. -1.
         22    1    3    3    0    0 -0.32886370234E+02 -0.28774900155E+02  0.13022460222E+02  0.45597068945E+02  0.00000000000E+00 0. -1.
</event>
<event>
 7    1  0.5537228E-006  0.1297025E+03  0.7818608E-02  0.1296243E+00
          2   -1    0    0  502    0  0.00000000000E+00  0.00000000000E+00  0.30773781747E+03  0.30773781747E+03  0.00000000000E+00 0. -1.
          1   -1    0    0  501    0 -0.00000000000E+00 -0.00000000000E+00 -0.17146141365E+03  0.17146141365E+03  0.00000000000E+00 0. -1.
         25    2    1    2    0    0 -0.11887178035E+02 -0.11360733440E+03  0.22551788919E+01  0.16934387074E+03  0.12499731715E+03 0.  0.
          2    1    1    2  501    0 -0.66368886835E+02  0.98303518709E+00 -0.48027870342E+02  0.81929676110E+02  0.00000000000E+00 0. -1.
          1    1    1    2  502    0  0.78256064870E+02  0.11262429921E+03  0.18204909527E+03  0.22792568427E+03  0.00000000000E+00 0. -1.
         22    1    3    3    0    0 -0.57184563761E+02 -0.10450265169E+03 -0.14910166131E+02  0.12005495241E+03  0.00000000000E+00 0. -1.
         22    1    3    3    0    0  0.45297385725E+02 -0.91046827073E+01  0.17165345023E+02  0.49288918333E+02  0.00000000000E+00 0. -1.
</event>
<event>
 7    1  0.5537228E-006  0.1819880E+03  0.7818608E-02  0.1184352E+00
          2   -1    0    0  502    0  0.00000000000E+00  0.00000000000E+00  0.14522174956E+04  0.14522174956E+04  0.00000000000E+00 0. -1.
          1   -1    0    0  501    0 -0.00000000000E+00 -0.00000000000E+00 -0.11275552160E+04  0.11275552160E+04  0.00000000000E+00 0. -1.
         25    2    1    2    0    0 -0.50988398196E+02  0.22864862851E+03 -0.43707708173E+03  0.51141163202E+03  0.12500187968E+03 0.  0.
          2    1    1    2  501    0  0.13887106221E+03 -0.11003038918E+03 -0.63734292500E+03  0.66151180073E+03  0.00000000000E+00 0. -1.
          1    1    1    2  502    0 -0.87882664018E+02 -0.11861823933E+03  0.13990822863E+04  0.14068492788E+04  0.00000000000E+00 0. -1.
         22    1    3    3    0    0  0.33879265201E+02  0.12858018991E+03 -0.19423190133E+03  0.23538628113E+03  0.00000000000E+00 0.  1.
         22    1    3    3    0    0 -0.84867663397E+02  0.10006843860E+03 -0.24284518040E+03  0.27602535090E+03  0.00000000000E+00 0.  1.
</event>
<event>
 7    1  0.8353794E-006  0.8853208E+02  0.7818608E-02  0.1388355E+00
          2   -1    0    0  502    0  0.00000000000E+00  0.00000000000E+00  0.12815205022E+04  0.12815205022E+04  0.00000000000E+00 0. -1.
          1   -1    0    0  501    0 -0.00000000000E+00 -0.00000000000E+00 -0.79601682227E+03  0.79601682227E+03  0.00000000000E+00 0. -1.
         25    2    1    2    0    0 -0.14671297522E+02 -0.69486118541E+02 -0.16850636334E+03  0.22150196159E+03  0.12500062745E+03 0.  0.
          2    1    1    2  501    0  0.41140150991E+02 -0.15220383341E+02 -0.59864031798E+03  0.60024528520E+03  0.00000000000E+00 0. -1.
          1    1    1    2  502    0 -0.26468853469E+02  0.84706501882E+02  0.12526503612E+04  0.12557900777E+04  0.00000000000E+00 0. -1.
         22    1    3    3    0    0  0.38892005909E+02  0.13079875189E+02 -0.76324845597E+02  0.86655370947E+02  0.00000000000E+00 0.  1.
         22    1    3    3    0    0 -0.53563303430E+02 -0.82565993730E+02 -0.92181517740E+02  0.13484659064E+03  0.00000000000E+00 0.  1.
</event>
<event>
 7    1  0.5537228E-006  0.2520474E+03  0.7818608E-02  0.1218667E+00
          2   -1    0    0  502    0  0.00000000000E+00  0.00000000000E+00  0.43756316293E+03  0.43756316293E+03  0.00000000000E+00 0. -1.
          1   -1    0    0  501    0 -0.00000000000E+00 -0.00000000000E+00 -0.11523695193E+04  0.11523695193E+04  0.00000000000E+00 0. -1.
         25    2    1    2    0    0  0.30981346561E+03  0.76983927325E+02 -0.46653254324E+01  0.34285716054E+03  0.12497343209E+03 0.  0.
          2    1    1    2  501    0 -0.23762189289E+03 -0.63190883987E+02 -0.95773971886E+03  0.98879857448E+03  0.00000000000E+00 0. -1.
          1    1    1    2  502    0 -0.72191572723E+02 -0.13793043338E+02  0.24759868791E+03  0.25827694723E+03  0.00000000000E+00 0. -1.
         22    1    3    3    0    0  0.25747406150E+03  0.25371888507E+02 -0.39144829382E+02  0.26166570799E+03  0.00000000000E+00 0.  1.
         22    1    3    3    0    0  0.52339404115E+02  0.51612038818E+02  0.34479503950E+02  0.81191452547E+02  0.00000000000E+00 0.  1.
</event>
<event>
 7    1  0.5537228E-006  0.1090127E+03  0.7818608E-02  0.1396664E+00
          2   -1    0    0  502    0  0.00000000000E+00  0.00000000000E+00  0.17044463215E+04  0.17044463215E+04  0.00000000000E+00 0. -1.
          1   -1    0    0  501    0 -0.00000000000E+00 -0.00000000000E+00 -0.24514454147E+02  0.24514454147E+02  0.00000000000E+00 0. -1.
         25    2    1    2    0    0  0.13015532356E+03  0.34974943776E+02  0.60813482578E+03  0.63531001611E+03  0.12500878087E+03 0.  0.
          2    1    1    2  501    0 -0.33174411687E+02  0.32343802810E+01  0.24971177789E+02  0.41648079508E+02  0.00000000000E+00 0. -1.
          1    1    1    2  502    0 -0.96980911873E+02 -0.38209324057E+02  0.10468258637E+04  0.10520026800E+04  0.00000000000E+00 0. -1.
         22    1    3    3    0    0  0.14843600569E+03  0.30499069841E+02  0.42494552167E+03  0.45115644452E+03  0.00000000000E+00 0. -1.
         22    1    3    3    0    0 -0.18280682129E+02  0.44758739354E+01  0.18318930411E+03  0.18415357158E+03  0.00000000000E+00 0. -1.
</event>
<event>
 7    1  0.5537228E-006  0.1333167E+03  0.7818608E-02  0.1247634E+00
          2   -1    0    0  502    0  0.00000000000E+00  0.00000000000E+00  0.80184253145E+02  0.80184253145E+02  0.00000000000E+00 0. -1.
          1   -1    0    0  501    0 -0.00000000000E+00 -0.00000000000E+00 -0.30102652180E+04  0.30102652180E+04  0.00000000000E+00 0. -1.
         25    2    1    2    0    0 -0.15746058623E+01  0.88405320142E+02 -0.72896664605E+03  0.74487277944E+03  0.12500042593E+03 0.  0.
          2    1    1    2  501    0  0.10285370947E+03  0.83479518683E+01 -0.22030808651E+04  0.22054962870E+04  0.00000000000E+00 0. -1.
          1    1    1    2  502    0 -0.10127910360E+03 -0.96753272010E+02  0.19665463087E+01  0.14008040468E+03  0.00000000000E+00 0. -1.
         22    1    3    3    0    0 -0.41760772510E+02  0.74867389345E+02 -0.25523665793E+03  0.26924865767E+03  0.00000000000E+00 0. -1.
         22    1    3    3    0    0  0.40186166647E+02  0.13537930797E+02 -0.47372998813E+03  0.47562412177E+03  0.00000000000E+00 0. -1.
</event>
<event>
 7    1  0.5537228E-006  0.6933305E+02  0.7818608E-02  0.1385900E+00
          2   -1    0    0  502    0  0.00000000000E+00  0.00000000000E+00  0.14304337052E+04  0.14304337052E+04  0.00000000000E+00 0. -1.
          1   -1    0    0  501    0 -0.00000000000E+00 -0.00000000000E+00 -0.88660906157E+03  0.88660906157E+03  0.00000000000E+00 0. -1.
         25    2    1    2    0    0 -0.33185734582E+02 -0.11915877584E+03  0.89857572097E+02  0.19748309639E+03  0.12500033303E+03 0.  0.
          2    1    1    2  501    0  0.25430219911E+02  0.51161224267E+02 -0.83090465160E+03  0.83286656014E+03  0.00000000000E+00 0. -1.
          1    1    1    2  502    0  0.77555146705E+01  0.67997551577E+02  0.12848717232E+04  0.12866931103E+04  0.00000000000E+00 0. -1.
         22    1    3    3    0    0  0.24056987603E+02 -0.10719107790E+03  0.84809680928E+02  0.13878525791E+03  0.00000000000E+00 0. -1.
         22    1    3    3    0    0 -0.57242722185E+02 -0.11967697946E+02  0.50478911685E+01  0.58697838482E+02  0.00000000000E+00 0. -1.
</event>
<event>
 7    1  0.5537228E-006  0.2324577E+03  0.7818608E-02  0.1200253E+00
          2   -1    0    0  502    0  0.00000000000E+00  0.00000000000E+00  0.13358793517E+04  0.13358793517E+04  0.00000000000E+00 0. -1.
          1   -1    0    0  501    0 -0.00000000000E+00 -0.00000000000E+00 -0.45758584066E+03  0.45758584066E+03  0.00000000000E+00 0. -1.
         25    2    1    2    0    0  0.14695395689E+03 -0.96608001681E+02  0.34023545026E+03  0.40287915238E+03  0.12499151319E+03 0.  0.
          2    1    1    2  501    0  0.96020092574E+02 -0.13915596997E+02 -0.40190814589E+03  0.41345333443E+03  0.00000000000E+00 0. -1.
          1    1    1    2  502    0 -0.24297404947E+03  0.11052359868E+03  0.93996620665E+03  0.97713270553E+03  0.00000000000E+00 0. -1.
         22    1    3    3    0    0  0.12955548448E+03 -0.11823126293E+03  0.32920515682E+03  0.37301379381E+03  0.00000000000E+00 0. -1.
         22    1    3    3    0    0  0.17398472408E+02  0.21623261247E+02  0.11030293442E+02  0.29865358569E+02  0.00000000000E+00 0. -1.
</event>
<event>
 7    1  0.5537228E-006  0.9307945E+02  0.7818608E-02  0.1446890E+00
          2   -1    0    0  502    0  0.00000000000E+00  0.00000000000E+00  0.85886159752E+03  0.85886159752E+03  0.00000000000E+00 0. -1.
          1   -1    0    0  501    0 -0.00000000000E+00 -0.00000000000E+00 -0.77962397258E+02  0.77962397258E+02  0.00000000000E+00 0. -1.
         25    2    1    2    0    0  0.88979566864E+02  0.71763240471E+02  0.38053246801E+03  0.41653159339E+03  0.12500513221E+03 0.  0.
          2    1    1    2  501    0 -0.77871211922E+02 -0.47646151476E+02 -0.24559782055E+02  0.94537105368E+02  0.00000000000E+00 0. -1.
          1    1    1    2  502    0 -0.11108354941E+02 -0.24117088995E+02  0.42492651431E+03  0.42575529602E+03  0.00000000000E+00 0. -1.
         22    1    3    3    0    0 -0.11706643803E+02 -0.20146703428E+02  0.12253298765E+03  0.12472877868E+03  0.00000000000E+00 0.  1.
         22    1    3    3    0    0  0.10068621067E+03  0.91909943900E+02  0.25799948036E+03  0.29180281471E+03  0.00000000000E+00 0.  1.
</event>
<event>
 7    1  0.5537228E-006  0.9878657E+02  0.7818608E-02  0.1450576E+00
          2   -1    0    0  502    0  0.00000000000E+00  0.00000000000E+00  0.11013500029E+04  0.11013500029E+04  0.00000000000E+00 0. -1.
          1   -1    0    0  501    0 -0.00000000000E+00 -0.00000000000E+00 -0.29312466064E+03  0.29312466064E+03  0.00000000000E+00 0. -1.
         25    2    1    2    0    0 -0.80912271858E+02 -0.59505299526E+02  0.47737257504E+03  0.50358488524E+03  0.12500193932E+03 0.  0.
          2    1    1    2  501    0  0.17730224284E+02 -0.16685685619E+02 -0.27546860460E+03  0.27654244715E+03  0.00000000000E+00 0. -1.
          1    1    1    2  502    0  0.63182047574E+02  0.76190985145E+02  0.60632137184E+03  0.61434733116E+03  0.00000000000E+00 0. -1.
         22    1    3    3    0    0 -0.95693581309E+02 -0.78554221203E+02  0.45172264195E+03  0.46838165253E+03  0.00000000000E+00 0. -1.
         22    1    3    3    0    0  0.14781309450E+02  0.19048921676E+02  0.25649933087E+02  0.35203232713E+02  0.00000000000E+00 0. -1.
</event>
<event>
 7    1  0.5537228E-006  0.1379344E+03  0.7818608E-02  0.1283735E+00
          2   -1    0    0  502    0  0.00000000000E+00  0.00000000000E+00  0.25611084847E+03  0.25611084847E+03  0.00000000000E+00 0. -1.
          1   -1    0    0  501    0 -0.00000000000E+00 -0.00000000000E+00 -0.17314661868E+04  0.17314661868E+04  0.00000000000E+00 0. -1.
         25    2    1    2    0    0 -0.14988164288E+03 -0.83595796763E+01 -0.94884384210E+02  0.21716858904E+03  0.12499904101E+03 0.  0.
          2    1    1    2  501    0  0.24062267847E+02  0.65917162601E+02 -0.15499988110E+04  0.15515864072E+04  0.00000000000E+00 0. -1.
          1    1    1    2  502    0  0.12581937503E+03 -0.57557582925E+02  0.16952785689E+03  0.21882203899E+03  0.00000000000E+00 0. -1.
         22    1    3    3    0    0 -0.16261437663E+03 -0.34423855713E+02 -0.78064880126E+02  0.18363704103E+03  0.00000000000E+00 0.  1.
         22    1    3    3    0    0  0.12732733751E+02  0.26064276037E+02 -0.16819504084E+02  0.33531548007E+02  0.00000000000E+00 0.  1.
</event>
<event>
 7    1  0.5537228E-006  0.8595378E+02  0.7818608E-02  0.1418762E+00
          2   -1    0    0  502    0  0.00000000000E+00  0.00000000000E+00  0.20362829209E+04  0.20362829209E+04  0.00000000000E+00 0. -1.
          1   -1    0    0  501    0 -0.00000000000E+00 -0.00000000000E+00 -0.79780889579E+03  0.79780889579E+03  0.00000000000E+00 0. -1.
         25    2    1    2    0    0  0.56201689442E+01  0.89512812279E+02  0.15097951611E+04  0.15176123056E+04  0.12498620697E+03 0.  0.
          2    1    1    2  501    0  0.28892689732E+02 -0.80957996127E+02 -0.79096418845E+03  0.79562134968E+03  0.00000000000E+00 0. -1.
          1    1    1    2  502    0 -0.34512858676E+02 -0.85548161522E+01  0.51964305246E+03  0.52085816136E+03  0.00000000000E+00 0. -1.
         22    1    3    3    0    0  0.37236384446E+01 -0.14281372451E+02  0.81230125702E+03  0.81243532372E+03  0.00000000000E+00 0.  1.
         22    1    3    3    0    0  0.18965304996E+01  0.10379418473E+03  0.69749390404E+03  0.70517698189E+03  0.00000000000E+00 0.  1.
</event>
<event>
 7    1  0.5537228E-006  0.1253741E+03  0.7818608E-02  0.1310297E+00
          2   -1    0    0  502    0  0.00000000000E+00  0.00000000000E+00  0.13092420798E+04  0.13092420798E+04  0.00000000000E+00 0. -1.
          1   -1    0    0  501    0 -0.00000000000E+00 -0.00000000000E+00 -0.27446151257E+03  0.27446151257E+03  0.00000000000E+00 0. -1.
         25    2    1    2    0    0  0.69837144507E+02 -0.63445083274E+01  0.22949080176E+02  0.14515538721E+03  0.12500378641E+03 0.  0.
          2    1    1    2  501    0  0.58307909093E+02  0.15620887270E+02 -0.20563975545E+03  0.21431643288E+03  0.00000000000E+00 0. -1.
          1    1    1    2  502    0 -0.12814505360E+03 -0.92763789423E+01  0.12174712425E+04  0.12242317722E+04  0.00000000000E+00 0. -1.
         22    1    3    3    0    0  0.40858299627E+02 -0.37720757912E+02 -0.40413024699E+02  0.68742045294E+02  0.00000000000E+00 0. -1.
         22    1    3    3    0    0  0.28978844880E+02  0.31376249585E+02  0.63362104875E+02  0.76413341916E+02  0.00000000000E+00 0. -1.
</event>
<event>
 7    1  0.5537228E-006  0.1268867E+03  0.7818608E-02  0.1392018E+00
          2   -1    0    0  502    0  0.00000000000E+00  0.00000000000E+00  0.71520807758E+03  0.71520807758E+03  0.00000000000E+00 0. -1.
          1   -1    0    0  501    0 -0.00000000000E+00 -0.00000000000E+00 -0.18354815344E+04  0.18354815344E+04  0.00000000000E+00 0. -1.
         25    2    1    2    0    0  0.14246189937E+03 -0.15395174722E+02 -0.99393378077E+01  0.19041083832E+03  0.12500037095E+03 0.  0.
          2    1    1    2  501    0 -0.12123816193E+03  0.36197556530E+02 -0.17326450175E+04  0.17372586772E+04  0.00000000000E+00 0. -1.
          1    1    1    2  502    0 -0.21223737441E+02 -0.20802381808E+02  0.62231089850E+03  0.62302009640E+03  0.00000000000E+00 0. -1.
         22    1    3    3    0    0  0.14567267709E+03 -0.17441843135E+02  0.30452231330E+02  0.14984019866E+03  0.00000000000E+00 0.  1.
         22    1    3    3    0    0 -0.32107777169E+01  0.20466684125E+01 -0.40391569137E+02  0.40570639661E+02  0.00000000000E+00 0.  1.
</event>
<event>
 7    1  0.5537228E-006  0.1353310E+03  0.7818608E-02  0.1353019E+00
          2   -1    0    0  502    0  0.00000000000E+00  0.00000000000E+00  0.85354435142E+02  0.85354435142E+02  0.00000000000E+00 0. -1.
          1   -1    0    0  501    0 -0.00000000000E+00 -0.00000000000E+00 -0.17205571326E+04  0.17205571326E+04  0.00000000000E+00 0. -1.
         25    2    1    2    0    0  0.13530922707E+03 -0.42094466851E+02 -0.82342045618E+02  0.20612225164E+03  0.12500255627E+03 0.  0.
          2    1    1    2  501    0 -0.11343013564E+03  0.73696845942E+02 -0.15553977530E+04  0.15612686478E+04  0.00000000000E+00 0. -1.
          1    1    1    2  502    0 -0.21879091431E+02 -0.31602379091E+02  0.25371010771E+01  0.38520668321E+02  0.00000000000E+00 0. -1.
         22    1    3    3    0    0  0.52602721559E+01 -0.44372510830E+02  0.11011181787E+02  0.46019955507E+02  0.00000000000E+00 0.  1.
         22    1    3    3    0    0  0.13004895492E+03  0.22780439786E+01 -0.93353227405E+02  0.16010229613E+03  0.00000000000E+00 0.  1.
</event>
<event>
 7    1  0.5537228E-006  0.7916888E+02  0.7818608E-02  0.1418051E+00
          2   -1    0    0  502    0  0.00000000000E+00  0.00000000000E+00  0.22092216391E+03  0.22092216391E+03  0.00000000000E+00 0. -1.
          1   -1    0    0  501    0 -0.00000000000E+00 -0.00000000000E+00 -0.36954614599E+03  0.36954614599E+03  0.00000000000E+00 0. -1.
         25    2    1    2    0    0 -0.39779458675E+02 -0.15027058922E+02  0.61318267561E+02  0.14557885122E+03  0.12500021661E+03 0.  0.
          2    1    1    2  501    0  0.72821705504E+02  0.35397266699E+02 -0.31900745006E+03  0.32912265263E+03  0.00000000000E+00 0. -1.
          1    1    1    2  502    0 -0.33042246828E+02 -0.20370207777E+02  0.10906520042E+03  0.11576680605E+03  0.00000000000E+00 0. -1.
         22    1    3    3    0    0 -0.59462991187E+02  0.13805701995E+02 -0.13941343420E+02  0.62616338003E+02  0.00000000000E+00 0. -1.
         22    1    3    3    0    0  0.19683532512E+02 -0.28832760916E+02  0.75259610981E+02  0.82962513217E+02  0.00000000000E+00 0. -1.
</event>
<event>
 7    1  0.5537228E-006  0.8331459E+02  0.7818608E-02  0.1327505E+00
          2   -1    0    0  502    0  0.00000000000E+00  0.00000000000E+00  0.10896571262E+04  0.10896571262E+04  0.00000000000E+00 0. -1.
          1   -1    0    0  501    0 -0.00000000000E+00 -0.00000000000E+00 -0.58057042234E+02  0.58057042234E+02  0.00000000000E+00 0. -1.
         25    2    1    2    0    0 -0.29229817886E+02  0.59764640463E+01  0.10506971825E+03  0.16599272826E+03  0.12499535898E+03 0.  0.
          2    1    1    2  501    0  0.18436740006E+01  0.77850681961E+02  0.34212787442E+02  0.85056702500E+02  0.00000000000E+00 0. -1.
          1    1    1    2  502    0  0.27386143886E+02 -0.83827146007E+02  0.89231757829E+03  0.89666473768E+03  0.00000000000E+00 0. -1.
         22    1    3    3    0    0  0.30213095294E+00 -0.40504078975E+02 -0.70172154827E+01  0.41108551542E+02  0.00000000000E+00 0.  1.
         22    1    3    3    0    0 -0.29531948839E+02  0.46480543021E+02  0.11208693373E+03  0.12488417672E+03  0.00000000000E+00 0.  1.
</event>
<event>
 7    1  0.5537228E-006  0.4876309E+02  0.7818608E-02  0.1453486E+00
          2   -1    0    0  502    0  0.00000000000E+00  0.00000000000E+00  0.14383026448E+03  0.14383026448E+03  0.00000000000E+00 0. -1.
          1   -1    0    0  501    0 -0.00000000000E+00 -0.00000000000E+00 -0.10772049545E+03  0.10772049545E+03  0.00000000000E+00 0. -1.
         25    2    1    2    0    0  0.27451721764E+02 -0.50967244098E+02  0.89582638425E+01  0.13801918847E+03  0.12497115226E+03 0.  0.
          2    1    1    2  501    0 -0.48053436072E+02  0.46736454452E+01 -0.11703340576E+02  0.49678404370E+02  0.00000000000E+00 0. -1.
          1    1    1    2  502    0  0.20601714308E+02  0.46293598652E+02  0.38854845756E+02  0.63853167089E+02  0.00000000000E+00 0. -1.
         22    1    3    3    0    0 -0.17640803785E+02 -0.49623157417E+02 -0.43874531941E+02  0.68546555444E+02  0.00000000000E+00 0.  1.
         22    1    3    3    0    0  0.45092525549E+02 -0.13440866804E+01  0.52832795783E+02  0.69472633027E+02  0.00000000000E+00 0.  1.
</event>
<event>
 7    1  0.5537228E-006  0.4633194E+02  0.7818608E-02  0.1522006E+00
          2   -1    0    0  502    0  0.00000000000E+00  0.00000000000E+00  0.60910209061E+02  0.60910209061E+02  0.00000000000E+00 0. -1.
          1   -1    0    0  501    0 -0.00000000000E+00 -0.00000000000E+00 -0.78763504276E+03  0.78763504276E+03  0.00000000000E+00 0. -1.
         25    2    1    2    0    0 -0.15673005994E+02  0.71099597428E+02 -0.13853851555E+03  0.20029682076E+03  0.12500040098E+03 0.  0.
          2    1    1    2  501    0  0.15889041311E+02 -0.27165806537E+02 -0.60151427584E+03  0.60233700428E+03  0.00000000000E+00 0. -1.
          1    1    1    2  502    0 -0.21603531742E+00 -0.43933790890E+02  0.13327957689E+02  0.45911426785E+02  0.00000000000E+00 0. -1.
         22    1    3    3    0    0  0.26080760879E+02  0.81979311034E+02 -0.13065616686E+03  0.15643480260E+03  0.00000000000E+00 0.  1.
         22    1    3    3    0    0 -0.41753766872E+02 -0.10879713607E+02 -0.78823486840E+01  0.43862018159E+02  0.00000000000E+00 0.  1.
</event>
<event>
 7    1  0.5537228E-006  0.1639786E+03  0.7818608E-02  0.1211340E+00
          2   -1    0    0  502    0  0.00000000000E+00  0.00000000000E+00  0.13691816350E+04  0.13691816350E+04  0.00000000000E+00 0. -1.
          1   -1    0    0  501    0 -0.00000000000E+00 -0.00000000000E+00 -0.75225177802E+02  0.75225177802E+02  0.00000000000E+00 0. -1.
         25    2    1    2    0    0  0.62140135488E+01 -0.55384868998E+02  0.25213810751E+03  0.28688762990E+03  0.12499915702E+03 0.  0.
          2    1    1    2  501    0  0.15460398707E+03  0.87424685654E+02  0.10472355545E+03  0.20618557550E+03  0.00000000000E+00 0. -1.
          1    1    1    2  502    0 -0.16081800062E+03 -0.32039816656E+02  0.93709479424E+03  0.95133360740E+03  0.00000000000E+00 0. -1.
         22    1    3    3    0    0  0.81633236227E+01  0.36762873478E+01 -0.12699083289E+02  0.15537749439E+02  0.00000000000E+00 0.  1.
         22    1    3    3    0    0 -0.19493100739E+01 -0.59061156346E+02  0.26483719080E+03  0.27134988046E+03  0.00000000000E+00 0.  1.
</event>
<event>
 7    1  0.5537228E-006  0.7005578E+02  0.7818608E-02  0.1464362E+00
          2   -1    0    0  502    0  0.00000000000E+00  0.00000000000E+00  0.22665458404E+03  0.22665458404E+03  0.00000000000E+00 0. -1.
          1   -1    0    0  501    0 -0.00000000000E+00 -0.00000000000E+00 -0.43605710658E+03  0.43605710658E+03  0.00000000000E+00 0. -1.
         25    2    1    2    0    0 -0.20002434377E+02 -0.36192155937E+02 -0.30533255090E+02  0.13516731059E+03  0.12501181006E+03 0.  0.
          2    1    1    2  501    0  0.29705956664E+02  0.65686294809E+02 -0.34810113466E+03  0.35548773979E+03  0.00000000000E+00 0. -1.
          1    1    1    2  502    0 -0.97035222867E+01 -0.29494138871E+02  0.16923186721E+03  0.17205664024E+03  0.00000000000E+00 0. -1.
         22    1    3    3    0    0  0.21713086700E+02 -0.19800269121E+02  0.41186154850E+02  0.50594546570E+02  0.00000000000E+00 0.  1.
         22    1    3    3    0    0 -0.41715521077E+02 -0.16391886817E+02 -0.71719409940E+02  0.84572764021E+02  0.00000000000E+00 0.  1.
</event>
<event>
 7    1  0.5537228E-006  0.9295870E+02  0.7818608E-02  0.1345488E+00
          2   -1    0    0  502    0  0.00000000000E+00  0.00000000000E+00  0.36370517668E+03  0.36370517668E+03  0.00000000000E+00 0. -1.
          1   -1    0    0  501    0 -0.00000000000E+00 -0.00000000000E+00 -0.21436143162E+03  0.21436143162E+03  0.00000000000E+00 0. -1.
         25    2    1    2    0    0  0.13474343634E+03 -0.37024991172E+02  0.14095179121E+03  0.23456198612E+03  0.12500109712E+03 0.  0.
          2    1    1    2  501    0 -0.90165900167E+02 -0.26481699561E+01 -0.14955926616E+03  0.17465645265E+03  0.00000000000E+00 0. -1.
          1    1    1    2  502    0 -0.44577536173E+02  0.39673161128E+02  0.15795122003E+03  0.16884816953E+03  0.00000000000E+00 0. -1.
         22    1    3    3    0    0  0.14620042761E+03 -0.18052605401E+02  0.15034947857E+03  0.21048854435E+03  0.00000000000E+00 0.  1.
         22    1    3    3    0    0 -0.11456991274E+02 -0.18972385771E+02 -0.93976873662E+01  0.24073441771E+02  0.00000000000E+00 0.  1.
</event>
<event>
 7    1  0.5537228E-006  0.1212014E+03  0.7818608E-02  0.1302996E+00
          2   -1    0    0  502    0  0.00000000000E+00  0.00000000000E+00  0.41059220693E+03  0.41059220693E+03  0.00000000000E+00 0. -1.
          1   -1    0    0  501    0 -0.00000000000E+00 -0.00000000000E+00 -0.51390850645E+03  0.51390850645E+03  0.00000000000E+00 0. -1.
         25    2    1    2    0    0 -0.74244095733E+02  0.15041436265E+03 -0.12418850826E+03  0.24327920136E+03  0.12500127195E+03 0.  0.
          2    1    1    2  501    0  0.77817550327E+02 -0.83767408097E+02 -0.31691222582E+03  0.33690637968E+03  0.00000000000E+00 0. -1.
          1    1    1    2  502    0 -0.35734545948E+01 -0.66646954555E+02  0.33778443456E+03  0.34431513234E+03  0.00000000000E+00 0. -1.
         22    1    3    3    0    0 -0.25544223149E+02  0.13580530567E+03 -0.38176321452E+02  0.14336324461E+03  0.00000000000E+00 0.  1.
         22    1    3    3    0    0 -0.48699872584E+02  0.14609056980E+02 -0.86012186805E+02  0.99915956756E+02  0.00000000000E+00 0.  1.
</event>
<event>
 7    1  0.5537228E-006  0.6950691E+02  0.7818608E-02  0.1494580E+00
          2   -1    0    0  502    0  0.00000000000E+00  0.00000000000E+00  0.70651871229E+02  0.70651871229E+02  0.00000000000E+00 0. -1.
          1   -1    0    0  501    0 -0.00000000000E+00 -0.00000000000E+00 -0.20474422935E+04  0.20474422935E+04  0.00000000000E+00 0. -1.
         25    2    1    2    0    0 -0.49032279113E+01  0.91978843100E+02 -0.55542416066E+02  0.16490708109E+03  0.12500094475E+03 0.  0.
          2    1    1    2  501    0 -0.56792639099E+01 -0.69025860719E+02 -0.19261888677E+04  0.19274336247E+04  0.00000000000E+00 0. -1.
          1    1    1    2  502    0  0.10582491821E+02 -0.22952982381E+02  0.49408615404E+01  0.25753458915E+02  0.00000000000E+00 0. -1.
         22    1    3    3    0    0  0.29981854741E+02  0.71878281618E+02 -0.84800697894E+02  0.11513712410E+03  0.00000000000E+00 0. -1.
         22    1    3    3    0    0 -0.34885082652E+02  0.20100561482E+02  0.29258281828E+02  0.49769956993E+02  0.00000000000E+00 0. -1.
</event>
<event>
 7    1  0.5537228E-006  0.9628771E+02  0.7818608E-02  0.1318478E+00
          2   -1    0    0  502    0  0.00000000000E+00  0.00000000000E+00  0.78157660779E+03  0.78157660779E+03  0.00000000000E+00 0. -1.
          1   -1    0    0  501    0 -0.00000000000E+00 -0.00000000000E+00 -0.86733120777E+02  0.86733120777E+02  0.00000000000E+00 0. -1.
         25    2    1    2    0    0 -0.14371970831E+03 -0.61446665288E+02  0.36566176547E+03  0.41685088646E+03  0.12500035032E+03 0.  0.
          2    1    1    2  501    0  0.70786214475E+02  0.17892042233E+02 -0.32511514130E+02  0.79923787986E+02  0.00000000000E+00 0. -1.
          1    1    1    2  502    0  0.72933493838E+02  0.43554623055E+02  0.36169323567E+03  0.37153505413E+03  0.00000000000E+00 0. -1.
         22    1    3    3    0    0 -0.76461298061E+02  0.31272727491E+02  0.11868441041E+03  0.14460395174E+03  0.00000000000E+00 0.  1.
         22    1    3    3    0    0 -0.67258410252E+02 -0.92719392780E+02  0.24697735506E+03  0.27224693471E+03  0.00000000000E+00 0.  1.
</event>
<event>
 7    1  0.5537228E-006  0.2029166E+03  0.7818608E-02  0.1254160E+00
          2   -1    0    0  502    0  0.00000000000E+00  0.00000000000E+00  0.11052997578E+04  0.11052997578E+04  0.00000000000E+00 0. -1.
          1   -1    0    0  501    0 -0.00000000000E+00 -0.00000000000E+00 -0.14627251434E+04  0.14627251434E+04  0.00000000000E+00 0. -1.
         25    2    1    2    0    0  0.14633423486E+03 -0.87874981886E+02  0.32491120371E+02  0.21404794716E+03  0.12500052018E+03 0.  0.
          2    1    1    2  501    0 -0.42542858284E+01 -0.63381930865E+02 -0.13602338338E+04  0.13617163621E+04  0.00000000000E+00 0. -1.
          1    1    1    2  502    0 -0.14207994903E+03  0.15125691275E+03  0.97031732787E+03  0.99226059195E+03  0.00000000000E+00 0. -1.
         22    1    3    3    0    0  0.15354920709E+03 -0.60009535696E+02  0.58820360355E+02  0.17503810489E+03  0.00000000000E+00 0. -1.
         22    1    3    3    0    0 -0.72149722250E+01 -0.27865446190E+02 -0.26329239984E+02  0.39009842267E+02  0.00000000000E+00 0. -1.
</event>
<event>
 7    1  0.5537228E-006  0.5325232E+02  0.7818608E-02  0.1476920E+00
          2   -1    0    0  502    0  0.00000000000E+00  0.00000000000E+00  0.29710802289E+03  0.29710802289E+03  0.00000000000E+00 0. -1.
          1   -1    0    0  501    0 -0.00000000000E+00 -0.00000000000E+00 -0.50630303542E+03  0.50630303542E+03  0.00000000000E+00 0. -1.
         25    2    1    2    0    0  0.88770719490E+01  0.20374096720E+02 -0.39885329947E+03  0.41856335587E+03  0.12496968495E+03 0.  0.
          2    1    1    2  501    0 -0.19033565964E+02  0.32120082273E+02 -0.91409019962E+02  0.98739988095E+02  0.00000000000E+00 0. -1.
          1    1    1    2  502    0  0.10156494015E+02 -0.52494178993E+02  0.28106730690E+03  0.28610771435E+03  0.00000000000E+00 0. -1.
         22    1    3    3    0    0 -0.23256175236E+02  0.43338606992E+02 -0.60764901921E+02  0.78175813703E+02  0.00000000000E+00 0.  1.
         22    1    3    3    0    0  0.32133247185E+02 -0.22964510272E+02 -0.33808839755E+03  0.34038754217E+03  0.00000000000E+00 0.  1.
</event>
<event>
 7    1  0.5537228E-006  0.4795719E+02  0.7818608E-02  0.1490421E+00
          2   -1    0    0  502    0  0.00000000000E+00  0.00000000000E+00  0.18245644000E+04  0.18245644000E+04  0.00000000000E+00 0. -1.
          1   -1    0    0  501    0 -0.00000000000E+00 -0.00000000000E+00 -0.60941743470E+02  0.60941743470E+02  0.00000000000E+00 0. -1.
         25    2    1    2    0    0 -0.74227554896E+01 -0.13637584526E+02  0.10262744490E+03  0.16247783892E+03  0.12500229871E+03 0.  0.
          2    1    1    2  501    0  0.16584750748E+02 -0.33862448529E+02 -0.19078938523E+02  0.42257842738E+02  0.00000000000E+00 0. -1.
          1    1    1    2  502    0 -0.91619952584E+01  0.47500033055E+02  0.16800741502E+04  0.16807704618E+04  0.00000000000E+00 0. -1.
         22    1    3    3    0    0  0.12089569857E+02  0.40801964221E+02  0.95064350532E+02  0.10415463852E+03  0.00000000000E+00 0.  1.
         22    1    3    3    0    0 -0.19512325346E+02 -0.54439548747E+02  0.75630943707E+01  0.58323200398E+02  0.00000000000E+00 0.  1.
</event>
<event>
 7    1  0.5537228E-006  0.8721042E+02  0.7818608E-02  0.1394584E+00
          2   -1    0    0  502    0  0.00000000000E+00  0.00000000000E+00  0.64506874059E+03  0.64506874059E+03  0.00000000000E+00 0. -1.
          1   -1    0    0  501    0 -0.00000000000E+00 -0.00000000000E+00 -0.30273046289E+03  0.30273046289E+03  0.00000000000E+00 0. -1.
         25    2    1    2    0    0  0.58174336832E+02 -0.20676121997E+01  0.16739033899E+03  0.21686661671E+03  0.12499230124E+03 0.  0.
          2    1    1    2  501    0 -0.82117990157E+02 -0.32877344776E+02 -0.26992421237E+03  0.28404817291E+03  0.00000000000E+00 0. -1.
          1    1    1    2  502    0  0.23943653324E+02  0.34944956975E+02  0.44487215107E+03  0.44688441386E+03  0.00000000000E+00 0. -1.
         22    1    3    3    0    0  0.11329834411E+02 -0.60829287663E+02  0.63664089409E+02  0.88778846949E+02  0.00000000000E+00 0. -1.
         22    1    3    3    0    0  0.46844502421E+02  0.58761675463E+02  0.10372624958E+03  0.12808776976E+03  0.00000000000E+00 0. -1.
</event>
<event>
 7    1  0.5537228E-006  0.1451554E+03  0.7818608E-02  0.1278356E+00
          2   -1    0    0  502    0  0.00000000000E+00  0.00000000000E+00  0.16470222524E+03  0.16470222524E+03  0.00000000000E+00 0. -1.
          1   -1    0    0  501    0 -0.00000000000E+00 -0.00000000000E+00 -0.90281087359E+03  0.90281087359E+03  0.00000000000E+00 0. -1.
         25    2    1    2    0    0 -0.79119814399E+02 -0.12097713864E+03 -0.29302741946E+03  0.34983680350E+03  0.12500122968E+03 0.  0.
          2    1    1    2  501    0  0.14744034300E+02  0.14891444773E+03 -0.56185326218E+03  0.58143958200E+03  0.00000000000E+00 0. -1.
          1    1    1    2  502    0  0.64375780099E+02 -0.27937309090E+02  0.11677203329E+03  0.13623671334E+03  0.00000000000E+00 0. -1.
         22    1    3    3    0    0 -0.66788445263E+02  0.57843001085E+00 -0.12946892432E+03  0.14568195965E+03  0.00000000000E+00 0.  1.
         22    1    3    3    0    0 -0.12331369136E+02 -0.12155556865E+03 -0.16355849514E+03  0.20415484385E+03  0.00000000000E+00 0.  1.
</event>
<event>
 7    1  0.5537228E-006  0.6709606E+02  0.7818608E-02  0.1402175E+00
          2   -1    0    0  502    0  0.00000000000E+00  0.00000000000E+00  0.10674572402E+04  0.10674572402E+04  0.00000000000E+00 0. -1.
          1   -1    0    0  501    0 -0.00000000000E+00 -0.00000000000E+00 -0.20198752596E+03  0.20198752596E+03  0.00000000000E+00 0. -1.
         25    2    1    2    0    0 -0.82317348344E+02  0.83147244078E+02  0.64848379044E+03  0.67070547379E+03  0.12499998428E+03 0.  0.
          2    1    1    2  501    0  0.39815292518E+02 -0.53465390383E+02 -0.18333368500E+03  0.19507702464E+03  0.00000000000E+00 0. -1.
          1    1    1    2  502    0  0.42502055826E+02 -0.29681853695E+02  0.40031960881E+03  0.40366226773E+03  0.00000000000E+00 0. -1.
         22    1    3    3    0    0 -0.11440527038E+03  0.58222834414E+02  0.53442681039E+03  0.54962758300E+03  0.00000000000E+00 0. -1.
         22    1    3    3    0    0  0.32087922038E+02  0.24924409663E+02  0.11405698006E+03  0.12107789079E+03  0.00000000000E+00 0. -1.
</event>
<event>
 7    1  0.8725339E-006  0.6315580E+02  0.7818608E-02  0.1401651E+00
          2   -1    0    0  502    0  0.00000000000E+00  0.00000000000E+00  0.18054776431E+04  0.18054776431E+04  0.00000000000E+00 0. -1.
          1   -1    0    0  501    0 -0.00000000000E+00 -0.00000000000E+00 -0.68004545707E+03  0.68004545707E+03  0.00000000000E+00 0. -1.
         25    2    1    2    0    0  0.11828151414E+02 -0.73282836001E+01 -0.56896748315E+02  0.13804371358E+03  0.12500087193E+03 0.  0.
          2    1    1    2  501    0 -0.22225241137E+02  0.61645340097E+02 -0.58029744217E+03  0.58398564254E+03  0.00000000000E+00 0. -1.
          1    1    1    2  502    0  0.10397089723E+02 -0.54317056496E+02  0.17626263766E+04  0.17634937441E+04  0.00000000000E+00 0. -1.
         22    1    3    3    0    0 -0.11388850263E+02 -0.15253058349E+02  0.36668863696E+02  0.41315460352E+02  0.00000000000E+00 0. -1.
         22    1    3    3    0    0  0.23217001678E+02  0.79247747488E+01 -0.93565612011E+02  0.96728253229E+02  0.00000000000E+00 0. -1.
</event>
<event>
 7    1  0.5537228E-006  0.3377956E+02  0.7818608E-02  0.1608186E+00
          2   -1    0    0  502    0  0.00000000000E+00  0.00000000000E+00  0.40901136658E+04  0.40901136658E+04  0.00000000000E+00 0. -1.
          1   -1    0    0  501    0 -0.00000000000E+00 -0.00000000000E+00 -0.15151717591E+02  0.15151717591E+02  0.00000000000E+00 0. -1.
         25    2    1    2    0    0 -0.39853409713E+02 -0.69517224245E+01  0.35079498222E+04  0.35104092240E+04  0.12499737563E+03 0.  0.
          2    1    1    2  501    0  0.29759495511E+02 -0.16006382755E+02  0.72848754978E+01  0.34567344025E+02  0.00000000000E+00 0. -1.
          1    1    1    2  502    0  0.10093914203E+02  0.22958105180E+02  0.55972725049E+03  0.56028881538E+03  0.00000000000E+00 0. -1.
         22    1    3    3    0    0 -0.59195124294E+02 -0.38015959883E+02  0.31061221100E+04  0.31069187048E+04  0.00000000000E+00 0. -1.
         22    1    3    3    0    0  0.19341714581E+02  0.31064237458E+02  0.40182771223E+03  0.40349051920E+03  0.00000000000E+00 0. -1.
</event>
<event>
 7    1  0.5537228E-006  0.4422854E+02  0.7818608E-02  0.1529471E+00
          2   -1    0    0  502    0  0.00000000000E+00  0.00000000000E+00  0.10932482322E+04  0.10932482322E+04  0.00000000000E+00 0. -1.
          1   -1    0    0  501    0 -0.00000000000E+00 -0.00000000000E+00 -0.50692772309E+03  0.50692772309E+03  0.00000000000E+00 0. -1.
         25    2    1    2    0    0 -0.54093188762E+02  0.50974502353E+02  0.33851323491E+03  0.36843004830E+03  0.12500006927E+03 0.  0.
          2    1    1    2  501    0  0.36288158428E+02 -0.25141229088E+02 -0.49064517638E+03  0.49262724341E+03  0.00000000000E+00 0. -1.
          1    1    1    2  502    0  0.17805030333E+02 -0.25833273265E+02  0.73845245060E+03  0.73911866362E+03  0.00000000000E+00 0. -1.
         22    1    3    3    0    0 -0.22103976293E+02 -0.38877681379E+02  0.15878328926E+03  0.16496118582E+03  0.00000000000E+00 0.  1.
         22    1    3    3    0    0 -0.31989212469E+02  0.89852183732E+02  0.17972994565E+03  0.20346886248E+03  0.00000000000E+00 0.  1.
</event>
<event>
 7    1  0.5537228E-006  0.5093940E+02  0.7818608E-02  0.1539762E+00
          2   -1    0    0  502    0  0.00000000000E+00  0.00000000000E+00  0.49155246063E+02  0.49155246063E+02  0.00000000000E+00 0. -1.
          1   -1    0    0  501    0 -0.00000000000E+00 -0.00000000000E+00 -0.88132059698E+03  0.88132059698E+03  0.00000000000E+00 0. -1.
         25    2    1    2    0    0  0.25040878444E+02  0.92915850755E+01 -0.18492449646E+03  0.22478572777E+03  0.12497269652E+03 0.  0.
          2    1    1    2  501    0 -0.48976007343E+02 -0.17982196582E+02 -0.66970456703E+03  0.67173373876E+03  0.00000000000E+00 0. -1.
          1    1    1    2  502    0  0.23935128900E+02  0.86906115064E+01  0.22463712564E+02  0.33956376514E+02  0.00000000000E+00 0. -1.
         22    1    3    3    0    0 -0.28278647779E+02  0.48132320052E+02 -0.11940634941E+03  0.13181152617E+03  0.00000000000E+00 0. -1.
         22    1    3    3    0    0  0.53319526223E+02 -0.38840734977E+02 -0.65518147050E+02  0.92974201599E+02  0.00000000000E+00 0. -1.
</event>
<event>
 7    1  0.5537228E-006  0.8171518E+02  0.7818608E-02  0.1379751E+00
          2   -1    0    0  502    0  0.00000000000E+00  0.00000000000E+00  0.21327479940E+03  0.21327479940E+03  0.00000000000E+00 0. -1.
          1   -1    0    0  501    0 -0.00000000000E+00 -0.00000000000E+00 -0.30387188854E+03  0.30387188854E+03  0.00000000000E+00 0. -1.
         25    2    1    2    0    0  0.91180687760E+02 -0.83595962385E+02 -0.25955954767E+02  0.17776573599E+03  0.12499897022E+03 0.  0.
          2    1    1    2  501    0 -0.44142545774E+02  0.63996847299E+02 -0.18933578228E+03  0.20467583947E+03  0.00000000000E+00 0. -1.
          1    1    1    2  502    0 -0.47038141986E+02  0.19599115087E+02  0.12469464791E+03  0.13470511249E+03  0.00000000000E+00 0. -1.
         22    1    3    3    0    0  0.20553990784E+02  0.22286420173E+00 -0.59653453341E+02  0.63095567999E+02  0.00000000000E+00 0.  1.
         22    1    3    3    0    0  0.70626696975E+02 -0.83818826587E+02  0.33697498574E+02  0.11467016799E+03  0.00000000000E+00 0.  1.
</event>
<event>
 7    1  0.5537228E-006  0.5002076E+02  0.7818608E-02  0.1486105E+00
          2   -1    0    0  502    0  0.00000000000E+00  0.00000000000E+00  0.45473079738E+03  0.45473079738E+03  0.00000000000E+00 0. -1.
          1   -1    0    0  501    0 -0.00000000000E+00 -0.00000000000E+00 -0.97220894557E+03  0.97220894557E+03  0.00000000000E+00 0. -1.
         25    2    1    2    0    0  0.33657945727E+02  0.30797428928E+02 -0.44015691700E+02  0.14015488593E+03  0.12499868797E+03 0.  0.
          2    1    1    2  501    0 -0.18844805501E+01 -0.50252105375E+02 -0.87854981842E+03  0.87998784583E+03  0.00000000000E+00 0. -1.
          1    1    1    2  502    0 -0.31773465177E+02  0.19454676447E+02  0.40508736192E+03  0.40679701119E+03  0.00000000000E+00 0. -1.
         22    1    3    3    0    0 -0.27744593615E+02 -0.28089544736E+02 -0.38110027251E+02  0.54874030064E+02  0.00000000000E+00 0. -1.
         22    1    3    3    0    0  0.61402539342E+02  0.58886973663E+02 -0.59056644487E+01  0.85280855867E+02  0.00000000000E+00 0. -1.
</event>
<event>
 7    1  0.5537228E-006  0.7146408E+02  0.7818608E-02  0.1418741E+00
          2   -1    0    0  502    0  0.00000000000E+00  0.00000000000E+00  0.10857564186E+04  0.10857564186E+04  0.00000000000E+00 0. -1.
          1   -1    0    0  501    0 -0.00000000000E+00 -0.00000000000E+00 -0.75699543731E+02  0.75699543731E+02  0.00000000000E+00 0. -1.
         25    2    1    2    0    0 -0.57835784364E+02 -0.52255597396E+02  0.14745337622E+03  0.20842928088E+03  0.12499856621E+03 0.  0.
          2    1    1    2  501    0  0.39244743148E+02 -0.17012720461E+02 -0.33330655791E+02  0.54226516924E+02  0.00000000000E+00 0. -1.
          1    1    1    2  502    0  0.18591041216E+02  0.69268317857E+02  0.89593415447E+03  0.89880016456E+03  0.00000000000E+00 0. -1.
         22    1    3    3    0    0 -0.68748585572E+02  0.22010323877E+02  0.69297240782E+02  0.10006462889E+03  0.00000000000E+00 0.  1.
         22    1    3    3    0    0  0.10912801208E+02 -0.74265921273E+02  0.78156135439E+02  0.10836465198E+03  0.00000000000E+00 0.  1.
</event>
<event>
 7    1  0.5537228E-006  0.9882513E+02  0.7818608E-02  0.1424844E+00
          2   -1    0    0  502    0  0.00000000000E+00  0.00000000000E+00  0.22164522430E+03  0.22164522430E+03  0.00000000000E+00 0. -1.
          1   -1    0    0  501    0 -0.00000000000E+00 -0.00000000000E+00 -0.78281074142E+03  0.78281074142E+03  0.00000000000E+00 0. -1.
         25    2    1    2    0    0  0.54717196829E+02  0.93525962006E+02 -0.27065160368E+03  0.31720422886E+03  0.12500062013E+03 0.  0.
          2    1    1    2  501    0 -0.25207625558E+02 -0.94172718326E+02 -0.48288594953E+03  0.49262842540E+03  0.00000000000E+00 0. -1.
          1    1    1    2  502    0 -0.29509571271E+02  0.64675632033E+00  0.19237203610E+03  0.19462331146E+03  0.00000000000E+00 0. -1.
         22    1    3    3    0    0  0.25234072894E+02  0.22614103367E+02  0.20000685628E+01  0.33943429116E+02  0.00000000000E+00 0. -1.
         22    1    3    3    0    0  0.29483123935E+02  0.70911858639E+02 -0.27265167225E+03  0.28326079974E+03  0.00000000000E+00 0. -1.
</event>
<event>
 7    1  0.5537228E-006  0.1040073E+03  0.7818608E-02  0.1362338E+00
          2   -1    0    0  502    0  0.00000000000E+00  0.00000000000E+00  0.26016298546E+04  0.26016298546E+04  0.00000000000E+00 0. -1.
          1   -1    0    0  501    0 -0.00000000000E+00 -0.00000000000E+00 -0.30358250788E+02  0.30358250788E+02  0.00000000000E+00 0. -1.
         25    2    1    2    0    0 -0.11798334820E+03 -0.11897416416E+02  0.65028666474E+03  0.67272599261E+03  0.12500358327E+03 0.  0.
          2    1    1    2  501    0  0.27278039346E+02 -0.37328778802E+02  0.12370806136E+02  0.47859857938E+02  0.00000000000E+00 0. -1.
          1    1    1    2  502    0  0.90705308850E+02  0.49226195218E+02  0.19086141330E+04  0.19114022549E+04  0.00000000000E+00 0. -1.
         22    1    3    3    0    0 -0.10225604051E+03  0.45650661019E+02  0.39550801722E+03  0.41105580200E+03  0.00000000000E+00 0.  1.
         22    1    3    3    0    0 -0.15727307688E+02 -0.57548077435E+02  0.25477864752E+03  0.26167019061E+03  0.00000000000E+00 0.  1.
</event>
<event>
 7    1  0.5537228E-006  0.1028260E+03  0.7818608E-02  0.1347124E+00
          2   -1    0    0  502    0  0.00000000000E+00  0.00000000000E+00  0.23178652843E+04  0.23178652843E+04  0.00000000000E+00 0. -1.
          1   -1    0    0  501    0 -0.00000000000E+00 -0.00000000000E+00 -0.46592304599E+03  0.46592304599E+03  0.00000000000E+00 0. -1.
         25    2    1    2    0    0 -0.13345798029E+03  0.18283548551E+02  0.92694661099E+03  0.94498792274E+03  0.12500733522E+03 0.  0.
          2    1    1    2  501    0  0.37553043950E+02 -0.37678351808E+02 -0.45361410814E+03  0.45672272596E+03  0.00000000000E+00 0. -1.
          1    1    1    2  502    0  0.95904936338E+02  0.19394803258E+02  0.13786097355E+04  0.13820776816E+04  0.00000000000E+00 0. -1.
         22    1    3    3    0    0 -0.11106291350E+03 -0.33062575110E+02  0.44671275150E+03  0.46149798156E+03  0.00000000000E+00 0.  1.
         22    1    3    3    0    0 -0.22395066793E+02  0.51346123661E+02  0.48023385948E+03  0.48348994119E+03  0.00000000000E+00 0.  1.
</event>
<event>
 7    1  0.5537228E-006  0.6373286E+02  0.7818608E-02  0.1509983E+00
          2   -1    0    0  502    0  0.00000000000E+00  0.00000000000E+00  0.13697480218E+04  0.13697480218E+04  0.00000000000E+00 0. -1.
          1   -1    0    0  501    0 -0.00000000000E+00 -0.00000000000E+00 -0.19990118859E+03  0.19990118859E+03  0.00000000000E+00 0. -1.
         25    2    1    2    0    0  0.32228505230E+01  0.85361697980E+02  0.15341146654E+03  0.21553911927E+03  0.12500011049E+03 0.  0.
          2    1    1    2  501    0 -0.10256516337E+02 -0.22584903340E+02 -0.16707943578E+03  0.16891066233E+03  0.00000000000E+00 0. -1.
          1    1    1    2  502    0  0.70336658139E+01 -0.62776794641E+02  0.11835148024E+04  0.11851994288E+04  0.00000000000E+00 0. -1.
         22    1    3    3    0    0 -0.35954974226E+02 -0.14147045294E+02  0.17021628057E+02  0.42221261040E+02  0.00000000000E+00 0.  1.
         22    1    3    3    0    0  0.39177824749E+02  0.99508743274E+02  0.13638983848E+03  0.17331785823E+03  0.00000000000E+00 0.  1.
</event>
<event>
 7    1  0.5537228E-006  0.3605377E+02  0.7818608E-02  0.1630272E+00
          2   -1    0    0  502    0  0.00000000000E+00  0.00000000000E+00  0.38718263659E+03  0.38718263659E+03  0.00000000000E+00 0. -1.
          1   -1    0    0  501    0 -0.00000000000E+00 -0.00000000000E+00 -0.79604273477E+03  0.79604273477E+03  0.00000000000E+00 0. -1.
         25    2    1    2    0    0  0.30882400210E+02  0.21828121664E+02  0.78474495824E+02  0.15236023442E+03  0.12500081999E+03 0.  0.
          2    1    1    2  501    0 -0.13753598867E+02 -0.33343739359E+02 -0.75827868058E+03  0.75913603778E+03  0.00000000000E+00 0. -1.
          1    1    1    2  502    0 -0.17128801343E+02  0.11515617694E+02  0.27094408657E+03  0.27172909917E+03  0.00000000000E+00 0. -1.
         22    1    3    3    0    0 -0.83526058977E+01 -0.32209227218E+02 -0.15796196453E+02  0.36833682488E+02  0.00000000000E+00 0. -1.
         22    1    3    3    0    0  0.39235006108E+02  0.54037348882E+02  0.94270692277E+02  0.11552655193E+03  0.00000000000E+00 0. -1.
</event>
<event>
 7    1  0.5537228E-006  0.2195543E+03  0.7818608E-02  0.1323331E+00
          2   -1    0    0  502    0  0.00000000000E+00  0.00000000000E+00  0.21547006735E+04  0.21547006735E+04  0.00000000000E+00 0. -1.
          1   -1    0    0  501    0 -0.00000000000E+00 -0.00000000000E+00 -0.42434893110E+03  0.42434893110E+03  0.00000000000E+00 0. -1.
         25    2    1    2    0    0 -0.21172667685E+02  0.19254605243E+03  0.78494243026E+03  0.81809688168E+03  0.12500249926E+03 0.  0.
          2    1    1    2  501    0  0.39782682124E+02 -0.21691642784E+03 -0.37776329820E+03  0.43742485976E+03  0.00000000000E+00 0. -1.
          1    1    1    2  502    0 -0.18610014439E+02  0.24370375416E+02  0.13231726104E+04  0.13235278632E+04  0.00000000000E+00 0. -1.
         22    1    3    3    0    0  0.39605877840E+02  0.40529374962E+02  0.32458843728E+03  0.32949796572E+03  0.00000000000E+00 0.  1.
         22    1    3    3    0    0 -0.60778545525E+02  0.15201667747E+03  0.46035399298E+03  0.48859891596E+03  0.00000000000E+00 0.  1.
</event>
<event>
 7    1  0.5537228E-006  0.1615430E+03  0.7818608E-02  0.1302722E+00
          2   -1    0    0  502    0  0.00000000000E+00  0.00000000000E+00  0.57251849592E+03  0.57251849592E+03  0.00000000000E+00 0. -1.
          1   -1    0    0  501    0 -0.00000000000E+00 -0.00000000000E+00 -0.10415723600E+04  0.10415723600E+04  0.00000000000E+00 0. -1.
         25    2    1    2    0    0 -0.74295376529E+02  0.19326112790E+03 -0.11930074424E+03  0.26967857374E+03  0.12499679605E+03 0.  0.
          2    1    1    2  501    0  0.60703404129E+02 -0.14493479367E+03 -0.83849883375E+03  0.85309512476E+03  0.00000000000E+00 0. -1.
          1    1    1    2  502    0  0.13591972399E+02 -0.48326334235E+02  0.48874571392E+03  0.49131715742E+03  0.00000000000E+00 0. -1.
         22    1    3    3    0    0  0.29334448104E+02  0.13951364982E+02 -0.29740106383E+02  0.44041166629E+02  0.00000000000E+00 0. -1.
         22    1    3    3    0    0 -0.10362982463E+03  0.17930976292E+03 -0.89560637858E+02  0.22563740711E+03  0.00000000000E+00 0. -1.
</event>
<event>
 7    1  0.5537228E-006  0.9372011E+02  0.7818608E-02  0.1321184E+00
          2   -1    0    0  502    0  0.00000000000E+00  0.00000000000E+00  0.21986486448E+04  0.21986486448E+04  0.00000000000E+00 0. -1.
          1   -1    0    0  501    0 -0.00000000000E+00 -0.00000000000E+00 -0.64416815610E+02  0.64416815610E+02  0.00000000000E+00 0. -1.
         25    2    1    2    0    0  0.43015777159E+02 -0.21468863931E+02  0.73910261918E+03  0.75113998181E+03  0.12500928527E+03 0.  0.
          2    1    1    2  501    0 -0.27593865713E+02  0.93046235660E+02 -0.16460854753E+02  0.98437711954E+02  0.00000000000E+00 0. -1.
          1    1    1    2  502    0 -0.15421911446E+02 -0.71577371728E+02  0.14115900648E+04  0.14134877667E+04  0.00000000000E+00 0. -1.
         22    1    3    3    0    0  0.12771556348E+02  0.30230123973E+02  0.58327743770E+03  0.58419991644E+03  0.00000000000E+00 0. -1.
         22    1    3    3    0    0  0.30244220810E+02 -0.51698987904E+02  0.15582518148E+03  0.16694006537E+03  0.00000000000E+00 0. -1.
</event>
<event>
 7    1  0.5537228E-006  0.1372326E+03  0.7818608E-02  0.1345728E+00
          2   -1    0    0  502    0  0.00000000000E+00  0.00000000000E+00  0.64222209795E+03  0.64222209795E+03  0.00000000000E+00 0. -1.
          1   -1    0    0  501    0 -0.00000000000E+00 -0.00000000000E+00 -0.79109725754E+03  0.79109725754E+03  0.00000000000E+00 0. -1.
         25    2    1    2    0    0  0.53368854266E+01 -0.17575161666E+03  0.84014733429E+02  0.23151554329E+03  0.12499543290E+03 0.  0.
          2    1    1    2  501    0 -0.73652137216E+01  0.13546329780E+03 -0.71007411341E+03  0.72291755958E+03  0.00000000000E+00 0. -1.
          1    1    1    2  502    0  0.20283282950E+01  0.40288318863E+02  0.47718422039E+03  0.47888625261E+03  0.00000000000E+00 0. -1.
         22    1    3    3    0    0 -0.34908495509E+02 -0.16696947595E+03  0.49069377776E+02  0.17749707826E+03  0.00000000000E+00 0. -1.
         22    1    3    3    0    0  0.40245380936E+02 -0.87821407162E+01  0.34945355652E+02  0.54018465027E+02  0.00000000000E+00 0. -1.
</event>
<event>
 7    1  0.5537228E-006  0.6540009E+02  0.7818608E-02  0.1401877E+00
          2   -1    0    0  502    0  0.00000000000E+00  0.00000000000E+00  0.92655620177E+03  0.92655620177E+03  0.00000000000E+00 0. -1.
          1   -1    0    0  501    0 -0.00000000000E+00 -0.00000000000E+00 -0.15863342023E+03  0.15863342023E+03  0.00000000000E+00 0. -1.
         25    2    1    2    0    0 -0.25371435366E+02  0.29352323056E+02  0.13258351321E+03  0.18630311198E+03  0.12500077182E+03 0.  0.
          2    1    1    2  501    0 -0.42254036283E+02 -0.32505320111E+02 -0.12481520495E+03  0.13572337605E+03  0.00000000000E+00 0. -1.
          1    1    1    2  502    0  0.67625471648E+02  0.31529970559E+01  0.76015447329E+03  0.76316313398E+03  0.00000000000E+00 0. -1.
         22    1    3    3    0    0 -0.55180130890E+02  0.14156617616E+02  0.82682883132E+01  0.57564062217E+02  0.00000000000E+00 0. -1.
         22    1    3    3    0    0  0.29808695524E+02  0.15195705440E+02  0.12431522489E+03  0.12873904976E+03  0.00000000000E+00 0. -1.
</event>
<event>
 7    1  0.5537228E-006  0.4453953E+02  0.7818608E-02  0.1556409E+00
          2   -1    0    0  502    0  0.00000000000E+00  0.00000000000E+00  0.35055948788E+02  0.35055948788E+02  0.00000000000E+00 0. -1.
          1   -1    0    0  501    0 -0.00000000000E+00 -0.00000000000E+00 -0.88703907552E+03  0.88703907552E+03  0.00000000000E+00 0. -1.
         25    2    1    2    0    0  0.59175355521E+02 -0.35858149372E+02 -0.33965798877E+03  0.36848880166E+03  0.12501567117E+03 0.  0.
          2    1    1    2  501    0 -0.36854752231E+02  0.22209991447E+02 -0.52342186189E+03  0.52518758743E+03  0.00000000000E+00 0. -1.
          1    1    1    2  502    0 -0.22320603290E+02  0.13648157925E+02  0.11096723924E+02  0.28418635221E+02  0.00000000000E+00 0. -1.
         22    1    3    3    0    0 -0.30435048510E+02 -0.28455571741E+02 -0.18462551394E+03  0.18926857145E+03  0.00000000000E+00 0. -1.
         22    1    3    3    0    0  0.89610404031E+02 -0.74025776309E+01 -0.15503247483E+03  0.17922023022E+03  0.00000000000E+00 0. -1.
</event>
<event>
 7    1  0.5537228E-006  0.6785176E+02  0.7818608E-02  0.1424102E+00
          2   -1    0    0  502    0  0.00000000000E+00  0.00000000000E+00  0.33948997023E+04  0.33948997023E+04  0.00000000000E+00 0. -1.
          1   -1    0    0  501    0 -0.00000000000E+00 -0.00000000000E+00 -0.21851662089E+03  0.21851662089E+03  0.00000000000E+00 0. -1.
         25    2    1    2    0    0  0.12230909219E+02  0.79138933510E+02  0.53850628611E+03  0.55859409432E+03  0.12500310433E+03 0.  0.
          2    1    1    2  501    0  0.27479612284E+02 -0.62041548115E+02 -0.20278241270E+03  0.21383402368E+03  0.00000000000E+00 0. -1.
          1    1    1    2  502    0 -0.39710521503E+02 -0.17097385394E+02  0.28406592080E+04  0.28409882052E+04  0.00000000000E+00 0. -1.
         22    1    3    3    0    0  0.58831618737E+02  0.28410603559E+01  0.20172208283E+03  0.21014525854E+03  0.00000000000E+00 0.  1.
         22    1    3    3    0    0 -0.46600709518E+02  0.76297873154E+02  0.33678420328E+03  0.34844883578E+03  0.00000000000E+00 0.  1.
</event>
<event>
 7    1  0.5537228E-006  0.4975504E+02  0.7818608E-02  0.1494914E+00
          2   -1    0    0  502    0  0.00000000000E+00  0.00000000000E+00  0.32066800832E+03  0.32066800832E+03  0.00000000000E+00 0. -1.
          1   -1    0    0  501    0 -0.00000000000E+00 -0.00000000000E+00 -0.10017347254E+03  0.10017347254E+03  0.00000000000E+00 0. -1.
         25    2    1    2    0    0 -0.11715848515E+02 -0.31388276365E+02  0.23074955335E+03  0.26456492162E+03  0.12500702534E+03 0.  0.
          2    1    1    2  501    0  0.45628845738E+02  0.21855751834E+02 -0.70328716236E+02  0.86635984320E+02  0.00000000000E+00 0. -1.
          1    1    1    2  502    0 -0.33912997222E+02  0.95325245311E+01  0.60073698664E+02  0.69640574924E+02  0.00000000000E+00 0. -1.
         22    1    3    3    0    0  0.40855980376E+02  0.23489236361E+02  0.51160088461E+02  0.69557961505E+02  0.00000000000E+00 0. -1.
         22    1    3    3    0    0 -0.52571828892E+02 -0.54877512726E+02  0.17958946489E+03  0.19500696012E+03  0.00000000000E+00 0. -1.
</event>
<event>
 7    1  0.5537228E-006  0.8466047E+02  0.7818608E-02  0.1398207E+00
          2   -1    0    0  502    0  0.00000000000E+00  0.00000000000E+00  0.14144222846E+03  0.14144222846E+03  0.00000000000E+00 0. -1.
          1   -1    0    0  501    0 -0.00000000000E+00 -0.00000000000E+00 -0.11982012457E+04  0.11982012457E+04  0.00000000000E+00 0. -1.
         25    2    1    2    0    0 -0.29437146502E+02 -0.75832671442E+02 -0.22377288449E+03  0.26891641622E+03  0.12499838170E+03 0.  0.
          2    1    1    2  501    0 -0.11970938871E+02  0.84933232535E+02 -0.94607350541E+03  0.94995370151E+03  0.00000000000E+00 0. -1.
          1    1    1    2  502    0  0.41408085373E+02 -0.91005610932E+01  0.11308737271E+03  0.12077335638E+03  0.00000000000E+00 0. -1.
         22    1    3    3    0    0 -0.60511306424E+02 -0.74708211184E+02 -0.21663983954E+03  0.23701425084E+03  0.00000000000E+00 0.  1.
         22    1    3    3    0    0  0.31074159922E+02 -0.11244602579E+01 -0.71330449473E+01  0.31902165380E+02  0.00000000000E+00 0.  1.
</event>
<event>
 7    1  0.5537228E-006  0.5871548E+02  0.7818608E-02  0.1508920E+00
          2   -1    0    0  502    0  0.00000000000E+00  0.00000000000E+00  0.22520003096E+03  0.22520003096E+03  0.00000000000E+00 0. -1.
          1   -1    0    0  501    0 -0.00000000000E+00 -0.00000000000E+00 -0.85718392782E+02  0.85718392782E+02  0.00000000000E+00 0. -1.
         25    2    1    2    0    0  0.34856580893E+01 -0.72913412796E+02  0.15056137416E+03  0.20885597896E+03  0.12499430780E+03 0.  0.
          2    1    1    2  501    0 -0.14966444633E+02  0.22615553943E+02 -0.35752929945E+02  0.44874600219E+02  0.00000000000E+00 0. -1.
          1    1    1    2  502    0  0.11480786544E+02  0.50297858852E+02  0.24673193967E+02  0.57187844559E+02  0.00000000000E+00 0. -1.
         22    1    3    3    0    0  0.15984130214E+02  0.19153884327E+02 -0.70260624998E+01  0.25917740214E+02  0.00000000000E+00 0.  1.
         22    1    3    3    0    0 -0.12498472125E+02 -0.92067297123E+02  0.15758743666E+03  0.18293823875E+03  0.00000000000E+00 0.  1.
</event>
<event>
 7    1  0.5537228E-006  0.5106648E+02  0.7818608E-02  0.1500200E+00
          2   -1    0    0  502    0  0.00000000000E+00  0.00000000000E+00  0.25911809372E+04  0.25911809372E+04  0.00000000000E+00 0. -1.
          1   -1    0    0  501    0 -0.00000000000E+00 -0.00000000000E+00 -0.83458511877E+03  0.83458511877E+03  0.00000000000E+00 0. -1.
         25    2    1    2    0    0 -0.28210559257E+02  0.76826326285E+02  0.71733923906E+02  0.16573697428E+03  0.12499947497E+03 0.  0.
          2    1    1    2  501    0  0.22952915544E+01 -0.33014762775E+02 -0.78697378870E+03  0.78766933864E+03  0.00000000000E+00 0. -1.
          1    1    1    2  502    0  0.25915267703E+02 -0.43811563510E+02  0.24718356832E+04  0.24723597430E+04  0.00000000000E+00 0. -1.
         22    1    3    3    0    0  0.39686379817E+02  0.10964927162E+02 -0.80949660951E+01  0.41961492427E+02  0.00000000000E+00 0. -1.
         22    1    3    3    0    0 -0.67896939074E+02  0.65861399123E+02  0.79828890001E+02  0.12377548186E+03  0.00000000000E+00 0. -1.
</event>
<event>
 7    1  0.5537228E-006  0.1461665E+03  0.7818608E-02  0.1416415E+00
          2   -1    0    0  502    0  0.00000000000E+00  0.00000000000E+00  0.18032951663E+03  0.18032951663E+03  0.00000000000E+00 0. -1.
          1   -1    0    0  501    0 -0.00000000000E+00 -0.00000000000E+00 -0.10516282923E+04  0.10516282923E+04  0.00000000000E+00 0. -1.
         25    2    1    2    0    0 -0.68326048709E+02 -0.14660418109E+03 -0.69160684928E+03  0.72118533723E+03  0.12500808702E+03 0.  0.
          2    1    1    2  501    0 -0.46944614161E+01  0.20767831242E+02 -0.31283408990E+03  0.31355782335E+03  0.00000000000E+00 0. -1.
          1    1    1    2  502    0  0.73020510125E+02  0.12583634985E+03  0.13314216347E+03  0.19721464838E+03  0.00000000000E+00 0. -1.
         22    1    3    3    0    0 -0.82999054460E+02 -0.46846867029E+02 -0.23526486849E+03  0.25383662134E+03  0.00000000000E+00 0.  1.
         22    1    3    3    0    0  0.14673005751E+02 -0.99757314060E+02 -0.45634198080E+03  0.46734871589E+03  0.00000000000E+00 0.  1.
</event>
<event>
 7    1  0.5537228E-006  0.1472513E+03  0.7818608E-02  0.1349851E+00
          2   -1    0    0  502    0  0.00000000000E+00  0.00000000000E+00  0.72603749070E+02  0.72603749070E+02  0.00000000000E+00 0. -1.
          1   -1    0    0  501    0 -0.00000000000E+00 -0.00000000000E+00 -0.11941673634E+04  0.11941673634E+04  0.00000000000E+00 0. -1.
         25    2    1    2    0    0 -0.73276737014E+02 -0.10349604711E+03 -0.31089954128E+03  0.35827943514E+03  0.12499886767E+03 0.  0.
          2    1    1    2  501    0 -0.35544014338E+02 -0.73256540029E+01 -0.73469508956E+03  0.73559086236E+03  0.00000000000E+00 0. -1.
          1    1    1    2  502    0  0.10882075135E+03  0.11082170111E+03 -0.75968983468E+02  0.17290081495E+03  0.00000000000E+00 0. -1.
         22    1    3    3    0    0  0.15757992299E+02 -0.71865331586E+02 -0.19700086381E+03  0.21029094262E+03  0.00000000000E+00 0.  1.
         22    1    3    3    0    0 -0.89034729314E+02 -0.31630715523E+02 -0.11389867747E+03  0.14798849252E+03  0.00000000000E+00 0.  1.
</event>
<event>
 7    1  0.5537228E-006  0.1299185E+03  0.7818608E-02  0.1247754E+00
          2   -1    0    0  502    0  0.00000000000E+00  0.00000000000E+00  0.49261891399E+03  0.49261891399E+03  0.00000000000E+00 0. -1.
          1   -1    0    0  501    0 -0.00000000000E+00 -0.00000000000E+00 -0.75816483939E+03  0.75816483939E+03  0.00000000000E+00 0. -1.
         25    2    1    2    0    0  0.78113238127E+02  0.36629633841E+02  0.36670821917E+03  0.39691145730E+03  0.12498151417E+03 0.  0.
          2    1    1    2  501    0 -0.11538095915E+03  0.62350058799E+02 -0.71037856804E+03  0.72238355844E+03  0.00000000000E+00 0. -1.
          1    1    1    2  502    0  0.37267721025E+02 -0.98979692640E+02  0.78124423468E+02  0.13148873765E+03  0.00000000000E+00 0. -1.
         22    1    3    3    0    0 -0.14680495693E+02  0.78272984554E+01 -0.91834628116E+00  0.16662140162E+02  0.00000000000E+00 0.  1.
         22    1    3    3    0    0  0.92793733820E+02  0.28802335385E+02  0.36762656545E+03  0.38024931714E+03  0.00000000000E+00 0.  1.
</event>
<event>
 7    1  0.5537228E-006  0.8489954E+02  0.7818608E-02  0.1434068E+00
          2   -1    0    0  502    0  0.00000000000E+00  0.00000000000E+00  0.21764372426E+04  0.21764372426E+04  0.00000000000E+00 0. -1.
          1   -1    0    0  501    0 -0.00000000000E+00 -0.00000000000E+00 -0.58538577131E+02  0.58538577131E+02  0.00000000000E+00 0. -1.
         25    2    1    2    0    0 -0.51267900330E+02  0.22702344967E+02  0.18437272050E+03  0.22970070886E+03  0.12500128604E+03 0.  0.
          2    1    1    2  501    0 -0.32026345045E+02 -0.77988351967E+00 -0.27583824081E+02  0.42274842947E+02  0.00000000000E+00 0. -1.
          1    1    1    2  502    0  0.83294245374E+02 -0.21922461447E+02  0.19611097690E+04  0.19630002679E+04  0.00000000000E+00 0. -1.
         22    1    3    3    0    0 -0.94729755301E+01  0.55885619403E+02  0.16236492271E+03  0.17197473026E+03  0.00000000000E+00 0. -1.
         22    1    3    3    0    0 -0.41794924800E+02 -0.33183274437E+02  0.22007797794E+02  0.57725978598E+02  0.00000000000E+00 0. -1.
</event>
<event>
 7    1  0.5537228E-006  0.6057097E+02  0.7818608E-02  0.1529033E+00
          2   -1    0    0  502    0  0.00000000000E+00  0.00000000000E+00  0.78400120560E+03  0.78400120560E+03  0.00000000000E+00 0. -1.
          1   -1    0    0  501    0 -0.00000000000E+00 -0.00000000000E+00 -0.55908274229E+02  0.55908274229E+02  0.00000000000E+00 0. -1.
         25    2    1    2    0    0  0.76985582584E+02 -0.18255997676E+02  0.29181113384E+03  0.32716775415E+03  0.12499976058E+03 0.  0.
          2    1    1    2  501    0 -0.22626414249E+02 -0.39928432430E+01 -0.32772513677E+02  0.40024181086E+02  0.00000000000E+00 0. -1.
          1    1    1    2  502    0 -0.54359168335E+02  0.22248840919E+02  0.46905431120E+03  0.47271754459E+03  0.00000000000E+00 0. -1.
         22    1    3    3    0    0  0.59918697046E+02 -0.65645110730E+02  0.12832799054E+03  0.15610126192E+03  0.00000000000E+00 0.  1.
         22    1    3    3    0    0  0.17066885538E+02  0.47389113055E+02  0.16348314331E+03  0.17106649223E+03  0.00000000000E+00 0.  1.
</event>
<event>
 7    1  0.6486852E-006  0.9880725E+02  0.7818608E-02  0.1313244E+00
          2   -1    0    0  502    0  0.00000000000E+00  0.00000000000E+00  0.80448596200E+03  0.80448596200E+03  0.00000000000E+00 0. -1.
          1   -1    0    0  501    0 -0.00000000000E+00 -0.00000000000E+00 -0.22280503003E+04  0.22280503003E+04  0.00000000000E+00 0. -1.
         25    2    1    2    0    0  0.38037570464E+02 -0.74325256000E+02 -0.26575206622E+03  0.30531981908E+03  0.12499972311E+03 0.  0.
          2    1    1    2  501    0 -0.97257514619E+02  0.28993675445E+02 -0.19394125913E+04  0.19420661309E+04  0.00000000000E+00 0. -1.
          1    1    1    2  502    0  0.59219944155E+02  0.45331580555E+02  0.78160031922E+03  0.78515031235E+03  0.00000000000E+00 0. -1.
         22    1    3    3    0    0 -0.10290668579E+02  0.19097044678E+02 -0.25051179656E+01  0.21837366857E+02  0.00000000000E+00 0. -1.
         22    1    3    3    0    0  0.48328239043E+02 -0.93422300678E+02 -0.26324694826E+03  0.28348245222E+03  0.00000000000E+00 0. -1.
</event>
<event>
 7    1  0.5537228E-006  0.1223292E+03  0.7818608E-02  0.1323903E+00
          2   -1    0    0  502    0  0.00000000000E+00  0.00000000000E+00  0.85839026077E+03  0.85839026077E+03  0.00000000000E+00 0. -1.
          1   -1    0    0  501    0 -0.00000000000E+00 -0.00000000000E+00 -0.32822953911E+03  0.32822953911E+03  0.00000000000E+00 0. -1.
         25    2    1    2    0    0 -0.13912125859E+02  0.10326305371E+03 -0.13140518154E+03  0.20914298559E+03  0.12496664026E+03 0.  0.
          2    1    1    2  501    0  0.64483917820E+02 -0.12425410746E+03 -0.12579975261E+03  0.18820955511E+03  0.00000000000E+00 0. -1.
          1    1    1    2  502    0 -0.50571791961E+02  0.20991053752E+02  0.78736565580E+03  0.78926725918E+03  0.00000000000E+00 0. -1.
         22    1    3    3    0    0  0.17186018267E+02  0.97246220330E+02 -0.14437296917E+03  0.17491638236E+03  0.00000000000E+00 0. -1.
         22    1    3    3    0    0 -0.31098144126E+02  0.60168333762E+01  0.12967787635E+02  0.34226603222E+02  0.00000000000E+00 0. -1.
</event>
<event>
 7    1  0.5537228E-006  0.9950094E+02  0.7818608E-02  0.1320775E+00
          2   -1    0    0  502    0  0.00000000000E+00  0.00000000000E+00  0.12057394186E+04  0.12057394186E+04  0.00000000000E+00 0. -1.
          1   -1    0    0  501    0 -0.00000000000E+00 -0.00000000000E+00 -0.12154734673E+04  0.12154734673E+04  0.00000000000E+00 0. -1.
         25    2    1    2    0    0  0.48366778481E+02  0.90557659765E+02  0.29899728306E+03  0.33994795337E+03  0.12500080286E+03 0.  0.
          2    1    1    2  501    0  0.20502469677E+02 -0.97503354946E+02 -0.11915642458E+04  0.11957226298E+04  0.00000000000E+00 0. -1.
          1    1    1    2  502    0 -0.68869248158E+02  0.69456951813E+01  0.88283291397E+03  0.88554230278E+03  0.00000000000E+00 0. -1.
         22    1    3    3    0    0  0.37664421445E+02  0.10743718726E+03  0.29902171301E+03  0.31996147065E+03  0.00000000000E+00 0. -1.
         22    1    3    3    0    0  0.10702357036E+02 -0.16879527497E+02 -0.24429943611E-01  0.19986482719E+02  0.00000000000E+00 0. -1.
</event>
<event>
 7    1  0.5537228E-006  0.6827783E+02  0.7818608E-02  0.1516457E+00
          2   -1    0    0  502    0  0.00000000000E+00  0.00000000000E+00  0.30804360188E+03  0.30804360188E+03  0.00000000000E+00 0. -1.
          1   -1    0    0  501    0 -0.00000000000E+00 -0.00000000000E+00 -0.17512788129E+03  0.17512788129E+03  0.00000000000E+00 0. -1.
         25    2    1    2    0    0  0.84851125857E+01  0.88594729199E+02 -0.10153976629E+03  0.18399722824E+03  0.12499453062E+03 0.  0.
          2    1    1    2  501    0  0.31144700052E+01 -0.21943886742E+02 -0.23613127904E+02  0.32385396373E+02  0.00000000000E+00 0. -1.
          1    1    1    2  502    0 -0.11599582591E+02 -0.66650842457E+02  0.25806861478E+03  0.26678885856E+03  0.00000000000E+00 0. -1.
         22    1    3    3    0    0 -0.39557298670E+02 -0.11506019277E+02 -0.38127526265E+02  0.56132669781E+02  0.00000000000E+00 0.  1.
         22    1    3    3    0    0  0.48042411256E+02  0.10010074848E+03 -0.63412240023E+02  0.12786455846E+03  0.00000000000E+00 0.  1.
</event>
<event>
 7    1  0.5537228E-006  0.8496357E+02  0.7818608E-02  0.1456258E+00
          2   -1    0    0  502    0  0.00000000000E+00  0.00000000000E+00  0.10513796749E+04  0.10513796749E+04  0.00000000000E+00 0. -1.
          1   -1    0    0  501    0 -0.00000000000E+00 -0.00000000000E+00 -0.10937759322E+03  0.10937759322E+03  0.00000000000E+00 0. -1.
         25    2    1    2    0    0  0.12467059540E+02 -0.62141226768E+02  0.12446413737E+03  0.18742448625E+03  0.12497862583E+03 0.  0.
          2    1    1    2  501    0 -0.12052732380E+02 -0.24331484769E+02 -0.73372441096E+02  0.78235571330E+02  0.00000000000E+00 0. -1.
          1    1    1    2  502    0 -0.41432715963E+00  0.86472711537E+02  0.89091038537E+03  0.89509721052E+03  0.00000000000E+00 0. -1.
         22    1    3    3    0    0  0.17567457030E+02 -0.33623294606E+02  0.14630513444E+03  0.15114342146E+03  0.00000000000E+00 0.  1.
         22    1    3    3    0    0 -0.51003974899E+01 -0.28517932162E+02 -0.21840997065E+02  0.36281064788E+02  0.00000000000E+00 0.  1.
</event>
<event>
 7    1  0.5537228E-006  0.4623979E+02  0.7818608E-02  0.1468402E+00
          2   -1    0    0  502    0  0.00000000000E+00  0.00000000000E+00  0.19812973840E+03  0.19812973840E+03  0.00000000000E+00 0. -1.
          1   -1    0    0  501    0 -0.00000000000E+00 -0.00000000000E+00 -0.83710134679E+03  0.83710134679E+03  0.00000000000E+00 0. -1.
         25    2    1    2    0    0 -0.32974505925E+02  0.92688359606E+01  0.12579013054E+03  0.18061829373E+03  0.12500632675E+03 0.  0.
          2    1    1    2  501    0 -0.18090021399E+02 -0.42554314187E+02 -0.78801689915E+03  0.78937237846E+03  0.00000000000E+00 0. -1.
          1    1    1    2  502    0  0.51064527324E+02  0.33285478226E+02  0.23255160210E+02  0.65240412997E+02  0.00000000000E+00 0. -1.
         22    1    3    3    0    0 -0.27414435094E+02  0.10696865274E+02  0.15147129298E+03  0.15430335958E+03  0.00000000000E+00 0. -1.
         22    1    3    3    0    0 -0.55600708301E+01 -0.14280293131E+01 -0.25681162440E+02  0.26314934155E+02  0.00000000000E+00 0. -1.
</event>
<event>
 7    1  0.5537228E-006  0.1015422E+03  0.7818608E-02  0.1440465E+00
          2   -1    0    0  502    0  0.00000000000E+00  0.00000000000E+00  0.38322342726E+03  0.38322342726E+03  0.00000000000E+00 0. -1.
          1   -1    0    0  501    0 -0.00000000000E+00 -0.00000000000E+00 -0.82302174081E+03  0.82302174081E+03  0.00000000000E+00 0. -1.
         25    2    1    2    0    0  0.10027429004E+03 -0.53673732690E+02  0.22380822671E+03  0.28044881884E+03  0.12500245925E+03 0.  0.
          2    1    1    2  501    0 -0.25205238313E+02 -0.40608443673E+01 -0.77736115740E+03  0.77778027972E+03  0.00000000000E+00 0. -1.
          1    1    1    2  502    0 -0.75069051729E+02  0.57734577057E+02  0.11375461712E+03  0.14801606951E+03  0.00000000000E+00 0. -1.
         22    1    3    3    0    0  0.10073941045E+03 -0.34005050675E+01  0.81827494860E+02  0.12982962361E+03  0.00000000000E+00 0. -1.
         22    1    3    3    0    0 -0.46512040747E+00 -0.50273227622E+02  0.14198073186E+03  0.15061919523E+03  0.00000000000E+00 0. -1.
</event>
<event>
 7    1  0.5537228E-006  0.1283893E+03  0.7818608E-02  0.1300679E+00
          2   -1    0    0  502    0  0.00000000000E+00  0.00000000000E+00  0.36125522720E+04  0.36125522720E+04  0.00000000000E+00 0. -1.
          1   -1    0    0  501    0 -0.00000000000E+00 -0.00000000000E+00 -0.31113063224E+03  0.31113063224E+03  0.00000000000E+00 0. -1.
         25    2    1    2    0    0 -0.98403581133E+02 -0.15932051000E+03  0.22395679800E+03  0.31756645734E+03  0.12500207106E+03 0.  0.
          2    1    1    2  501    0  0.53489009877E+02  0.11322137687E+03 -0.24916670787E+03  0.27886233641E+03  0.00000000000E+00 0. -1.
          1    1    1    2  502    0  0.44914571256E+02  0.46099133128E+02  0.33266315496E+04  0.33272541105E+04  0.00000000000E+00 0. -1.
         22    1    3    3    0    0 -0.99270569016E+02 -0.17744198630E+03  0.21884106204E+03  0.29871678026E+03  0.00000000000E+00 0. -1.
         22    1    3    3    0    0  0.86698788306E+00  0.18121476305E+02  0.51157359678E+01  0.18849677079E+02  0.00000000000E+00 0. -1.
</event>
<event>
 7    1  0.5537228E-006  0.1285464E+03  0.7818608E-02  0.1329629E+00
          2   -1    0    0  502    0  0.00000000000E+00  0.00000000000E+00  0.14797724838E+04  0.14797724838E+04  0.00000000000E+00 0. -1.
          1   -1    0    0  501    0 -0.00000000000E+00 -0.00000000000E+00 -0.60247146245E+02  0.60247146245E+02  0.00000000000E+00 0. -1.
         25    2    1    2    0    0  0.10171752931E+03 -0.78426578971E+02  0.88600203655E+03  0.90394865576E+03  0.12500551760E+03 0.  0.
          2    1    1    2  501    0  0.26191339538E+02  0.42044359438E+02 -0.29434092039E+02  0.57620137119E+02  0.00000000000E+00 0. -1.
          1    1    1    2  502    0 -0.12790886885E+03  0.36382219533E+02  0.56295739300E+03  0.57845083712E+03  0.00000000000E+00 0. -1.
         22    1    3    3    0    0  0.43924572669E+02  0.32045309196E+02  0.28819385303E+03  0.29327796858E+03  0.00000000000E+00 0. -1.
         22    1    3    3    0    0  0.57792956644E+02 -0.11047188817E+03  0.59780818351E+03  0.61067068719E+03  0.00000000000E+00 0. -1.
</event>
<event>
 7    1  0.5537228E-006  0.9292223E+02  0.7818608E-02  0.1337095E+00
          2   -1    0    0  502    0  0.00000000000E+00  0.00000000000E+00  0.88069320743E+03  0.88069320743E+03  0.00000000000E+00 0. -1.
          1   -1    0    0  501    0 -0.00000000000E+00 -0.00000000000E+00 -0.13943907591E+04  0.13943907591E+04  0.00000000000E+00 0. -1.
         25    2    1    2    0    0  0.13827769728E+03  0.32490855975E+02  0.34492406133E+03  0.39341351321E+03  0.12500082800E+03 0.  0.
          2    1    1    2  501    0 -0.52167107329E+02 -0.37404562679E+02 -0.13657510380E+04  0.13672587195E+04  0.00000000000E+00 0. -1.
          1    1    1    2  502    0 -0.86110589949E+02  0.49137067045E+01  0.50712942496E+03  0.51441173381E+03  0.00000000000E+00 0. -1.
         22    1    3    3    0    0  0.58888591704E+02  0.66849652997E+02  0.10137494768E+03  0.13495785400E+03  0.00000000000E+00 0.  1.
         22    1    3    3    0    0  0.79389105574E+02 -0.34358797022E+02  0.24354911365E+03  0.25845565921E+03  0.00000000000E+00 0.  1.
</event>
<event>
 7    1  0.5537228E-006  0.9838680E+02  0.7818608E-02  0.1353506E+00
          2   -1    0    0  502    0  0.00000000000E+00  0.00000000000E+00  0.44144060768E+03  0.44144060768E+03  0.00000000000E+00 0. -1.
          1   -1    0    0  501    0 -0.00000000000E+00 -0.00000000000E+00 -0.61850396255E+03  0.61850396255E+03  0.00000000000E+00 0. -1.
         25    2    1    2    0    0 -0.11469444950E+01 -0.67964434998E+02 -0.15049506778E+03  0.20710797636E+03  0.12499787413E+03 0.  0.
          2    1    1    2  501    0  0.48877970284E+02 -0.19575146377E+02 -0.43206506449E+03  0.43526137238E+03  0.00000000000E+00 0. -1.
          1    1    1    2  502    0 -0.47731025789E+02  0.87539581376E+02  0.40549677740E+03  0.41757522150E+03  0.00000000000E+00 0. -1.
         22    1    3    3    0    0 -0.29571483485E+02  0.23965920686E+02 -0.14980854960E+02  0.40905549809E+02  0.00000000000E+00 0. -1.
         22    1    3    3    0    0  0.28424538990E+02 -0.91930355685E+02 -0.13551421282E+03  0.16620242655E+03  0.00000000000E+00 0. -1.
</event>
<event>
 7    1  0.5537228E-006  0.9384391E+02  0.7818608E-02  0.1327358E+00
          2   -1    0    0  502    0  0.00000000000E+00  0.00000000000E+00  0.37206541826E+03  0.37206541826E+03  0.00000000000E+00 0. -1.
          1   -1    0    0  501    0 -0.00000000000E+00 -0.00000000000E+00 -0.53680468801E+03  0.53680468801E+03  0.00000000000E+00 0. -1.
         25    2    1    2    0    0 -0.17345966203E+02 -0.20129555826E+02  0.16944665452E+03  0.21223315007E+03  0.12499863879E+03 0.  0.
          2    1    1    2  501    0  0.71892672718E+02  0.62752956659E+02 -0.50415739046E+03  0.51310931030E+03  0.00000000000E+00 0. -1.
          1    1    1    2  502    0 -0.54546706515E+02 -0.42623400833E+02  0.16997146619E+03  0.18352764590E+03  0.00000000000E+00 0. -1.
         22    1    3    3    0    0 -0.35057220887E+02  0.88381887216E+01  0.17423274795E+03  0.17794429683E+03  0.00000000000E+00 0. -1.
         22    1    3    3    0    0  0.17711254684E+02 -0.28967744547E+02 -0.47860934243E+01  0.34288853246E+02  0.00000000000E+00 0. -1.
</event>
<event>
 7    1  0.5537228E-006  0.5411874E+02  0.7818608E-02  0.1475499E+00
          2   -1    0    0  502    0  0.00000000000E+00  0.00000000000E+00  0.11505016553E+04  0.11505016553E+04  0.00000000000E+00 0. -1.
          1   -1    0    0  501    0 -0.00000000000E+00 -0.00000000000E+00 -0.28824246984E+03  0.28824246984E+03  0.00000000000E+00 0. -1.
         25    2    1    2    0    0  0.14146236635E+02 -0.11058210017E+02  0.22408714335E+02  0.12825622655E+03  0.12500043660E+03 0.  0.
          2    1    1    2  501    0  0.34399372410E+02 -0.13925216875E+02 -0.23315717453E+03  0.23609213566E+03  0.00000000000E+00 0. -1.
          1    1    1    2  502    0 -0.48545609045E+02  0.24983426892E+02  0.10730076457E+04  0.10743957630E+04  0.00000000000E+00 0. -1.
         22    1    3    3    0    0 -0.16220037421E+02  0.24190804109E+02  0.61137717740E+02  0.67720788152E+02  0.00000000000E+00 0. -1.
         22    1    3    3    0    0  0.30366274056E+02 -0.35249014126E+02 -0.38729003405E+02  0.60535438395E+02  0.00000000000E+00 0. -1.
</event>
<event>
 7    1  0.5537228E-006  0.8229436E+02  0.7818608E-02  0.1458131E+00
          2   -1    0    0  502    0  0.00000000000E+00  0.00000000000E+00  0.87716654310E+03  0.87716654310E+03  0.00000000000E+00 0. -1.
          1   -1    0    0  501    0 -0.00000000000E+00 -0.00000000000E+00 -0.13245257905E+03  0.13245257905E+03  0.00000000000E+00 0. -1.
         25    2    1    2    0    0  0.54943014271E+02  0.55594271636E+02  0.70923707322E+03  0.72439746811E+03  0.12500003168E+03 0.  0.
          2    1    1    2  501    0  0.25317523633E+02 -0.11123696373E+02 -0.10989099329E+03  0.11331700680E+03  0.00000000000E+00 0. -1.
          1    1    1    2  502    0 -0.80260537904E+02 -0.44470575263E+02  0.14536788412E+03  0.17190464724E+03  0.00000000000E+00 0. -1.
         22    1    3    3    0    0  0.71918922920E+02 -0.12636561983E+02  0.27619988668E+03  0.28568932702E+03  0.00000000000E+00 0.  1.
         22    1    3    3    0    0 -0.16975908650E+02  0.68230833619E+02  0.43303718654E+03  0.43870814109E+03  0.00000000000E+00 0.  1.
</event>
<event>
 7    1  0.5537228E-006  0.1811969E+03  0.7818608E-02  0.1347699E+00
          2   -1    0    0  502    0  0.00000000000E+00  0.00000000000E+00  0.46348316763E+03  0.46348316763E+03  0.00000000000E+00 0. -1.
          1   -1    0    0  501    0 -0.00000000000E+00 -0.00000000000E+00 -0.18246572148E+04  0.18246572148E+04  0.00000000000E+00 0. -1.
         25    2    1    2    0    0 -0.79642791750E+02 -0.14217428907E+03 -0.47613268457E+03  0.51854027409E+03  0.12500071916E+03 0.  0.
          2    1    1    2  501    0 -0.29878713823E+02 -0.31057714383E+01 -0.13084304414E+04  0.13087752303E+04  0.00000000000E+00 0. -1.
          1    1    1    2  502    0  0.10952150557E+03  0.14528006051E+03  0.42338907883E+03  0.46082487806E+03  0.00000000000E+00 0. -1.
         22    1    3    3    0    0  0.48429171520E+01  0.20446009260E+02 -0.34493521731E+02  0.40389307776E+02  0.00000000000E+00 0.  1.
         22    1    3    3    0    0 -0.84485708902E+02 -0.16262029833E+03 -0.44163916284E+03  0.47815096632E+03  0.00000000000E+00 0.  1.
</event>
<event>
 7    1  0.5537228E-006  0.6150348E+02  0.7818608E-02  0.1422677E+00
          2   -1    0    0  502    0  0.00000000000E+00  0.00000000000E+00  0.90942160911E+03  0.90942160911E+03  0.00000000000E+00 0. -1.
          1   -1    0    0  501    0 -0.00000000000E+00 -0.00000000000E+00 -0.71981300002E+03  0.71981300002E+03  0.00000000000E+00 0. -1.
         25    2    1    2    0    0  0.64878951204E+02 -0.77972748756E+01  0.14571894121E+03  0.20279757808E+03  0.12499108785E+03 0.  0.
          2    1    1    2  501    0 -0.25944655646E+02 -0.40646132160E+02 -0.68911611595E+03  0.69080116855E+03  0.00000000000E+00 0. -1.
          1    1    1    2  502    0 -0.38934295558E+02  0.48443407036E+02  0.73300578383E+03  0.73563586249E+03  0.00000000000E+00 0. -1.
         22    1    3    3    0    0  0.10038784412E+03  0.25860122152E+01  0.84380219877E+02  0.13116565180E+03  0.00000000000E+00 0. -1.
         22    1    3    3    0    0 -0.35508892917E+02 -0.10383287091E+02  0.61338721335E+02  0.71631926276E+02  0.00000000000E+00 0. -1.
</event>
<event>
 7    1  0.5537228E-006  0.2837017E+03  0.7818608E-02  0.1314852E+00
          2   -1    0    0  502    0  0.00000000000E+00  0.00000000000E+00  0.19852091472E+04  0.19852091472E+04  0.00000000000E+00 0. -1.
          1   -1    0    0  501    0 -0.00000000000E+00 -0.00000000000E+00 -0.55658790412E+03  0.55658790412E+03  0.00000000000E+00 0. -1.
         25    2    1    2    0    0  0.23373433140E+03 -0.11262486057E+03 -0.11964613163E+03  0.31185609923E+03  0.12499173140E+03 0.  0.
          2    1    1    2  501    0  0.24153345022E+02 -0.84850292413E+01 -0.32959525513E+03  0.33058797921E+03  0.00000000000E+00 0. -1.
          1    1    1    2  502    0 -0.25788767642E+03  0.12110988981E+03  0.18778626299E+04  0.18993529729E+04  0.00000000000E+00 0. -1.
         22    1    3    3    0    0  0.16526675569E+03 -0.11428942400E+03 -0.13447367187E+03  0.24178159856E+03  0.00000000000E+00 0. -1.
         22    1    3    3    0    0  0.68467575710E+02  0.16645634301E+01  0.14827540237E+02  0.70074500673E+02  0.00000000000E+00 0. -1.
</event>
<event>
 7    1  0.5537228E-006  0.7437981E+02  0.7818608E-02  0.1357452E+00
          2   -1    0    0  502    0  0.00000000000E+00  0.00000000000E+00  0.11563186178E+04  0.11563186178E+04  0.00000000000E+00 0. -1.
          1   -1    0    0  501    0 -0.00000000000E+00 -0.00000000000E+00 -0.32324603661E+03  0.32324603661E+03  0.00000000000E+00 0. -1.
         25    2    1    2    0    0 -0.90217200009E+01  0.19174441117E+00  0.64083293832E+01  0.12549813905E+03  0.12500915175E+03 0.  0.
          2    1    1    2  501    0 -0.63313099986E+02 -0.22994151491E+02 -0.25805374987E+03  0.26670023894E+03  0.00000000000E+00 0. -1.
          1    1    1    2  502    0  0.72334819987E+02  0.22802407080E+02  0.10847180017E+04  0.10873662764E+04  0.00000000000E+00 0. -1.
         22    1    3    3    0    0  0.16659961707E+02  0.38511697299E+02  0.47740670442E+02  0.63560024915E+02  0.00000000000E+00 0.  1.
         22    1    3    3    0    0 -0.25681681708E+02 -0.38319952888E+02 -0.41332341059E+02  0.61938114131E+02  0.00000000000E+00 0.  1.
</event>
<event>
 7    1  0.5537228E-006  0.2678013E+02  0.7818608E-02  0.1639533E+00
          2   -1    0    0  502    0  0.00000000000E+00  0.00000000000E+00  0.32399371857E+03  0.32399371857E+03  0.00000000000E+00 0. -1.
          1   -1    0    0  501    0 -0.00000000000E+00 -0.00000000000E+00 -0.13098579060E+03  0.13098579060E+03  0.00000000000E+00 0. -1.
         25    2    1    2    0    0  0.16334877648E+02  0.16163382622E+02  0.19359475849E+03  0.23158547156E+03  0.12499926783E+03 0.  0.
          2    1    1    2  501    0 -0.25518543941E+02  0.85292590063E+01 -0.10877040079E+03  0.11204884842E+03  0.00000000000E+00 0. -1.
          1    1    1    2  502    0  0.91836662929E+01 -0.24692641629E+02  0.10818357028E+03  0.11134518919E+03  0.00000000000E+00 0. -1.
         22    1    3    3    0    0 -0.43470725595E+02  0.37880861344E+02  0.57896229406E+02  0.81710690973E+02  0.00000000000E+00 0. -1.
         22    1    3    3    0    0  0.59805603243E+02 -0.21717478721E+02  0.13569852909E+03  0.14987478059E+03  0.00000000000E+00 0. -1.
</event>
<event>
 7    1  0.5537228E-006  0.1109018E+03  0.7818608E-02  0.1331363E+00
          2   -1    0    0  502    0  0.00000000000E+00  0.00000000000E+00  0.84721236701E+03  0.84721236701E+03  0.00000000000E+00 0. -1.
          1   -1    0    0  501    0 -0.00000000000E+00 -0.00000000000E+00 -0.10224149983E+03  0.10224149983E+03  0.00000000000E+00 0. -1.
         25    2    1    2    0    0 -0.96098853695E+02 -0.38641572540E+01  0.21252720438E+03  0.26465555004E+03  0.12499930468E+03 0.  0.
          2    1    1    2  501    0 -0.78976438769E+01  0.55993296839E+02 -0.59176067797E+02  0.81850040133E+02  0.00000000000E+00 0. -1.
          1    1    1    2  502    0  0.10399649757E+03 -0.52129139585E+02  0.59161973060E+03  0.60294827666E+03  0.00000000000E+00 0. -1.
         22    1    3    3    0    0 -0.22162964982E+02 -0.59903184158E+02  0.71779448242E+02  0.96082660657E+02  0.00000000000E+00 0.  1.
         22    1    3    3    0    0 -0.73935888714E+02  0.56039026904E+02  0.14074775614E+03  0.16857288938E+03  0.00000000000E+00 0.  1.
</event>
<event>
 7    1  0.5537228E-006  0.4319924E+02  0.7818608E-02  0.1555597E+00
          2   -1    0    0  502    0  0.00000000000E+00  0.00000000000E+00  0.94419033863E+02  0.94419033863E+02  0.00000000000E+00 0. -1.
          1   -1    0    0  501    0 -0.00000000000E+00 -0.00000000000E+00 -0.29454643933E+04  0.29454643933E+04  0.00000000000E+00 0. -1.
         25    2    1    2    0    0  0.26519665718E+02 -0.27256095989E+02  0.68975642598E+01  0.13083475450E+03  0.12499587654E+03 0.  0.
          2    1    1    2  501    0 -0.44455375791E+01  0.43001538891E+02 -0.28760945463E+04  0.28764194295E+04  0.00000000000E+00 0. -1.
          1    1    1    2  502    0 -0.22074128139E+02 -0.15745442901E+02  0.18151622616E+02  0.32629243155E+02  0.00000000000E+00 0. -1.
         22    1    3    3    0    0 -0.28626428661E+02 -0.31605631486E+01  0.49383664109E+02  0.57168241692E+02  0.00000000000E+00 0. -1.
         22    1    3    3    0    0  0.55146094379E+02 -0.24095532841E+02 -0.42486099850E+02  0.73666512803E+02  0.00000000000E+00 0. -1.
</event>
<event>
 7    1  0.5537228E-006  0.7529632E+02  0.7818608E-02  0.1346859E+00
          2   -1    0    0  502    0  0.00000000000E+00  0.00000000000E+00  0.98099498596E+02  0.98099498596E+02  0.00000000000E+00 0. -1.
          1   -1    0    0  501    0 -0.00000000000E+00 -0.00000000000E+00 -0.79593735811E+03  0.79593735811E+03  0.00000000000E+00 0. -1.
         25    2    1    2    0    0 -0.44049927255E+02  0.12195679079E+03 -0.32136414824E+03  0.36839374860E+03  0.12500073330E+03 0.  0.
          2    1    1    2  501    0 -0.94520274243E+01 -0.72195418056E+02 -0.42933168770E+03  0.43546207329E+03  0.00000000000E+00 0. -1.
          1    1    1    2  502    0  0.53501954679E+02 -0.49761372730E+02  0.52857976418E+02  0.90181034821E+02  0.00000000000E+00 0. -1.
         22    1    3    3    0    0 -0.15460855973E+02  0.13440819366E+03 -0.30389472014E+03  0.33265087031E+03  0.00000000000E+00 0. -1.
         22    1    3    3    0    0 -0.28589071282E+02 -0.12451402873E+02 -0.17469428098E+02  0.35742878289E+02  0.00000000000E+00 0. -1.
</event>
<event>
 7    1  0.5537228E-006  0.1273901E+03  0.7818608E-02  0.1291417E+00
          2   -1    0    0  502    0  0.00000000000E+00  0.00000000000E+00  0.91543643406E+03  0.91543643406E+03  0.00000000000E+00 0. -1.
          1   -1    0    0  501    0 -0.00000000000E+00 -0.00000000000E+00 -0.59615079335E+03  0.59615079335E+03  0.00000000000E+00 0. -1.
         25    2    1    2    0    0 -0.35557922580E+02 -0.47049060344E+02 -0.12716714567E+03  0.18781515295E+03  0.12500027520E+03 0.  0.
          2    1    1    2  501    0 -0.48688294711E+02 -0.51244125224E+02 -0.43103185865E+03  0.43678939271E+03  0.00000000000E+00 0. -1.
          1    1    1    2  502    0  0.84246217291E+02  0.98293185569E+02  0.87748464504E+03  0.88698268176E+03  0.00000000000E+00 0. -1.
         22    1    3    3    0    0 -0.12768487222E+02  0.18030868536E+02  0.17085125762E+02  0.27929339563E+02  0.00000000000E+00 0. -1.
         22    1    3    3    0    0 -0.22789435358E+02 -0.65079928880E+02 -0.14425227143E+03  0.15988581338E+03  0.00000000000E+00 0. -1.
</event>
<event>
 7    1  0.5537228E-006  0.2177043E+02  0.7818608E-02  0.1712427E+00
          2   -1    0    0  502    0  0.00000000000E+00  0.00000000000E+00  0.73825317223E+03  0.73825317223E+03  0.00000000000E+00 0. -1.
          1   -1    0    0  501    0 -0.00000000000E+00 -0.00000000000E+00 -0.18437175426E+03  0.18437175426E+03  0.00000000000E+00 0. -1.
         25    2    1    2    0    0  0.22289665519E+02  0.42413494469E+01  0.22014812266E+03  0.25417493649E+03  0.12499953677E+03 0.  0.
          2    1    1    2  501    0 -0.14482383069E+02  0.16228069142E+02 -0.16641084048E+03  0.16782627171E+03  0.00000000000E+00 0. -1.
          1    1    1    2  502    0 -0.78072824503E+01 -0.20469418588E+02  0.50014413579E+03  0.50062371830E+03  0.00000000000E+00 0. -1.
         22    1    3    3    0    0 -0.27759535688E+02  0.18268272475E+02  0.19241084901E+03  0.19525945923E+03  0.00000000000E+00 0. -1.
         22    1    3    3    0    0  0.50049201208E+02 -0.14026923028E+02  0.27737273648E+02  0.58915477258E+02  0.00000000000E+00 0. -1.
</event>
<event>
 7    1  0.5537228E-006  0.4187865E+02  0.7818608E-02  0.1573950E+00
          2   -1    0    0  502    0  0.00000000000E+00  0.00000000000E+00  0.68951463858E+03  0.68951463858E+03  0.00000000000E+00 0. -1.
          1   -1    0    0  501    0 -0.00000000000E+00 -0.00000000000E+00 -0.11604308431E+04  0.11604308431E+04  0.00000000000E+00 0. -1.
         25    2    1    2    0    0  0.50513077123E+02 -0.27817005848E+01 -0.83412167365E+02  0.15856086523E+03  0.12499859799E+03 0.  0.
          2    1    1    2  501    0 -0.35287740729E+02  0.22504409271E+02 -0.10387847188E+04  0.10396275127E+04  0.00000000000E+00 0. -1.
          1    1    1    2  502    0 -0.15225336394E+02 -0.19722708686E+02  0.65128068162E+03  0.65175710380E+03  0.00000000000E+00 0. -1.
         22    1    3    3    0    0 -0.17965649454E+02  0.46889180069E+02 -0.29243902926E+02  0.58108223395E+02  0.00000000000E+00 0.  1.
         22    1    3    3    0    0  0.68478726577E+02 -0.49670880654E+02 -0.54168264439E+02  0.10045264183E+03  0.00000000000E+00 0.  1.
</event>
<event>
 7    1  0.5537228E-006  0.1131877E+03  0.7818608E-02  0.1266945E+00
          2   -1    0    0  502    0  0.00000000000E+00  0.00000000000E+00  0.11318878768E+04  0.11318878768E+04  0.00000000000E+00 0. -1.
          1   -1    0    0  501    0 -0.00000000000E+00 -0.00000000000E+00 -0.52115321499E+03  0.52115321499E+03  0.00000000000E+00 0. -1.
         25    2    1    2    0    0  0.10410175909E+03 -0.17801895693E+03  0.27248769762E+03  0.36387073180E+03  0.12499775531E+03 0.  0.
          2    1    1    2  501    0 -0.55753201422E+02  0.83554974560E+02 -0.46663459986E+03  0.47732347840E+03  0.00000000000E+00 0. -1.
          1    1    1    2  502    0 -0.48348557671E+02  0.94463982375E+02  0.80488156401E+03  0.81184688155E+03  0.00000000000E+00 0. -1.
         22    1    3    3    0    0  0.41391813641E+02 -0.26622270476E+01  0.10691401253E+03  0.11467770387E+03  0.00000000000E+00 0.  1.
         22    1    3    3    0    0  0.62709945452E+02 -0.17535672989E+03  0.16557368509E+03  0.24919302793E+03  0.00000000000E+00 0.  1.
</event>
<event>
 7    1  0.5537228E-006  0.1007471E+03  0.7818608E-02  0.1311769E+00
          2   -1    0    0  502    0  0.00000000000E+00  0.00000000000E+00  0.25278526566E+04  0.25278526566E+04  0.00000000000E+00 0. -1.
          1   -1    0    0  501    0 -0.00000000000E+00 -0.00000000000E+00 -0.49895876074E+03  0.49895876074E+03  0.00000000000E+00 0. -1.
         25    2    1    2    0    0  0.74426144657E+02  0.14050255220E+03  0.37584838937E+03  0.42680991719E+03  0.12499790171E+03 0.  0.
          2    1    1    2  501    0 -0.60390561742E+02 -0.42981985612E+02 -0.46942708009E+03  0.47524336350E+03  0.00000000000E+00 0. -1.
          1    1    1    2  502    0 -0.14035582915E+02 -0.97520566592E+02  0.21224725866E+04  0.21247581367E+04  0.00000000000E+00 0. -1.
         22    1    3    3    0    0 -0.65842842025E+01  0.79350370382E+02  0.75318227965E+02  0.10960232453E+03  0.00000000000E+00 0.  1.
         22    1    3    3    0    0  0.81010428859E+02  0.61152181822E+02  0.30053016141E+03  0.31720759266E+03  0.00000000000E+00 0.  1.
</event>
<event>
 7    1  0.5537228E-006  0.5315400E+02  0.7818608E-02  0.1432086E+00
          2   -1    0    0  502    0  0.00000000000E+00  0.00000000000E+00  0.18813943831E+04  0.18813943831E+04  0.00000000000E+00 0. -1.
          1   -1    0    0  501    0 -0.00000000000E+00 -0.00000000000E+00 -0.12822600816E+03  0.12822600816E+03  0.00000000000E+00 0. -1.
         25    2    1    2    0    0 -0.71174989510E+01 -0.24620543606E+01  0.33154576309E+02  0.12954112169E+03  0.12499982310E+03 0.  0.
          2    1    1    2  501    0  0.52485574028E+02  0.27750266578E+02 -0.68593094647E+02  0.90718385179E+02  0.00000000000E+00 0. -1.
          1    1    1    2  502    0 -0.45368075077E+02 -0.25288212217E+02  0.17886068933E+04  0.17893608844E+04  0.00000000000E+00 0. -1.
         22    1    3    3    0    0 -0.56829656648E+02  0.94151530001E+01  0.49425798812E+02  0.75902335728E+02  0.00000000000E+00 0. -1.
         22    1    3    3    0    0  0.49712157697E+02 -0.11877207361E+02 -0.16271222503E+02  0.53638785961E+02  0.00000000000E+00 0. -1.
</event>
<event>
 7    1  0.5537228E-006  0.1135063E+03  0.7818608E-02  0.1347404E+00
          2   -1    0    0  502    0  0.00000000000E+00  0.00000000000E+00  0.39618646600E+03  0.39618646600E+03  0.00000000000E+00 0. -1.
          1   -1    0    0  501    0 -0.00000000000E+00 -0.00000000000E+00 -0.31754263941E+03  0.31754263941E+03  0.00000000000E+00 0. -1.
         25    2    1    2    0    0 -0.50719319742E+02 -0.12426209789E+03  0.92407596507E+02  0.20537159712E+03  0.12499924258E+03 0.  0.
          2    1    1    2  501    0 -0.23026164743E+02  0.42202636152E+02 -0.24631478359E+03  0.25096262546E+03  0.00000000000E+00 0. -1.
          1    1    1    2  502    0  0.73745484485E+02  0.82059461734E+02  0.23255101369E+03  0.25739488283E+03  0.00000000000E+00 0. -1.
         22    1    3    3    0    0 -0.83866014130E+02 -0.12411296049E+03  0.69851004116E+02  0.16527763933E+03  0.00000000000E+00 0.  1.
         22    1    3    3    0    0  0.33146694388E+02 -0.14913739970E+00  0.22556592390E+02  0.40093957788E+02  0.00000000000E+00 0.  1.
</event>
<event>
 7    1  0.5537228E-006  0.1170544E+03  0.7818608E-02  0.1270700E+00
          2   -1    0    0  502    0  0.00000000000E+00  0.00000000000E+00  0.16571272422E+04  0.16571272422E+04  0.00000000000E+00 0. -1.
          1   -1    0    0  501    0 -0.00000000000E+00 -0.00000000000E+00 -0.34842467720E+03  0.34842467720E+03  0.00000000000E+00 0. -1.
         25    2    1    2    0    0 -0.72314496893E+02  0.94152517144E+02  0.36512777881E+03  0.40377861082E+03  0.12499915498E+03 0.  0.
          2    1    1    2  501    0  0.89921753591E+02  0.26198711163E+02 -0.31945409984E+03  0.33290121079E+03  0.00000000000E+00 0. -1.
          1    1    1    2  502    0 -0.17607256698E+02 -0.12035122831E+03  0.12630288861E+04  0.12688720978E+04  0.00000000000E+00 0. -1.
         22    1    3    3    0    0  0.12741250049E+02  0.54635765146E+02  0.50545128630E+02  0.75513020824E+02  0.00000000000E+00 0.  1.
         22    1    3    3    0    0 -0.85055746942E+02  0.39516751998E+02  0.31458265018E+03  0.32826558999E+03  0.00000000000E+00 0.  1.
</event>
<event>
 7    1  0.5537228E-006  0.7271716E+02  0.7818608E-02  0.1387271E+00
          2   -1    0    0  502    0  0.00000000000E+00  0.00000000000E+00  0.16789817345E+04  0.16789817345E+04  0.00000000000E+00 0. -1.
          1   -1    0    0  501    0 -0.00000000000E+00 -0.00000000000E+00 -0.87452340075E+02  0.87452340075E+02  0.00000000000E+00 0. -1.
         25    2    1    2    0    0 -0.35742368415E+02 -0.47943732402E+02  0.45847520100E+03  0.47895662332E+03  0.12499527478E+03 0.  0.
          2    1    1    2  501    0 -0.12000370911E+02  0.72904885587E+02 -0.58786847096E+02  0.94419408153E+02  0.00000000000E+00 0. -1.
          1    1    1    2  502    0  0.47742739327E+02 -0.24961153185E+02  0.11918410405E+04  0.11930580431E+04  0.00000000000E+00 0. -1.
         22    1    3    3    0    0  0.30536992007E+02 -0.10535835742E+02  0.31403592522E+03  0.31569300601E+03  0.00000000000E+00 0.  1.
         22    1    3    3    0    0 -0.66279360422E+02 -0.37407896660E+02  0.14443927578E+03  0.16326361731E+03  0.00000000000E+00 0.  1.
</event>
<event>
 7    1  0.5537228E-006  0.7960177E+02  0.7818608E-02  0.1364396E+00
          2   -1    0    0  502    0  0.00000000000E+00  0.00000000000E+00  0.76698832312E+03  0.76698832312E+03  0.00000000000E+00 0. -1.
          1   -1    0    0  501    0 -0.00000000000E+00 -0.00000000000E+00 -0.66115243731E+02  0.66115243731E+02  0.00000000000E+00 0. -1.
         25    2    1    2    0    0  0.10076421483E+03  0.33866285455E+01  0.13797650421E+03  0.21172594861E+03  0.12500186141E+03 0.  0.
          2    1    1    2  501    0 -0.35091514051E+02 -0.47898564077E+02  0.69317913523E+01  0.59780737118E+02  0.00000000000E+00 0. -1.
          1    1    1    2  502    0 -0.65672700784E+02  0.44511935532E+02  0.55596478383E+03  0.56159688113E+03  0.00000000000E+00 0. -1.
         22    1    3    3    0    0  0.85971801125E+02  0.17094188395E+02  0.17261880612E+02  0.89338314221E+02  0.00000000000E+00 0.  1.
         22    1    3    3    0    0  0.14792413710E+02 -0.13707559850E+02  0.12071462360E+03  0.12238763438E+03  0.00000000000E+00 0.  1.
</event>
<event>
 7    1  0.5537228E-006  0.6077930E+02  0.7818608E-02  0.1491583E+00
          2   -1    0    0  502    0  0.00000000000E+00  0.00000000000E+00  0.32975821265E+03  0.32975821265E+03  0.00000000000E+00 0. -1.
          1   -1    0    0  501    0 -0.00000000000E+00 -0.00000000000E+00 -0.18663727566E+04  0.18663727566E+04  0.00000000000E+00 0. -1.
         25    2    1    2    0    0 -0.28545033453E+02  0.67398436685E+02 -0.22430654147E+03  0.26701346787E+03  0.12500159710E+03 0.  0.
          2    1    1    2  501    0  0.28741143169E+02 -0.66998301359E+01 -0.16175902279E+04  0.16178594149E+04  0.00000000000E+00 0. -1.
          1    1    1    2  502    0 -0.19610971603E+00 -0.60698606549E+02  0.30528222537E+03  0.31125808652E+03  0.00000000000E+00 0. -1.
         22    1    3    3    0    0  0.35608665917E+02  0.99446325148E+01 -0.14602319241E+03  0.15063082528E+03  0.00000000000E+00 0. -1.
         22    1    3    3    0    0 -0.64153699370E+02  0.57453804170E+02 -0.78283349058E+02  0.11638264259E+03  0.00000000000E+00 0. -1.
</event>
<event>
 7    1  0.5537228E-006  0.2967632E+02  0.7818608E-02  0.1611190E+00
          2   -1    0    0  502    0  0.00000000000E+00  0.00000000000E+00  0.14979428481E+04  0.14979428481E+04  0.00000000000E+00 0. -1.
          1   -1    0    0  501    0 -0.00000000000E+00 -0.00000000000E+00 -0.55260647114E+03  0.55260647114E+03  0.00000000000E+00 0. -1.
         25    2    1    2    0    0 -0.40238218022E+02  0.23072521052E+01  0.65964791885E+01  0.13150341122E+03  0.12500078409E+03 0.  0.
          2    1    1    2  501    0  0.20108970544E+02 -0.21830189319E+02 -0.48956594587E+03  0.49046482363E+03  0.00000000000E+00 0. -1.
          1    1    1    2  502    0  0.20129247477E+02  0.19522937214E+02  0.14283058437E+04  0.14285810844E+04  0.00000000000E+00 0. -1.
         22    1    3    3    0    0 -0.56798226233E+02 -0.11000920465E+02 -0.46557696488E+02  0.74260877025E+02  0.00000000000E+00 0.  1.
         22    1    3    3    0    0  0.16560008212E+02  0.13308172570E+02  0.53154175676E+02  0.57242534194E+02  0.00000000000E+00 0.  1.
</event>
<event>
 7    1  0.5537228E-006  0.1243063E+03  0.7818608E-02  0.1336774E+00
          2   -1    0    0  502    0  0.00000000000E+00  0.00000000000E+00  0.65820402787E+03  0.65820402787E+03  0.00000000000E+00 0. -1.
          1   -1    0    0  501    0 -0.00000000000E+00 -0.00000000000E+00 -0.22708753578E+03  0.22708753578E+03  0.00000000000E+00 0. -1.
         25    2    1    2    0    0  0.28405846167E+02 -0.79068324287E+02  0.11186168364E+03  0.18760952150E+03  0.12500241713E+03 0.  0.
          2    1    1    2  501    0 -0.29153388935E+02  0.12718138485E+03 -0.16538514657E+03  0.21065913568E+03  0.00000000000E+00 0. -1.
          1    1    1    2  502    0  0.74754276824E+00 -0.48113060559E+02  0.48463995503E+03  0.48702290647E+03  0.00000000000E+00 0. -1.
         22    1    3    3    0    0  0.29072603640E+02  0.11849811055E+02  0.88257268225E+02  0.93674861617E+02  0.00000000000E+00 0.  1.
         22    1    3    3    0    0 -0.66675747309E+00 -0.90918135342E+02  0.23604415411E+02  0.93934659878E+02  0.00000000000E+00 0.  1.
</event>
<event>
 7    1  0.5537228E-006  0.3405621E+02  0.7818608E-02  0.1603277E+00
          2   -1    0    0  502    0  0.00000000000E+00  0.00000000000E+00  0.22274031598E+03  0.22274031598E+03  0.00000000000E+00 0. -1.
          1   -1    0    0  501    0 -0.00000000000E+00 -0.00000000000E+00 -0.65053989105E+03  0.65053989105E+03  0.00000000000E+00 0. -1.
         25    2    1    2    0    0  0.10625173431E+02  0.22822328978E+01 -0.49469078827E+01  0.12556830829E+03  0.12499930101E+03 0.  0.
          2    1    1    2  501    0  0.22875484610E+02 -0.11526728049E+02 -0.58313900353E+03  0.58370133689E+03  0.00000000000E+00 0. -1.
          1    1    1    2  502    0 -0.33500658041E+02  0.92444951507E+01  0.16028633634E+03  0.16401056185E+03  0.00000000000E+00 0. -1.
         22    1    3    3    0    0 -0.38171130045E+02 -0.41982909400E+02  0.10965970221E+02  0.57791455714E+02  0.00000000000E+00 0. -1.
         22    1    3    3    0    0  0.48796303477E+02  0.44265142298E+02 -0.15912878104E+02  0.67776852577E+02  0.00000000000E+00 0. -1.
</event>
<event>
 7    1  0.5537228E-006  0.4292600E+02  0.7818608E-02  0.1546076E+00
          2   -1    0    0  502    0  0.00000000000E+00  0.00000000000E+00  0.39027091711E+02  0.39027091711E+02  0.00000000000E+00 0. -1.
          1   -1    0    0  501    0 -0.00000000000E+00 -0.00000000000E+00 -0.24888900388E+04  0.24888900388E+04  0.00000000000E+00 0. -1.
         25    2    1    2    0    0  0.68403373777E+02  0.71105823693E+00 -0.57611961572E+03  0.59348019980E+03  0.12500163515E+03 0.  0.
          2    1    1    2  501    0 -0.41017475441E+02 -0.10268429094E+02 -0.18968693262E+04  0.18973405373E+04  0.00000000000E+00 0. -1.
          1    1    1    2  502    0 -0.27385898336E+02  0.95573708567E+01  0.23125994825E+02  0.37096393383E+02  0.00000000000E+00 0. -1.
         22    1    3    3    0    0  0.59820632166E+02  0.56159717539E+02 -0.41033134449E+03  0.41845457839E+03  0.00000000000E+00 0.  1.
         22    1    3    3    0    0  0.85827416110E+01 -0.55448659302E+02 -0.16578827123E+03  0.17502562141E+03  0.00000000000E+00 0.  1.
</event>
<event>
 7    1  0.5537228E-006  0.5423592E+02  0.7818608E-02  0.1545032E+00
          2   -1    0    0  502    0  0.00000000000E+00  0.00000000000E+00  0.50811077027E+02  0.50811077027E+02  0.00000000000E+00 0. -1.
          1   -1    0    0  501    0 -0.00000000000E+00 -0.00000000000E+00 -0.41757732509E+03  0.41757732509E+03  0.00000000000E+00 0. -1.
         25    2    1    2    0    0  0.32300569582E+02  0.35591635728E+02 -0.15314188921E+03  0.20344000857E+03  0.12500123010E+03 0.  0.
          2    1    1    2  501    0 -0.14958294257E+02  0.17619150498E+02 -0.20734783106E+03  0.20863199198E+03  0.00000000000E+00 0. -1.
          1    1    1    2  502    0 -0.17342275325E+02 -0.53210786226E+02 -0.62765277926E+01  0.56316401566E+02  0.00000000000E+00 0. -1.
         22    1    3    3    0    0  0.16545239091E+02  0.82224511680E+02 -0.10716880472E+03  0.13608735416E+03  0.00000000000E+00 0.  1.
         22    1    3    3    0    0  0.15755330491E+02 -0.46632875952E+02 -0.45973084490E+02  0.67352654409E+02  0.00000000000E+00 0.  1.
</event>
<event>
 7    1  0.5537228E-006  0.2729313E+03  0.7818608E-02  0.1171572E+00
          2   -1    0    0  502    0  0.00000000000E+00  0.00000000000E+00  0.16103394787E+04  0.16103394787E+04  0.00000000000E+00 0. -1.
          1   -1    0    0  501    0 -0.00000000000E+00 -0.00000000000E+00 -0.23284031751E+03  0.23284031751E+03  0.00000000000E+00 0. -1.
         25    2    1    2    0    0  0.30496084341E+03 -0.68280734528E+02  0.21021666277E+03  0.39683748097E+03  0.12500226507E+03 0.  0.
          2    1    1    2  501    0 -0.80209060499E+02 -0.80587600014E+02 -0.99562792387E+02  0.15113108314E+03  0.00000000000E+00 0. -1.
          1    1    1    2  502    0 -0.22475178291E+03  0.14886833454E+03  0.12668452908E+04  0.12952112321E+04  0.00000000000E+00 0. -1.
         22    1    3    3    0    0 -0.96024502118E+00 -0.22947099170E+01  0.40974495269E+02  0.41049933333E+02  0.00000000000E+00 0.  1.
         22    1    3    3    0    0  0.30592108843E+03 -0.65986024611E+02  0.16924216751E+03  0.35578754763E+03  0.00000000000E+00 0.  1.
</event>
<event>
 7    1  0.5537228E-006  0.9363045E+02  0.7818608E-02  0.1363002E+00
          2   -1    0    0  502    0  0.00000000000E+00  0.00000000000E+00  0.12833899757E+04  0.12833899757E+04  0.00000000000E+00 0. -1.
          1   -1    0    0  501    0 -0.00000000000E+00 -0.00000000000E+00 -0.14221748762E+03  0.14221748762E+03  0.00000000000E+00 0. -1.
         25    2    1    2    0    0  0.75856725551E+02  0.97703565006E+02  0.19439908100E+02  0.17692841575E+03  0.12500209937E+03 0.  0.
          2    1    1    2  501    0 -0.72269448033E+02 -0.46757241810E+02 -0.33465255463E+02  0.92352780705E+02  0.00000000000E+00 0. -1.
          1    1    1    2  502    0 -0.35872775175E+01 -0.50946323197E+02  0.11551978355E+04  0.11563262669E+04  0.00000000000E+00 0. -1.
         22    1    3    3    0    0  0.97241984748E+02  0.10665918178E+03  0.35610248166E+02  0.14866161048E+03  0.00000000000E+00 0.  1.
         22    1    3    3    0    0 -0.21385259197E+02 -0.89556167715E+01 -0.16170340067E+02  0.28266805277E+02  0.00000000000E+00 0.  1.
</event>
<event>
 7    1  0.5537228E-006  0.1207382E+03  0.7818608E-02  0.1359463E+00
          2   -1    0    0  502    0  0.00000000000E+00  0.00000000000E+00  0.22172205633E+04  0.22172205633E+04  0.00000000000E+00 0. -1.
          1   -1    0    0  501    0 -0.00000000000E+00 -0.00000000000E+00 -0.23857553781E+04  0.23857553781E+04  0.00000000000E+00 0. -1.
         25    2    1    2    0    0 -0.13021616871E+03 -0.13058010306E+02  0.21283468998E+03  0.27937292440E+03  0.12499545353E+03 0.  0.
          2    1    1    2  501    0  0.11043686388E+03  0.48741899516E+02 -0.23507262545E+04  0.23538236972E+04  0.00000000000E+00 0. -1.
          1    1    1    2  502    0  0.19779304831E+02 -0.35683889211E+02  0.19693567498E+04  0.19697793198E+04  0.00000000000E+00 0. -1.
         22    1    3    3    0    0 -0.11308014610E+03  0.40732225988E+02  0.17141331767E+03  0.20935319236E+03  0.00000000000E+00 0.  1.
         22    1    3    3    0    0 -0.17136022605E+02 -0.53790236293E+02  0.41421372306E+02  0.70019732039E+02  0.00000000000E+00 0.  1.
</event>
<event>
 7    1  0.5537228E-006  0.1218521E+03  0.7818608E-02  0.1329962E+00
          2   -1    0    0  502    0  0.00000000000E+00  0.00000000000E+00  0.11715200513E+04  0.11715200513E+04  0.00000000000E+00 0. -1.
          1   -1    0    0  501    0 -0.00000000000E+00 -0.00000000000E+00 -0.14795636837E+04  0.14795636837E+04  0.00000000000E+00 0. -1.
         25    2    1    2    0    0 -0.83710451166E+02  0.96306183071E+01  0.13920690082E+03  0.20519462263E+03  0.12500433382E+03 0.  0.
          2    1    1    2  501    0 -0.41150533137E+02 -0.31959162279E+02 -0.14420724991E+04  0.14430134605E+04  0.00000000000E+00 0. -1.
          1    1    1    2  502    0  0.12486098430E+03  0.22328543972E+02  0.99482196592E+03  0.10028756519E+04  0.00000000000E+00 0. -1.
         22    1    3    3    0    0 -0.64746394069E+02  0.53187446001E+02  0.13312616238E+03  0.15730090612E+03  0.00000000000E+00 0.  1.
         22    1    3    3    0    0 -0.18964057098E+02 -0.43556827694E+02  0.60807384395E+01  0.47893716502E+02  0.00000000000E+00 0.  1.
</event>
<event>
 7    1  0.5537228E-006  0.9456140E+02  0.7818608E-02  0.1311581E+00
          2   -1    0    0  502    0  0.00000000000E+00  0.00000000000E+00  0.18865515661E+04  0.18865515661E+04  0.00000000000E+00 0. -1.
          1   -1    0    0  501    0 -0.00000000000E+00 -0.00000000000E+00 -0.41291557945E+03  0.41291557945E+03  0.00000000000E+00 0. -1.
         25    2    1    2    0    0 -0.59911380876E+02 -0.54994996674E+02  0.44586598143E+03  0.47014381322E+03  0.12499963400E+03 0.  0.
          2    1    1    2  501    0 -0.84895510127E+01  0.94736099380E+02 -0.39401818812E+03  0.40533607485E+03  0.00000000000E+00 0. -1.
          1    1    1    2  502    0  0.68400931888E+02 -0.39741102706E+02  0.14217881933E+04  0.14239872575E+04  0.00000000000E+00 0. -1.
         22    1    3    3    0    0 -0.73854711733E+02  0.15046371729E+02  0.18729805162E+03  0.20189470495E+03  0.00000000000E+00 0.  1.
         22    1    3    3    0    0  0.13943330858E+02 -0.70041368403E+02  0.25856792981E+03  0.26824910827E+03  0.00000000000E+00 0.  1.
</event>
<event>
 7    1  0.5537228E-006  0.1205365E+03  0.7818608E-02  0.1269711E+00
          2   -1    0    0  502    0  0.00000000000E+00  0.00000000000E+00  0.14011708556E+04  0.14011708556E+04  0.00000000000E+00 0. -1.
          1   -1    0    0  501    0 -0.00000000000E+00 -0.00000000000E+00 -0.51630812622E+03  0.51630812622E+03  0.00000000000E+00 0. -1.
         25    2    1    2    0    0 -0.36264608957E+02  0.12351638110E+03  0.45918644261E+03  0.49300055767E+03  0.12500377004E+03 0.  0.
          2    1    1    2  501    0  0.91186429773E+02 -0.10838514580E+02 -0.49087746689E+03  0.49939275712E+03  0.00000000000E+00 0. -1.
          1    1    1    2  502    0 -0.54921820817E+02 -0.11267786652E+03  0.91655375365E+03  0.92508566703E+03  0.00000000000E+00 0. -1.
         22    1    3    3    0    0 -0.53795132486E+02  0.79956751663E+02  0.42267211798E+03  0.43351899351E+03  0.00000000000E+00 0. -1.
         22    1    3    3    0    0  0.17530523529E+02  0.43559629435E+02  0.36514324630E+02  0.59481564160E+02  0.00000000000E+00 0. -1.
</event>
<event>
 7    1  0.5537228E-006  0.1133779E+03  0.7818608E-02  0.1407074E+00
          2   -1    0    0  502    0  0.00000000000E+00  0.00000000000E+00  0.20250374030E+04  0.20250374030E+04  0.00000000000E+00 0. -1.
          1   -1    0    0  501    0 -0.00000000000E+00 -0.00000000000E+00 -0.74596646843E+03  0.74596646843E+03  0.00000000000E+00 0. -1.
         25    2    1    2    0    0  0.10809568280E+03  0.75856785967E+00  0.41897283627E+03  0.45038715726E+03  0.12500040731E+03 0.  0.
          2    1    1    2  501    0 -0.10936195662E+03 -0.30250840948E+02 -0.72571338393E+03  0.73453050757E+03  0.00000000000E+00 0. -1.
          1    1    1    2  502    0  0.12662738220E+01  0.29492273088E+02  0.15858114822E+04  0.15860862066E+04  0.00000000000E+00 0. -1.
         22    1    3    3    0    0 -0.16538687315E+01  0.37864740913E+02  0.19034467927E+03  0.19408135102E+03  0.00000000000E+00 0.  1.
         22    1    3    3    0    0  0.10974955153E+03 -0.37106173053E+02  0.22862815699E+03  0.25630580624E+03  0.00000000000E+00 0.  1.
</event>
<event>
 7    1  0.5537228E-006  0.4313135E+03  0.7818608E-02  0.1232618E+00
          2   -1    0    0  502    0  0.00000000000E+00  0.00000000000E+00  0.92084969171E+03  0.92084969171E+03  0.00000000000E+00 0. -1.
          1   -1    0    0  501    0 -0.00000000000E+00 -0.00000000000E+00 -0.31145793118E+04  0.31145793118E+04  0.00000000000E+00 0. -1.
         25    2    1    2    0    0  0.39751302072E+03  0.23160828426E+03 -0.34610628813E+03  0.58913015183E+03  0.12500309651E+03 0.  0.
          2    1    1    2  501    0 -0.37135165894E+02 -0.10184853790E+01 -0.25895697284E+04  0.25898361794E+04  0.00000000000E+00 0. -1.
          1    1    1    2  502    0 -0.36037785482E+03 -0.23058979889E+03  0.74194639651E+03  0.85646267221E+03  0.00000000000E+00 0. -1.
         22    1    3    3    0    0  0.27167337788E+03  0.16322825816E+03 -0.30564721095E+03  0.44030683173E+03  0.00000000000E+00 0. -1.
         22    1    3    3    0    0  0.12583964284E+03  0.68380026104E+02 -0.40459077182E+02  0.14882332010E+03  0.00000000000E+00 0. -1.
</event>
<event>
 7    1  0.5537228E-006  0.1109192E+03  0.7818608E-02  0.1405990E+00
          2   -1    0    0  502    0  0.00000000000E+00  0.00000000000E+00  0.30075835394E+03  0.30075835394E+03  0.00000000000E+00 0. -1.
          1   -1    0    0  501    0 -0.00000000000E+00 -0.00000000000E+00 -0.57841312752E+03  0.57841312752E+03  0.00000000000E+00 0. -1.
         25    2    1    2    0    0 -0.36630250267E+02 -0.75433950571E+02  0.23680211499E+01  0.15054141628E+03  0.12500021743E+03 0.  0.
          2    1    1    2  501    0  0.40831582602E+02  0.10557388873E+03 -0.49689914766E+03  0.50962910735E+03  0.00000000000E+00 0. -1.
          1    1    1    2  502    0 -0.42013323349E+01 -0.30139938163E+02  0.21687635293E+03  0.21900095782E+03  0.00000000000E+00 0. -1.
         22    1    3    3    0    0 -0.25450799238E+02 -0.10980325211E+03  0.11396759686E+02  0.11328893806E+03  0.00000000000E+00 0. -1.
         22    1    3    3    0    0 -0.11179451029E+02  0.34369301542E+02 -0.90287385364E+01  0.37252478218E+02  0.00000000000E+00 0. -1.
</event>
<event>
 7    1  0.5537228E-006  0.1510419E+03  0.7818608E-02  0.1222645E+00
          2   -1    0    0  502    0  0.00000000000E+00  0.00000000000E+00  0.14944490202E+04  0.14944490202E+04  0.00000000000E+00 0. -1.
          1   -1    0    0  501    0 -0.00000000000E+00 -0.00000000000E+00 -0.54059962875E+03  0.54059962875E+03  0.00000000000E+00 0. -1.
         25    2    1    2    0    0 -0.13546788948E+03  0.11847082401E+03  0.55132541213E+03  0.59327218863E+03  0.12500117805E+03 0.  0.
          2    1    1    2  501    0 -0.16615401572E+02 -0.11645647349E+03 -0.50656877742E+03  0.52004817858E+03  0.00000000000E+00 0. -1.
          1    1    1    2  502    0  0.15208329105E+03 -0.20143505268E+01  0.90909275675E+03  0.92172828176E+03  0.00000000000E+00 0. -1.
         22    1    3    3    0    0 -0.83527121097E+02  0.13981183939E+03  0.41768964143E+03  0.44831770760E+03  0.00000000000E+00 0.  1.
         22    1    3    3    0    0 -0.51940768385E+02 -0.21341015379E+02  0.13363577070E+03  0.14495448102E+03  0.00000000000E+00 0.  1.
</event>
<event>
 7    1  0.5537228E-006  0.2587593E+03  0.7818608E-02  0.1184069E+00
          2   -1    0    0  502    0  0.00000000000E+00  0.00000000000E+00  0.80100195231E+03  0.80100195231E+03  0.00000000000E+00 0. -1.
          1   -1    0    0  501    0 -0.00000000000E+00 -0.00000000000E+00 -0.79277528083E+03  0.79277528083E+03  0.00000000000E+00 0. -1.
         25    2    1    2    0    0 -0.30740729091E+03 -0.24716902524E+02  0.61404450024E+02  0.33838774544E+03  0.12500236800E+03 0.  0.
          2    1    1    2  501    0  0.23426116360E+03  0.98865765532E+02 -0.62469431551E+03  0.67445957640E+03  0.00000000000E+00 0. -1.
          1    1    1    2  502    0  0.73146127312E+02 -0.74148863008E+02  0.57151653697E+03  0.58092991131E+03  0.00000000000E+00 0. -1.
         22    1    3    3    0    0 -0.27488982645E+03  0.68555555590E+01  0.84303325760E+02  0.28760818149E+03  0.00000000000E+00 0.  1.
         22    1    3    3    0    0 -0.32517464459E+02 -0.31572458083E+02 -0.22898875737E+02  0.50779563943E+02  0.00000000000E+00 0.  1.
</event>
<event>
 7    1  0.5537228E-006  0.2130900E+03  0.7818608E-02  0.1251822E+00
          2   -1    0    0  502    0  0.00000000000E+00  0.00000000000E+00  0.12805339913E+04  0.12805339913E+04  0.00000000000E+00 0. -1.
          1   -1    0    0  501    0 -0.00000000000E+00 -0.00000000000E+00 -0.41367960340E+03  0.41367960340E+03  0.00000000000E+00 0. -1.
         25    2    1    2    0    0  0.65909125124E+02 -0.19417182534E+03  0.25534774700E+02  0.24149617784E+03  0.12498667393E+03 0.  0.
          2    1    1    2  501    0 -0.58496348825E+02 -0.20286752004E+02 -0.29239247123E+03  0.29887578083E+03  0.00000000000E+00 0. -1.
          1    1    1    2  502    0 -0.74127762986E+01  0.21445857734E+03  0.11337120844E+04  0.11538416360E+04  0.00000000000E+00 0. -1.
         22    1    3    3    0    0  0.64578420191E+01 -0.71032912160E+02 -0.48256547227E+02  0.86116622576E+02  0.00000000000E+00 0. -1.
         22    1    3    3    0    0  0.59451283105E+02 -0.12313891318E+03  0.73791321927E+02  0.15537955526E+03  0.00000000000E+00 0. -1.
</event>
<event>
 7    1  0.5537228E-006  0.7494533E+02  0.7818608E-02  0.1353655E+00
          2   -1    0    0  502    0  0.00000000000E+00  0.00000000000E+00  0.28522713917E+02  0.28522713917E+02  0.00000000000E+00 0. -1.
          1   -1    0    0  501    0 -0.00000000000E+00 -0.00000000000E+00 -0.24547352666E+04  0.24547352666E+04  0.00000000000E+00 0. -1.
         25    2    1    2    0    0  0.32193603276E+02 -0.66785545487E+01 -0.14213944750E+04  0.14272589504E+04  0.12499930779E+03 0.  0.
          2    1    1    2  501    0 -0.11564706578E+02 -0.68057862395E+02 -0.96749010335E+03  0.96994985187E+03  0.00000000000E+00 0. -1.
          1    1    1    2  502    0 -0.20628896698E+02  0.74736416944E+02 -0.37327974333E+02  0.86049178174E+02  0.00000000000E+00 0. -1.
         22    1    3    3    0    0  0.19422445840E+02  0.45796966794E+01 -0.31685142367E+02  0.37445337105E+02  0.00000000000E+00 0. -1.
         22    1    3    3    0    0  0.12771157436E+02 -0.11258251228E+02 -0.13897093326E+04  0.13898136133E+04  0.00000000000E+00 0. -1.
</event>
<event>
 7    1  0.5537228E-006  0.2871080E+02  0.7818608E-02  0.1618426E+00
          2   -1    0    0  502    0  0.00000000000E+00  0.00000000000E+00  0.52112854419E+03  0.52112854419E+03  0.00000000000E+00 0. -1.
          1   -1    0    0  501    0 -0.00000000000E+00 -0.00000000000E+00 -0.22885308848E+03  0.22885308848E+03  0.00000000000E+00 0. -1.
         25    2    1    2    0    0  0.93549080718E+01 -0.34122596493E+02 -0.26647648694E+02  0.13261566577E+03  0.12499980692E+03 0.  0.
          2    1    1    2  501    0  0.16405255931E+02  0.23743031647E+02 -0.14740906992E+03  0.15020751602E+03  0.00000000000E+00 0. -1.
          1    1    1    2  502    0 -0.25760164003E+02  0.10379564847E+02  0.46633217432E+03  0.46715845087E+03  0.00000000000E+00 0. -1.
         22    1    3    3    0    0  0.17187655924E+02 -0.72880455348E+02 -0.46732040424E+02  0.88265847813E+02  0.00000000000E+00 0.  1.
         22    1    3    3    0    0 -0.78327478521E+01  0.38757858855E+02  0.20084391730E+02  0.44349817960E+02  0.00000000000E+00 0.  1.
</event>
<event>
 7    1  0.5537228E-006  0.1496525E+03  0.7818608E-02  0.1360235E+00
          2   -1    0    0  502    0  0.00000000000E+00  0.00000000000E+00  0.33165355168E+04  0.33165355168E+04  0.00000000000E+00 0. -1.
          1   -1    0    0  501    0 -0.00000000000E+00 -0.00000000000E+00 -0.13960343637E+02  0.13960343637E+02  0.00000000000E+00 0. -1.
         25    2    1    2    0    0 -0.14640963970E+03  0.17124712805E+02  0.20281276167E+04  0.20373158090E+04  0.12500015062E+03 0.  0.
          2    1    1    2  501    0  0.15041899739E+03  0.15332107063E+02  0.62948306060E+03  0.64738695683E+03  0.00000000000E+00 0. -1.
          1    1    1    2  502    0 -0.40093576980E+01 -0.32456819868E+02  0.64496449591E+03  0.64579309464E+03  0.00000000000E+00 0. -1.
         22    1    3    3    0    0 -0.64389237683E+02  0.49052178512E+02  0.48735717847E+03  0.49403351056E+03  0.00000000000E+00 0.  1.
         22    1    3    3    0    0 -0.82020402014E+02 -0.31927465707E+02  0.15407704382E+04  0.15432822984E+04  0.00000000000E+00 0.  1.
</event>
<event>
 7    1  0.5537228E-006  0.7930501E+02  0.7818608E-02  0.1359563E+00
          2   -1    0    0  502    0  0.00000000000E+00  0.00000000000E+00  0.93884094704E+02  0.93884094704E+02  0.00000000000E+00 0. -1.
          1   -1    0    0  501    0 -0.00000000000E+00 -0.00000000000E+00 -0.75592409427E+03  0.75592409427E+03  0.00000000000E+00 0. -1.
         25    2    1    2    0    0  0.34590591101E+02 -0.44001506694E+02 -0.30133550288E+03  0.33099921080E+03  0.12499900268E+03 0.  0.
          2    1    1    2  501    0  0.47526505712E+02  0.39912730257E+02 -0.41543140826E+03  0.42004172382E+03  0.00000000000E+00 0. -1.
          1    1    1    2  502    0 -0.82117096813E+02  0.40887764364E+01  0.54726911574E+02  0.98767254352E+02  0.00000000000E+00 0. -1.
         22    1    3    3    0    0  0.36535054139E+02 -0.45147494835E+02 -0.42047671508E+02  0.71701556120E+02  0.00000000000E+00 0. -1.
         22    1    3    3    0    0 -0.19444630380E+01  0.11459881410E+01 -0.25928783137E+03  0.25929765468E+03  0.00000000000E+00 0. -1.
</event>
<event>
 7    1  0.5537228E-006  0.1878504E+03  0.7818608E-02  0.1234505E+00
          2   -1    0    0  502    0  0.00000000000E+00  0.00000000000E+00  0.12530514015E+04  0.12530514015E+04  0.00000000000E+00 0. -1.
          1   -1    0    0  501    0 -0.00000000000E+00 -0.00000000000E+00 -0.33417954248E+03  0.33417954248E+03  0.00000000000E+00 0. -1.
         25    2    1    2    0    0 -0.26377635517E+03 -0.46959467610E+02  0.62675984113E+03  0.69299072015E+03  0.12500033046E+03 0.  0.
          2    1    1    2  501    0  0.18216866947E+03  0.28542273804E+02 -0.26943838721E+03  0.32649215922E+03  0.00000000000E+00 0. -1.
          1    1    1    2  502    0  0.81607685703E+02  0.18417193806E+02  0.56155040510E+03  0.56774806460E+03  0.00000000000E+00 0. -1.
         22    1    3    3    0    0 -0.91545670636E+02 -0.61225016836E+02  0.34795076944E+03  0.36496417695E+03  0.00000000000E+00 0.  1.
         22    1    3    3    0    0 -0.17223068454E+03  0.14265549227E+02  0.27880907169E+03  0.32802654321E+03  0.00000000000E+00 0.  1.
</event>
<event>
 7    1  0.5537228E-006  0.1455777E+03  0.7818608E-02  0.1210613E+00
          2   -1    0    0  502    0  0.00000000000E+00  0.00000000000E+00  0.36271014863E+04  0.36271014863E+04  0.00000000000E+00 0. -1.
          1   -1    0    0  501    0 -0.00000000000E+00 -0.00000000000E+00 -0.25344165498E+03  0.25344165498E+03  0.00000000000E+00 0. -1.
         25    2    1    2    0    0  0.77976556995E+02  0.10023279349E+03  0.28820513030E+02  0.18050796491E+03  0.12500218834E+03 0.  0.
          2    1    1    2  501    0  0.67817553442E+02 -0.12085680420E+03 -0.14877376201E+03  0.20332048579E+03  0.00000000000E+00 0. -1.
          1    1    1    2  502    0 -0.14579411044E+03  0.20624010710E+02  0.34936130803E+04  0.34967146906E+04  0.00000000000E+00 0. -1.
         22    1    3    3    0    0  0.83432009578E+02  0.58383168417E+01  0.12902011491E+02  0.84625339386E+02  0.00000000000E+00 0.  1.
         22    1    3    3    0    0 -0.54554525825E+01  0.94394476651E+02  0.15918501539E+02  0.95882625519E+02  0.00000000000E+00 0.  1.
</event>
<event>
 7    1  0.5537228E-006  0.6450166E+02  0.7818608E-02  0.1416480E+00
          2   -1    0    0  502    0  0.00000000000E+00  0.00000000000E+00  0.11217693096E+03  0.11217693096E+03  0.00000000000E+00 0. -1.
          1   -1    0    0  501    0 -0.00000000000E+00 -0.00000000000E+00 -0.98146955589E+03  0.98146955589E+03  0.00000000000E+00 0. -1.
         25    2    1    2    0    0 -0.77050083683E+01  0.17740366316E+02 -0.86275176624E+02  0.15310574987E+03  0.12499550708E+03 0.  0.
          2    1    1    2  501    0  0.43735437247E+02 -0.49794289467E+02 -0.85298933455E+03  0.85556008824E+03  0.00000000000E+00 0. -1.
          1    1    1    2  502    0 -0.36030428879E+02  0.32053923151E+02  0.69971886242E+02  0.84980648732E+02  0.00000000000E+00 0. -1.
         22    1    3    3    0    0 -0.13198758115E+02  0.11366000115E+02 -0.11851379691E+03  0.11978694934E+03  0.00000000000E+00 0.  1.
         22    1    3    3    0    0  0.54937497464E+01  0.63743662009E+01  0.32238620286E+02  0.33318800529E+02  0.00000000000E+00 0.  1.
</event>
<event>
 7    1  0.5537228E-006  0.6790355E+02  0.7818608E-02  0.1411532E+00
          2   -1    0    0  502    0  0.00000000000E+00  0.00000000000E+00  0.51055476774E+03  0.51055476774E+03  0.00000000000E+00 0. -1.
          1   -1    0    0  501    0 -0.00000000000E+00 -0.00000000000E+00 -0.11273269615E+03  0.11273269615E+03  0.00000000000E+00 0. -1.
         25    2    1    2    0    0 -0.25195489141E+01 -0.41974796538E+02  0.16122958298E+03  0.20830324397E+03  0.12500812514E+03 0.  0.
          2    1    1    2  501    0  0.43285191500E+02 -0.19806361888E+02 -0.78231774257E+02  0.91575707902E+02  0.00000000000E+00 0. -1.
          1    1    1    2  502    0 -0.40765642586E+02  0.61781158426E+02  0.31482426287E+03  0.32340851202E+03  0.00000000000E+00 0. -1.
         22    1    3    3    0    0 -0.89248425055E+01  0.42554154215E+02  0.32995199676E+02  0.54581975563E+02  0.00000000000E+00 0.  1.
         22    1    3    3    0    0  0.64052935913E+01 -0.84528950752E+02  0.12823438330E+03  0.15372126841E+03  0.00000000000E+00 0.  1.
</event>
<event>
 7    1  0.5537228E-006  0.1823833E+03  0.7818608E-02  0.1306951E+00
          2   -1    0    0  502    0  0.00000000000E+00  0.00000000000E+00  0.81981375002E+03  0.81981375002E+03  0.00000000000E+00 0. -1.
          1   -1    0    0  501    0 -0.00000000000E+00 -0.00000000000E+00 -0.40538517153E+03  0.40538517153E+03  0.00000000000E+00 0. -1.
         25    2    1    2    0    0  0.22206366273E+02 -0.15162174637E+03  0.78067650486E+02  0.21260732215E+03  0.12500015481E+03 0.  0.
          2    1    1    2  501    0  0.47543554827E+00  0.18789082720E+03 -0.31125218984E+03  0.36356720791E+03  0.00000000000E+00 0. -1.
          1    1    1    2  502    0 -0.22681801822E+02 -0.36269080834E+02  0.64761311784E+03  0.64902439150E+03  0.00000000000E+00 0. -1.
         22    1    3    3    0    0 -0.21299410596E+02 -0.14206139537E+03  0.29389910331E+02  0.14662493572E+03  0.00000000000E+00 0.  1.
         22    1    3    3    0    0  0.43505776869E+02 -0.95603510052E+01  0.48677740156E+02  0.65982386430E+02  0.00000000000E+00 0.  1.
</event>
<event>
 7    1  0.5537228E-006  0.5307173E+02  0.7818608E-02  0.1494596E+00
          2   -1    0    0  502    0  0.00000000000E+00  0.00000000000E+00  0.78358659793E+03  0.78358659793E+03  0.00000000000E+00 0. -1.
          1   -1    0    0  501    0 -0.00000000000E+00 -0.00000000000E+00 -0.12471310970E+03  0.12471310970E+03  0.00000000000E+00 0. -1.
         25    2    1    2    0    0  0.42668932513E+02  0.27381229884E+02  0.18096732846E+03  0.22570409024E+03  0.12499117102E+03 0.  0.
          2    1    1    2  501    0 -0.53348947029E+02  0.39469044621E+01 -0.94843842472E+02  0.10889004848E+03  0.00000000000E+00 0. -1.
          1    1    1    2  502    0  0.10680014516E+02 -0.31328134346E+02  0.57275000225E+03  0.57370556890E+03  0.00000000000E+00 0. -1.
         22    1    3    3    0    0  0.50756874537E+02  0.25598865688E+02  0.14018304946E+02  0.58549766104E+02  0.00000000000E+00 0. -1.
         22    1    3    3    0    0 -0.80879420240E+01  0.17823641956E+01  0.16694902351E+03  0.16715432414E+03  0.00000000000E+00 0. -1.
</event>
<event>
 7    1  0.5537228E-006  0.7429713E+02  0.7818608E-02  0.1469669E+00
          2   -1    0    0  502    0  0.00000000000E+00  0.00000000000E+00  0.15744620897E+03  0.15744620897E+03  0.00000000000E+00 0. -1.
          1   -1    0    0  501    0 -0.00000000000E+00 -0.00000000000E+00 -0.14025260624E+04  0.14025260624E+04  0.00000000000E+00 0. -1.
         25    2    1    2    0    0 -0.95450617609E+02 -0.24636250247E+02 -0.24223743391E+03  0.28986469114E+03  0.12499919821E+03 0.  0.
          2    1    1    2  501    0  0.72703175827E+02  0.80022757150E+01 -0.11337977211E+04  0.11361545056E+04  0.00000000000E+00 0. -1.
          1    1    1    2  502    0  0.22747441782E+02  0.16633974532E+02  0.13095530154E+03  0.13395307468E+03  0.00000000000E+00 0. -1.
         22    1    3    3    0    0 -0.52082721828E+01 -0.39605108079E+02 -0.16614040409E+03  0.17087517244E+03  0.00000000000E+00 0. -1.
         22    1    3    3    0    0 -0.90242345426E+02  0.14968857832E+02 -0.76097029827E+02  0.11898951870E+03  0.00000000000E+00 0. -1.
</event>
<event>
 7    1  0.5537228E-006  0.8156569E+02  0.7818608E-02  0.1394239E+00
          2   -1    0    0  502    0  0.00000000000E+00  0.00000000000E+00  0.77909170188E+03  0.77909170188E+03  0.00000000000E+00 0. -1.
          1   -1    0    0  501    0 -0.00000000000E+00 -0.00000000000E+00 -0.54794274597E+02  0.54794274597E+02  0.00000000000E+00 0. -1.
         25    2    1    2    0    0 -0.39647835789E+02 -0.10727269145E+03  0.37614569945E+03  0.41254034890E+03  0.12499828414E+03 0.  0.
          2    1    1    2  501    0  0.31758885846E+02  0.32466975743E+02 -0.17024130015E+02  0.48503116878E+02  0.00000000000E+00 0. -1.
          1    1    1    2  502    0  0.78889499432E+01  0.74805715704E+02  0.36517585784E+03  0.37284251070E+03  0.00000000000E+00 0. -1.
         22    1    3    3    0    0  0.16261786466E+02 -0.20530223302E+02  0.24139425677E+03  0.24281087902E+03  0.00000000000E+00 0.  1.
         22    1    3    3    0    0 -0.55909622255E+02 -0.86742468145E+02  0.13475144268E+03  0.16972946988E+03  0.00000000000E+00 0.  1.
</event>
<event>
 7    1  0.5537228E-006  0.1499807E+03  0.7818608E-02  0.1250550E+00
          2   -1    0    0  502    0  0.00000000000E+00  0.00000000000E+00  0.97204557709E+03  0.97204557709E+03  0.00000000000E+00 0. -1.
          1   -1    0    0  501    0 -0.00000000000E+00 -0.00000000000E+00 -0.21125465162E+04  0.21125465162E+04  0.00000000000E+00 0. -1.
         25    2    1    2    0    0 -0.37404013232E+02 -0.23066368593E+03 -0.95516318841E+02  0.28169859220E+03  0.12500373382E+03 0.  0.
          2    1    1    2  501    0 -0.30460452711E+01  0.89037588594E+02 -0.19167266779E+04  0.19187960101E+04  0.00000000000E+00 0. -1.
          1    1    1    2  502    0  0.40450058504E+02  0.14162609733E+03  0.87174205759E+03  0.88409749103E+03  0.00000000000E+00 0. -1.
         22    1    3    3    0    0 -0.78644557888E+02 -0.14479045871E+03 -0.86268805997E+02  0.18598803807E+03  0.00000000000E+00 0.  1.
         22    1    3    3    0    0  0.41240544655E+02 -0.85873227220E+02 -0.92475128441E+01  0.95710554123E+02  0.00000000000E+00 0.  1.
</event>
<event>
 7    1  0.5537228E-006  0.4946456E+02  0.7818608E-02  0.1489465E+00
          2   -1    0    0  502    0  0.00000000000E+00  0.00000000000E+00  0.23369369123E+04  0.23369369123E+04  0.00000000000E+00 0. -1.
          1   -1    0    0  501    0 -0.00000000000E+00 -0.00000000000E+00 -0.15065331763E+03  0.15065331763E+03  0.00000000000E+00 0. -1.
         25    2    1    2    0    0  0.49327403122E+01  0.63707633313E+02  0.86794259036E+03  0.87922378575E+03  0.12500852288E+03 0.  0.
          2    1    1    2  501    0  0.25183321357E+02 -0.42557592098E+02 -0.14055817641E+03  0.14900318546E+03  0.00000000000E+00 0. -1.
          1    1    1    2  502    0 -0.30116061670E+02 -0.21150041215E+02  0.14588991807E+04  0.14593632587E+04  0.00000000000E+00 0. -1.
         22    1    3    3    0    0 -0.75531865340E+01  0.75906982551E+02  0.85253344675E+03  0.85593936611E+03  0.00000000000E+00 0. -1.
         22    1    3    3    0    0  0.12485926846E+02 -0.12199349238E+02  0.15409143608E+02  0.23284419636E+02  0.00000000000E+00 0. -1.
</event>
<event>
 7    1  0.5537228E-006  0.9017019E+02  0.7818608E-02  0.1343120E+00
          2   -1    0    0  502    0  0.00000000000E+00  0.00000000000E+00  0.11899927722E+04  0.11899927722E+04  0.00000000000E+00 0. -1.
          1   -1    0    0  501    0 -0.00000000000E+00 -0.00000000000E+00 -0.12277562055E+04  0.12277562055E+04  0.00000000000E+00 0. -1.
         25    2    1    2    0    0  0.40607617328E+02  0.51348807491E+02  0.82646871531E+02  0.16352869220E+03  0.12500179671E+03 0.  0.
          2    1    1    2  501    0 -0.89911873840E+02 -0.12473668112E+02 -0.11846537414E+04  0.11881263504E+04  0.00000000000E+00 0. -1.
          1    1    1    2  502    0  0.49304256512E+02 -0.38875139380E+02  0.10642434366E+04  0.10660939351E+04  0.00000000000E+00 0. -1.
         22    1    3    3    0    0  0.78919513495E+02  0.11736777972E+02  0.24610985961E+02  0.83496959211E+02  0.00000000000E+00 0. -1.
         22    1    3    3    0    0 -0.38311896167E+02  0.39612029519E+02  0.58035885570E+02  0.80031732985E+02  0.00000000000E+00 0. -1.
</event>
<event>
 7    1  0.5537228E-006  0.5680729E+02  0.7818608E-02  0.1464516E+00
          2   -1    0    0  502    0  0.00000000000E+00  0.00000000000E+00  0.48502811091E+02  0.48502811091E+02  0.00000000000E+00 0. -1.
          1   -1    0    0  501    0 -0.00000000000E+00 -0.00000000000E+00 -0.19537932884E+04  0.19537932884E+04  0.00000000000E+00 0. -1.
         25    2    1    2    0    0 -0.89512691587E+02 -0.16056896443E+02 -0.45282828549E+03  0.47848485351E+03  0.12499581198E+03 0.  0.
          2    1    1    2  501    0  0.34221847575E+02  0.17081853688E+02 -0.14663057191E+04  0.14668044813E+04  0.00000000000E+00 0. -1.
          1    1    1    2  502    0  0.55290844012E+02 -0.10249572457E+01  0.13843527285E+02  0.57006764657E+02  0.00000000000E+00 0. -1.
         22    1    3    3    0    0 -0.23473062495E+02 -0.62111354523E+02 -0.13266835828E+03  0.14835665914E+03  0.00000000000E+00 0. -1.
         22    1    3    3    0    0 -0.66039629092E+02  0.46054458080E+02 -0.32015992722E+03  0.33012819436E+03  0.00000000000E+00 0. -1.
</event>
<event>
 7    1  0.5537228E-006  0.1880002E+03  0.7818608E-02  0.1317925E+00
          2   -1    0    0  502    0  0.00000000000E+00  0.00000000000E+00  0.90657423166E+03  0.90657423166E+03  0.00000000000E+00 0. -1.
          1   -1    0    0  501    0 -0.00000000000E+00 -0.00000000000E+00 -0.16249277307E+04  0.16249277307E+04  0.00000000000E+00 0. -1.
         25    2    1    2    0    0  0.21162962436E+03  0.52340453625E+02 -0.64222710263E+02  0.25937770972E+03  0.12500247514E+03 0.  0.
          2    1    1    2  501    0 -0.17544404181E+03 -0.62483648365E+02 -0.14567596020E+04  0.14686161365E+04  0.00000000000E+00 0. -1.
          1    1    1    2  502    0 -0.36185582553E+02  0.10143194740E+02  0.80262881330E+03  0.80350811615E+03  0.00000000000E+00 0. -1.
         22    1    3    3    0    0  0.65937969618E+02 -0.34736188997E+02 -0.48502683286E+02  0.88920914016E+02  0.00000000000E+00 0.  1.
         22    1    3    3    0    0  0.14569165475E+03  0.87076642622E+02 -0.15720026977E+02  0.17045679570E+03  0.00000000000E+00 0.  1.
</event>
<event>
 7    1  0.5537228E-006  0.1003797E+03  0.7818608E-02  0.1393452E+00
          2   -1    0    0  502    0  0.00000000000E+00  0.00000000000E+00  0.38566658990E+03  0.38566658990E+03  0.00000000000E+00 0. -1.
          1   -1    0    0  501    0 -0.00000000000E+00 -0.00000000000E+00 -0.38752729405E+03  0.38752729405E+03  0.00000000000E+00 0. -1.
         25    2    1    2    0    0 -0.65571742965E+02 -0.67680423254E+02 -0.21436801152E+02  0.15800588114E+03  0.12500411539E+03 0.  0.
          2    1    1    2  501    0  0.26524860986E+02 -0.25993031603E+02 -0.28847229770E+03  0.29085300838E+03  0.00000000000E+00 0. -1.
          1    1    1    2  502    0  0.39046881980E+02  0.93673454858E+02  0.30804839470E+03  0.32433499443E+03  0.00000000000E+00 0. -1.
         22    1    3    3    0    0 -0.26109359956E+02  0.36557494706E+02 -0.29009440513E+01  0.45017380787E+02  0.00000000000E+00 0.  1.
         22    1    3    3    0    0 -0.39462383009E+02 -0.10423791796E+03 -0.18535857101E+02  0.11298850035E+03  0.00000000000E+00 0.  1.
</event>
<event>
 7    1  0.5537228E-006  0.5895010E+02  0.7818608E-02  0.1421975E+00
          2   -1    0    0  502    0  0.00000000000E+00  0.00000000000E+00  0.35710139205E+03  0.35710139205E+03  0.00000000000E+00 0. -1.
          1   -1    0    0  501    0 -0.00000000000E+00 -0.00000000000E+00 -0.68615708060E+03  0.68615708060E+03  0.00000000000E+00 0. -1.
         25    2    1    2    0    0 -0.14082515516E+02 -0.30955879886E+01  0.10325661617E+03  0.16277249463E+03  0.12500022528E+03 0.  0.
          2    1    1    2  501    0  0.30851755780E+02  0.50815667124E+02 -0.65217563338E+03  0.65487946954E+03  0.00000000000E+00 0. -1.
          1    1    1    2  502    0 -0.16769240264E+02 -0.47720079135E+02  0.21986332866E+03  0.22560650846E+03  0.00000000000E+00 0. -1.
         22    1    3    3    0    0  0.40525663349E+01 -0.30389497311E+02 -0.19088172698E+02  0.36115137791E+02  0.00000000000E+00 0.  1.
         22    1    3    3    0    0 -0.18135081851E+02  0.27293909322E+02  0.12234478887E+03  0.12665735684E+03  0.00000000000E+00 0.  1.
</event>
<event>
 7    1  0.5537228E-006  0.4915557E+02  0.7818608E-02  0.1452734E+00
          2   -1    0    0  502    0  0.00000000000E+00  0.00000000000E+00  0.10454155565E+04  0.10454155565E+04  0.00000000000E+00 0. -1.
          1   -1    0    0  501    0 -0.00000000000E+00 -0.00000000000E+00 -0.13141781841E+04  0.13141781841E+04  0.00000000000E+00 0. -1.
         25    2    1    2    0    0 -0.45722456115E+01  0.29760598096E+02  0.21138499918E+03  0.24742170958E+03  0.12500914312E+03 0.  0.
          2    1    1    2  501    0  0.48295588222E+02 -0.95710440558E+01 -0.12949810423E+04  0.12959166519E+04  0.00000000000E+00 0. -1.
          1    1    1    2  502    0 -0.43723342611E+02 -0.20189554040E+02  0.81483341560E+03  0.81625537913E+03  0.00000000000E+00 0. -1.
         22    1    3    3    0    0 -0.54195097008E+02  0.48207431921E+02  0.94678207991E+02  0.11926872222E+03  0.00000000000E+00 0. -1.
         22    1    3    3    0    0  0.49622851396E+02 -0.18446833825E+02  0.11670679119E+03  0.12815298736E+03  0.00000000000E+00 0. -1.
</event>
<event>
 7    1  0.5537228E-006  0.7098714E+02  0.7818608E-02  0.1449748E+00
          2   -1    0    0  502    0  0.00000000000E+00  0.00000000000E+00  0.59525442444E+03  0.59525442444E+03  0.00000000000E+00 0. -1.
          1   -1    0    0  501    0 -0.00000000000E+00 -0.00000000000E+00 -0.38655308069E+03  0.38655308069E+03  0.00000000000E+00 0. -1.
         25    2    1    2    0    0 -0.38143006426E+02 -0.15277172894E+02  0.30419585910E+03  0.33144481095E+03  0.12502904087E+03 0.  0.
          2    1    1    2  501    0  0.55788542211E+02  0.44443742553E+02 -0.36844808886E+03  0.37528869138E+03  0.00000000000E+00 0. -1.
          1    1    1    2  502    0 -0.17645535785E+02 -0.29166569659E+02  0.27295357351E+03  0.27507400279E+03  0.00000000000E+00 0. -1.
         22    1    3    3    0    0  0.23349801449E+02 -0.19791477186E+02  0.24177882204E+03  0.24370866744E+03  0.00000000000E+00 0.  1.
         22    1    3    3    0    0 -0.61492807874E+02  0.45143042919E+01  0.62417037064E+02  0.87736143517E+02  0.00000000000E+00 0.  1.
</event>
<event>
 7    1  0.5537228E-006  0.1493470E+03  0.7818608E-02  0.1398173E+00
          2   -1    0    0  502    0  0.00000000000E+00  0.00000000000E+00  0.45278298735E+03  0.45278298735E+03  0.00000000000E+00 0. -1.
          1   -1    0    0  501    0 -0.00000000000E+00 -0.00000000000E+00 -0.17630354022E+03  0.17630354022E+03  0.00000000000E+00 0. -1.
         25    2    1    2    0    0  0.27646664504E+02 -0.14423254327E+03  0.15836328462E+03  0.24954359965E+03  0.12500285443E+03 0.  0.
          2    1    1    2  501    0  0.23950462279E+02  0.20699220893E+01 -0.10626603497E+03  0.10895127080E+03  0.00000000000E+00 0. -1.
          1    1    1    2  502    0 -0.51597126783E+02  0.14216262118E+03  0.22438219748E+03  0.27059165712E+03  0.00000000000E+00 0. -1.
         22    1    3    3    0    0  0.55993268159E+02 -0.13641574033E+03  0.84297912325E+02  0.16985475652E+03  0.00000000000E+00 0.  1.
         22    1    3    3    0    0 -0.28346603656E+02 -0.78168029382E+01  0.74065372296E+02  0.79688843136E+02  0.00000000000E+00 0.  1.
</event>
<event>
 7    1  0.5537228E-006  0.8210232E+02  0.7818608E-02  0.1476606E+00
          2   -1    0    0  502    0  0.00000000000E+00  0.00000000000E+00  0.15701051371E+04  0.15701051371E+04  0.00000000000E+00 0. -1.
          1   -1    0    0  501    0 -0.00000000000E+00 -0.00000000000E+00 -0.49883854158E+03  0.49883854158E+03  0.00000000000E+00 0. -1.
         25    2    1    2    0    0 -0.38971291166E+02  0.88556663408E+02  0.78406370374E+02  0.17644888236E+03  0.12500241999E+03 0.  0.
          2    1    1    2  501    0  0.22782545919E+02 -0.83673243185E+01 -0.44832906907E+03  0.44898553505E+03  0.00000000000E+00 0. -1.
          1    1    1    2  502    0  0.16188745247E+02 -0.80189339090E+02  0.14411892943E+04  0.14435092613E+04  0.00000000000E+00 0. -1.
         22    1    3    3    0    0 -0.22379797363E+02  0.22082063780E+02 -0.33051689667E+02  0.45616741012E+02  0.00000000000E+00 0.  1.
         22    1    3    3    0    0 -0.16591493803E+02  0.66474599628E+02  0.11145806004E+03  0.13083214135E+03  0.00000000000E+00 0.  1.
</event>
<event>
 7    1  0.5537228E-006  0.8810349E+02  0.7818608E-02  0.1383223E+00
          2   -1    0    0  502    0  0.00000000000E+00  0.00000000000E+00  0.13034278771E+03  0.13034278771E+03  0.00000000000E+00 0. -1.
          1   -1    0    0  501    0 -0.00000000000E+00 -0.00000000000E+00 -0.75445916537E+03  0.75445916537E+03  0.00000000000E+00 0. -1.
         25    2    1    2    0    0 -0.10034668310E+03  0.52041121191E+02 -0.95907718011E+02  0.19390815531E+03  0.12499738884E+03 0.  0.
          2    1    1    2  501    0  0.44302497760E+02  0.12180140372E+02 -0.58607311983E+03  0.58787138807E+03  0.00000000000E+00 0. -1.
          1    1    1    2  502    0  0.56044185339E+02 -0.64221261563E+02  0.57864460179E+02  0.10302240969E+03  0.00000000000E+00 0. -1.
         22    1    3    3    0    0  0.57489509918E+01  0.16480007708E+01 -0.74228324377E+02  0.74468855798E+02  0.00000000000E+00 0. -1.
         22    1    3    3    0    0 -0.10609563409E+03  0.50393120420E+02 -0.21679393635E+02  0.11943929951E+03  0.00000000000E+00 0. -1.
</event>
<event>
 7    1  0.5537228E-006  0.1723778E+03  0.7818608E-02  0.1253532E+00
          2   -1    0    0  502    0  0.00000000000E+00  0.00000000000E+00  0.10785616288E+04  0.10785616288E+04  0.00000000000E+00 0. -1.
          1   -1    0    0  501    0 -0.00000000000E+00 -0.00000000000E+00 -0.58888485097E+03  0.58888485097E+03  0.00000000000E+00 0. -1.
         25    2    1    2    0    0  0.50809528610E+02  0.87039626578E+02 -0.19517496256E+03  0.25273138185E+03  0.12498952185E+03 0.  0.
          2    1    1    2  501    0  0.20965603142E+02  0.72266439422E+02 -0.35367563596E+03  0.36159155169E+03  0.00000000000E+00 0. -1.
          1    1    1    2  502    0 -0.71775131751E+02 -0.15930606600E+03  0.10385273764E+04  0.10531235463E+04  0.00000000000E+00 0. -1.
         22    1    3    3    0    0 -0.33265521092E+02  0.26464469202E+02 -0.15366558424E+02  0.45200598906E+02  0.00000000000E+00 0.  1.
         22    1    3    3    0    0  0.84075049702E+02  0.60575157377E+02 -0.17980840413E+03  0.20753078295E+03  0.00000000000E+00 0.  1.
</event>
<event>
 7    1  0.5537228E-006  0.4271833E+02  0.7818608E-02  0.1549982E+00
          2   -1    0    0  502    0  0.00000000000E+00  0.00000000000E+00  0.17649077878E+03  0.17649077878E+03  0.00000000000E+00 0. -1.
          1   -1    0    0  501    0 -0.00000000000E+00 -0.00000000000E+00 -0.24567564316E+03  0.24567564316E+03  0.00000000000E+00 0. -1.
         25    2    1    2    0    0 -0.17940384671E+02 -0.19128199816E+02 -0.15984916377E+03  0.20460839383E+03  0.12500037695E+03 0.  0.
          2    1    1    2  501    0 -0.24831387778E+02  0.13829251642E+02 -0.57021170619E+02  0.63712321561E+02  0.00000000000E+00 0. -1.
          1    1    1    2  502    0  0.42771772449E+02  0.52989481737E+01  0.14768547001E+03  0.15384570655E+03  0.00000000000E+00 0. -1.
         22    1    3    3    0    0 -0.69734108172E+02  0.57058819210E+01 -0.80600227551E+02  0.10673237378E+03  0.00000000000E+00 0.  1.
         22    1    3    3    0    0  0.51793723500E+02 -0.24834081737E+02 -0.79248936221E+02  0.97876020056E+02  0.00000000000E+00 0.  1.
</event>
<event>
 7    1  0.5537228E-006  0.2239288E+03  0.7818608E-02  0.1229134E+00
          2   -1    0    0  502    0  0.00000000000E+00  0.00000000000E+00  0.11935539203E+04  0.11935539203E+04  0.00000000000E+00 0. -1.
          1   -1    0    0  501    0 -0.00000000000E+00 -0.00000000000E+00 -0.88471205382E+03  0.88471205382E+03  0.00000000000E+00 0. -1.
         25    2    1    2    0    0 -0.26600691770E+03 -0.11950740522E+03  0.77028141259E+02  0.32649684230E+03  0.12500061328E+03 0.  0.
          2    1    1    2  501    0  0.67658055601E+02  0.30391354187E+02 -0.74619818377E+03  0.74987530721E+03  0.00000000000E+00 0. -1.
          1    1    1    2  502    0  0.19834886210E+03  0.89116051028E+02  0.97801190895E+03  0.10018938246E+04  0.00000000000E+00 0. -1.
         22    1    3    3    0    0 -0.23073177549E+03 -0.13179866820E+03  0.31465038478E+02  0.26757819382E+03  0.00000000000E+00 0. -1.
         22    1    3    3    0    0 -0.35275142203E+02  0.12291262984E+02  0.45563102782E+02  0.58918648476E+02  0.00000000000E+00 0. -1.
</event>
<event>
 7    1  0.5537228E-006  0.5712950E+02  0.7818608E-02  0.1458105E+00
          2   -1    0    0  502    0  0.00000000000E+00  0.00000000000E+00  0.15725372410E+04  0.15725372410E+04  0.00000000000E+00 0. -1.
          1   -1    0    0  501    0 -0.00000000000E+00 -0.00000000000E+00 -0.19477432819E+03  0.19477432819E+03  0.00000000000E+00 0. -1.
         25    2    1    2    0    0 -0.44221234525E+01  0.32528752237E+02  0.11943319159E+03  0.17597654632E+03  0.12500313078E+03 0.  0.
          2    1    1    2  501    0 -0.32008264795E+02 -0.48659668106E+02 -0.16112111342E+03  0.17132514558E+03  0.00000000000E+00 0. -1.
          1    1    1    2  502    0  0.36430388247E+02  0.16130915869E+02  0.14194508347E+04  0.14200098773E+04  0.00000000000E+00 0. -1.
         22    1    3    3    0    0 -0.43735255959E+02  0.37259307260E+02  0.83639872517E+01  0.58060183207E+02  0.00000000000E+00 0. -1.
         22    1    3    3    0    0  0.39313132506E+02 -0.47305550228E+01  0.11106920434E+03  0.11791636311E+03  0.00000000000E+00 0. -1.
</event>
<event>
 7    1  0.5537228E-006  0.1164761E+03  0.7818608E-02  0.1350387E+00
          2   -1    0    0  502    0  0.00000000000E+00  0.00000000000E+00  0.18185660155E+04  0.18185660155E+04  0.00000000000E+00 0. -1.
          1   -1    0    0  501    0 -0.00000000000E+00 -0.00000000000E+00 -0.13958101396E+03  0.13958101396E+03  0.00000000000E+00 0. -1.
         25    2    1    2    0    0  0.89643805495E+02 -0.80191114866E+02  0.24861552763E+03  0.30315266694E+03  0.12500092850E+03 0.  0.
          2    1    1    2  501    0 -0.38359463324E+02 -0.24786636516E+02 -0.10535702120E+03  0.11482999474E+03  0.00000000000E+00 0. -1.
          1    1    1    2  502    0 -0.51284342171E+02  0.10497775138E+03  0.15357264951E+04  0.15401643678E+04  0.00000000000E+00 0. -1.
         22    1    3    3    0    0  0.57967404574E+02 -0.31270920333E+02  0.23396526142E+03  0.24305932198E+03  0.00000000000E+00 0.  1.
         22    1    3    3    0    0  0.31676400922E+02 -0.48920194533E+02  0.14650266214E+02  0.60093344961E+02  0.00000000000E+00 0.  1.
</event>
<event>
 7    1  0.5537228E-006  0.1059491E+03  0.7818608E-02  0.1343165E+00
          2   -1    0    0  502    0  0.00000000000E+00  0.00000000000E+00  0.32287205222E+04  0.32287205222E+04  0.00000000000E+00 0. -1.
          1   -1    0    0  501    0 -0.00000000000E+00 -0.00000000000E+00 -0.91103630071E+02  0.91103630071E+02  0.00000000000E+00 0. -1.
         25    2    1    2    0    0  0.13403644315E+03 -0.75817443724E+02  0.91005908393E+03  0.93142195710E+03  0.12500109226E+03 0.  0.
          2    1    1    2  501    0 -0.97518015522E+02  0.36835165227E+02 -0.46196426562E+02  0.11402062347E+03  0.00000000000E+00 0. -1.
          1    1    1    2  502    0 -0.36518427631E+02  0.38982278497E+02  0.22737542348E+04  0.22743815717E+04  0.00000000000E+00 0. -1.
         22    1    3    3    0    0  0.93563481202E+02  0.16364253961E+02  0.36584787100E+03  0.37797695504E+03  0.00000000000E+00 0.  1.
         22    1    3    3    0    0  0.40472961951E+02 -0.92181697685E+02  0.54421121292E+03  0.55344500206E+03  0.00000000000E+00 0.  1.
</event>
<event>
 7    1  0.5537228E-006  0.7645311E+02  0.7818608E-02  0.1406538E+00
          2   -1    0    0  502    0  0.00000000000E+00  0.00000000000E+00  0.19966971920E+03  0.19966971920E+03  0.00000000000E+00 0. -1.
          1   -1    0    0  501    0 -0.00000000000E+00 -0.00000000000E+00 -0.12992317530E+04  0.12992317530E+04  0.00000000000E+00 0. -1.
         25    2    1    2    0    0  0.85422346889E+01  0.92224616548E+02  0.48374115157E+02  0.16292139338E+03  0.12499990293E+03 0.  0.
          2    1    1    2  501    0  0.32178467634E+02 -0.29951700502E+02 -0.12267823078E+04  0.12275697083E+04  0.00000000000E+00 0. -1.
          1    1    1    2  502    0 -0.40720702323E+02 -0.62272916047E+02  0.78846158820E+02  0.10841037050E+03  0.00000000000E+00 0. -1.
         22    1    3    3    0    0  0.61085690928E+02  0.81659064573E+02  0.31843080563E+02  0.10683466779E+03  0.00000000000E+00 0. -1.
         22    1    3    3    0    0 -0.52543456239E+02  0.10565551975E+02  0.16531034594E+02  0.56086725585E+02  0.00000000000E+00 0. -1.
</event>
<event>
 7    1  0.5537228E-006  0.4899058E+02  0.7818608E-02  0.1532871E+00
          2   -1    0    0  502    0  0.00000000000E+00  0.00000000000E+00  0.79849858066E+03  0.79849858066E+03  0.00000000000E+00 0. -1.
          1   -1    0    0  501    0 -0.00000000000E+00 -0.00000000000E+00 -0.11504837256E+04  0.11504837256E+04  0.00000000000E+00 0. -1.
         25    2    1    2    0    0 -0.51689942273E+02 -0.37724314396E+02  0.33547732931E+03  0.36368483963E+03  0.12500660009E+03 0.  0.
          2    1    1    2  501    0  0.47798981753E+01  0.27282242744E+02 -0.11349243212E+04  0.11352622529E+04  0.00000000000E+00 0. -1.
          1    1    1    2  502    0  0.46910044098E+02  0.10442071652E+02  0.44746184692E+03  0.45003521368E+03  0.00000000000E+00 0. -1.
         22    1    3    3    0    0 -0.67554177756E+02 -0.70207164702E+02  0.18687116265E+03  0.21074497465E+03  0.00000000000E+00 0.  1.
         22    1    3    3    0    0  0.15864235483E+02  0.32482850306E+02  0.14860616666E+03  0.15293986499E+03  0.00000000000E+00 0.  1.
</event>
<event>
 7    1  0.5537228E-006  0.8648189E+02  0.7818608E-02  0.1374650E+00
          2   -1    0    0  502    0  0.00000000000E+00  0.00000000000E+00  0.72495845657E+02  0.72495845657E+02  0.00000000000E+00 0. -1.
          1   -1    0    0  501    0 -0.00000000000E+00 -0.00000000000E+00 -0.26489645902E+04  0.26489645902E+04  0.00000000000E+00 0. -1.
         25    2    1    2    0    0  0.93996950457E+02 -0.39352344341E+02 -0.45538196756E+03  0.48309201255E+03  0.12498448906E+03 0.  0.
          2    1    1    2  501    0 -0.85691218036E+02 -0.10158718992E+02 -0.21679648945E+04  0.21696815361E+04  0.00000000000E+00 0. -1.
          1    1    1    2  502    0 -0.83057324210E+01  0.49511063334E+02  0.46878117456E+02  0.68686887247E+02  0.00000000000E+00 0. -1.
         22    1    3    3    0    0  0.51328305815E+02 -0.52872505948E+02 -0.41894600611E+03  0.42537730651E+03  0.00000000000E+00 0.  1.
         22    1    3    3    0    0  0.42668644642E+02  0.13520161607E+02 -0.36435961456E+02  0.57714706034E+02  0.00000000000E+00 0.  1.
</event>
<event>
 7    1  0.5537228E-006  0.6965519E+02  0.7818608E-02  0.1398339E+00
          2   -1    0    0  502    0  0.00000000000E+00  0.00000000000E+00  0.46589786930E+03  0.46589786930E+03  0.00000000000E+00 0. -1.
          1   -1    0    0  501    0 -0.00000000000E+00 -0.00000000000E+00 -0.41881738498E+03  0.41881738498E+03  0.00000000000E+00 0. -1.
         25    2    1    2    0    0  0.42913530566E+02 -0.70650434467E+02  0.46458788378E+02  0.15689822048E+03  0.12500231029E+03 0.  0.
          2    1    1    2  501    0  0.22573353318E+02  0.46261836310E+02 -0.35838982962E+03  0.36206765080E+03  0.00000000000E+00 0. -1.
          1    1    1    2  502    0 -0.65486883885E+02  0.24388598158E+02  0.35901152556E+03  0.36574938301E+03  0.00000000000E+00 0. -1.
         22    1    3    3    0    0  0.64602335034E+02 -0.95002373432E+02  0.24177657486E+02  0.11740303135E+03  0.00000000000E+00 0.  1.
         22    1    3    3    0    0 -0.21688804467E+02  0.24351938965E+02  0.22281130892E+02  0.39495189129E+02  0.00000000000E+00 0.  1.
</event>
<event>
 7    1  0.1069467E-005  0.8225458E+02  0.7818608E-02  0.1413753E+00
          2   -1    0    0  502    0  0.00000000000E+00  0.00000000000E+00  0.22454421624E+04  0.22454421624E+04  0.00000000000E+00 0. -1.
          1   -1    0    0  501    0 -0.00000000000E+00 -0.00000000000E+00 -0.78462197931E+03  0.78462197931E+03  0.00000000000E+00 0. -1.
         25    2    1    2    0    0  0.34409168972E+02 -0.98533683991E+02 -0.85057429610E+02  0.18371703465E+03  0.12499721877E+03 0.  0.
          2    1    1    2  501    0 -0.34981733609E+02  0.16373070249E+02 -0.64889182324E+03  0.65004030443E+03  0.00000000000E+00 0. -1.
          1    1    1    2  502    0  0.57256463655E+00  0.82160613742E+02  0.21947694360E+04  0.21963068026E+04  0.00000000000E+00 0. -1.
         22    1    3    3    0    0 -0.20887059848E+02 -0.10156002833E+03 -0.73634789009E+02  0.12717228777E+03  0.00000000000E+00 0.  1.
         22    1    3    3    0    0  0.55296228820E+02  0.30263443405E+01 -0.11422640602E+02  0.56544746884E+02  0.00000000000E+00 0.  1.
</event>
<event>
 7    1  0.5537228E-006  0.6526181E+02  0.7818608E-02  0.1411518E+00
          2   -1    0    0  502    0  0.00000000000E+00  0.00000000000E+00  0.29485568878E+03  0.29485568878E+03  0.00000000000E+00 0. -1.
          1   -1    0    0  501    0 -0.00000000000E+00 -0.00000000000E+00 -0.53211356153E+03  0.53211356153E+03  0.00000000000E+00 0. -1.
         25    2    1    2    0    0  0.16070800642E+02  0.33415346247E+02  0.83112183666E+01  0.13064824049E+03  0.12500012158E+03 0.  0.
          2    1    1    2  501    0 -0.63655532755E+02 -0.19656837129E+02 -0.46582448291E+03  0.47056441320E+03  0.00000000000E+00 0. -1.
          1    1    1    2  502    0  0.47584732112E+02 -0.13758509118E+02  0.22025539179E+03  0.22575659662E+03  0.00000000000E+00 0. -1.
         22    1    3    3    0    0  0.41300732691E+02  0.20497187938E+02 -0.48647910923E+02  0.67026147669E+02  0.00000000000E+00 0.  1.
         22    1    3    3    0    0 -0.25229932048E+02  0.12918158309E+02  0.56959129290E+02  0.63622092819E+02  0.00000000000E+00 0.  1.
</event>
<event>
 7    1  0.5537228E-006  0.8271893E+02  0.7818608E-02  0.1391771E+00
          2   -1    0    0  502    0  0.00000000000E+00  0.00000000000E+00  0.22242198224E+03  0.22242198224E+03  0.00000000000E+00 0. -1.
          1   -1    0    0  501    0 -0.00000000000E+00 -0.00000000000E+00 -0.16838436266E+04  0.16838436266E+04  0.00000000000E+00 0. -1.
         25    2    1    2    0    0  0.31989023488E+01 -0.50818521886E+02 -0.39574982788E+03  0.41813346961E+03  0.12499966800E+03 0.  0.
          2    1    1    2  501    0  0.29959637564E+02  0.82233695308E+02 -0.12729122965E+04  0.12759175816E+04  0.00000000000E+00 0. -1.
          1    1    1    2  502    0 -0.33158539913E+02 -0.31415173422E+02  0.20724048003E+03  0.21221455759E+03  0.00000000000E+00 0. -1.
         22    1    3    3    0    0  0.55672425569E+02 -0.40043493300E+02 -0.30619002485E+03  0.31377576650E+03  0.00000000000E+00 0. -1.
         22    1    3    3    0    0 -0.52473523220E+02 -0.10775028585E+02 -0.89559803034E+02  0.10435770312E+03  0.00000000000E+00 0. -1.
</event>
<event>
 7    1  0.5537228E-006  0.1648715E+03  0.7818608E-02  0.1292786E+00
          2   -1    0    0  502    0  0.00000000000E+00  0.00000000000E+00  0.21087382361E+04  0.21087382361E+04  0.00000000000E+00 0. -1.
          1   -1    0    0  501    0 -0.00000000000E+00 -0.00000000000E+00 -0.14773545363E+04  0.14773545363E+04  0.00000000000E+00 0. -1.
         25    2    1    2    0    0  0.10269744599E+03  0.17106619507E+03  0.95137686473E+02  0.25394255715E+03  0.12500093773E+03 0.  0.
          2    1    1    2  501    0 -0.51589805810E+02 -0.15689544591E+02 -0.13939718831E+04  0.13950144374E+04  0.00000000000E+00 0. -1.
          1    1    1    2  502    0 -0.51107640179E+02 -0.15537665048E+03  0.19302178963E+04  0.19371357778E+04  0.00000000000E+00 0. -1.
         22    1    3    3    0    0 -0.28648977798E+02  0.43010066044E+02  0.15419952966E+02  0.53929626917E+02  0.00000000000E+00 0. -1.
         22    1    3    3    0    0  0.13134642379E+03  0.12805612903E+03  0.79717733507E+02  0.20001293023E+03  0.00000000000E+00 0. -1.
</event>
<event>
 7    1  0.5537228E-006  0.7196672E+02  0.7818608E-02  0.1366697E+00
          2   -1    0    0  502    0  0.00000000000E+00  0.00000000000E+00  0.12245389304E+04  0.12245389304E+04  0.00000000000E+00 0. -1.
          1   -1    0    0  501    0 -0.00000000000E+00 -0.00000000000E+00 -0.73912387150E+02  0.73912387150E+02  0.00000000000E+00 0. -1.
         25    2    1    2    0    0  0.29495845270E+02 -0.45463001881E+01  0.17166395123E+03  0.21443036795E+03  0.12498478632E+03 0.  0.
          2    1    1    2  501    0 -0.62027533295E+02 -0.51067172712E+02 -0.20150128504E+02  0.82832956570E+02  0.00000000000E+00 0. -1.
          1    1    1    2  502    0  0.32531688024E+02  0.55613472900E+02  0.99911272052E+03  0.10011879930E+04  0.00000000000E+00 0. -1.
         22    1    3    3    0    0  0.24838356276E+02 -0.12455703188E+02 -0.12193320256E+02  0.30344118760E+02  0.00000000000E+00 0. -1.
         22    1    3    3    0    0  0.46574889940E+01  0.79094029998E+01  0.18385727149E+03  0.18408624919E+03  0.00000000000E+00 0. -1.
</event>
<event>
 7    1  0.5537228E-006  0.6829364E+02  0.7818608E-02  0.1451052E+00
          2   -1    0    0  502    0  0.00000000000E+00  0.00000000000E+00  0.47223880761E+03  0.47223880761E+03  0.00000000000E+00 0. -1.
          1   -1    0    0  501    0 -0.00000000000E+00 -0.00000000000E+00 -0.13366029690E+04  0.13366029690E+04  0.00000000000E+00 0. -1.
         25    2    1    2    0    0 -0.46727285700E+02 -0.88833213139E+02 -0.16315973635E+03  0.22873742089E+03  0.12499971665E+03 0.  0.
          2    1    1    2  501    0  0.22435836625E+02  0.63504021348E+02 -0.11389573213E+04  0.11409469345E+04  0.00000000000E+00 0. -1.
          1    1    1    2  502    0  0.24291449075E+02  0.25329191791E+02  0.43775289627E+03  0.43915742126E+03  0.00000000000E+00 0. -1.
         22    1    3    3    0    0 -0.50553041510E+02 -0.80053937486E+01 -0.54399781411E+01  0.51471251172E+02  0.00000000000E+00 0. -1.
         22    1    3    3    0    0  0.38257558102E+01 -0.80827819390E+02 -0.15771975821E+03  0.17726616972E+03  0.00000000000E+00 0. -1.
</event>
<event>
 7    1  0.5537228E-006  0.8274776E+02  0.7818608E-02  0.1496158E+00
          2   -1    0    0  502    0  0.00000000000E+00  0.00000000000E+00  0.33644760290E+03  0.33644760290E+03  0.00000000000E+00 0. -1.
          1   -1    0    0  501    0 -0.00000000000E+00 -0.00000000000E+00 -0.82180012581E+03  0.82180012581E+03  0.00000000000E+00 0. -1.
         25    2    1    2    0    0  0.72091942417E+02  0.11101513689E+02 -0.58933683450E+03  0.60684695183E+03  0.12499930672E+03 0.  0.
          2    1    1    2  501    0 -0.92236259042E+02 -0.17036054089E+02 -0.21351435919E+03  0.23320835363E+03  0.00000000000E+00 0. -1.
          1    1    1    2  502    0  0.20144316625E+02  0.59345404004E+01  0.31749867079E+03  0.31819242325E+03  0.00000000000E+00 0. -1.
         22    1    3    3    0    0  0.91974921778E+02  0.46447844022E+02 -0.38672289590E+03  0.40021417599E+03  0.00000000000E+00 0.  1.
         22    1    3    3    0    0 -0.19882979361E+02 -0.35346330333E+02 -0.20261393860E+03  0.20663277584E+03  0.00000000000E+00 0.  1.
</event>
<event>
 7    1  0.5537228E-006  0.1377812E+03  0.7818608E-02  0.1244016E+00
          2   -1    0    0  502    0  0.00000000000E+00  0.00000000000E+00  0.18463623719E+04  0.18463623719E+04  0.00000000000E+00 0. -1.
          1   -1    0    0  501    0 -0.00000000000E+00 -0.00000000000E+00 -0.67768874536E+03  0.67768874536E+03  0.00000000000E+00 0. -1.
         25    2    1    2    0    0  0.55578731550E+02 -0.23408333736E+03  0.11352840261E+04  0.11672099024E+04  0.12500052865E+03 0.  0.
          2    1    1    2  501    0 -0.35022207812E+02  0.13259612556E+03 -0.65068160772E+03  0.66497732456E+03  0.00000000000E+00 0. -1.
          1    1    1    2  502    0 -0.20556523739E+02  0.10148721181E+03  0.68407120819E+03  0.69186389030E+03  0.00000000000E+00 0. -1.
         22    1    3    3    0    0  0.31299328174E+02 -0.14268534597E+03  0.92730526663E+03  0.93874054638E+03  0.00000000000E+00 0.  1.
         22    1    3    3    0    0  0.24279403376E+02 -0.91397991392E+02  0.20797875945E+03  0.22846935602E+03  0.00000000000E+00 0.  1.
</event>
<event>
 7    1  0.5537228E-006  0.7103366E+02  0.7818608E-02  0.1386950E+00
          2   -1    0    0  502    0  0.00000000000E+00  0.00000000000E+00  0.12651458058E+04  0.12651458058E+04  0.00000000000E+00 0. -1.
          1   -1    0    0  501    0 -0.00000000000E+00 -0.00000000000E+00 -0.53736274800E+03  0.53736274800E+03  0.00000000000E+00 0. -1.
         25    2    1    2    0    0  0.17163582344E+02 -0.11105261867E+03 -0.37882560405E+03  0.41444096240E+03  0.12500080143E+03 0.  0.
          2    1    1    2  501    0 -0.42906523939E+01  0.57278028597E+02 -0.13422715723E+03  0.14600038355E+03  0.00000000000E+00 0. -1.
          1    1    1    2  502    0 -0.12872929950E+02  0.53774590071E+02  0.12408358191E+04  0.12420672079E+04  0.00000000000E+00 0. -1.
         22    1    3    3    0    0 -0.17520912248E+02 -0.12719964792E+03 -0.26740354825E+03  0.29663342767E+03  0.00000000000E+00 0.  1.
         22    1    3    3    0    0  0.34684494591E+02  0.16147029255E+02 -0.11142205581E+03  0.11780753473E+03  0.00000000000E+00 0.  1.
</event>
<event>
 7    1  0.5537228E-006  0.1357783E+03  0.7818608E-02  0.1341652E+00
          2   -1    0    0  502    0  0.00000000000E+00  0.00000000000E+00  0.17892599326E+04  0.17892599326E+04  0.00000000000E+00 0. -1.
          1   -1    0    0  501    0 -0.00000000000E+00 -0.00000000000E+00 -0.21121709346E+03  0.21121709346E+03  0.00000000000E+00 0. -1.
         25    2    1    2    0    0 -0.44717300990E+02  0.11349946239E+03  0.61542057746E+03  0.63972529115E+03  0.12499678397E+03 0.  0.
          2    1    1    2  501    0 -0.42212687089E+02 -0.11538284518E+01 -0.19242412132E+03  0.19700326073E+03  0.00000000000E+00 0. -1.
          1    1    1    2  502    0  0.86929988080E+02 -0.11234563393E+03  0.11550463830E+04  0.11637484742E+04  0.00000000000E+00 0. -1.
         22    1    3    3    0    0 -0.84629806289E+02  0.46212499417E+02  0.34056354821E+03  0.35395102710E+03  0.00000000000E+00 0. -1.
         22    1    3    3    0    0  0.39912505298E+02  0.67286962970E+02  0.27485702925E+03  0.28577426405E+03  0.00000000000E+00 0. -1.
</event>
<event>
 7    1  0.5537228E-006  0.8938290E+02  0.7818608E-02  0.1320669E+00
          2   -1    0    0  502    0  0.00000000000E+00  0.00000000000E+00  0.75680712744E+03  0.75680712744E+03  0.00000000000E+00 0. -1.
          1   -1    0    0  501    0 -0.00000000000E+00 -0.00000000000E+00 -0.16985631229E+03  0.16985631229E+03  0.00000000000E+00 0. -1.
         25    2    1    2    0    0  0.70579363199E+02 -0.48114845948E+02  0.71193836160E+02  0.16730281258E+03  0.12500073552E+03 0.  0.
          2    1    1    2  501    0 -0.63734669207E+02 -0.43432972199E+02 -0.10587370477E+03  0.13098768070E+03  0.00000000000E+00 0. -1.
          1    1    1    2  502    0 -0.68446939927E+01  0.91547818147E+02  0.62163068376E+03  0.62837294645E+03  0.00000000000E+00 0. -1.
         22    1    3    3    0    0  0.87194792452E+02 -0.26828188176E+02  0.73759743049E-01  0.91228772610E+02  0.00000000000E+00 0.  1.
         22    1    3    3    0    0 -0.16615429252E+02 -0.21286657773E+02  0.71120076417E+02  0.76074039974E+02  0.00000000000E+00 0.  1.
</event>
<event>
 7    1  0.5537228E-006  0.2376860E+03  0.7818608E-02  0.1227852E+00
          2   -1    0    0  502    0  0.00000000000E+00  0.00000000000E+00  0.82324770386E+03  0.82324770386E+03  0.00000000000E+00 0. -1.
          1   -1    0    0  501    0 -0.00000000000E+00 -0.00000000000E+00 -0.24676165176E+04  0.24676165176E+04  0.00000000000E+00 0. -1.
         25    2    1    2    0    0 -0.32549697234E+02 -0.17193241862E+03 -0.11988304464E+03  0.24620807705E+03  0.12500493369E+03 0.  0.
          2    1    1    2  501    0  0.30596684837E+01 -0.70744391914E+02 -0.22643469237E+04  0.22654538444E+04  0.00000000000E+00 0. -1.
          1    1    1    2  502    0  0.29490028750E+02  0.24267681053E+03  0.73986115459E+03  0.77920229995E+03  0.00000000000E+00 0. -1.
         22    1    3    3    0    0 -0.17411468804E+02 -0.19031252596E+03 -0.10924289433E+03  0.22012729668E+03  0.00000000000E+00 0. -1.
         22    1    3    3    0    0 -0.15138228430E+02  0.18380107338E+02 -0.10640150312E+02  0.26080780364E+02  0.00000000000E+00 0. -1.
</event>
<event>
 7    1  0.5537228E-006  0.3249608E+03  0.7818608E-02  0.1269428E+00
          2   -1    0    0  502    0  0.00000000000E+00  0.00000000000E+00  0.60883084204E+03  0.60883084204E+03  0.00000000000E+00 0. -1.
          1   -1    0    0  501    0 -0.00000000000E+00 -0.00000000000E+00 -0.13120805748E+04  0.13120805748E+04  0.00000000000E+00 0. -1.
         25    2    1    2    0    0  0.24932762599E+02  0.31181664217E+03 -0.59859343906E+03  0.68686903758E+03  0.12499483395E+03 0.  0.
          2    1    1    2  501    0 -0.51638503469E+02 -0.33310867649E+03 -0.62631574557E+03  0.71126601109E+03  0.00000000000E+00 0. -1.
          1    1    1    2  502    0  0.26705740869E+02  0.21292034316E+02  0.52165945190E+03  0.52277636814E+03  0.00000000000E+00 0. -1.
         22    1    3    3    0    0 -0.50605552776E+02  0.14837872545E+03 -0.28385783529E+03  0.32427216777E+03  0.00000000000E+00 0.  1.
         22    1    3    3    0    0  0.75538315376E+02  0.16343791672E+03 -0.31473560377E+03  0.36259686980E+03  0.00000000000E+00 0.  1.
</event>
<event>
 7    1  0.5537228E-006  0.5185403E+02  0.7818608E-02  0.1502242E+00
          2   -1    0    0  502    0  0.00000000000E+00  0.00000000000E+00  0.13276935294E+04  0.13276935294E+04  0.00000000000E+00 0. -1.
          1   -1    0    0  501    0 -0.00000000000E+00 -0.00000000000E+00 -0.27479854844E+03  0.27479854844E+03  0.00000000000E+00 0. -1.
         25    2    1    2    0    0  0.66252830178E+02 -0.18086279460E+02  0.17244569439E+03  0.22377581561E+03  0.12498618774E+03 0.  0.
          2    1    1    2  501    0 -0.38587166439E+02  0.34441122196E+02 -0.24621741124E+03  0.25159128345E+03  0.00000000000E+00 0. -1.
          1    1    1    2  502    0 -0.27665663739E+02 -0.16354842736E+02  0.11266666978E+04  0.11271249788E+04  0.00000000000E+00 0. -1.
         22    1    3    3    0    0  0.49773327949E+02  0.50005311091E+02  0.10519153205E+03  0.12666165058E+03  0.00000000000E+00 0.  1.
         22    1    3    3    0    0  0.16479502229E+02 -0.68091590551E+02  0.67254162334E+02  0.97114165026E+02  0.00000000000E+00 0.  1.
</event>
<event>
 7    1  0.5537228E-006  0.1212614E+03  0.7818608E-02  0.1354841E+00
          2   -1    0    0  502    0  0.00000000000E+00  0.00000000000E+00  0.26382396388E+04  0.26382396388E+04  0.00000000000E+00 0. -1.
          1   -1    0    0  501    0 -0.00000000000E+00 -0.00000000000E+00 -0.12982383207E+03  0.12982383207E+03  0.00000000000E+00 0. -1.
         25    2    1    2    0    0  0.76923436107E+02  0.13188065168E+03  0.92554123691E+03  0.94633954396E+03  0.12498891923E+03 0.  0.
          2    1    1    2  501    0 -0.38678137104E+02 -0.11395211839E+03 -0.88775767642E+02  0.14954002974E+03  0.00000000000E+00 0. -1.
          1    1    1    2  502    0 -0.38245299003E+02 -0.17928533293E+02  0.16716503375E+04  0.16721838972E+04  0.00000000000E+00 0. -1.
         22    1    3    3    0    0  0.65785594368E+02  0.30184222545E+01  0.38087315977E+03  0.38652453885E+03  0.00000000000E+00 0.  1.
         22    1    3    3    0    0  0.11137841739E+02  0.12886222943E+03  0.54466807714E+03  0.55981500511E+03  0.00000000000E+00 0.  1.
</event>
<event>
 7    1  0.5537228E-006  0.5527627E+02  0.7818608E-02  0.1472504E+00
          2   -1    0    0  502    0  0.00000000000E+00  0.00000000000E+00  0.48366736376E+03  0.48366736376E+03  0.00000000000E+00 0. -1.
          1   -1    0    0  501    0 -0.00000000000E+00 -0.00000000000E+00 -0.17582433212E+04  0.17582433212E+04  0.00000000000E+00 0. -1.
         25    2    1    2    0    0  0.21534380110E+02  0.13643544138E+01  0.18961721160E+03  0.22813487522E+03  0.12500097345E+03 0.  0.
          2    1    1    2  501    0 -0.51280748734E+02  0.20835473834E+02 -0.17372883083E+04  0.17381698703E+04  0.00000000000E+00 0. -1.
          1    1    1    2  502    0  0.29746368624E+02 -0.22199828248E+02  0.27309513916E+03  0.27560593944E+03  0.00000000000E+00 0. -1.
         22    1    3    3    0    0 -0.25416978018E+02 -0.28557505674E+02  0.16111357743E+03  0.16558725414E+03  0.00000000000E+00 0.  1.
         22    1    3    3    0    0  0.46951358127E+02  0.29921860088E+02  0.28503634174E+02  0.62547621076E+02  0.00000000000E+00 0.  1.
</event>
<event>
 7    1  0.5537228E-006  0.5019073E+02  0.7818608E-02  0.1509921E+00
          2   -1    0    0  502    0  0.00000000000E+00  0.00000000000E+00  0.10118897084E+04  0.10118897084E+04  0.00000000000E+00 0. -1.
          1   -1    0    0  501    0 -0.00000000000E+00 -0.00000000000E+00 -0.50934524570E+02  0.50934524570E+02  0.00000000000E+00 0. -1.
         25    2    1    2    0    0 -0.63356398624E+02  0.12137467106E+02  0.37968806372E+03  0.40490635208E+03  0.12499910749E+03 0.  0.
          2    1    1    2  501    0  0.16056194226E+02 -0.27113016059E+02 -0.30670251204E+02  0.43972506430E+02  0.00000000000E+00 0. -1.
          1    1    1    2  502    0  0.47300204398E+02  0.14975548952E+02  0.61193737136E+03  0.61394537450E+03  0.00000000000E+00 0. -1.
         22    1    3    3    0    0 -0.92268012145E+02  0.10319633827E+02  0.35469939624E+03  0.36664907282E+03  0.00000000000E+00 0. -1.
         22    1    3    3    0    0  0.28911613521E+02  0.18178332791E+01  0.24988667480E+02  0.38257279264E+02  0.00000000000E+00 0. -1.
</event>
<event>
 7    1  0.5537228E-006  0.2473882E+02  0.7818608E-02  0.1687733E+00
          2   -1    0    0  502    0  0.00000000000E+00  0.00000000000E+00  0.24291128476E+03  0.24291128476E+03  0.00000000000E+00 0. -1.
          1   -1    0    0  501    0 -0.00000000000E+00 -0.00000000000E+00 -0.32990567448E+03  0.32990567448E+03  0.00000000000E+00 0. -1.
         25    2    1    2    0    0 -0.53817964594E+01  0.38317070602E+02 -0.28379026460E+02  0.13389296156E+03  0.12499917752E+03 0.  0.
          2    1    1    2  501    0  0.15169844855E+02 -0.15687035977E+02 -0.24748829723E+03  0.24844851490E+03  0.00000000000E+00 0. -1.
          1    1    1    2  502    0 -0.97880483954E+01 -0.22630034625E+02  0.18887293397E+03  0.19047548279E+03  0.00000000000E+00 0. -1.
         22    1    3    3    0    0  0.27755185398E+02 -0.36347622937E+02  0.42494822991E+01  0.45929926077E+02  0.00000000000E+00 0.  1.
         22    1    3    3    0    0 -0.33136981858E+02  0.74664693539E+02 -0.32628508759E+02  0.87963035485E+02  0.00000000000E+00 0.  1.
</event>
<event>
 7    1  0.5537228E-006  0.5796522E+02  0.7818608E-02  0.1430213E+00
          2   -1    0    0  502    0  0.00000000000E+00  0.00000000000E+00  0.70290868672E+03  0.70290868672E+03  0.00000000000E+00 0. -1.
          1   -1    0    0  501    0 -0.00000000000E+00 -0.00000000000E+00 -0.91327434940E+02  0.91327434940E+02  0.00000000000E+00 0. -1.
         25    2    1    2    0    0  0.25067963284E+02 -0.13593644221E+02  0.23009610701E+03  0.26341144083E+03  0.12501271436E+03 0.  0.
          2    1    1    2  501    0 -0.54723221897E+02 -0.24542040286E+02 -0.61096788883E+02  0.85614019693E+02  0.00000000000E+00 0. -1.
          1    1    1    2  502    0  0.29655258613E+02  0.38135684507E+02  0.44258193365E+03  0.44521066114E+03  0.00000000000E+00 0. -1.
         22    1    3    3    0    0 -0.43614072791E+02  0.91808251783E+01  0.14507472211E+03  0.15176676148E+03  0.00000000000E+00 0. -1.
         22    1    3    3    0    0  0.68682036075E+02 -0.22774469399E+02  0.85021384907E+02  0.11164467935E+03  0.00000000000E+00 0. -1.
</event>
<event>
 7    1  0.5537228E-006  0.5696313E+02  0.7818608E-02  0.1486117E+00
          2   -1    0    0  502    0  0.00000000000E+00  0.00000000000E+00  0.56310231841E+02  0.56310231841E+02  0.00000000000E+00 0. -1.
          1   -1    0    0  501    0 -0.00000000000E+00 -0.00000000000E+00 -0.11369562609E+04  0.11369562609E+04  0.00000000000E+00 0. -1.
         25    2    1    2    0    0  0.13878485633E+02  0.86263139990E+02 -0.34281792554E+03  0.37521060552E+03  0.12499970696E+03 0.  0.
          2    1    1    2  501    0  0.12627967986E+00 -0.32712676126E+02 -0.75832572899E+03  0.75903099171E+03  0.00000000000E+00 0. -1.
          1    1    1    2  502    0 -0.14004765313E+02 -0.53550463864E+02  0.20497625525E+02  0.59024895457E+02  0.00000000000E+00 0. -1.
         22    1    3    3    0    0  0.10178547072E+02  0.11526907405E+03 -0.21577203873E+03  0.24484308230E+03  0.00000000000E+00 0. -1.
         22    1    3    3    0    0  0.36999385607E+01 -0.29005934057E+02 -0.12704588681E+03  0.13036752322E+03  0.00000000000E+00 0. -1.
</event>
<event>
 7    1  0.5537228E-006  0.1381171E+03  0.7818608E-02  0.1303448E+00
          2   -1    0    0  502    0  0.00000000000E+00  0.00000000000E+00  0.49286804707E+03  0.49286804707E+03  0.00000000000E+00 0. -1.
          1   -1    0    0  501    0 -0.00000000000E+00 -0.00000000000E+00 -0.28608507513E+03  0.28608507513E+03  0.00000000000E+00 0. -1.
         25    2    1    2    0    0  0.12592729731E+03 -0.12630411156E+03  0.14611864111E+01  0.21780363253E+03  0.12500349785E+03 0.  0.
          2    1    1    2  501    0 -0.10808135429E+02  0.57315994720E+02 -0.16088158592E+03  0.17112809159E+03  0.00000000000E+00 0. -1.
          1    1    1    2  502    0 -0.11511916188E+03  0.68988116843E+02  0.36620337145E+03  0.39002139808E+03  0.00000000000E+00 0. -1.
         22    1    3    3    0    0  0.23474191899E+02 -0.90237100948E+02 -0.40112972798E+02  0.10150282094E+03  0.00000000000E+00 0.  1.
         22    1    3    3    0    0  0.10245310541E+03 -0.36067010614E+02  0.41574159209E+02  0.11630081159E+03  0.00000000000E+00 0.  1.
</event>
<event>
 7    1  0.5537228E-006  0.3630666E+03  0.7818608E-02  0.1259166E+00
          2   -1    0    0  502    0  0.00000000000E+00  0.00000000000E+00  0.33091928800E+04  0.33091928800E+04  0.00000000000E+00 0. -1.
          1   -1    0    0  501    0 -0.00000000000E+00 -0.00000000000E+00 -0.93993526249E+03  0.93993526249E+03  0.00000000000E+00 0. -1.
         25    2    1    2    0    0 -0.26433514925E+03 -0.28397811144E+03  0.51179612464E+03  0.65427749824E+03  0.12500853012E+03 0.  0.
          2    1    1    2  501    0  0.77604700846E+01  0.32886964436E+02 -0.85654141439E+03  0.85720765972E+03  0.00000000000E+00 0. -1.
          1    1    1    2  502    0  0.25657467917E+03  0.25109114701E+03  0.27140029073E+04  0.27376429846E+04  0.00000000000E+00 0. -1.
         22    1    3    3    0    0 -0.24191337166E+03 -0.21942030648E+03  0.47560159527E+03  0.57694386877E+03  0.00000000000E+00 0.  1.
         22    1    3    3    0    0 -0.22421777593E+02 -0.64557804959E+02  0.36194529367E+02  0.77333629474E+02  0.00000000000E+00 0.  1.
</event>
<event>
 7    1  0.5537228E-006  0.7369114E+02  0.7818608E-02  0.1377851E+00
          2   -1    0    0  502    0  0.00000000000E+00  0.00000000000E+00  0.87744834123E+03  0.87744834123E+03  0.00000000000E+00 0. -1.
          1   -1    0    0  501    0 -0.00000000000E+00 -0.00000000000E+00 -0.87014752343E+03  0.87014752343E+03  0.00000000000E+00 0. -1.
         25    2    1    2    0    0 -0.16981267589E+02 -0.38356737930E+02  0.73644081296E+02  0.15102506395E+03  0.12500206573E+03 0.  0.
          2    1    1    2  501    0 -0.32920340501E+02  0.66702286905E+02 -0.82871270108E+03  0.83204428057E+03  0.00000000000E+00 0. -1.
          1    1    1    2  502    0  0.49901608091E+02 -0.28345548975E+02  0.76236943759E+03  0.76452652014E+03  0.00000000000E+00 0. -1.
         22    1    3    3    0    0 -0.40360218578E+02  0.34149196352E+02  0.45690253797E+02  0.69876420538E+02  0.00000000000E+00 0.  1.
         22    1    3    3    0    0  0.23378950989E+02 -0.72505934282E+02  0.27953827499E+02  0.81148643410E+02  0.00000000000E+00 0.  1.
</event>
<event>
 7    1  0.5537228E-006  0.8645111E+02  0.7818608E-02  0.1332618E+00
          2   -1    0    0  502    0  0.00000000000E+00  0.00000000000E+00  0.29070941448E+03  0.29070941448E+03  0.00000000000E+00 0. -1.
          1   -1    0    0  501    0 -0.00000000000E+00 -0.00000000000E+00 -0.23615750497E+04  0.23615750497E+04  0.00000000000E+00 0. -1.
         25    2    1    2    0    0  0.22615925318E+01  0.42531868975E+02  0.31602367750E+02  0.13578473270E+03  0.12499883723E+03 0.  0.
          2    1    1    2  501    0  0.65777460162E+02  0.28651290222E+02 -0.22971823571E+04  0.22983024937E+04  0.00000000000E+00 0. -1.
          1    1    1    2  502    0 -0.68039052694E+02 -0.71183159197E+02  0.19471435417E+03  0.21819723776E+03  0.00000000000E+00 0. -1.
         22    1    3    3    0    0 -0.90323606814E+01  0.55312653211E+02  0.72404433011E+02  0.91561318604E+02  0.00000000000E+00 0. -1.
         22    1    3    3    0    0  0.11293953213E+02 -0.12780784236E+02 -0.40802065262E+02  0.44223414098E+02  0.00000000000E+00 0. -1.
</event>
<event>
 7    1  0.5537228E-006  0.5099309E+02  0.7818608E-02  0.1553789E+00
          2   -1    0    0  502    0  0.00000000000E+00  0.00000000000E+00  0.47915688842E+03  0.47915688842E+03  0.00000000000E+00 0. -1.
          1   -1    0    0  501    0 -0.00000000000E+00 -0.00000000000E+00 -0.14378550768E+03  0.14378550768E+03  0.00000000000E+00 0. -1.
         25    2    1    2    0    0  0.50823168266E+02  0.49220094530E+02  0.26916710685E+03  0.30509439389E+03  0.12500418248E+03 0.  0.
          2    1    1    2  501    0 -0.42545560749E+02 -0.27507762440E+02 -0.11997009873E+03  0.13022913009E+03  0.00000000000E+00 0. -1.
          1    1    1    2  502    0 -0.82776075165E+01 -0.21712332090E+02  0.18617437263E+03  0.18761887212E+03  0.00000000000E+00 0. -1.
         22    1    3    3    0    0 -0.55267819205E+01 -0.31148994535E+02  0.20347668121E+02  0.37614262945E+02  0.00000000000E+00 0. -1.
         22    1    3    3    0    0  0.56349950186E+02  0.80369089065E+02  0.24881943872E+03  0.26748013095E+03  0.00000000000E+00 0. -1.
</event>
<event>
 7    1  0.5537228E-006  0.6470160E+02  0.7818608E-02  0.1401275E+00
          2   -1    0    0  502    0  0.00000000000E+00  0.00000000000E+00  0.19822323841E+03  0.19822323841E+03  0.00000000000E+00 0. -1.
          1   -1    0    0  501    0 -0.00000000000E+00 -0.00000000000E+00 -0.19824008703E+04  0.19824008703E+04  0.00000000000E+00 0. -1.
         25    2    1    2    0    0 -0.36137199688E+02  0.95811393653E+02 -0.19460788375E+03  0.25294901564E+03  0.12500102296E+03 0.  0.
          2    1    1    2  501    0 -0.11348825641E+02 -0.52940026118E+02 -0.17521365797E+04  0.17529729137E+04  0.00000000000E+00 0. -1.
          1    1    1    2  502    0  0.47486025330E+02 -0.42871367535E+02  0.16256683156E+03  0.17470217937E+03  0.00000000000E+00 0. -1.
         22    1    3    3    0    0 -0.43692607619E+02  0.84152621332E+02 -0.49097172341E+02  0.10677658905E+03  0.00000000000E+00 0.  1.
         22    1    3    3    0    0  0.75554079307E+01  0.11658772321E+02 -0.14551071141E+03  0.14617242659E+03  0.00000000000E+00 0.  1.
</event>
<event>
 7    1  0.5537228E-006  0.8184737E+02  0.7818608E-02  0.1372919E+00
          2   -1    0    0  502    0  0.00000000000E+00  0.00000000000E+00  0.22262066762E+03  0.22262066762E+03  0.00000000000E+00 0. -1.
          1   -1    0    0  501    0 -0.00000000000E+00 -0.00000000000E+00 -0.29746067009E+03  0.29746067009E+03  0.00000000000E+00 0. -1.
         25    2    1    2    0    0  0.61158288669E+02  0.10517534189E+03  0.69301989608E+02  0.18768439517E+03  0.12498190913E+03 0.  0.
          2    1    1    2  501    0 -0.14275981429E+02 -0.78770164305E+02 -0.22299844565E+03  0.23693216158E+03  0.00000000000E+00 0. -1.
          1    1    1    2  502    0 -0.46882307240E+02 -0.26405177586E+02  0.78856453571E+02  0.95464780968E+02  0.00000000000E+00 0. -1.
         22    1    3    3    0    0 -0.25575438864E+02  0.51876164449E+02  0.63243405323E+02  0.85702787749E+02  0.00000000000E+00 0. -1.
         22    1    3    3    0    0  0.86733727534E+02  0.53299177443E+02  0.60585842846E+01  0.10198160742E+03  0.00000000000E+00 0. -1.
</event>
<event>
 7    1  0.5537228E-006  0.6283487E+02  0.7818608E-02  0.1424445E+00
          2   -1    0    0  502    0  0.00000000000E+00  0.00000000000E+00  0.15110010140E+04  0.15110010140E+04  0.00000000000E+00 0. -1.
          1   -1    0    0  501    0 -0.00000000000E+00 -0.00000000000E+00 -0.10857214010E+03  0.10857214010E+03  0.00000000000E+00 0. -1.
         25    2    1    2    0    0  0.51683932144E+02  0.56164152005E+02  0.29748675227E+03  0.33158589908E+03  0.12500079951E+03 0.  0.
          2    1    1    2  501    0 -0.46109057192E+02  0.64968841046E+01 -0.84714496852E+02  0.96668509015E+02  0.00000000000E+00 0. -1.
          1    1    1    2  502    0 -0.55748749521E+01 -0.62661036110E+02  0.11896566185E+04  0.11913187460E+04  0.00000000000E+00 0. -1.
         22    1    3    3    0    0  0.85498911749E+02  0.57860546242E+01  0.17992623901E+03  0.19929122866E+03  0.00000000000E+00 0. -1.
         22    1    3    3    0    0 -0.33814979605E+02  0.50378097381E+02  0.11756051327E+03  0.13229467042E+03  0.00000000000E+00 0. -1.
</event>
<event>
 7    1  0.5537228E-006  0.8362472E+02  0.7818608E-02  0.1393474E+00
          2   -1    0    0  502    0  0.00000000000E+00  0.00000000000E+00  0.16202647553E+03  0.16202647553E+03  0.00000000000E+00 0. -1.
          1   -1    0    0  501    0 -0.00000000000E+00 -0.00000000000E+00 -0.71695640234E+03  0.71695640234E+03  0.00000000000E+00 0. -1.
         25    2    1    2    0    0 -0.54004812366E+02 -0.28928787724E+02 -0.36881059675E+03  0.39420705097E+03  0.12499819294E+03 0.  0.
          2    1    1    2  501    0  0.10130668518E+02 -0.43404193878E+02 -0.32180510029E+03  0.32487701837E+03  0.00000000000E+00 0. -1.
          1    1    1    2  502    0  0.43874143848E+02  0.72332981602E+02  0.13568577024E+03  0.15989880853E+03  0.00000000000E+00 0. -1.
         22    1    3    3    0    0 -0.10284192795E+02 -0.19127821194E+02 -0.34053188628E+03  0.34122368578E+03  0.00000000000E+00 0.  1.
         22    1    3    3    0    0 -0.43720619571E+02 -0.98009665299E+01 -0.28278710474E+02  0.52983365189E+02  0.00000000000E+00 0.  1.
</event>
<event>
 7    1  0.5537228E-006  0.4297342E+02  0.7818608E-02  0.1521294E+00
          2   -1    0    0  502    0  0.00000000000E+00  0.00000000000E+00  0.16402590654E+03  0.16402590654E+03  0.00000000000E+00 0. -1.
          1   -1    0    0  501    0 -0.00000000000E+00 -0.00000000000E+00 -0.86265519459E+03  0.86265519459E+03  0.00000000000E+00 0. -1.
         25    2    1    2    0    0  0.20019865180E+02 -0.64707582994E+02 -0.35388464782E+03  0.38137584344E+03  0.12500129480E+03 0.  0.
          2    1    1    2  501    0 -0.25804072809E+02  0.22280865138E+02 -0.49137217038E+03  0.49255344578E+03  0.00000000000E+00 0. -1.
          1    1    1    2  502    0  0.57842076297E+01  0.42426717856E+02  0.14662753015E+03  0.15275181192E+03  0.00000000000E+00 0. -1.
         22    1    3    3    0    0  0.22929994309E+02 -0.68325895822E+02 -0.80880504303E+02  0.10833221430E+03  0.00000000000E+00 0. -1.
         22    1    3    3    0    0 -0.29101291297E+01  0.36183128284E+01 -0.27300414351E+03  0.27304362914E+03  0.00000000000E+00 0. -1.
</event>
<event>
 7    1  0.5537228E-006  0.4206848E+02  0.7818608E-02  0.1606841E+00
          2   -1    0    0  502    0  0.00000000000E+00  0.00000000000E+00  0.36647754667E+03  0.36647754667E+03  0.00000000000E+00 0. -1.
          1   -1    0    0  501    0 -0.00000000000E+00 -0.00000000000E+00 -0.59230948342E+03  0.59230948342E+03  0.00000000000E+00 0. -1.
         25    2    1    2    0    0 -0.35462824788E+02  0.42062510877E+02  0.16736134345E+03  0.21601323052E+03  0.12500011886E+03 0.  0.
          2    1    1    2  501    0  0.15378581815E+02 -0.39112891459E+02 -0.56661325305E+03  0.56816977884E+03  0.00000000000E+00 0. -1.
          1    1    1    2  502    0  0.20084242973E+02 -0.29496194176E+01  0.17341997285E+03  0.17460402073E+03  0.00000000000E+00 0. -1.
         22    1    3    3    0    0 -0.39089462760E+02  0.29472833400E+02  0.82505935307E+00  0.48962380767E+02  0.00000000000E+00 0.  1.
         22    1    3    3    0    0  0.36266379719E+01  0.12589677477E+02  0.16653628409E+03  0.16705084975E+03  0.00000000000E+00 0.  1.
</event>
<event>
 7    1  0.5537228E-006  0.7502645E+02  0.7818608E-02  0.1346483E+00
          2   -1    0    0  502    0  0.00000000000E+00  0.00000000000E+00  0.22719240565E+04  0.22719240565E+04  0.00000000000E+00 0. -1.
          1   -1    0    0  501    0 -0.00000000000E+00 -0.00000000000E+00 -0.21211773811E+04  0.21211773811E+04  0.00000000000E+00 0. -1.
         25    2    1    2    0    0  0.47899117819E+02  0.12927366381E+03  0.95038960093E+02  0.20895789725E+03  0.12499997298E+03 0.  0.
          2    1    1    2  501    0 -0.49588434759E+02 -0.55983685259E+02 -0.20629063230E+04  0.20642615347E+04  0.00000000000E+00 0. -1.
          1    1    1    2  502    0  0.16893169399E+01 -0.73289978556E+02  0.21186140383E+04  0.21198820057E+04  0.00000000000E+00 0. -1.
         22    1    3    3    0    0 -0.13768437053E+02  0.78540371849E+02  0.10123079114E+03  0.12886362149E+03  0.00000000000E+00 0. -1.
         22    1    3    3    0    0  0.61667554873E+02  0.50733291965E+02 -0.61918310504E+01  0.80094275759E+02  0.00000000000E+00 0. -1.
</event>
<event>
 7    1  0.5537228E-006  0.5661998E+02  0.7818608E-02  0.1423907E+00
          2   -1    0    0  502    0  0.00000000000E+00  0.00000000000E+00  0.63854670273E+03  0.63854670273E+03  0.00000000000E+00 0. -1.
          1   -1    0    0  501    0 -0.00000000000E+00 -0.00000000000E+00 -0.10183282294E+03  0.10183282294E+03  0.00000000000E+00 0. -1.
         25    2    1    2    0    0  0.36368846551E+01 -0.16523437355E+02  0.70767605283E+02  0.14463099585E+03  0.12499528027E+03 0.  0.
          2    1    1    2  501    0 -0.57755199066E+02 -0.12079548095E+00 -0.50189905948E+02  0.76516039297E+02  0.00000000000E+00 0. -1.
          1    1    1    2  502    0  0.54118314411E+02  0.16644232836E+02  0.51613618046E+03  0.51923249053E+03  0.00000000000E+00 0. -1.
         22    1    3    3    0    0 -0.16435508222E+02 -0.83373059736E+01 -0.33445662169E+02  0.38187025537E+02  0.00000000000E+00 0.  1.
         22    1    3    3    0    0  0.20072392877E+02 -0.81861313814E+01  0.10421326745E+03  0.10644397031E+03  0.00000000000E+00 0.  1.
</event>
<event>
 7    1  0.5537228E-006  0.5133725E+02  0.7818608E-02  0.1530972E+00
          2   -1    0    0  502    0  0.00000000000E+00  0.00000000000E+00  0.73432377305E+03  0.73432377305E+03  0.00000000000E+00 0. -1.
          1   -1    0    0  501    0 -0.00000000000E+00 -0.00000000000E+00 -0.26642357211E+03  0.26642357211E+03  0.00000000000E+00 0. -1.
         25    2    1    2    0    0 -0.18140491607E+01 -0.52204831797E+02 -0.11954075362E+03  0.18067281810E+03  0.12499616069E+03 0.  0.
          2    1    1    2  501    0 -0.24289571777E+02  0.46295630016E+02 -0.11017256686E+03  0.12194778860E+03  0.00000000000E+00 0. -1.
          1    1    1    2  502    0  0.26103620938E+02  0.59092017809E+01  0.69761352142E+03  0.69812673846E+03  0.00000000000E+00 0. -1.
         22    1    3    3    0    0 -0.60365587555E+02 -0.29131840015E+02 -0.86995298978E+02  0.10982190268E+03  0.00000000000E+00 0.  1.
         22    1    3    3    0    0  0.58551538395E+02 -0.23072991782E+02 -0.32545454641E+02  0.70850915421E+02  0.00000000000E+00 0.  1.
</event>
<event>
 7    1  0.5537228E-006  0.5136540E+02  0.7818608E-02  0.1489304E+00
          2   -1    0    0  502    0  0.00000000000E+00  0.00000000000E+00  0.36309902140E+03  0.36309902140E+03  0.00000000000E+00 0. -1.
          1   -1    0    0  501    0 -0.00000000000E+00 -0.00000000000E+00 -0.53458448721E+03  0.53458448721E+03  0.00000000000E+00 0. -1.
         25    2    1    2    0    0  0.25962592566E+01  0.27749246333E+02  0.20045958610E+03  0.23787492453E+03  0.12499469118E+03 0.  0.
          2    1    1    2  501    0  0.24781461284E+02  0.25389689053E+02 -0.50902604507E+03  0.51026098390E+03  0.00000000000E+00 0. -1.
          1    1    1    2  502    0 -0.27377720540E+02 -0.53138935386E+02  0.13708099316E+03  0.14954760019E+03  0.00000000000E+00 0. -1.
         22    1    3    3    0    0  0.54711488394E+02  0.42489072352E+02  0.14310786410E+03  0.15899222937E+03  0.00000000000E+00 0. -1.
         22    1    3    3    0    0 -0.52115229138E+02 -0.14739826019E+02  0.57351722002E+02  0.78882695161E+02  0.00000000000E+00 0. -1.
</event>
<event>
 7    1  0.5537228E-006  0.1477105E+03  0.7818608E-02  0.1317942E+00
          2   -1    0    0  502    0  0.00000000000E+00  0.00000000000E+00  0.16361565603E+04  0.16361565603E+04  0.00000000000E+00 0. -1.
          1   -1    0    0  501    0 -0.00000000000E+00 -0.00000000000E+00 -0.48100568362E+03  0.48100568362E+03  0.00000000000E+00 0. -1.
         25    2    1    2    0    0 -0.11015552034E+03  0.46239097117E+02 -0.24662411070E+02  0.17465592697E+03  0.12499666212E+03 0.  0.
          2    1    1    2  501    0  0.12368819216E+03 -0.92107853175E+02 -0.36537021307E+03  0.39658292713E+03  0.00000000000E+00 0. -1.
          1    1    1    2  502    0 -0.13532671815E+02  0.45868756057E+02  0.15451835008E+04  0.15459233898E+04  0.00000000000E+00 0. -1.
         22    1    3    3    0    0 -0.66108019549E+02  0.80199265808E+02 -0.47821993310E+02  0.11440775992E+03  0.00000000000E+00 0. -1.
         22    1    3    3    0    0 -0.44047500793E+02 -0.33960168691E+02  0.23159582240E+02  0.60248167052E+02  0.00000000000E+00 0. -1.
</event>
<event>
 7    1  0.5537228E-006  0.9086198E+02  0.7818608E-02  0.1413123E+00
          2   -1    0    0  502    0  0.00000000000E+00  0.00000000000E+00  0.62232769274E+03  0.62232769274E+03  0.00000000000E+00 0. -1.
          1   -1    0    0  501    0 -0.00000000000E+00 -0.00000000000E+00 -0.37467299954E+03  0.37467299954E+03  0.00000000000E+00 0. -1.
         25    2    1    2    0    0 -0.83305860811E+01 -0.57311773122E+02  0.11598443970E+02  0.13825125545E+03  0.12499939092E+03 0.  0.
          2    1    1    2  501    0 -0.88120322979E+01 -0.34013564188E+02 -0.30639203865E+03  0.30840015534E+03  0.00000000000E+00 0. -1.
          1    1    1    2  502    0  0.17142618379E+02  0.91325337310E+02  0.54244828789E+03  0.55034928149E+03  0.00000000000E+00 0. -1.
         22    1    3    3    0    0  0.54159848470E+02 -0.21218239788E+02 -0.17038335268E+02  0.60611943994E+02  0.00000000000E+00 0.  1.
         22    1    3    3    0    0 -0.62490434551E+02 -0.36093533334E+02  0.28636779238E+02  0.77639311461E+02  0.00000000000E+00 0.  1.
</event>
<event>
 7    1  0.5537228E-006  0.1320145E+03  0.7818608E-02  0.1321697E+00
          2   -1    0    0  502    0  0.00000000000E+00  0.00000000000E+00  0.51962487418E+03  0.51962487418E+03  0.00000000000E+00 0. -1.
          1   -1    0    0  501    0 -0.00000000000E+00 -0.00000000000E+00 -0.42850844963E+03  0.42850844963E+03  0.00000000000E+00 0. -1.
         25    2    1    2    0    0  0.44381057796E+02  0.82115666065E+02 -0.23847880207E+03  0.28497364909E+03  0.12500072293E+03 0.  0.
          2    1    1    2  501    0  0.50348702282E+02  0.11932304717E+02 -0.15348685745E+03  0.16197403226E+03  0.00000000000E+00 0. -1.
          1    1    1    2  502    0 -0.94729760078E+02 -0.94047970782E+02  0.48308208408E+03  0.50118564246E+03  0.00000000000E+00 0. -1.
         22    1    3    3    0    0 -0.23020805822E+02 -0.19916737339E+02 -0.74010975509E+02  0.80026610716E+02  0.00000000000E+00 0. -1.
         22    1    3    3    0    0  0.67401863618E+02  0.10203240340E+03 -0.16446782656E+03  0.20494703837E+03  0.00000000000E+00 0. -1.
</event>
<event>
 7    1  0.5537228E-006  0.5625332E+02  0.7818608E-02  0.1537899E+00
          2   -1    0    0  502    0  0.00000000000E+00  0.00000000000E+00  0.76496371221E+02  0.76496371221E+02  0.00000000000E+00 0. -1.
          1   -1    0    0  501    0 -0.00000000000E+00 -0.00000000000E+00 -0.17077206155E+04  0.17077206155E+04  0.00000000000E+00 0. -1.
         25    2    1    2    0    0  0.50359504279E+01  0.33550542663E+02 -0.25878066516E+03  0.28938726891E+03  0.12500623598E+03 0.  0.
          2    1    1    2  501    0 -0.12169129818E+02 -0.55774268105E+02 -0.14308209307E+04  0.14319592845E+04  0.00000000000E+00 0. -1.
          1    1    1    2  502    0  0.71331793903E+01  0.22223725442E+02  0.58377351533E+02  0.62870433375E+02  0.00000000000E+00 0. -1.
         22    1    3    3    0    0  0.68493015060E+01 -0.46817859412E+02 -0.73428518104E+02  0.87353146262E+02  0.00000000000E+00 0. -1.
         22    1    3    3    0    0 -0.18133510781E+01  0.80368402074E+02 -0.18535214706E+03  0.20203412265E+03  0.00000000000E+00 0. -1.
</event>
<event>
 7    1  0.5537228E-006  0.9978242E+02  0.7818608E-02  0.1356229E+00
          2   -1    0    0  502    0  0.00000000000E+00  0.00000000000E+00  0.91384889651E+03  0.91384889651E+03  0.00000000000E+00 0. -1.
          1   -1    0    0  501    0 -0.00000000000E+00 -0.00000000000E+00 -0.84303872627E+03  0.84303872627E+03  0.00000000000E+00 0. -1.
         25    2    1    2    0    0 -0.16285892277E+01  0.99221391222E+02  0.32609755118E+03  0.36305887028E+03  0.12499837448E+03 0.  0.
          2    1    1    2  501    0  0.50638302855E+02 -0.86114377388E+02 -0.82039172050E+03  0.82645175223E+03  0.00000000000E+00 0. -1.
          1    1    1    2  502    0 -0.49009713627E+02 -0.13107013835E+02  0.56510433956E+03  0.56737700027E+03  0.00000000000E+00 0. -1.
         22    1    3    3    0    0  0.54874619644E+02  0.84279621662E+02  0.22089962673E+03  0.24271572590E+03  0.00000000000E+00 0.  1.
         22    1    3    3    0    0 -0.56503208871E+02  0.14941769560E+02  0.10519792445E+03  0.12034314438E+03  0.00000000000E+00 0.  1.
</event>
<event>
 7    1  0.5537228E-006  0.9398932E+02  0.7818608E-02  0.1336564E+00
          2   -1    0    0  502    0  0.00000000000E+00  0.00000000000E+00  0.13058687312E+04  0.13058687312E+04  0.00000000000E+00 0. -1.
          1   -1    0    0  501    0 -0.00000000000E+00 -0.00000000000E+00 -0.49471250644E+03  0.49471250644E+03  0.00000000000E+00 0. -1.
         25    2    1    2    0    0 -0.83035585590E+02  0.65493554887E+02  0.12744806085E+03  0.20748253976E+03  0.12498672684E+03 0.  0.
          2    1    1    2  501    0  0.58384217488E+02  0.25616230742E+02 -0.45049036351E+03  0.45497964322E+03  0.00000000000E+00 0. -1.
          1    1    1    2  502    0  0.24651368101E+02 -0.91109785629E+02  0.11341985274E+04  0.11381190547E+04  0.00000000000E+00 0. -1.
         22    1    3    3    0    0  0.58219532723E+01 -0.14876139931E+02 -0.14608018654E+02  0.21646914056E+02  0.00000000000E+00 0. -1.
         22    1    3    3    0    0 -0.88857538862E+02  0.80369694818E+02  0.14205607951E+03  0.18583562571E+03  0.00000000000E+00 0. -1.
</event>
<event>
 7    1  0.5537228E-006  0.8381763E+02  0.7818608E-02  0.1340017E+00
          2   -1    0    0  502    0  0.00000000000E+00  0.00000000000E+00  0.55649267802E+03  0.55649267802E+03  0.00000000000E+00 0. -1.
          1   -1    0    0  501    0 -0.00000000000E+00 -0.00000000000E+00 -0.75275279874E+03  0.75275279874E+03  0.00000000000E+00 0. -1.
         25    2    1    2    0    0 -0.89907122163E+02 -0.12182228187E+03 -0.58745677536E+02  0.20493413896E+03  0.12499195057E+03 0.  0.
          2    1    1    2  501    0  0.40931675110E+02  0.56021393830E+02 -0.61546992815E+03  0.61936825157E+03  0.00000000000E+00 0. -1.
          1    1    1    2  502    0  0.48975447053E+02  0.65800888040E+02  0.47795548497E+03  0.48494308624E+03  0.00000000000E+00 0. -1.
         22    1    3    3    0    0 -0.92231521006E+02 -0.64471169495E+02  0.12747840318E+02  0.11325057437E+03  0.00000000000E+00 0. -1.
         22    1    3    3    0    0  0.23243988425E+01 -0.57351112374E+02 -0.71493517854E+02  0.91683564589E+02  0.00000000000E+00 0. -1.
</event>
<event>
 7    1  0.5537228E-006  0.3473098E+02  0.7818608E-02  0.1574403E+00
          2   -1    0    0  502    0  0.00000000000E+00  0.00000000000E+00  0.48306269210E+03  0.48306269210E+03  0.00000000000E+00 0. -1.
          1   -1    0    0  501    0 -0.00000000000E+00 -0.00000000000E+00 -0.10281129779E+03  0.10281129779E+03  0.00000000000E+00 0. -1.
         25    2    1    2    0    0 -0.22831225668E+01 -0.99768128262E+01  0.21327855543E+03  0.24742501571E+03  0.12500658683E+03 0.  0.
          2    1    1    2  501    0  0.31815332198E+02  0.15015152871E+02 -0.81189963645E+02  0.88484351019E+02  0.00000000000E+00 0. -1.
          1    1    1    2  502    0 -0.29532209631E+02 -0.50383400447E+01  0.24816280252E+03  0.24996462316E+03  0.00000000000E+00 0. -1.
         22    1    3    3    0    0  0.43814532430E+02  0.18193838292E+02  0.17473521393E+03  0.18106110568E+03  0.00000000000E+00 0.  1.
         22    1    3    3    0    0 -0.46097654997E+02 -0.28170651119E+02  0.38543341507E+02  0.66363910036E+02  0.00000000000E+00 0.  1.
</event>
<event>
 7    1  0.5537228E-006  0.9109601E+02  0.7818608E-02  0.1304804E+00
          2   -1    0    0  502    0  0.00000000000E+00  0.00000000000E+00  0.28461545935E+03  0.28461545935E+03  0.00000000000E+00 0. -1.
          1   -1    0    0  501    0 -0.00000000000E+00 -0.00000000000E+00 -0.15975725314E+04  0.15975725314E+04  0.00000000000E+00 0. -1.
         25    2    1    2    0    0  0.20682885376E+00 -0.28658822710E+02  0.79945627876E+02  0.15112009193E+03  0.12499843147E+03 0.  0.
          2    1    1    2  501    0 -0.87547172675E+02  0.28488496072E+02 -0.15492477742E+04  0.15519809173E+04  0.00000000000E+00 0. -1.
          1    1    1    2  502    0  0.87340343821E+02  0.17032663780E+00  0.15634507431E+03  0.17908698147E+03  0.00000000000E+00 0. -1.
         22    1    3    3    0    0  0.27830569632E+02 -0.64965157041E+02  0.78286726623E+02  0.10546953968E+03  0.00000000000E+00 0.  1.
         22    1    3    3    0    0 -0.27623740778E+02  0.36306334331E+02  0.16589012527E+01  0.45650552248E+02  0.00000000000E+00 0.  1.
</event>
<event>
 7    1  0.5537228E-006  0.3001756E+02  0.7818608E-02  0.1665000E+00
          2   -1    0    0  502    0  0.00000000000E+00  0.00000000000E+00  0.87536581329E+03  0.87536581329E+03  0.00000000000E+00 0. -1.
          1   -1    0    0  501    0 -0.00000000000E+00 -0.00000000000E+00 -0.66717250153E+03  0.66717250153E+03  0.00000000000E+00 0. -1.
         25    2    1    2    0    0 -0.14250627085E+02 -0.21166608320E+01  0.27187511143E+03  0.29957311184E+03  0.12498164865E+03 0.  0.
          2    1    1    2  501    0  0.26496687602E+02 -0.14153386609E+02 -0.65280217787E+03  0.65349298102E+03  0.00000000000E+00 0. -1.
          1    1    1    2  502    0 -0.12246060517E+02  0.16270047441E+02  0.58912037820E+03  0.58947222196E+03  0.00000000000E+00 0. -1.
         22    1    3    3    0    0  0.18771716226E+02 -0.32421740658E+02  0.17625185050E+02  0.41402822916E+02  0.00000000000E+00 0.  1.
         22    1    3    3    0    0 -0.33022343312E+02  0.30305079826E+02  0.25424992638E+03  0.25817028892E+03  0.00000000000E+00 0.  1.
</event>
<event>
 7    1  0.5537228E-006  0.9225951E+02  0.7818608E-02  0.1398659E+00
          2   -1    0    0  502    0  0.00000000000E+00  0.00000000000E+00  0.16184216013E+03  0.16184216013E+03  0.00000000000E+00 0. -1.
          1   -1    0    0  501    0 -0.00000000000E+00 -0.00000000000E+00 -0.80400698745E+03  0.80400698745E+03  0.00000000000E+00 0. -1.
         25    2    1    2    0    0  0.41170124569E+02  0.66225593737E+02  0.46689427040E+02  0.15453262609E+03  0.12497848418E+03 0.  0.
          2    1    1    2  501    0 -0.12261507254E+02 -0.92052241431E+02 -0.74074576667E+03  0.74654420536E+03  0.00000000000E+00 0. -1.
          1    1    1    2  502    0 -0.28908617316E+02  0.25826647694E+02  0.51891512317E+02  0.64772316129E+02  0.00000000000E+00 0. -1.
         22    1    3    3    0    0  0.47072263652E+02  0.40863134738E+02  0.86707281479E+02  0.10678832543E+03  0.00000000000E+00 0. -1.
         22    1    3    3    0    0 -0.59021390828E+01  0.25362458999E+02 -0.40017854438E+02  0.47744300666E+02  0.00000000000E+00 0. -1.
</event>
<event>
 7    1  0.6267412E-006  0.8370755E+02  0.7818608E-02  0.1351451E+00
          2   -1    0    0  502    0  0.00000000000E+00  0.00000000000E+00  0.66749488821E+03  0.66749488821E+03  0.00000000000E+00 0. -1.
          1   -1    0    0  501    0 -0.00000000000E+00 -0.00000000000E+00 -0.16175702025E+04  0.16175702025E+04  0.00000000000E+00 0. -1.
         25    2    1    2    0    0 -0.33029670357E+02  0.15914987079E+02 -0.26583481022E+03  0.29603558499E+03  0.12499870126E+03 0.  0.
          2    1    1    2  501    0  0.42499053631E+02 -0.78174882990E+02 -0.13336292209E+04  0.13365943216E+04  0.00000000000E+00 0. -1.
          1    1    1    2  502    0 -0.94693832742E+01  0.62259895911E+02  0.64938871683E+03  0.65243518406E+03  0.00000000000E+00 0. -1.
         22    1    3    3    0    0 -0.35390624646E+02  0.67580043298E+02 -0.18450833863E+03  0.19965691971E+03  0.00000000000E+00 0.  1.
         22    1    3    3    0    0  0.23609542895E+01 -0.51665056219E+02 -0.81326471595E+02  0.96378665281E+02  0.00000000000E+00 0.  1.
</event>
<event>
 7    1  0.5537228E-006  0.1515322E+03  0.7818608E-02  0.1313654E+00
          2   -1    0    0  502    0  0.00000000000E+00  0.00000000000E+00  0.17740961642E+04  0.17740961642E+04  0.00000000000E+00 0. -1.
          1   -1    0    0  501    0 -0.00000000000E+00 -0.00000000000E+00 -0.13433626629E+04  0.13433626629E+04  0.00000000000E+00 0. -1.
         25    2    1    2    0    0  0.18490125716E+03 -0.73214311798E+02 -0.91625518150E+02  0.25212753778E+03  0.12499699748E+03 0.  0.
          2    1    1    2  501    0 -0.46292753992E+02  0.14295996300E+02 -0.11676348045E+04  0.11686395643E+04  0.00000000000E+00 0. -1.
          1    1    1    2  502    0 -0.13860850317E+03  0.58918315497E+02  0.16899938239E+04  0.16966917250E+04  0.00000000000E+00 0. -1.
         22    1    3    3    0    0  0.26734612722E+02 -0.69767261769E+02 -0.14432640101E+02  0.76095410061E+02  0.00000000000E+00 0.  1.
         22    1    3    3    0    0  0.15816664444E+03 -0.34470500290E+01 -0.77192878049E+02  0.17603212772E+03  0.00000000000E+00 0.  1.
</event>
<event>
 7    1  0.5537228E-006  0.8858290E+02  0.7818608E-02  0.1342415E+00
          2   -1    0    0  502    0  0.00000000000E+00  0.00000000000E+00  0.27518850837E+04  0.27518850837E+04  0.00000000000E+00 0. -1.
          1   -1    0    0  501    0 -0.00000000000E+00 -0.00000000000E+00 -0.47139699226E+03  0.47139699226E+03  0.00000000000E+00 0. -1.
         25    2    1    2    0    0  0.26556911916E+02  0.13040915198E+02  0.18351936079E+03  0.22400587189E+03  0.12499575920E+03 0.  0.
          2    1    1    2  501    0  0.64113146340E+02 -0.49216694425E+01 -0.44804462411E+03  0.45263528758E+03  0.00000000000E+00 0. -1.
          1    1    1    2  502    0 -0.90670058257E+02 -0.81192457551E+01  0.25450133548E+04  0.25466409165E+04  0.00000000000E+00 0. -1.
         22    1    3    3    0    0  0.27809687327E+02 -0.16967875611E+01 -0.10239407173E+02  0.29683383508E+02  0.00000000000E+00 0.  1.
         22    1    3    3    0    0 -0.12527754103E+01  0.14737702759E+02  0.19375876797E+03  0.19432248839E+03  0.00000000000E+00 0.  1.
</event>
<event>
 7    1  0.5537228E-006  0.9206806E+02  0.7818608E-02  0.1353575E+00
          2   -1    0    0  502    0  0.00000000000E+00  0.00000000000E+00  0.14099477689E+04  0.14099477689E+04  0.00000000000E+00 0. -1.
          1   -1    0    0  501    0 -0.00000000000E+00 -0.00000000000E+00 -0.29431699801E+03  0.29431699801E+03  0.00000000000E+00 0. -1.
         25    2    1    2    0    0  0.93607116098E+02  0.10667549389E+03 -0.12643437889E+03  0.22749176458E+03  0.12499959042E+03 0.  0.
          2    1    1    2  501    0 -0.19489383777E+02 -0.52747485422E+02 -0.10897439267E+03  0.12262769490E+03  0.00000000000E+00 0. -1.
          1    1    1    2  502    0 -0.74117732321E+02 -0.53928008472E+02  0.13510395424E+04  0.13541453074E+04  0.00000000000E+00 0. -1.
         22    1    3    3    0    0  0.39170492195E+02  0.17876484567E+02 -0.11489500946E+03  0.12269783763E+03  0.00000000000E+00 0.  1.
         22    1    3    3    0    0  0.54436623903E+02  0.88799009327E+02 -0.11539369426E+02  0.10479392695E+03  0.00000000000E+00 0.  1.
</event>
<event>
 7    1  0.5537228E-006  0.1311608E+03  0.7818608E-02  0.1240757E+00
          2   -1    0    0  502    0  0.00000000000E+00  0.00000000000E+00  0.20481054792E+04  0.20481054792E+04  0.00000000000E+00 0. -1.
          1   -1    0    0  501    0 -0.00000000000E+00 -0.00000000000E+00 -0.10887711296E+03  0.10887711296E+03  0.00000000000E+00 0. -1.
         25    2    1    2    0    0 -0.53781074757E+02 -0.14481123875E+03  0.37292970083E+03  0.42257260164E+03  0.12501337139E+03 0.  0.
          2    1    1    2  501    0 -0.56109093942E+02  0.12109303258E+03 -0.27822304712E+02  0.13632987054E+03  0.00000000000E+00 0. -1.
          1    1    1    2  502    0  0.10989016870E+03  0.23718206162E+02  0.15941209701E+04  0.15980801200E+04  0.00000000000E+00 0. -1.
         22    1    3    3    0    0  0.22833615538E+02 -0.10574208936E+03  0.25143818803E+03  0.27372235178E+03  0.00000000000E+00 0. -1.
         22    1    3    3    0    0 -0.76614690294E+02 -0.39069149380E+02  0.12149151280E+03  0.14885024987E+03  0.00000000000E+00 0. -1.
</event>
<event>
 7    1  0.5537228E-006  0.9093734E+02  0.7818608E-02  0.1416579E+00
          2   -1    0    0  502    0  0.00000000000E+00  0.00000000000E+00  0.24332141745E+02  0.24332141745E+02  0.00000000000E+00 0. -1.
          1   -1    0    0  501    0 -0.00000000000E+00 -0.00000000000E+00 -0.12393829492E+04  0.12393829492E+04  0.00000000000E+00 0. -1.
         25    2    1    2    0    0 -0.10952130446E+03  0.56275085543E+01 -0.90217930239E+03  0.91737602838E+03  0.12499879524E+03 0.  0.
          2    1    1    2  501    0  0.77102702142E+02 -0.16457535483E+02 -0.29939006732E+03  0.30959665625E+03  0.00000000000E+00 0. -1.
          1    1    1    2  502    0  0.32418602315E+02  0.10830026929E+02 -0.13481437778E+02  0.36742406344E+02  0.00000000000E+00 0. -1.
         22    1    3    3    0    0 -0.14716351181E+02  0.51147649244E+02 -0.18418498950E+03  0.19172053456E+03  0.00000000000E+00 0. -1.
         22    1    3    3    0    0 -0.94804953276E+02 -0.45520140689E+02 -0.71799431289E+03  0.72565549382E+03  0.00000000000E+00 0. -1.
</event>
<event>
 7    1  0.5537228E-006  0.7817952E+02  0.7818608E-02  0.1442574E+00
          2   -1    0    0  502    0  0.00000000000E+00  0.00000000000E+00  0.15570340528E+03  0.15570340528E+03  0.00000000000E+00 0. -1.
          1   -1    0    0  501    0 -0.00000000000E+00 -0.00000000000E+00 -0.25158300112E+03  0.25158300112E+03  0.00000000000E+00 0. -1.
         25    2    1    2    0    0  0.32632575672E+02 -0.10138432620E+03 -0.41306794065E+02  0.16933785106E+03  0.12500155987E+03 0.  0.
          2    1    1    2  501    0 -0.24564582468E+02  0.69754974384E+02 -0.13345687813E+03  0.15257756546E+03  0.00000000000E+00 0. -1.
          1    1    1    2  502    0 -0.80679932039E+01  0.31629351816E+02  0.78884076349E+02  0.85370989874E+02  0.00000000000E+00 0. -1.
         22    1    3    3    0    0  0.33362790141E+02 -0.64722705798E+02  0.37875446892E+02  0.82077121593E+02  0.00000000000E+00 0. -1.
         22    1    3    3    0    0 -0.73021446950E+00 -0.36661620402E+02 -0.79182240956E+02  0.87260729464E+02  0.00000000000E+00 0. -1.
</event>
<event>
 7    1  0.5537228E-006  0.4638905E+02  0.7818608E-02  0.1517203E+00
          2   -1    0    0  502    0  0.00000000000E+00  0.00000000000E+00  0.14898201125E+04  0.14898201125E+04  0.00000000000E+00 0. -1.
          1   -1    0    0  501    0 -0.00000000000E+00 -0.00000000000E+00 -0.20615175392E+02  0.20615175392E+02  0.00000000000E+00 0. -1.
         25    2    1    2    0    0  0.14985755449E+02 -0.24604283826E+02  0.12438756501E+04  0.12504725145E+04  0.12499973202E+03 0.  0.
          2    1    1    2  501    0 -0.44961237143E+02 -0.11420635459E+02  0.22071465950E+02  0.51372106915E+02  0.00000000000E+00 0. -1.
          1    1    1    2  502    0  0.29975481694E+02  0.36024919284E+02  0.20325782103E+03  0.20859066643E+03  0.00000000000E+00 0. -1.
         22    1    3    3    0    0  0.69477199174E+01 -0.75934222073E+02  0.75990158833E+03  0.76371768399E+03  0.00000000000E+00 0. -1.
         22    1    3    3    0    0  0.80380355319E+01  0.51329938247E+02  0.48397406177E+03  0.48675483053E+03  0.00000000000E+00 0. -1.
</event>
<event>
 7    1  0.5537228E-006  0.7589299E+02  0.7818608E-02  0.1429664E+00
          2   -1    0    0  502    0  0.00000000000E+00  0.00000000000E+00  0.24487565198E+03  0.24487565198E+03  0.00000000000E+00 0. -1.
          1   -1    0    0  501    0 -0.00000000000E+00 -0.00000000000E+00 -0.74298197691E+03  0.74298197691E+03  0.00000000000E+00 0. -1.
         25    2    1    2    0    0  0.53596642474E+02  0.91506022755E+02 -0.39437064878E+03  0.42708311443E+03  0.12500330287E+03 0.  0.
          2    1    1    2  501    0 -0.37873851913E+02 -0.57956337349E+02 -0.32710573846E+03  0.33435240365E+03  0.00000000000E+00 0. -1.
          1    1    1    2  502    0 -0.15722790561E+02 -0.33549685406E+02  0.22337006230E+03  0.22642211081E+03  0.00000000000E+00 0. -1.
         22    1    3    3    0    0 -0.38651015271E+02  0.31735192356E+02 -0.17050427836E+03  0.17768717554E+03  0.00000000000E+00 0. -1.
         22    1    3    3    0    0  0.92247657745E+02  0.59770830399E+02 -0.22386637042E+03  0.24939593888E+03  0.00000000000E+00 0. -1.
</event>
<event>
 7    1  0.5537228E-006  0.5849978E+02  0.7818608E-02  0.1413621E+00
          2   -1    0    0  502    0  0.00000000000E+00  0.00000000000E+00  0.11235628094E+03  0.11235628094E+03  0.00000000000E+00 0. -1.
          1   -1    0    0  501    0 -0.00000000000E+00 -0.00000000000E+00 -0.54143101616E+03  0.54143101616E+03  0.00000000000E+00 0. -1.
         25    2    1    2    0    0 -0.54931080122E+02  0.12866648970E+02 -0.14932104611E+02  0.13795246159E+03  0.12499975877E+03 0.  0.
          2    1    1    2  501    0  0.43558698274E+02  0.40293732609E+02 -0.44791967628E+03  0.45183291324E+03  0.00000000000E+00 0. -1.
          1    1    1    2  502    0  0.11372381848E+02 -0.53160381579E+02  0.33777045675E+02  0.64001922260E+02  0.00000000000E+00 0. -1.
         22    1    3    3    0    0 -0.62924932732E+02  0.60005971690E+02  0.27023911841E+01  0.86991762345E+02  0.00000000000E+00 0.  1.
         22    1    3    3    0    0  0.79938526094E+01 -0.47139322720E+02 -0.17634495796E+02  0.50960699249E+02  0.00000000000E+00 0.  1.
</event>
<event>
 7    1  0.5537228E-006  0.6688664E+02  0.7818608E-02  0.1401679E+00
          2   -1    0    0  502    0  0.00000000000E+00  0.00000000000E+00  0.29662136397E+03  0.29662136397E+03  0.00000000000E+00 0. -1.
          1   -1    0    0  501    0 -0.00000000000E+00 -0.00000000000E+00 -0.81541309572E+02  0.81541309572E+02  0.00000000000E+00 0. -1.
         25    2    1    2    0    0 -0.11598028800E+02 -0.61391997888E+02  0.54909583376E+02  0.15014310708E+03  0.12499759430E+03 0.  0.
          2    1    1    2  501    0  0.52049336172E+02  0.40547266373E+01 -0.10209266912E+01  0.52217013466E+02  0.00000000000E+00 0. -1.
          1    1    1    2  502    0 -0.40451307372E+02  0.57337271250E+02  0.16119139771E+03  0.17580255299E+03  0.00000000000E+00 0. -1.
         22    1    3    3    0    0 -0.38053641285E+02 -0.22398753147E+02  0.83905786962E+02  0.94815425134E+02  0.00000000000E+00 0. -1.
         22    1    3    3    0    0  0.26455612485E+02 -0.38993244741E+02 -0.28996203585E+02  0.55327681948E+02  0.00000000000E+00 0. -1.
</event>
<event>
 7    1  0.5537228E-006  0.1216856E+03  0.7818608E-02  0.1240352E+00
          2   -1    0    0  502    0  0.00000000000E+00  0.00000000000E+00  0.23782837147E+04  0.23782837147E+04  0.00000000000E+00 0. -1.
          1   -1    0    0  501    0 -0.00000000000E+00 -0.00000000000E+00 -0.16595709064E+03  0.16595709064E+03  0.00000000000E+00 0. -1.
         25    2    1    2    0    0 -0.94238158981E+01 -0.72459397019E+02  0.51269195223E+03  0.53274864298E+03  0.12501562379E+03 0.  0.
          2    1    1    2  501    0 -0.12111497969E+03  0.11637307711E+02 -0.12892304653E+03  0.17727215564E+03  0.00000000000E+00 0. -1.
          1    1    1    2  502    0  0.13053879559E+03  0.60822089308E+02  0.18285577184E+04  0.18342200067E+04  0.00000000000E+00 0. -1.
         22    1    3    3    0    0  0.11787343090E+02 -0.10147912168E+03  0.43935628813E+03  0.45107748948E+03  0.00000000000E+00 0. -1.
         22    1    3    3    0    0 -0.21211158988E+02  0.29019724664E+02  0.73335664103E+02  0.81671153503E+02  0.00000000000E+00 0. -1.
</event>
<event>
 7    1  0.5537228E-006  0.5347418E+02  0.7818608E-02  0.1548010E+00
          2   -1    0    0  502    0  0.00000000000E+00  0.00000000000E+00  0.16427598144E+03  0.16427598144E+03  0.00000000000E+00 0. -1.
          1   -1    0    0  501    0 -0.00000000000E+00 -0.00000000000E+00 -0.72163922615E+03  0.72163922615E+03  0.00000000000E+00 0. -1.
         25    2    1    2    0    0 -0.56974311096E+01  0.68790470036E+02 -0.30635666810E+03  0.33800223297E+03  0.12500604749E+03 0.  0.
          2    1    1    2  501    0 -0.91311402566E+01 -0.51214779142E+02 -0.39686140025E+03  0.40025654565E+03  0.00000000000E+00 0. -1.
          1    1    1    2  502    0  0.14828571366E+02 -0.17575690894E+02  0.14585482364E+03  0.14765642898E+03  0.00000000000E+00 0. -1.
         22    1    3    3    0    0  0.25799462555E+02 -0.25215134859E+02 -0.13786339982E+03  0.14250520097E+03  0.00000000000E+00 0. -1.
         22    1    3    3    0    0 -0.31496893664E+02  0.94005604894E+02 -0.16849326828E+03  0.19549703199E+03  0.00000000000E+00 0. -1.
</event>
<event>
 7    1  0.5537228E-006  0.9806203E+02  0.7818608E-02  0.1298767E+00
          2   -1    0    0  502    0  0.00000000000E+00  0.00000000000E+00  0.16676940519E+04  0.16676940519E+04  0.00000000000E+00 0. -1.
          1   -1    0    0  501    0 -0.00000000000E+00 -0.00000000000E+00 -0.49728241918E+03  0.49728241918E+03  0.00000000000E+00 0. -1.
         25    2    1    2    0    0 -0.17816146205E+02 -0.73407685762E+02  0.67622336129E+02  0.16094374950E+03  0.12499602700E+03 0.  0.
          2    1    1    2  501    0  0.85766410696E+02  0.59799052269E-01 -0.44491293234E+03  0.45310418023E+03  0.00000000000E+00 0. -1.
          1    1    1    2  502    0 -0.67950264491E+02  0.73347886709E+02  0.15477022289E+04  0.15509285413E+04  0.00000000000E+00 0. -1.
         22    1    3    3    0    0 -0.40344030174E+02  0.22937218948E+02  0.29028968155E+02  0.54739727583E+02  0.00000000000E+00 0. -1.
         22    1    3    3    0    0  0.22527883969E+02 -0.96344904710E+02  0.38593367974E+02  0.10620402192E+03  0.00000000000E+00 0. -1.
</event>
<event>
 7    1  0.5537228E-006  0.9147527E+02  0.7818608E-02  0.1302293E+00
          2   -1    0    0  502    0  0.00000000000E+00  0.00000000000E+00  0.59457006559E+03  0.59457006559E+03  0.00000000000E+00 0. -1.
          1   -1    0    0  501    0 -0.00000000000E+00 -0.00000000000E+00 -0.18889710964E+03  0.18889710964E+03  0.00000000000E+00 0. -1.
         25    2    1    2    0    0 -0.80493018195E+01 -0.42382051943E+02 -0.38202975472E+02  0.13759448854E+03  0.12494697418E+03 0.  0.
          2    1    1    2  501    0 -0.15170656032E+02  0.13086119524E+03 -0.52000684836E+02  0.14162934882E+03  0.00000000000E+00 0. -1.
          1    1    1    2  502    0  0.23219957852E+02 -0.88479143294E+02  0.49587661626E+03  0.50424333787E+03  0.00000000000E+00 0. -1.
         22    1    3    3    0    0 -0.15039138569E+01  0.39677075360E+02  0.11620623091E+02  0.41371136642E+02  0.00000000000E+00 0.  1.
         22    1    3    3    0    0 -0.65453879626E+01 -0.82059127303E+02 -0.49823598563E+02  0.96223351901E+02  0.00000000000E+00 0.  1.
</event>
<event>
 7    1  0.5537228E-006  0.5211349E+02  0.7818608E-02  0.1476461E+00
          2   -1    0    0  502    0  0.00000000000E+00  0.00000000000E+00  0.12243629436E+04  0.12243629436E+04  0.00000000000E+00 0. -1.
          1   -1    0    0  501    0 -0.00000000000E+00 -0.00000000000E+00 -0.18786791824E+03  0.18786791824E+03  0.00000000000E+00 0. -1.
         25    2    1    2    0    0 -0.37200799997E+02  0.43274031508E+02  0.39724109892E+03  0.42033602665E+03  0.12500137323E+03 0.  0.
          2    1    1    2  501    0  0.51608196861E+02 -0.78125803162E+01 -0.17199639028E+03  0.17974203922E+03  0.00000000000E+00 0. -1.
          1    1    1    2  502    0 -0.14407396865E+02 -0.35461451191E+02  0.81125031673E+03  0.81215279597E+03  0.00000000000E+00 0. -1.
         22    1    3    3    0    0 -0.40376253889E+02  0.30916507614E+02  0.40310075526E+03  0.40629581737E+03  0.00000000000E+00 0.  1.
         22    1    3    3    0    0  0.31754538929E+01  0.12357523894E+02 -0.58596563425E+01  0.14040209281E+02  0.00000000000E+00 0.  1.
</event>
<event>
 7    1  0.5537228E-006  0.5697767E+02  0.7818608E-02  0.1465368E+00
          2   -1    0    0  502    0  0.00000000000E+00  0.00000000000E+00  0.11240951494E+04  0.11240951494E+04  0.00000000000E+00 0. -1.
          1   -1    0    0  501    0 -0.00000000000E+00 -0.00000000000E+00 -0.11194650978E+03  0.11194650978E+03  0.00000000000E+00 0. -1.
         25    2    1    2    0    0 -0.44681807098E+02  0.13906296765E+02  0.71552548381E+03  0.72786756846E+03  0.12499852103E+03 0.  0.
          2    1    1    2  501    0  0.29873527129E+02 -0.48793614654E+02 -0.97061973090E+02  0.11266885583E+03  0.00000000000E+00 0. -1.
          1    1    1    2  502    0  0.14808279968E+02  0.34887317888E+02  0.39368512887E+03  0.39550523486E+03  0.00000000000E+00 0. -1.
         22    1    3    3    0    0  0.21675732873E+02  0.40704494703E+02  0.46618131109E+03  0.46845673022E+03  0.00000000000E+00 0.  1.
         22    1    3    3    0    0 -0.66357539971E+02 -0.26798197938E+02  0.24934417272E+03  0.25941083823E+03  0.00000000000E+00 0.  1.
</event>
<event>
 7    1  0.5537228E-006  0.1460637E+03  0.7818608E-02  0.1378129E+00
          2   -1    0    0  502    0  0.00000000000E+00  0.00000000000E+00  0.13180034102E+04  0.13180034102E+04  0.00000000000E+00 0. -1.
          1   -1    0    0  501    0 -0.00000000000E+00 -0.00000000000E+00 -0.19852506483E+04  0.19852506483E+04  0.00000000000E+00 0. -1.
         25    2    1    2    0    0  0.14054246423E+03 -0.63906300857E+02  0.80025734645E+03  0.82454434937E+03  0.12500145589E+03 0.  0.
          2    1    1    2  501    0 -0.14177782144E+03  0.35044141940E+02 -0.19699892403E+04  0.19753953147E+04  0.00000000000E+00 0. -1.
          1    1    1    2  502    0  0.12353572113E+01  0.28862158917E+02  0.50248465578E+03  0.50331439441E+03  0.00000000000E+00 0. -1.
         22    1    3    3    0    0  0.57166770985E+02 -0.87326187870E+02  0.32152134307E+03  0.33803827718E+03  0.00000000000E+00 0.  1.
         22    1    3    3    0    0  0.83375693246E+02  0.23419887014E+02  0.47873600339E+03  0.48650607218E+03  0.00000000000E+00 0.  1.
</event>
<event>
 7    1  0.5537228E-006  0.7537877E+02  0.7818608E-02  0.1384606E+00
          2   -1    0    0  502    0  0.00000000000E+00  0.00000000000E+00  0.13066594376E+04  0.13066594376E+04  0.00000000000E+00 0. -1.
          1   -1    0    0  501    0 -0.00000000000E+00 -0.00000000000E+00 -0.27263599712E+03  0.27263599712E+03  0.00000000000E+00 0. -1.
         25    2    1    2    0    0  0.88257249562E+02 -0.84792853784E+02 -0.34115990630E+02  0.17823032982E+03  0.12499191773E+03 0.  0.
          2    1    1    2  501    0 -0.23107106844E+02  0.47812750923E+02 -0.16105809672E+03  0.16958687466E+03  0.00000000000E+00 0. -1.
          1    1    1    2  502    0 -0.65150142718E+02  0.36980102861E+02  0.12291975278E+04  0.12314782302E+04  0.00000000000E+00 0. -1.
         22    1    3    3    0    0  0.84331927889E+02 -0.86096358256E+02 -0.71823688928E+02  0.14029646916E+03  0.00000000000E+00 0.  1.
         22    1    3    3    0    0  0.39253216725E+01  0.13035044715E+01  0.37707698298E+02  0.37933860667E+02  0.00000000000E+00 0.  1.
</event>
<event>
 7    1  0.5537228E-006  0.1501877E+03  0.7818608E-02  0.1249857E+00
          2   -1    0    0  502    0  0.00000000000E+00  0.00000000000E+00  0.40705038398E+04  0.40705038398E+04  0.00000000000E+00 0. -1.
          1   -1    0    0  501    0 -0.00000000000E+00 -0.00000000000E+00 -0.24913918630E+03  0.24913918630E+03  0.00000000000E+00 0. -1.
         25    2    1    2    0    0  0.21977981981E+03  0.90134966602E+02  0.11216628171E+03  0.29092248822E+03  0.12500855171E+03 0.  0.
          2    1    1    2  501    0 -0.86061255932E+02 -0.24876958450E+02 -0.14565352184E+03  0.17099810309E+03  0.00000000000E+00 0. -1.
          1    1    1    2  502    0 -0.13371856388E+03 -0.65258008152E+02  0.38548518936E+04  0.38577224348E+04  0.00000000000E+00 0. -1.
         22    1    3    3    0    0 -0.13430078096E+02 -0.73765301295E+01  0.99067142618E+01  0.18246182666E+02  0.00000000000E+00 0.  1.
         22    1    3    3    0    0  0.23320989791E+03  0.97511496732E+02  0.10225956744E+03  0.27267630555E+03  0.00000000000E+00 0.  1.
</event>
<event>
 7    1  0.5537228E-006  0.1856218E+03  0.7818608E-02  0.1339103E+00
          2   -1    0    0  502    0  0.00000000000E+00  0.00000000000E+00  0.13687011772E+04  0.13687011772E+04  0.00000000000E+00 0. -1.
          1   -1    0    0  501    0 -0.00000000000E+00 -0.00000000000E+00 -0.26134351167E+03  0.26134351167E+03  0.00000000000E+00 0. -1.
         25    2    1    2    0    0 -0.64940646163E+02 -0.20530162918E+03  0.65567440830E+03  0.70135549624E+03  0.12499822373E+03 0.  0.
          2    1    1    2  501    0  0.51559776425E+02  0.17669838862E+03 -0.20255138695E+03  0.27369288525E+03  0.00000000000E+00 0. -1.
          1    1    1    2  502    0  0.13380869739E+02  0.28603240563E+02  0.65423464417E+03  0.65499630738E+03  0.00000000000E+00 0. -1.
         22    1    3    3    0    0 -0.31785985716E+02 -0.40737660524E+00  0.36937382386E+02  0.48732792462E+02  0.00000000000E+00 0. -1.
         22    1    3    3    0    0 -0.33154660448E+02 -0.20489425257E+03  0.61873702592E+03  0.65262270378E+03  0.00000000000E+00 0. -1.
</event>
<event>
 7    1  0.5537228E-006  0.9329283E+02  0.7818608E-02  0.1363285E+00
          2   -1    0    0  502    0  0.00000000000E+00  0.00000000000E+00  0.37399883484E+03  0.37399883484E+03  0.00000000000E+00 0. -1.
          1   -1    0    0  501    0 -0.00000000000E+00 -0.00000000000E+00 -0.13097855958E+04  0.13097855958E+04  0.00000000000E+00 0. -1.
         25    2    1    2    0    0  0.71400846562E+02 -0.21862606251E+02 -0.14459602121E+03  0.20519627318E+03  0.12498578613E+03 0.  0.
          2    1    1    2  501    0 -0.10279584957E+02 -0.50092220483E+02 -0.11278157896E+04  0.11289744708E+04  0.00000000000E+00 0. -1.
          1    1    1    2  502    0 -0.61121261605E+02  0.71954826733E+02  0.33662504986E+03  0.34961368666E+03  0.00000000000E+00 0. -1.
         22    1    3    3    0    0  0.52458975388E+01  0.48609533344E+02 -0.46211757834E+02  0.67275052843E+02  0.00000000000E+00 0.  1.
         22    1    3    3    0    0  0.66154949024E+02 -0.70472139594E+02 -0.98384263372E+02  0.13792122033E+03  0.00000000000E+00 0.  1.
</event>
<event>
 7    1  0.5537228E-006  0.1265101E+03  0.7818608E-02  0.1268075E+00
          2   -1    0    0  502    0  0.00000000000E+00  0.00000000000E+00  0.11755616194E+04  0.11755616194E+04  0.00000000000E+00 0. -1.
          1   -1    0    0  501    0 -0.00000000000E+00 -0.00000000000E+00 -0.49280366477E+03  0.49280366477E+03  0.00000000000E+00 0. -1.
         25    2    1    2    0    0 -0.15932886602E+01 -0.20420201140E+03 -0.10420263424E+03  0.26111917975E+03  0.12499614802E+03 0.  0.
          2    1    1    2  501    0 -0.30837919785E+02  0.83369464810E+02 -0.30011121202E+03  0.31299869735E+03  0.00000000000E+00 0. -1.
          1    1    1    2  502    0  0.32431208445E+02  0.12083254659E+03  0.10870718009E+04  0.10942474071E+04  0.00000000000E+00 0. -1.
         22    1    3    3    0    0 -0.26071649772E+02 -0.28597063037E+02  0.21035629178E+02  0.44045665293E+02  0.00000000000E+00 0.  1.
         22    1    3    3    0    0  0.24478361112E+02 -0.17560494837E+03 -0.12523826342E+03  0.21707351445E+03  0.00000000000E+00 0.  1.
</event>
<event>
 7    1  0.5537228E-006  0.5431160E+02  0.7818608E-02  0.1508010E+00
          2   -1    0    0  502    0  0.00000000000E+00  0.00000000000E+00  0.11122083216E+03  0.11122083216E+03  0.00000000000E+00 0. -1.
          1   -1    0    0  501    0 -0.00000000000E+00 -0.00000000000E+00 -0.99656618039E+03  0.99656618039E+03  0.00000000000E+00 0. -1.
         25    2    1    2    0    0 -0.16831644380E+02 -0.78514057261E+02 -0.23105875598E+03  0.27470378543E+03  0.12500503819E+03 0.  0.
          2    1    1    2  501    0  0.15663817794E+02  0.24997773996E+02 -0.73534967996E+03  0.73594116321E+03  0.00000000000E+00 0. -1.
          1    1    1    2  502    0  0.11678265854E+01  0.53516283265E+02  0.81063087702E+02  0.97142063913E+02  0.00000000000E+00 0. -1.
         22    1    3    3    0    0  0.31122192035E+02 -0.17309241895E+02 -0.17565946770E+03  0.17923294699E+03  0.00000000000E+00 0. -1.
         22    1    3    3    0    0 -0.47953836415E+02 -0.61204815366E+02 -0.55399288276E+02  0.95470838440E+02  0.00000000000E+00 0. -1.
</event>
<event>
 7    1  0.5537228E-006  0.1006969E+03  0.7818608E-02  0.1339227E+00
          2   -1    0    0  502    0  0.00000000000E+00  0.00000000000E+00  0.25978431163E+04  0.25978431163E+04  0.00000000000E+00 0. -1.
          1   -1    0    0  501    0 -0.00000000000E+00 -0.00000000000E+00 -0.73681823565E+03  0.73681823565E+03  0.00000000000E+00 0. -1.
         25    2    1    2    0    0  0.10217716373E+03 -0.10650266432E+03  0.71368116639E+03  0.73942449743E+03  0.12499915934E+03 0.  0.
          2    1    1    2  501    0 -0.53269097145E+02  0.23316078889E+02 -0.72153207836E+03  0.72387138108E+03  0.00000000000E+00 0. -1.
          1    1    1    2  502    0 -0.48908066584E+02  0.83186585434E+02  0.18688757926E+04  0.18713654735E+04  0.00000000000E+00 0. -1.
         22    1    3    3    0    0  0.36428236977E+02  0.21486829489E+02  0.26160324167E+03  0.26499991763E+03  0.00000000000E+00 0.  1.
         22    1    3    3    0    0  0.65748926752E+02 -0.12798949381E+03  0.45207792473E+03  0.47442457980E+03  0.00000000000E+00 0.  1.
</event>
<event>
 7    1  0.5537228E-006  0.5346500E+02  0.7818608E-02  0.1490797E+00
          2   -1    0    0  502    0  0.00000000000E+00  0.00000000000E+00  0.46522716312E+03  0.46522716312E+03  0.00000000000E+00 0. -1.
          1   -1    0    0  501    0 -0.00000000000E+00 -0.00000000000E+00 -0.77519490473E+03  0.77519490473E+03  0.00000000000E+00 0. -1.
         25    2    1    2    0    0 -0.10785755025E+02  0.30163362298E+02 -0.58079740361E+02  0.14150559932E+03  0.12499766982E+03 0.  0.
          2    1    1    2  501    0  0.25898366208E+02  0.21614534984E+02 -0.67326086630E+03  0.67410541281E+03  0.00000000000E+00 0. -1.
          1    1    1    2  502    0 -0.15112611183E+02 -0.51777897281E+02  0.42137286504E+03  0.42481105572E+03  0.00000000000E+00 0. -1.
         22    1    3    3    0    0  0.56467105307E+02  0.11970226977E+02 -0.15172100941E+02  0.59682601841E+02  0.00000000000E+00 0. -1.
         22    1    3    3    0    0 -0.67252860332E+02  0.18193135321E+02 -0.42907639419E+02  0.81822997477E+02  0.00000000000E+00 0. -1.
</event>
<event>
 7    1  0.5537228E-006  0.4713009E+02  0.7818608E-02  0.1510730E+00
          2   -1    0    0  502    0  0.00000000000E+00  0.00000000000E+00  0.47289449342E+03  0.47289449342E+03  0.00000000000E+00 0. -1.
          1   -1    0    0  501    0 -0.00000000000E+00 -0.00000000000E+00 -0.11838369501E+03  0.11838369501E+03  0.00000000000E+00 0. -1.
         25    2    1    2    0    0 -0.23981638853E+02 -0.16413844253E+02  0.48243872748E+02  0.13709339810E+03  0.12499038067E+03 0.  0.
          2    1    1    2  501    0 -0.23478600856E+02  0.23718180770E+02 -0.68582824700E+02  0.76271886309E+02  0.00000000000E+00 0. -1.
          1    1    1    2  502    0  0.47460239708E+02 -0.73043365170E+01  0.37484975036E+03  0.37791290402E+03  0.00000000000E+00 0. -1.
         22    1    3    3    0    0  0.14663682917E+02 -0.51928771557E+02  0.62632700927E+02  0.82670890509E+02  0.00000000000E+00 0.  1.
         22    1    3    3    0    0 -0.38645321769E+02  0.35514927304E+02 -0.14388828179E+02  0.54422507591E+02  0.00000000000E+00 0.  1.
</event>
<event>
 7    1  0.5537228E-006  0.9683490E+02  0.7818608E-02  0.1356209E+00
          2   -1    0    0  502    0  0.00000000000E+00  0.00000000000E+00  0.11868380089E+04  0.11868380089E+04  0.00000000000E+00 0. -1.
          1   -1    0    0  501    0 -0.00000000000E+00 -0.00000000000E+00 -0.53129406088E+03  0.53129406088E+03  0.00000000000E+00 0. -1.
         25    2    1    2    0    0 -0.10309329139E+03 -0.71699927422E+02  0.53847587142E+02  0.18518748491E+03  0.12500294239E+03 0.  0.
          2    1    1    2  501    0  0.93868437493E+02  0.20234875283E+02 -0.46002320530E+03  0.46993838229E+03  0.00000000000E+00 0. -1.
          1    1    1    2  502    0  0.92248538954E+01  0.51465052139E+02  0.10617195661E+04  0.10630062025E+04  0.00000000000E+00 0. -1.
         22    1    3    3    0    0 -0.80561194774E+02 -0.14245325702E+02 -0.24548235404E+02  0.85414584640E+02  0.00000000000E+00 0. -1.
         22    1    3    3    0    0 -0.22532096614E+02 -0.57454601720E+02  0.78395822545E+02  0.99772900274E+02  0.00000000000E+00 0. -1.
</event>
<event>
 7    1  0.5537228E-006  0.1958118E+03  0.7818608E-02  0.1297351E+00
          2   -1    0    0  502    0  0.00000000000E+00  0.00000000000E+00  0.12129135654E+04  0.12129135654E+04  0.00000000000E+00 0. -1.
          1   -1    0    0  501    0 -0.00000000000E+00 -0.00000000000E+00 -0.32361381191E+03  0.32361381191E+03  0.00000000000E+00 0. -1.
         25    2    1    2    0    0 -0.10872091429E+03  0.13025932446E+03  0.10023766107E+03  0.23336836160E+03  0.12500189874E+03 0.  0.
          2    1    1    2  501    0  0.84956600945E+01  0.42680211455E+02 -0.24556990025E+03  0.24939597551E+03  0.00000000000E+00 0. -1.
          1    1    1    2  502    0  0.10022525419E+03 -0.17293953591E+03  0.10346319927E+04  0.10537630402E+04  0.00000000000E+00 0. -1.
         22    1    3    3    0    0 -0.83010388441E+02  0.57628408977E+02 -0.70303702186E+01  0.10129750350E+03  0.00000000000E+00 0.  1.
         22    1    3    3    0    0 -0.25710525844E+02  0.72630915479E+02  0.10726803129E+03  0.13207085810E+03  0.00000000000E+00 0.  1.
</event>
<event>
 7    1  0.5537228E-006  0.3079177E+02  0.7818608E-02  0.1601672E+00
          2   -1    0    0  502    0  0.00000000000E+00  0.00000000000E+00  0.67423529427E+03  0.67423529427E+03  0.00000000000E+00 0. -1.
          1   -1    0    0  501    0 -0.00000000000E+00 -0.00000000000E+00 -0.28279011464E+03  0.28279011464E+03  0.00000000000E+00 0. -1.
         25    2    1    2    0    0 -0.31728882622E+02 -0.10733600345E+02 -0.68369443333E+02  0.14635901317E+03  0.12499859113E+03 0.  0.
          2    1    1    2  501    0  0.21845321883E+02 -0.18467216645E+02 -0.17388258068E+03  0.17621977199E+03  0.00000000000E+00 0. -1.
          1    1    1    2  502    0  0.98835607389E+01  0.29200816990E+02  0.63369720364E+03  0.63444662375E+03  0.00000000000E+00 0. -1.
         22    1    3    3    0    0 -0.71604491470E+02  0.17810591581E+02 -0.17771373201E+02  0.75896258647E+02  0.00000000000E+00 0. -1.
         22    1    3    3    0    0  0.39875608848E+02 -0.28544191926E+02 -0.50598070132E+02  0.70462754522E+02  0.00000000000E+00 0. -1.
</event>
<event>
 7    1  0.5537228E-006  0.7421698E+02  0.7818608E-02  0.1511252E+00
          2   -1    0    0  502    0  0.00000000000E+00  0.00000000000E+00  0.15836005849E+03  0.15836005849E+03  0.00000000000E+00 0. -1.
          1   -1    0    0  501    0 -0.00000000000E+00 -0.00000000000E+00 -0.99025290196E+03  0.99025290196E+03  0.00000000000E+00 0. -1.
         25    2    1    2    0    0 -0.32471191830E+02 -0.60304302616E+02 -0.26743750366E+03  0.30304829956E+03  0.12499786513E+03 0.  0.
          2    1    1    2  501    0  0.16968085342E+02 -0.12572806894E+02 -0.69496419040E+03  0.69528499001E+03  0.00000000000E+00 0. -1.
          1    1    1    2  502    0  0.15503106488E+02  0.72877109510E+02  0.13050885059E+03  0.15027967089E+03  0.00000000000E+00 0. -1.
         22    1    3    3    0    0 -0.29980856364E+02 -0.42521352846E+02 -0.27758782060E+03  0.28242152068E+03  0.00000000000E+00 0.  1.
         22    1    3    3    0    0 -0.24903354654E+01 -0.17782949770E+02  0.10150316935E+02  0.20626778885E+02  0.00000000000E+00 0.  1.
</event>
<event>
 7    1  0.5537228E-006  0.6280151E+02  0.7818608E-02  0.1420892E+00
          2   -1    0    0  502    0  0.00000000000E+00  0.00000000000E+00  0.19048889571E+03  0.19048889571E+03  0.00000000000E+00 0. -1.
          1   -1    0    0  501    0 -0.00000000000E+00 -0.00000000000E+00 -0.19576230718E+04  0.19576230718E+04  0.00000000000E+00 0. -1.
         25    2    1    2    0    0 -0.40026454044E+02  0.33505676588E+02 -0.90106131417E+03  0.91118831599E+03  0.12501163117E+03 0.  0.
          2    1    1    2  501    0  0.37768701655E+02  0.29419899258E+02 -0.10455892435E+04  0.10466847049E+04  0.00000000000E+00 0. -1.
          1    1    1    2  502    0  0.22577523886E+01 -0.62925575845E+02  0.17951638161E+03  0.19023894661E+03  0.00000000000E+00 0. -1.
         22    1    3    3    0    0 -0.16871732621E+02  0.78844009928E+02 -0.65284192947E+03  0.65780211169E+03  0.00000000000E+00 0.  1.
         22    1    3    3    0    0 -0.23154721423E+02 -0.45338333340E+02 -0.24821938470E+03  0.25338620431E+03  0.00000000000E+00 0.  1.
</event>
<event>
 7    1  0.5537228E-006  0.5911597E+02  0.7818608E-02  0.1465739E+00
          2   -1    0    0  502    0  0.00000000000E+00  0.00000000000E+00  0.59721266729E+03  0.59721266729E+03  0.00000000000E+00 0. -1.
          1   -1    0    0  501    0 -0.00000000000E+00 -0.00000000000E+00 -0.11695800468E+04  0.11695800468E+04  0.00000000000E+00 0. -1.
         25    2    1    2    0    0  0.31633179621E+02 -0.70731299491E+02 -0.23205848744E+02  0.14888416972E+03  0.12499763916E+03 0.  0.
          2    1    1    2  501    0 -0.34441942789E+02  0.11875325974E+02 -0.10816031163E+04  0.10822165089E+04  0.00000000000E+00 0. -1.
          1    1    1    2  502    0  0.28087631689E+01  0.58855973517E+02  0.53244158562E+03  0.53569203547E+03  0.00000000000E+00 0. -1.
         22    1    3    3    0    0  0.62991394012E+02 -0.10384585663E+02 -0.44269864956E+02  0.77688971432E+02  0.00000000000E+00 0. -1.
         22    1    3    3    0    0 -0.31358214392E+02 -0.60346713828E+02  0.21064016212E+02  0.71195198283E+02  0.00000000000E+00 0. -1.
</event>
<event>
 7    1  0.5537228E-006  0.1093563E+03  0.7818608E-02  0.1347232E+00
          2   -1    0    0  502    0  0.00000000000E+00  0.00000000000E+00  0.23897922078E+04  0.23897922078E+04  0.00000000000E+00 0. -1.
          1   -1    0    0  501    0 -0.00000000000E+00 -0.00000000000E+00 -0.15029214902E+04  0.15029214902E+04  0.00000000000E+00 0. -1.
         25    2    1    2    0    0 -0.82250743038E+02 -0.57139489638E+01  0.87476615176E+03  0.88749150918E+03  0.12501009827E+03 0.  0.
          2    1    1    2  501    0 -0.29518689558E+02 -0.40323976314E+02 -0.14937189464E+04  0.14945546718E+04  0.00000000000E+00 0. -1.
          1    1    1    2  502    0  0.11176943260E+03  0.46037925278E+02  0.15058235123E+04  0.15106675169E+04  0.00000000000E+00 0. -1.
         22    1    3    3    0    0 -0.53599217846E+02 -0.46645870944E+02  0.74593010838E+03  0.74930663951E+03  0.00000000000E+00 0.  1.
         22    1    3    3    0    0 -0.28651525192E+02  0.40931921980E+02  0.12883604338E+03  0.13818486967E+03  0.00000000000E+00 0.  1.
</event>
<event>
 7    1  0.5537228E-006  0.1909366E+03  0.7818608E-02  0.1240935E+00
          2   -1    0    0  502    0  0.00000000000E+00  0.00000000000E+00  0.22885793253E+04  0.22885793253E+04  0.00000000000E+00 0. -1.
          1   -1    0    0  501    0 -0.00000000000E+00 -0.00000000000E+00 -0.77752303118E+03  0.77752303118E+03  0.00000000000E+00 0. -1.
         25    2    1    2    0    0  0.24251417870E+03 -0.74900172964E+02  0.24826390840E+03  0.37640884837E+03  0.12500196053E+03 0.  0.
          2    1    1    2  501    0 -0.57106137554E+02  0.51780215167E+02 -0.70693435727E+03  0.71112480418E+03  0.00000000000E+00 0. -1.
          1    1    1    2  502    0 -0.18540804115E+03  0.23119957796E+02  0.19697267430E+04  0.19785687040E+04  0.00000000000E+00 0. -1.
         22    1    3    3    0    0  0.19554698747E+03 -0.56574908594E+02  0.11472254930E+03  0.23366772971E+03  0.00000000000E+00 0. -1.
         22    1    3    3    0    0  0.46967191235E+02 -0.18325264369E+02  0.13354135910E+03  0.14274111866E+03  0.00000000000E+00 0. -1.
</event>
<event>
 7    1  0.5537228E-006  0.1418880E+03  0.7818608E-02  0.1309435E+00
          2   -1    0    0  502    0  0.00000000000E+00  0.00000000000E+00  0.23051630929E+04  0.23051630929E+04  0.00000000000E+00 0. -1.
          1   -1    0    0  501    0 -0.00000000000E+00 -0.00000000000E+00 -0.55285170674E+03  0.55285170674E+03  0.00000000000E+00 0. -1.
         25    2    1    2    0    0  0.39664731059E+02  0.79320713086E+02  0.11125462951E+04  0.11230537892E+04  0.12500195372E+03 0.  0.
          2    1    1    2  501    0 -0.67582687093E+02 -0.12526022960E+03 -0.53772598349E+03  0.55624345213E+03  0.00000000000E+00 0. -1.
          1    1    1    2  502    0  0.27917956035E+02  0.45939516510E+02  0.11774910746E+04  0.11787175583E+04  0.00000000000E+00 0. -1.
         22    1    3    3    0    0  0.17155433742E+02  0.54838532501E+02  0.16134153994E+03  0.17126781969E+03  0.00000000000E+00 0. -1.
         22    1    3    3    0    0  0.22509297316E+02  0.24482180585E+02  0.95120475512E+03  0.95178596953E+03  0.00000000000E+00 0. -1.
</event>
<event>
 7    1  0.5537228E-006  0.9112472E+02  0.7818608E-02  0.1309013E+00
          2   -1    0    0  502    0  0.00000000000E+00  0.00000000000E+00  0.30963944188E+04  0.30963944188E+04  0.00000000000E+00 0. -1.
          1   -1    0    0  501    0 -0.00000000000E+00 -0.00000000000E+00 -0.42114353158E+03  0.42114353158E+03  0.00000000000E+00 0. -1.
         25    2    1    2    0    0 -0.13379183369E+03 -0.64902003583E+01  0.64188916522E+02  0.19412165551E+03  0.12498248946E+03 0.  0.
          2    1    1    2  501    0  0.73758295924E+02 -0.52300013288E+02 -0.34983311274E+03  0.36132919115E+03  0.00000000000E+00 0. -1.
          1    1    1    2  502    0  0.60033537767E+02  0.58790213646E+02  0.29608950835E+04  0.29620871037E+04  0.00000000000E+00 0. -1.
         22    1    3    3    0    0  0.37290607561E+01  0.24726712037E+02  0.45433300333E+02  0.51860398778E+02  0.00000000000E+00 0. -1.
         22    1    3    3    0    0 -0.13752089445E+03 -0.31216912396E+02  0.18755616189E+02  0.14226125673E+03  0.00000000000E+00 0. -1.
</event>
<event>
 7    1  0.5537228E-006  0.5262821E+02  0.7818608E-02  0.1442608E+00
          2   -1    0    0  502    0  0.00000000000E+00  0.00000000000E+00  0.92176476052E+03  0.92176476052E+03  0.00000000000E+00 0. -1.
          1   -1    0    0  501    0 -0.00000000000E+00 -0.00000000000E+00 -0.14106046835E+03  0.14106046835E+03  0.00000000000E+00 0. -1.
         25    2    1    2    0    0  0.30723123675E+02 -0.16360949404E+01  0.51104891833E+03  0.52701298263E+03  0.12500039920E+03 0.  0.
          2    1    1    2  501    0 -0.42698451208E+01  0.52454710708E+02 -0.12572864176E+03  0.13629900811E+03  0.00000000000E+00 0. -1.
          1    1    1    2  502    0 -0.26453278554E+02 -0.50818615768E+02  0.39538401559E+03  0.39951323813E+03  0.00000000000E+00 0. -1.
         22    1    3    3    0    0  0.71254985562E+02  0.16360252622E+02  0.20249803908E+03  0.21529139942E+03  0.00000000000E+00 0.  1.
         22    1    3    3    0    0 -0.40531861886E+02 -0.17996347563E+02  0.30855087925E+03  0.31172158321E+03  0.00000000000E+00 0.  1.
</event>
<event>
 7    1  0.8827671E-006  0.1508329E+03  0.7818608E-02  0.1245342E+00
          2   -1    0    0  502    0  0.00000000000E+00  0.00000000000E+00  0.18863988437E+04  0.18863988437E+04  0.00000000000E+00 0. -1.
          1   -1    0    0  501    0 -0.00000000000E+00 -0.00000000000E+00 -0.71117609276E+03  0.71117609276E+03  0.00000000000E+00 0. -1.
         25    2    1    2    0    0 -0.15641688874E+03 -0.27617388673E+02 -0.28305446111E+03  0.34781133624E+03  0.12499573763E+03 0.  0.
          2    1    1    2  501    0  0.19458709120E+02  0.91281650033E+02 -0.38711196408E+03  0.39820428642E+03  0.00000000000E+00 0. -1.
          1    1    1    2  502    0  0.13695817962E+03 -0.63664261360E+02  0.18453891762E+04  0.18515593138E+04  0.00000000000E+00 0. -1.
         22    1    3    3    0    0 -0.60338664471E+02 -0.62781644911E+02 -0.19210929341E+03  0.21092242646E+03  0.00000000000E+00 0.  1.
         22    1    3    3    0    0 -0.96078224267E+02  0.35164256238E+02 -0.90945167697E+02  0.13688890979E+03  0.00000000000E+00 0.  1.
</event>
<event>
 7    1  0.5537228E-006  0.8030054E+02  0.7818608E-02  0.1495685E+00
          2   -1    0    0  502    0  0.00000000000E+00  0.00000000000E+00  0.34285402403E+03  0.34285402403E+03  0.00000000000E+00 0. -1.
          1   -1    0    0  501    0 -0.00000000000E+00 -0.00000000000E+00 -0.15444673793E+03  0.15444673793E+03  0.00000000000E+00 0. -1.
         25    2    1    2    0    0 -0.74691506144E+02 -0.67157571031E+02  0.14218476289E+03  0.21431959410E+03  0.12500968435E+03 0.  0.
          2    1    1    2  501    0  0.59675153322E+02  0.51476982871E+02 -0.10439740200E+03  0.13080451534E+03  0.00000000000E+00 0. -1.
          1    1    1    2  502    0  0.15016352822E+02  0.15680588160E+02  0.15061992522E+03  0.15217665251E+03  0.00000000000E+00 0. -1.
         22    1    3    3    0    0 -0.48570764753E+02  0.20698479804E+02  0.10072132959E+03  0.11372041368E+03  0.00000000000E+00 0.  1.
         22    1    3    3    0    0 -0.26120741391E+02 -0.87856050834E+02  0.41463433300E+02  0.10059918041E+03  0.00000000000E+00 0.  1.
</event>
<event>
 7    1  0.5537228E-006  0.5615722E+02  0.7818608E-02  0.1432098E+00
          2   -1    0    0  502    0  0.00000000000E+00  0.00000000000E+00  0.11166081514E+04  0.11166081514E+04  0.00000000000E+00 0. -1.
          1   -1    0    0  501    0 -0.00000000000E+00 -0.00000000000E+00 -0.10302725712E+03  0.10302725712E+03  0.00000000000E+00 0. -1.
         25    2    1    2    0    0  0.16547900888E+02  0.25676245430E+02  0.38755446459E+03  0.40835807272E+03  0.12499899973E+03 0.  0.
          2    1    1    2  501    0 -0.37939947497E+02  0.31257988564E+02 -0.84711675751E+02  0.97941663625E+02  0.00000000000E+00 0. -1.
          1    1    1    2  502    0  0.21392046609E+02 -0.56934233994E+02  0.71073810543E+03  0.71333567216E+03  0.00000000000E+00 0. -1.
         22    1    3    3    0    0  0.46137949917E+02 -0.26897793876E+02  0.89202652069E+02  0.10396785500E+03  0.00000000000E+00 0.  1.
         22    1    3    3    0    0 -0.29590049029E+02  0.52574039306E+02  0.29835181252E+03  0.30439021772E+03  0.00000000000E+00 0.  1.
</event>
<event>
 7    1  0.5537228E-006  0.9475330E+02  0.7818608E-02  0.1295378E+00
          2   -1    0    0  502    0  0.00000000000E+00  0.00000000000E+00  0.89525790453E+03  0.89525790453E+03  0.00000000000E+00 0. -1.
          1   -1    0    0  501    0 -0.00000000000E+00 -0.00000000000E+00 -0.16323331442E+03  0.16323331442E+03  0.00000000000E+00 0. -1.
         25    2    1    2    0    0 -0.71837415951E+02 -0.89440972406E+01  0.60507182122E+02  0.15660869681E+03  0.12499821448E+03 0.  0.
          2    1    1    2  501    0  0.15808702396E+02  0.90216594199E+02 -0.93286856046E+02  0.13073402943E+03  0.00000000000E+00 0. -1.
          1    1    1    2  502    0  0.56028713555E+02 -0.81272496958E+02  0.76480426404E+03  0.77114849270E+03  0.00000000000E+00 0. -1.
         22    1    3    3    0    0  0.33812024097E+02  0.48938628755E+01  0.18134453658E+00  0.34164832112E+02  0.00000000000E+00 0. -1.
         22    1    3    3    0    0 -0.10564944005E+03 -0.13837960116E+02  0.60325837586E+02  0.12244386470E+03  0.00000000000E+00 0. -1.
</event>
<event>
 7    1  0.5537228E-006  0.7311320E+02  0.7818608E-02  0.1363774E+00
          2   -1    0    0  502    0  0.00000000000E+00  0.00000000000E+00  0.18613562960E+03  0.18613562960E+03  0.00000000000E+00 0. -1.
          1   -1    0    0  501    0 -0.00000000000E+00 -0.00000000000E+00 -0.72940033431E+03  0.72940033431E+03  0.00000000000E+00 0. -1.
         25    2    1    2    0    0  0.11609072606E+03  0.71805828875E+02 -0.29743954791E+03  0.35032528265E+03  0.12499754104E+03 0.  0.
          2    1    1    2  501    0 -0.55318870344E+02 -0.34098895805E+02 -0.39471807619E+03  0.40003158848E+03  0.00000000000E+00 0. -1.
          1    1    1    2  502    0 -0.60771855714E+02 -0.37706933070E+02  0.14889291938E+03  0.16517909278E+03  0.00000000000E+00 0. -1.
         22    1    3    3    0    0  0.13153370453E+03  0.44626842092E+02 -0.28430002143E+03  0.31641613841E+03  0.00000000000E+00 0.  1.
         22    1    3    3    0    0 -0.15442978474E+02  0.27178986783E+02 -0.13139526478E+02  0.33909144235E+02  0.00000000000E+00 0.  1.
</event>
<event>
 7    1  0.5537228E-006  0.1043561E+03  0.7818608E-02  0.1402747E+00
          2   -1    0    0  502    0  0.00000000000E+00  0.00000000000E+00  0.49677724428E+03  0.49677724428E+03  0.00000000000E+00 0. -1.
          1   -1    0    0  501    0 -0.00000000000E+00 -0.00000000000E+00 -0.13314372150E+04  0.13314372150E+04  0.00000000000E+00 0. -1.
         25    2    1    2    0    0 -0.45934289067E+02 -0.55772733126E+02 -0.87510095524E+01  0.14464157669E+03  0.12499619541E+03 0.  0.
          2    1    1    2  501    0  0.65649928188E+02  0.82461145418E+02 -0.12518810489E+04  0.12563104371E+04  0.00000000000E+00 0. -1.
          1    1    1    2  502    0 -0.19715639120E+02 -0.26688412292E+02  0.42597208778E+03  0.42726244551E+03  0.00000000000E+00 0. -1.
         22    1    3    3    0    0  0.41994696122E+02 -0.14982772882E+02  0.10527776940E+02  0.45813448603E+02  0.00000000000E+00 0.  1.
         22    1    3    3    0    0 -0.87928985189E+02 -0.40789960244E+02 -0.19278786492E+02  0.98828128089E+02  0.00000000000E+00 0.  1.
</event>
<event>
 7    1  0.5537228E-006  0.6638920E+02  0.7818608E-02  0.1416187E+00
          2   -1    0    0  502    0  0.00000000000E+00  0.00000000000E+00  0.14267855587E+04  0.14267855587E+04  0.00000000000E+00 0. -1.
          1   -1    0    0  501    0 -0.00000000000E+00 -0.00000000000E+00 -0.24247754413E+02  0.24247754413E+02  0.00000000000E+00 0. -1.
         25    2    1    2    0    0 -0.34833137953E+02  0.64121097913E+02  0.86979930635E+03  0.88176048908E+03  0.12500345624E+03 0.  0.
          2    1    1    2  501    0 -0.28117836445E+02 -0.37611527938E+02  0.18427887353E+02  0.50446276299E+02  0.00000000000E+00 0. -1.
          1    1    1    2  502    0  0.62950974397E+02 -0.26509569975E+02  0.51431061061E+03  0.51882654776E+03  0.00000000000E+00 0. -1.
         22    1    3    3    0    0 -0.75171520631E+02  0.30706823439E+02  0.68119096006E+03  0.68601369562E+03  0.00000000000E+00 0.  1.
         22    1    3    3    0    0  0.40338382678E+02  0.33414274475E+02  0.18860834630E+03  0.19574679346E+03  0.00000000000E+00 0.  1.
</event>
<event>
 7    1  0.5537228E-006  0.5408989E+02  0.7818608E-02  0.1526007E+00
          2   -1    0    0  502    0  0.00000000000E+00  0.00000000000E+00  0.13864401701E+04  0.13864401701E+04  0.00000000000E+00 0. -1.
          1   -1    0    0  501    0 -0.00000000000E+00 -0.00000000000E+00 -0.19543803815E+04  0.19543803815E+04  0.00000000000E+00 0. -1.
         25    2    1    2    0    0  0.15713563389E+02  0.23780627690E+02 -0.16089577831E+03  0.20573173852E+03  0.12500264968E+03 0.  0.
          2    1    1    2  501    0 -0.33547276450E+02 -0.43041954046E+02 -0.17705198935E+04  0.17713606982E+04  0.00000000000E+00 0. -1.
          1    1    1    2  502    0  0.17833713061E+02  0.19261326356E+02  0.13634754605E+04  0.13637281149E+04  0.00000000000E+00 0. -1.
         22    1    3    3    0    0  0.15221802537E+01 -0.35138534103E+02 -0.14999455303E+01  0.35203457902E+02  0.00000000000E+00 0. -1.
         22    1    3    3    0    0  0.14191383135E+02  0.58919161793E+02 -0.15939583278E+03  0.17052828062E+03  0.00000000000E+00 0. -1.
</event>
<event>
 7    1  0.5537228E-006  0.9132950E+02  0.7818608E-02  0.1382708E+00
          2   -1    0    0  502    0  0.00000000000E+00  0.00000000000E+00  0.84779311688E+03  0.84779311688E+03  0.00000000000E+00 0. -1.
          1   -1    0    0  501    0 -0.00000000000E+00 -0.00000000000E+00 -0.36835025517E+03  0.36835025517E+03  0.00000000000E+00 0. -1.
         25    2    1    2    0    0 -0.11345807001E+03  0.82385914651E+01  0.13766138608E+03  0.21798419993E+03  0.12500338459E+03 0.  0.
          2    1    1    2  501    0  0.81769358956E+02 -0.39493619250E+02 -0.32114686483E+03  0.33373834484E+03  0.00000000000E+00 0. -1.
          1    1    1    2  502    0  0.31688711055E+02  0.31255027785E+02  0.66292834045E+03  0.66442082730E+03  0.00000000000E+00 0. -1.
         22    1    3    3    0    0 -0.17482630961E+02 -0.52379570287E+02  0.39241399724E+02  0.67743259598E+02  0.00000000000E+00 0.  1.
         22    1    3    3    0    0 -0.95975439050E+02  0.60618161752E+02  0.98419986361E+02  0.15024094033E+03  0.00000000000E+00 0.  1.
</event>
<event>
 7    1  0.5537228E-006  0.3228312E+02  0.7818608E-02  0.1598082E+00
          2   -1    0    0  502    0  0.00000000000E+00  0.00000000000E+00  0.27845929083E+03  0.27845929083E+03  0.00000000000E+00 0. -1.
          1   -1    0    0  501    0 -0.00000000000E+00 -0.00000000000E+00 -0.16503647823E+03  0.16503647823E+03  0.00000000000E+00 0. -1.
         25    2    1    2    0    0 -0.16032046743E+02 -0.14282207501E+02  0.74345166945E+02  0.14699613487E+03  0.12497860555E+03 0.  0.
          2    1    1    2  501    0  0.31420213200E+02 -0.89657566229E+01 -0.12544553458E+03  0.12963100222E+03  0.00000000000E+00 0. -1.
          1    1    1    2  502    0 -0.15388166457E+02  0.23247964124E+02  0.16452318023E+03  0.16686863197E+03  0.00000000000E+00 0. -1.
         22    1    3    3    0    0  0.20898900905E+02  0.10574963573E+02  0.95054572285E+02  0.97897730443E+02  0.00000000000E+00 0.  1.
         22    1    3    3    0    0 -0.36930947648E+02 -0.24857171074E+02 -0.20709405341E+02  0.49098404430E+02  0.00000000000E+00 0.  1.
</event>
<event>
 7    1  0.5537228E-006  0.4542458E+02  0.7818608E-02  0.1477261E+00
          2   -1    0    0  502    0  0.00000000000E+00  0.00000000000E+00  0.14914377492E+04  0.14914377492E+04  0.00000000000E+00 0. -1.
          1   -1    0    0  501    0 -0.00000000000E+00 -0.00000000000E+00 -0.21269994933E+04  0.21269994933E+04  0.00000000000E+00 0. -1.
         25    2    1    2    0    0  0.22909924182E+01 -0.35133236525E+01 -0.33706355750E+02  0.12956418495E+03  0.12503266579E+03 0.  0.
          2    1    1    2  501    0 -0.22861963261E+02 -0.37200809500E+02 -0.20447707153E+04  0.20452368684E+04  0.00000000000E+00 0. -1.
          1    1    1    2  502    0  0.20570970842E+02  0.40714133152E+02  0.14429153270E+04  0.14436361891E+04  0.00000000000E+00 0. -1.
         22    1    3    3    0    0  0.42308079479E+02  0.43696414223E+02 -0.29321263558E+02  0.67521009336E+02  0.00000000000E+00 0. -1.
         22    1    3    3    0    0 -0.40017087060E+02 -0.47209737875E+02 -0.43850921919E+01  0.62043175617E+02  0.00000000000E+00 0. -1.
</event>
<event>
 7    1  0.5537228E-006  0.1806261E+03  0.7818608E-02  0.1198051E+00
          2   -1    0    0  502    0  0.00000000000E+00  0.00000000000E+00  0.75211509485E+03  0.75211509485E+03  0.00000000000E+00 0. -1.
          1   -1    0    0  501    0 -0.00000000000E+00 -0.00000000000E+00 -0.12156155367E+04  0.12156155367E+04  0.00000000000E+00 0. -1.
         25    2    1    2    0    0  0.58510725005E+02  0.75520062972E+01  0.11671240146E+03  0.18089964511E+03  0.12498943638E+03 0.  0.
          2    1    1    2  501    0 -0.18308598250E+03 -0.36481881163E+02 -0.11692553730E+04  0.11840648343E+04  0.00000000000E+00 0. -1.
          1    1    1    2  502    0  0.12457525749E+03  0.28929874865E+02  0.58904252965E+03  0.60276615214E+03  0.00000000000E+00 0. -1.
         22    1    3    3    0    0  0.68859081440E+02 -0.38149381930E+02  0.10734179593E+03  0.13311352145E+03  0.00000000000E+00 0. -1.
         22    1    3    3    0    0 -0.10348356435E+02  0.45701388227E+02  0.93706055301E+01  0.47786123664E+02  0.00000000000E+00 0. -1.
</event>
<event>
 7    1  0.5537228E-006  0.5945789E+02  0.7818608E-02  0.1527141E+00
          2   -1    0    0  502    0  0.00000000000E+00  0.00000000000E+00  0.58090067685E+02  0.58090067685E+02  0.00000000000E+00 0. -1.
          1   -1    0    0  501    0 -0.00000000000E+00 -0.00000000000E+00 -0.47479810137E+04  0.47479810137E+04  0.00000000000E+00 0. -1.
         25    2    1    2    0    0  0.40471696179E+02  0.12146817157E+02 -0.38188824016E+03  0.40403874584E+03  0.12499270701E+03 0.  0.
          2    1    1    2  501    0 -0.59795159038E+02  0.15767165301E+01 -0.43518118788E+04  0.43522229465E+04  0.00000000000E+00 0. -1.
          1    1    1    2  502    0  0.19323462859E+02 -0.13723533687E+02  0.43809173026E+02  0.49809389024E+02  0.00000000000E+00 0. -1.
         22    1    3    3    0    0 -0.12336956100E+02  0.42616137390E+02 -0.29245387874E+03  0.29579994395E+03  0.00000000000E+00 0.  1.
         22    1    3    3    0    0  0.52808652279E+02 -0.30469320233E+02 -0.89434361425E+02  0.10823880189E+03  0.00000000000E+00 0.  1.
</event>
<event>
 7    1  0.5537228E-006  0.7899065E+02  0.7818608E-02  0.1440805E+00
          2   -1    0    0  502    0  0.00000000000E+00  0.00000000000E+00  0.47514527346E+03  0.47514527346E+03  0.00000000000E+00 0. -1.
          1   -1    0    0  501    0 -0.00000000000E+00 -0.00000000000E+00 -0.69640901914E+03  0.69640901914E+03  0.00000000000E+00 0. -1.
         25    2    1    2    0    0  0.28961866492E+02  0.50066076052E+02 -0.33523016243E+03  0.36242270335E+03  0.12500220964E+03 0.  0.
          2    1    1    2  501    0 -0.16621818627E+02  0.28201864436E+02 -0.34339785398E+03  0.34495465808E+03  0.00000000000E+00 0. -1.
          1    1    1    2  502    0 -0.12340047865E+02 -0.78267940488E+02  0.45736427074E+03  0.46417693118E+03  0.00000000000E+00 0. -1.
         22    1    3    3    0    0  0.49708970269E+02  0.62252004204E+02 -0.32765038212E+03  0.33719588766E+03  0.00000000000E+00 0. -1.
         22    1    3    3    0    0 -0.20747103777E+02 -0.12185928152E+02 -0.75797803147E+01  0.25226815686E+02  0.00000000000E+00 0. -1.
</event>
<event>
 7    1  0.5537228E-006  0.1609007E+03  0.7818608E-02  0.1316977E+00
          2   -1    0    0  502    0  0.00000000000E+00  0.00000000000E+00  0.15277039071E+04  0.15277039071E+04  0.00000000000E+00 0. -1.
          1   -1    0    0  501    0 -0.00000000000E+00 -0.00000000000E+00 -0.25761807007E+03  0.25761807007E+03  0.00000000000E+00 0. -1.
         25    2    1    2    0    0  0.18928458052E+02 -0.11903885279E+03 -0.63856889305E+02  0.18502010306E+03  0.12500480481E+03 0.  0.
          2    1    1    2  501    0  0.23011210359E+02 -0.37836597071E+02 -0.12486434136E+03  0.13248482035E+03  0.00000000000E+00 0. -1.
          1    1    1    2  502    0 -0.41939668411E+02  0.15687544986E+03  0.14588070677E+04  0.14678170538E+04  0.00000000000E+00 0. -1.
         22    1    3    3    0    0 -0.47383642787E+02 -0.75987251855E+02 -0.55885066729E+02  0.10555762754E+03  0.00000000000E+00 0.  1.
         22    1    3    3    0    0  0.66312100838E+02 -0.43051600936E+02 -0.79718225760E+01  0.79462475521E+02  0.00000000000E+00 0.  1.
</event>
<event>
 7    1  0.5537228E-006  0.1378992E+03  0.7818608E-02  0.1225266E+00
          2   -1    0    0  502    0  0.00000000000E+00  0.00000000000E+00  0.13290490039E+04  0.13290490039E+04  0.00000000000E+00 0. -1.
          1   -1    0    0  501    0 -0.00000000000E+00 -0.00000000000E+00 -0.25111302969E+03  0.25111302969E+03  0.00000000000E+00 0. -1.
         25    2    1    2    0    0  0.21244637936E+03 -0.54112500811E+02  0.11333190426E+03  0.27664233939E+03  0.12500094629E+03 0.  0.
          2    1    1    2  501    0 -0.92833406733E+02  0.91676783053E+02 -0.14026250707E+03  0.19156263949E+03  0.00000000000E+00 0. -1.
          1    1    1    2  502    0 -0.11961297262E+03 -0.37564282241E+02  0.11048665771E+04  0.11119570548E+04  0.00000000000E+00 0. -1.
         22    1    3    3    0    0 -0.89377742556E+01  0.21518195803E+01  0.33394771513E+02  0.34637045205E+02  0.00000000000E+00 0. -1.
         22    1    3    3    0    0  0.22138415361E+03 -0.56264320392E+02  0.79937132743E+02  0.24200529418E+03  0.00000000000E+00 0. -1.
</event>
<event>
 7    1  0.5537228E-006  0.8388195E+02  0.7818608E-02  0.1383143E+00
          2   -1    0    0  502    0  0.00000000000E+00  0.00000000000E+00  0.22722743785E+03  0.22722743785E+03  0.00000000000E+00 0. -1.
          1   -1    0    0  501    0 -0.00000000000E+00 -0.00000000000E+00 -0.14931320219E+03  0.14931320219E+03  0.00000000000E+00 0. -1.
         25    2    1    2    0    0  0.44253391756E+02  0.20990941340E+02  0.12768687903E+03  0.18527641158E+03  0.12499770922E+03 0.  0.
          2    1    1    2  501    0 -0.88322231410E+02 -0.12463147334E+01 -0.91692086088E+02  0.12731774626E+03  0.00000000000E+00 0. -1.
          1    1    1    2  502    0  0.44068839654E+02 -0.19744626607E+02  0.41919442718E+02  0.63946482202E+02  0.00000000000E+00 0. -1.
         22    1    3    3    0    0 -0.10687232782E+02  0.24814912671E+02  0.12736777374E+03  0.13020194554E+03  0.00000000000E+00 0. -1.
         22    1    3    3    0    0  0.54940624538E+02 -0.38239713309E+01  0.31910529015E+00  0.55074466040E+02  0.00000000000E+00 0. -1.
</event>
<event>
 7    1  0.5537228E-006  0.8348325E+02  0.7818608E-02  0.1478656E+00
          2   -1    0    0  502    0  0.00000000000E+00  0.00000000000E+00  0.11305347583E+04  0.11305347583E+04  0.00000000000E+00 0. -1.
          1   -1    0    0  501    0 -0.00000000000E+00 -0.00000000000E+00 -0.54191326769E+03  0.54191326769E+03  0.00000000000E+00 0. -1.
         25    2    1    2    0    0  0.51717067081E+02 -0.62779156310E+02 -0.10262739772E+00  0.14913476237E+03  0.12500115727E+03 0.  0.
          2    1    1    2  501    0 -0.69251485357E+02  0.47096000534E+02 -0.46340968955E+03  0.47091649138E+03  0.00000000000E+00 0. -1.
          1    1    1    2  502    0  0.17534418276E+02  0.15683155776E+02  0.10521338076E+04  0.10523967722E+04  0.00000000000E+00 0. -1.
         22    1    3    3    0    0  0.46122967372E+02 -0.84631097909E+02 -0.39157498275E+02  0.10403393929E+03  0.00000000000E+00 0. -1.
         22    1    3    3    0    0  0.55940997088E+01  0.21851941599E+02  0.39054870877E+02  0.45100823079E+02  0.00000000000E+00 0. -1.
</event>
<event>
 7    1  0.5537228E-006  0.1752898E+03  0.7818608E-02  0.1266917E+00
          2   -1    0    0  502    0  0.00000000000E+00  0.00000000000E+00  0.30045125987E+03  0.30045125987E+03  0.00000000000E+00 0. -1.
          1   -1    0    0  501    0 -0.00000000000E+00 -0.00000000000E+00 -0.23849941605E+03  0.23849941605E+03  0.00000000000E+00 0. -1.
         25    2    1    2    0    0  0.35548518572E+02  0.12744029396E+03 -0.89505577991E+01  0.18223539022E+03  0.12499959707E+03 0.  0.
          2    1    1    2  501    0  0.25430389470E+02  0.59687300057E+02 -0.84083577309E+02  0.10620417350E+03  0.00000000000E+00 0. -1.
          1    1    1    2  502    0 -0.60978908042E+02 -0.18712759402E+03  0.15498597892E+03  0.25051111219E+03  0.00000000000E+00 0. -1.
         22    1    3    3    0    0  0.78963767537E+02  0.80637805288E+02  0.15406101293E+02  0.11390820946E+03  0.00000000000E+00 0. -1.
         22    1    3    3    0    0 -0.43415248966E+02  0.46802488671E+02 -0.24356659093E+02  0.68327180761E+02  0.00000000000E+00 0. -1.
</event>
<event>
 7    1  0.5537228E-006  0.2671350E+03  0.7818608E-02  0.1255766E+00
          2   -1    0    0  502    0  0.00000000000E+00  0.00000000000E+00  0.11834873011E+04  0.11834873011E+04  0.00000000000E+00 0. -1.
          1   -1    0    0  501    0 -0.00000000000E+00 -0.00000000000E+00 -0.99801180517E+03  0.99801180517E+03  0.00000000000E+00 0. -1.
         25    2    1    2    0    0  0.25473215016E+03 -0.14932723140E+03 -0.69992868096E+02  0.32819324866E+03  0.12499886608E+03 0.  0.
          2    1    1    2  501    0 -0.45575878045E+02 -0.13352585961E+02 -0.78153918030E+03  0.78298080599E+03  0.00000000000E+00 0. -1.
          1    1    1    2  502    0 -0.20915627212E+03  0.16267981736E+03  0.10370075444E+04  0.10703250516E+04  0.00000000000E+00 0. -1.
         22    1    3    3    0    0  0.22345969621E+03 -0.75975011629E+02 -0.76698479634E+02  0.24817150320E+03  0.00000000000E+00 0.  1.
         22    1    3    3    0    0  0.31272453948E+02 -0.73352219767E+02  0.67056115374E+01  0.80021745462E+02  0.00000000000E+00 0.  1.
</event>
<event>
 7    1  0.5537228E-006  0.4283357E+02  0.7818608E-02  0.1500377E+00
          2   -1    0    0  502    0  0.00000000000E+00  0.00000000000E+00  0.30861745587E+04  0.30861745587E+04  0.00000000000E+00 0. -1.
          1   -1    0    0  501    0 -0.00000000000E+00 -0.00000000000E+00 -0.10705661018E+03  0.10705661018E+03  0.00000000000E+00 0. -1.
         25    2    1    2    0    0  0.31564394196E+02 -0.71407371334E+01  0.29519760437E+03  0.32220251847E+03  0.12500214466E+03 0.  0.
          2    1    1    2  501    0 -0.12261073252E+02  0.41496577142E+02 -0.88403368818E+02  0.98424872111E+02  0.00000000000E+00 0. -1.
          1    1    1    2  502    0 -0.19303320944E+02 -0.34355840008E+02  0.27723237130E+04  0.27726037783E+04  0.00000000000E+00 0. -1.
         22    1    3    3    0    0 -0.46700848806E+02  0.10262614204E+02  0.13153080680E+03  0.13995229068E+03  0.00000000000E+00 0.  1.
         22    1    3    3    0    0  0.78265243002E+02 -0.17403351337E+02  0.16366679757E+03  0.18225022779E+03  0.00000000000E+00 0.  1.
</event>
<event>
 7    1  0.5537228E-006  0.1176103E+03  0.7818608E-02  0.1321769E+00
          2   -1    0    0  502    0  0.00000000000E+00  0.00000000000E+00  0.10880628151E+04  0.10880628151E+04  0.00000000000E+00 0. -1.
          1   -1    0    0  501    0 -0.00000000000E+00 -0.00000000000E+00 -0.67017892896E+03  0.67017892896E+03  0.00000000000E+00 0. -1.
         25    2    1    2    0    0 -0.15870478285E+03 -0.47097484855E+02  0.24252116586E+03  0.31913504955E+03  0.12500113112E+03 0.  0.
          2    1    1    2  501    0  0.57920138844E+02 -0.37829462834E+01 -0.62657651845E+03  0.62925923643E+03  0.00000000000E+00 0. -1.
          1    1    1    2  502    0  0.10078464401E+03  0.50880431138E+02  0.80193923875E+03  0.80984745810E+03  0.00000000000E+00 0. -1.
         22    1    3    3    0    0 -0.15161823224E+03 -0.51407340302E+01  0.22861219577E+03  0.27436845946E+03  0.00000000000E+00 0. -1.
         22    1    3    3    0    0 -0.70865506150E+01 -0.41956750824E+02  0.13908970096E+02  0.44766590092E+02  0.00000000000E+00 0. -1.
</event>
<event>
 7    1  0.5537228E-006  0.8220050E+02  0.7818608E-02  0.1336252E+00
          2   -1    0    0  502    0  0.00000000000E+00  0.00000000000E+00  0.20824724416E+04  0.20824724416E+04  0.00000000000E+00 0. -1.
          1   -1    0    0  501    0 -0.00000000000E+00 -0.00000000000E+00 -0.31100637337E+03  0.31100637337E+03  0.00000000000E+00 0. -1.
         25    2    1    2    0    0  0.96053858998E+00 -0.44967358776E+02  0.11379699834E+04  0.11456983197E+04  0.12500388216E+03 0.  0.
          2    1    1    2  501    0  0.40930652611E+01 -0.72984151763E+02 -0.29901768902E+03  0.30782303023E+03  0.00000000000E+00 0. -1.
          1    1    1    2  502    0 -0.50536038511E+01  0.11795151054E+03  0.93251377380E+03  0.93995746503E+03  0.00000000000E+00 0. -1.
         22    1    3    3    0    0  0.57874925315E+02 -0.26412307231E+02  0.79516759747E+03  0.79770835837E+03  0.00000000000E+00 0. -1.
         22    1    3    3    0    0 -0.56914386725E+02 -0.18555051545E+02  0.34280238597E+03  0.34798996133E+03  0.00000000000E+00 0. -1.
</event>
<event>
 7    1  0.5537228E-006  0.5922055E+02  0.7818608E-02  0.1407375E+00
          2   -1    0    0  502    0  0.00000000000E+00  0.00000000000E+00  0.10980553943E+03  0.10980553943E+03  0.00000000000E+00 0. -1.
          1   -1    0    0  501    0 -0.00000000000E+00 -0.00000000000E+00 -0.20481757975E+03  0.20481757975E+03  0.00000000000E+00 0. -1.
         25    2    1    2    0    0  0.57834618338E+01  0.11071732913E+02 -0.67177220032E+02  0.14243291080E+03  0.12497329109E+03 0.  0.
          2    1    1    2  501    0 -0.17290746459E+01  0.56355065214E+02 -0.72026918851E+02  0.91469995701E+02  0.00000000000E+00 0. -1.
          1    1    1    2  502    0 -0.40543871879E+01 -0.67426798127E+02  0.44192098565E+02  0.80720212690E+02  0.00000000000E+00 0. -1.
         22    1    3    3    0    0 -0.27534268541E+02 -0.29472844505E+02 -0.78945168268E+02  0.88651701056E+02  0.00000000000E+00 0.  1.
         22    1    3    3    0    0  0.33317730375E+02  0.40544577418E+02  0.11767948235E+02  0.53781209739E+02  0.00000000000E+00 0.  1.
</event>
<event>
 7    1  0.5537228E-006  0.1251014E+03  0.7818608E-02  0.1285639E+00
          2   -1    0    0  502    0  0.00000000000E+00  0.00000000000E+00  0.10915539579E+04  0.10915539579E+04  0.00000000000E+00 0. -1.
          1   -1    0    0  501    0 -0.00000000000E+00 -0.00000000000E+00 -0.16497370905E+03  0.16497370905E+03  0.00000000000E+00 0. -1.
         25    2    1    2    0    0  0.34264672873E+01  0.12680458513E+03 -0.34955144339E+01  0.17812631031E+03  0.12500248124E+03 0.  0.
          2    1    1    2  501    0  0.71566948152E+02 -0.25550234884E+02 -0.49541556013E+02  0.90713881753E+02  0.00000000000E+00 0. -1.
          1    1    1    2  502    0 -0.74993415439E+02 -0.10125435024E+03  0.97961731931E+03  0.98768747491E+03  0.00000000000E+00 0. -1.
         22    1    3    3    0    0 -0.28795093869E+02  0.13768372088E+03 -0.16686974849E+02  0.14164893066E+03  0.00000000000E+00 0. -1.
         22    1    3    3    0    0  0.32221561156E+02 -0.10879135759E+02  0.13191460416E+02  0.36477379649E+02  0.00000000000E+00 0. -1.
</event>
<event>
 7    1  0.5537228E-006  0.3321324E+02  0.7818608E-02  0.1582952E+00
          2   -1    0    0  502    0  0.00000000000E+00  0.00000000000E+00  0.15265748265E+04  0.15265748265E+04  0.00000000000E+00 0. -1.
          1   -1    0    0  501    0 -0.00000000000E+00 -0.00000000000E+00 -0.73491253782E+02  0.73491253782E+02  0.00000000000E+00 0. -1.
         25    2    1    2    0    0  0.41783646182E+02 -0.41665126161E+02  0.40012324956E+03  0.42333253407E+03  0.12501985338E+03 0.  0.
          2    1    1    2  501    0 -0.12548526700E+02  0.26934943162E+02 -0.58064737215E+02  0.65226301392E+02  0.00000000000E+00 0. -1.
          1    1    1    2  502    0 -0.29235119483E+02  0.14730182999E+02  0.11110250604E+04  0.11115072448E+04  0.00000000000E+00 0. -1.
         22    1    3    3    0    0 -0.16981420153E+02  0.19329743809E+01  0.29361077094E+03  0.29410778608E+03  0.00000000000E+00 0.  1.
         22    1    3    3    0    0  0.58765066335E+02 -0.43598100542E+02  0.10651247861E+03  0.12922474799E+03  0.00000000000E+00 0.  1.
</event>
<event>
 7    1  0.5537228E-006  0.3043107E+03  0.7818608E-02  0.1299705E+00
          2   -1    0    0  502    0  0.00000000000E+00  0.00000000000E+00  0.85528925366E+03  0.85528925366E+03  0.00000000000E+00 0. -1.
          1   -1    0    0  501    0 -0.00000000000E+00 -0.00000000000E+00 -0.30272076950E+03  0.30272076950E+03  0.00000000000E+00 0. -1.
         25    2    1    2    0    0 -0.25291672791E+03  0.20530437221E+03  0.39556798804E+02  0.35115082856E+03  0.12500163024E+03 0.  0.
          2    1    1    2  501    0  0.15355303973E+02 -0.22692351125E+02 -0.11116246027E+03  0.11448939135E+03  0.00000000000E+00 0. -1.
          1    1    1    2  502    0  0.23756142393E+03 -0.18261202109E+03  0.62417414562E+03  0.69236980325E+03  0.00000000000E+00 0. -1.
         22    1    3    3    0    0 -0.61736380594E+01 -0.15714534630E+02  0.70697292074E+01  0.18304138237E+02  0.00000000000E+00 0.  1.
         22    1    3    3    0    0 -0.24674308985E+03  0.22101890684E+03  0.32487069597E+02  0.33284669032E+03  0.00000000000E+00 0.  1.
</event>
<event>
 7    1  0.5537228E-006  0.1689238E+03  0.7818608E-02  0.1341074E+00
          2   -1    0    0  502    0  0.00000000000E+00  0.00000000000E+00  0.10721883432E+04  0.10721883432E+04  0.00000000000E+00 0. -1.
          1   -1    0    0  501    0 -0.00000000000E+00 -0.00000000000E+00 -0.11479152147E+04  0.11479152147E+04  0.00000000000E+00 0. -1.
         25    2    1    2    0    0  0.17611005876E+03 -0.31786887805E+02 -0.63667882790E+03  0.67306026117E+03  0.12500010492E+03 0.  0.
          2    1    1    2  501    0 -0.16264743978E+03  0.44327912740E+00 -0.47934472730E+03  0.50618746898E+03  0.00000000000E+00 0. -1.
          1    1    1    2  502    0 -0.13462618981E+02  0.31343608677E+02  0.10402966837E+04  0.10408558277E+04  0.00000000000E+00 0. -1.
         22    1    3    3    0    0 -0.42860383380E+01 -0.16159116331E+02 -0.74616720035E+01  0.18307477006E+02  0.00000000000E+00 0.  1.
         22    1    3    3    0    0  0.18039609709E+03 -0.15627771474E+02 -0.62921715590E+03  0.65475278416E+03  0.00000000000E+00 0.  1.
</event>
<event>
 7    1  0.5537228E-006  0.4808669E+02  0.7818608E-02  0.1487895E+00
          2   -1    0    0  502    0  0.00000000000E+00  0.00000000000E+00  0.33155105459E+04  0.33155105459E+04  0.00000000000E+00 0. -1.
          1   -1    0    0  501    0 -0.00000000000E+00 -0.00000000000E+00 -0.37904053403E+02  0.37904053403E+02  0.00000000000E+00 0. -1.
         25    2    1    2    0    0  0.18433672873E+02  0.12846271568E+02  0.89043446187E+03  0.89944610050E+03  0.12499971933E+03 0.  0.
          2    1    1    2  501    0 -0.46142578234E+01 -0.48536845465E+02 -0.15370518592E+02  0.51121126599E+02  0.00000000000E+00 0. -1.
          1    1    1    2  502    0 -0.13819415049E+02  0.35690573897E+02  0.24025425492E+04  0.24028473722E+04  0.00000000000E+00 0. -1.
         22    1    3    3    0    0  0.59230339775E+02  0.44901754072E+01  0.76451577048E+03  0.76681989941E+03  0.00000000000E+00 0. -1.
         22    1    3    3    0    0 -0.40796666902E+02  0.83560961608E+01  0.12591869140E+03  0.13262620109E+03  0.00000000000E+00 0. -1.
</event>
<event>
 7    1  0.1092249E-005  0.8055535E+02  0.7818608E-02  0.1354060E+00
          2   -1    0    0  502    0  0.00000000000E+00  0.00000000000E+00  0.16775774213E+04  0.16775774213E+04  0.00000000000E+00 0. -1.
          1   -1    0    0  501    0 -0.00000000000E+00 -0.00000000000E+00 -0.11280185524E+04  0.11280185524E+04  0.00000000000E+00 0. -1.
         25    2    1    2    0    0 -0.12340110495E+02  0.22970383605E+02 -0.12890185421E+03  0.18143446502E+03  0.12499144062E+03 0.  0.
          2    1    1    2  501    0 -0.63857691813E+02  0.43474194887E+01 -0.97080393120E+03  0.97291159809E+03  0.00000000000E+00 0. -1.
          1    1    1    2  502    0  0.76197802308E+02 -0.27317803094E+02  0.16492646543E+04  0.16512499106E+04  0.00000000000E+00 0. -1.
         22    1    3    3    0    0  0.41889488366E+02  0.33874700386E+02 -0.16804861316E+02  0.56432507703E+02  0.00000000000E+00 0.  1.
         22    1    3    3    0    0 -0.54229598861E+02 -0.10904316781E+02 -0.11209699289E+03  0.12500195731E+03  0.00000000000E+00 0.  1.
</event>
<event>
 7    1  0.5537228E-006  0.5620844E+02  0.7818608E-02  0.1464232E+00
          2   -1    0    0  502    0  0.00000000000E+00  0.00000000000E+00  0.10657357036E+03  0.10657357036E+03  0.00000000000E+00 0. -1.
          1   -1    0    0  501    0 -0.00000000000E+00 -0.00000000000E+00 -0.10463856766E+04  0.10463856766E+04  0.00000000000E+00 0. -1.
         25    2    1    2    0    0  0.76102856046E+02  0.25760914342E+02 -0.22104304985E+03  0.26634308736E+03  0.12499336340E+03 0.  0.
          2    1    1    2  501    0 -0.20943498269E+02 -0.32584802239E+02 -0.79296553980E+03  0.79391104462E+03  0.00000000000E+00 0. -1.
          1    1    1    2  502    0 -0.55159357776E+02  0.68238878969E+01  0.74196483394E+02  0.92705114985E+02  0.00000000000E+00 0. -1.
         22    1    3    3    0    0 -0.32042396181E+02  0.49668271016E+01 -0.87103361137E+02  0.92942885935E+02  0.00000000000E+00 0. -1.
         22    1    3    3    0    0  0.10814525223E+03  0.20794087240E+02 -0.13393968871E+03  0.17340020143E+03  0.00000000000E+00 0. -1.
</event>
<event>
 7    1  0.5537228E-006  0.1079327E+03  0.7818608E-02  0.1347498E+00
          2   -1    0    0  502    0  0.00000000000E+00  0.00000000000E+00  0.17583268641E+04  0.17583268641E+04  0.00000000000E+00 0. -1.
          1   -1    0    0  501    0 -0.00000000000E+00 -0.00000000000E+00 -0.84296814021E+02  0.84296814021E+02  0.00000000000E+00 0. -1.
         25    2    1    2    0    0 -0.67582671885E+02 -0.56257492550E+01  0.22143796442E+03  0.26317721728E+03  0.12501363533E+03 0.  0.
          2    1    1    2  501    0  0.11692817100E+03 -0.51925742674E+01 -0.86209129864E+01  0.11736047095E+03  0.00000000000E+00 0. -1.
          1    1    1    2  502    0 -0.49345499114E+02  0.10818323522E+02  0.14612129987E+04  0.14620859899E+04  0.00000000000E+00 0. -1.
         22    1    3    3    0    0  0.12409392749E+02 -0.30267197673E+02  0.76598927163E+01  0.33597176069E+02  0.00000000000E+00 0.  1.
         22    1    3    3    0    0 -0.79992064634E+02  0.24641448418E+02  0.21377807170E+03  0.22958004121E+03  0.00000000000E+00 0.  1.
</event>
<event>
 7    1  0.5537228E-006  0.1654188E+03  0.7818608E-02  0.1241046E+00
          2   -1    0    0  502    0  0.00000000000E+00  0.00000000000E+00  0.19228334574E+04  0.19228334574E+04  0.00000000000E+00 0. -1.
          1   -1    0    0  501    0 -0.00000000000E+00 -0.00000000000E+00 -0.46663671606E+03  0.46663671606E+03  0.00000000000E+00 0. -1.
         25    2    1    2    0    0  0.20178241390E+03  0.74646256324E+02  0.13092248958E+04  0.13326598046E+04  0.12499648362E+03 0.  0.
          2    1    1    2  501    0 -0.12116100514E+03 -0.11205580489E+03 -0.43647460769E+03  0.46663323471E+03  0.00000000000E+00 0. -1.
          1    1    1    2  502    0 -0.80621408757E+02  0.37409548565E+02  0.58344645319E+03  0.59017713410E+03  0.00000000000E+00 0. -1.
         22    1    3    3    0    0  0.12390268197E+03  0.42233454404E+02  0.10888721730E+04  0.10967124273E+04  0.00000000000E+00 0. -1.
         22    1    3    3    0    0  0.77879731927E+02  0.32412801920E+02  0.22035272284E+03  0.23594737726E+03  0.00000000000E+00 0. -1.
</event>
<event>
 7    1  0.5537228E-006  0.9302788E+02  0.7818608E-02  0.1464081E+00
          2   -1    0    0  502    0  0.00000000000E+00  0.00000000000E+00  0.97887864751E+03  0.97887864751E+03  0.00000000000E+00 0. -1.
          1   -1    0    0  501    0 -0.00000000000E+00 -0.00000000000E+00 -0.43396001877E+02  0.43396001877E+02  0.00000000000E+00 0. -1.
         25    2    1    2    0    0  0.91018850956E+02  0.66184100517E+01  0.24930317008E+03  0.29343736302E+03  0.12500072329E+03 0.  0.
          2    1    1    2  501    0 -0.22915903576E+01  0.23317281793E+02 -0.10655399865E+02  0.25738775473E+02  0.00000000000E+00 0. -1.
          1    1    1    2  502    0 -0.88727260599E+02 -0.29935691845E+02  0.69683487542E+03  0.70309851089E+03  0.00000000000E+00 0. -1.
         22    1    3    3    0    0  0.13148357486E+02  0.53981735992E+02  0.14298002283E+03  0.15339554770E+03  0.00000000000E+00 0. -1.
         22    1    3    3    0    0  0.77870493471E+02 -0.47363325940E+02  0.10632314724E+03  0.14004181532E+03  0.00000000000E+00 0. -1.
</event>
<event>
 7    1  0.5537228E-006  0.5240012E+02  0.7818608E-02  0.1475050E+00
          2   -1    0    0  502    0  0.00000000000E+00  0.00000000000E+00  0.25284589807E+04  0.25284589807E+04  0.00000000000E+00 0. -1.
          1   -1    0    0  501    0 -0.00000000000E+00 -0.00000000000E+00 -0.33700829938E+03  0.33700829938E+03  0.00000000000E+00 0. -1.
         25    2    1    2    0    0 -0.42474402259E+02  0.79607096011E+02  0.57492470107E+01  0.15427703387E+03  0.12500793877E+03 0.  0.
          2    1    1    2  501    0  0.13905417326E+02 -0.35848121866E+02 -0.26105715975E+03  0.26387362341E+03  0.00000000000E+00 0. -1.
          1    1    1    2  502    0  0.28568984932E+02 -0.43758974145E+02  0.24467585940E+04  0.24473166228E+04  0.00000000000E+00 0. -1.
         22    1    3    3    0    0  0.33898968038E+02  0.22461784000E+02 -0.31946010469E+02  0.51712854876E+02  0.00000000000E+00 0.  1.
         22    1    3    3    0    0 -0.76373370297E+02  0.57145312011E+02  0.37695257480E+02  0.10256417899E+03  0.00000000000E+00 0.  1.
</event>
<event>
 7    1  0.5537228E-006  0.1178818E+03  0.7818608E-02  0.1269185E+00
          2   -1    0    0  502    0  0.00000000000E+00  0.00000000000E+00  0.36235581055E+03  0.36235581055E+03  0.00000000000E+00 0. -1.
          1   -1    0    0  501    0 -0.00000000000E+00 -0.00000000000E+00 -0.16446287074E+03  0.16446287074E+03  0.00000000000E+00 0. -1.
         25    2    1    2    0    0  0.37750571470E+01 -0.12321748253E+03  0.90161878779E+02  0.19736253187E+03  0.12500402212E+03 0.  0.
          2    1    1    2  501    0  0.87186894221E+02  0.36126292206E+02 -0.65797276029E+02  0.11504757731E+03  0.00000000000E+00 0. -1.
          1    1    1    2  502    0 -0.90961951368E+02  0.87091190320E+02  0.17352833706E+03  0.21440857210E+03  0.00000000000E+00 0. -1.
         22    1    3    3    0    0  0.34635295309E+02 -0.10727846875E+03  0.13926938148E+02  0.11358799736E+03  0.00000000000E+00 0.  1.
         22    1    3    3    0    0 -0.30860238162E+02 -0.15939013776E+02  0.76234940631E+02  0.83774534511E+02  0.00000000000E+00 0.  1.
</event>
<event>
 7    1  0.5537228E-006  0.1127191E+03  0.7818608E-02  0.1346936E+00
          2   -1    0    0  502    0  0.00000000000E+00  0.00000000000E+00  0.17554878898E+04  0.17554878898E+04  0.00000000000E+00 0. -1.
          1   -1    0    0  501    0 -0.00000000000E+00 -0.00000000000E+00 -0.19557834383E+04  0.19557834383E+04  0.00000000000E+00 0. -1.
         25    2    1    2    0    0 -0.70325243657E+02 -0.12546110767E+03 -0.75851365335E+01  0.19070880084E+03  0.12500473187E+03 0.  0.
          2    1    1    2  501    0  0.24390003083E+02  0.10957094608E+03 -0.18545841113E+04  0.18579781727E+04  0.00000000000E+00 0. -1.
          1    1    1    2  502    0  0.45935240575E+02  0.15890161588E+02  0.16618736993E+04  0.16625843545E+04  0.00000000000E+00 0. -1.
         22    1    3    3    0    0 -0.63147022349E+02 -0.16279302965E+02  0.34137263265E+02  0.73606486669E+02  0.00000000000E+00 0. -1.
         22    1    3    3    0    0 -0.71782213079E+01 -0.10918180471E+03 -0.41722399798E+02  0.11710231417E+03  0.00000000000E+00 0. -1.
</event>
<event>
 7    1  0.5537228E-006  0.8710251E+02  0.7818608E-02  0.1362944E+00
          2   -1    0    0  502    0  0.00000000000E+00  0.00000000000E+00  0.10541690523E+04  0.10541690523E+04  0.00000000000E+00 0. -1.
          1   -1    0    0  501    0 -0.00000000000E+00 -0.00000000000E+00 -0.22709136616E+04  0.22709136616E+04  0.00000000000E+00 0. -1.
         25    2    1    2    0    0 -0.74032504560E+02  0.79881309015E+02  0.22360232054E+03  0.27836079317E+03  0.12499959264E+03 0.  0.
          2    1    1    2  501    0  0.54757246730E+02  0.43122389725E+01 -0.22408748945E+04  0.22415479572E+04  0.00000000000E+00 0. -1.
          1    1    1    2  502    0  0.19275257830E+02 -0.84193547988E+02  0.80052796481E+03  0.80517396352E+03  0.00000000000E+00 0. -1.
         22    1    3    3    0    0 -0.24220324840E+02  0.64192390177E+02  0.21468336645E+03  0.22538020083E+03  0.00000000000E+00 0.  1.
         22    1    3    3    0    0 -0.49812179720E+02  0.15688918838E+02  0.89189540860E+01  0.52980592340E+02  0.00000000000E+00 0.  1.
</event>
<event>
 7    1  0.5537228E-006  0.4792272E+02  0.7818608E-02  0.1559818E+00
          2   -1    0    0  502    0  0.00000000000E+00  0.00000000000E+00  0.10557511425E+03  0.10557511425E+03  0.00000000000E+00 0. -1.
          1   -1    0    0  501    0 -0.00000000000E+00 -0.00000000000E+00 -0.17670976290E+03  0.17670976290E+03  0.00000000000E+00 0. -1.
         25    2    1    2    0    0  0.40898534522E+02  0.53741288149E+02 -0.44951747325E+02  0.14901915179E+03  0.12500092733E+03 0.  0.
          2    1    1    2  501    0 -0.69725291057E+01 -0.22750069973E+02 -0.67438120720E+02  0.71512809847E+02  0.00000000000E+00 0. -1.
          1    1    1    2  502    0 -0.33926005417E+02 -0.30991218176E+02  0.41255219389E+02  0.61752915513E+02  0.00000000000E+00 0. -1.
         22    1    3    3    0    0  0.46635898609E+02  0.85446394430E+02 -0.46972638430E+01  0.97457978882E+02  0.00000000000E+00 0.  1.
         22    1    3    3    0    0 -0.57373640870E+01 -0.31705106281E+02 -0.40254483482E+02  0.51561172905E+02  0.00000000000E+00 0.  1.
</event>
<event>
 7    1  0.5537228E-006  0.1127846E+03  0.7818608E-02  0.1331690E+00
          2   -1    0    0  502    0  0.00000000000E+00  0.00000000000E+00  0.12229041842E+04  0.12229041842E+04  0.00000000000E+00 0. -1.
          1   -1    0    0  501    0 -0.00000000000E+00 -0.00000000000E+00 -0.34776813504E+03  0.34776813504E+03  0.00000000000E+00 0. -1.
         25    2    1    2    0    0  0.14006350215E+03 -0.65497012765E+02  0.12135406408E+03  0.23293885214E+03  0.12500422653E+03 0.  0.
          2    1    1    2  501    0 -0.84881418461E+02  0.70883825083E+02 -0.28073548254E+03  0.30173130931E+03  0.00000000000E+00 0. -1.
          1    1    1    2  502    0 -0.55182083690E+02 -0.53868123182E+01  0.10345174676E+04  0.10360021578E+04  0.00000000000E+00 0. -1.
         22    1    3    3    0    0  0.24964455328E+02 -0.23548367619E+02  0.10362210592E+03  0.10915718246E+03  0.00000000000E+00 0. -1.
         22    1    3    3    0    0  0.11509904682E+03 -0.41948645146E+02  0.17731958163E+02  0.12378166968E+03  0.00000000000E+00 0. -1.
</event>
<event>
 7    1  0.5537228E-006  0.7103736E+02  0.7818608E-02  0.1387435E+00
          2   -1    0    0  502    0  0.00000000000E+00  0.00000000000E+00  0.92277986237E+03  0.92277986237E+03  0.00000000000E+00 0. -1.
          1   -1    0    0  501    0 -0.00000000000E+00 -0.00000000000E+00 -0.51277796330E+03  0.51277796330E+03  0.00000000000E+00 0. -1.
         25    2    1    2    0    0 -0.68552228132E+02  0.31081034991E+02  0.48777428712E+03  0.50913047858E+03  0.12499860132E+03 0.  0.
          2    1    1    2  501    0  0.39987656573E+02  0.37871536392E+02 -0.49728590985E+03  0.50032643553E+03  0.00000000000E+00 0. -1.
          1    1    1    2  502    0  0.28564571558E+02 -0.68952571383E+02  0.41951352181E+03  0.42610091156E+03  0.00000000000E+00 0. -1.
         22    1    3    3    0    0  0.28998496401E+02  0.25675613128E+02  0.23428391320E+03  0.23746389596E+03  0.00000000000E+00 0. -1.
         22    1    3    3    0    0 -0.97550724533E+02  0.54054218632E+01  0.25349037392E+03  0.27166658262E+03  0.00000000000E+00 0. -1.
</event>
<event>
 7    1  0.5537228E-006  0.2407334E+02  0.7818608E-02  0.1683788E+00
          2   -1    0    0  502    0  0.00000000000E+00  0.00000000000E+00  0.97371524016E+03  0.97371524016E+03  0.00000000000E+00 0. -1.
          1   -1    0    0  501    0 -0.00000000000E+00 -0.00000000000E+00 -0.14093265504E+03  0.14093265504E+03  0.00000000000E+00 0. -1.
         25    2    1    2    0    0  0.24034622724E+02  0.89796592618E+01  0.68225895907E+02  0.14470634430E+03  0.12500742314E+03 0.  0.
          2    1    1    2  501    0 -0.62198753388E+01 -0.23382152969E+02 -0.10111363491E+03  0.10396816383E+03  0.00000000000E+00 0. -1.
          1    1    1    2  502    0 -0.17814747385E+02  0.14402493707E+02  0.86567032412E+03  0.86597338707E+03  0.00000000000E+00 0. -1.
         22    1    3    3    0    0 -0.46554696733E+01 -0.38062654829E+02 -0.18013876294E+02  0.42366718419E+02  0.00000000000E+00 0. -1.
         22    1    3    3    0    0  0.28690092398E+02  0.47042314090E+02  0.86239772201E+02  0.10233962588E+03  0.00000000000E+00 0. -1.
</event>
<event>
 7    1  0.5537228E-006  0.1126175E+03  0.7818608E-02  0.1260024E+00
          2   -1    0    0  502    0  0.00000000000E+00  0.00000000000E+00  0.28229170046E+03  0.28229170046E+03  0.00000000000E+00 0. -1.
          1   -1    0    0  501    0 -0.00000000000E+00 -0.00000000000E+00 -0.21137195392E+04  0.21137195392E+04  0.00000000000E+00 0. -1.
         25    2    1    2    0    0  0.27585714396E+01 -0.91063844730E+01  0.10019494254E+03  0.16048222916E+03  0.12499993364E+03 0.  0.
          2    1    1    2  501    0  0.62154588250E+02  0.95447916146E+02 -0.20626063793E+04  0.20657489135E+04  0.00000000000E+00 0. -1.
          1    1    1    2  502    0 -0.64913159689E+02 -0.86341531673E+02  0.13098359803E+03  0.16978009703E+03  0.00000000000E+00 0. -1.
         22    1    3    3    0    0 -0.16239166370E+02 -0.33654076881E+02 -0.15678596593E+02  0.40523151484E+02  0.00000000000E+00 0.  1.
         22    1    3    3    0    0  0.18997737810E+02  0.24547692408E+02  0.11587353913E+03  0.11995907767E+03  0.00000000000E+00 0.  1.
</event>
<event>
 7    1  0.5537228E-006  0.7828636E+02  0.7818608E-02  0.1354099E+00
          2   -1    0    0  502    0  0.00000000000E+00  0.00000000000E+00  0.12923906601E+04  0.12923906601E+04  0.00000000000E+00 0. -1.
          1   -1    0    0  501    0 -0.00000000000E+00 -0.00000000000E+00 -0.54711284201E+02  0.54711284201E+02  0.00000000000E+00 0. -1.
         25    2    1    2    0    0  0.12717696223E+03  0.39487638639E+02  0.52182177791E+03  0.55286177226E+03  0.12499967199E+03 0.  0.
          2    1    1    2  501    0 -0.74872406442E+02  0.49913447411E+00 -0.48770612813E+00  0.74875658521E+02  0.00000000000E+00 0. -1.
          1    1    1    2  502    0 -0.52304555792E+02 -0.39986773113E+02  0.71634530415E+03  0.71936451355E+03  0.00000000000E+00 0. -1.
         22    1    3    3    0    0  0.10611757715E+02 -0.40108547067E+02  0.12021282241E+03  0.12717085995E+03  0.00000000000E+00 0.  1.
         22    1    3    3    0    0  0.11656520452E+03  0.79596185706E+02  0.40160895550E+03  0.42569091231E+03  0.00000000000E+00 0.  1.
</event>
<event>
 7    1  0.5537228E-006  0.6597514E+02  0.7818608E-02  0.1492370E+00
          2   -1    0    0  502    0  0.00000000000E+00  0.00000000000E+00  0.64296726819E+02  0.64296726819E+02  0.00000000000E+00 0. -1.
          1   -1    0    0  501    0 -0.00000000000E+00 -0.00000000000E+00 -0.93167540943E+03  0.93167540943E+03  0.00000000000E+00 0. -1.
         25    2    1    2    0    0 -0.30308073615E+02  0.38408829772E+02 -0.21520788659E+03  0.25363732524E+03  0.12499456298E+03 0.  0.
          2    1    1    2  501    0 -0.26994559509E+02 -0.15541165346E+01 -0.67108293900E+03  0.67162745070E+03  0.00000000000E+00 0. -1.
          1    1    1    2  502    0  0.57302633124E+02 -0.36854713237E+02  0.18912142972E+02  0.70707360313E+02  0.00000000000E+00 0. -1.
         22    1    3    3    0    0 -0.99323554350E+01 -0.18728779711E+02 -0.18437401758E+03  0.18558878531E+03  0.00000000000E+00 0. -1.
         22    1    3    3    0    0 -0.20375718180E+02  0.57137609482E+02 -0.30833869011E+02  0.68048539932E+02  0.00000000000E+00 0. -1.
</event>
<event>
 7    1  0.5537228E-006  0.8296498E+02  0.7818608E-02  0.1478316E+00
          2   -1    0    0  502    0  0.00000000000E+00  0.00000000000E+00  0.60726131400E+03  0.60726131400E+03  0.00000000000E+00 0. -1.
          1   -1    0    0  501    0 -0.00000000000E+00 -0.00000000000E+00 -0.22452192279E+03  0.22452192279E+03  0.00000000000E+00 0. -1.
         25    2    1    2    0    0  0.39191448222E+02  0.91509704584E+02  0.36634392575E+03  0.39967771504E+03  0.12499763324E+03 0.  0.
          2    1    1    2  501    0 -0.45722704433E+01 -0.23284102654E+02 -0.20061006171E+03  0.20200854426E+03  0.00000000000E+00 0. -1.
          1    1    1    2  502    0 -0.34619177779E+02 -0.68225601930E+02  0.21700552717E+03  0.23009697750E+03  0.00000000000E+00 0. -1.
         22    1    3    3    0    0  0.13824526921E+02 -0.45411187165E+01  0.23270053572E+03  0.23315505276E+03  0.00000000000E+00 0. -1.
         22    1    3    3    0    0  0.25366921301E+02  0.96050823301E+02  0.13364339004E+03  0.16652266228E+03  0.00000000000E+00 0. -1.
</event>
<event>
 7    1  0.5537228E-006  0.3586976E+02  0.7818608E-02  0.1592869E+00
          2   -1    0    0  502    0  0.00000000000E+00  0.00000000000E+00  0.12988288080E+04  0.12988288080E+04  0.00000000000E+00 0. -1.
          1   -1    0    0  501    0 -0.00000000000E+00 -0.00000000000E+00 -0.35171463152E+03  0.35171463152E+03  0.00000000000E+00 0. -1.
         25    2    1    2    0    0  0.39925504727E+02 -0.46774497995E+02  0.46375287252E+03  0.48422389637E+03  0.12499662180E+03 0.  0.
          2    1    1    2  501    0 -0.21249588599E+02  0.28835288193E+02 -0.34033576480E+03  0.34221550471E+03  0.00000000000E+00 0. -1.
          1    1    1    2  502    0 -0.18675916128E+02  0.17939209802E+02  0.82369706877E+03  0.82410403846E+03  0.00000000000E+00 0. -1.
         22    1    3    3    0    0 -0.31015072139E+02 -0.75745938895E+01  0.29810932258E+03  0.29981407135E+03  0.00000000000E+00 0. -1.
         22    1    3    3    0    0  0.70940576866E+02 -0.39199904106E+02  0.16564354994E+03  0.18440982502E+03  0.00000000000E+00 0. -1.
</event>
<event>
 7    1  0.5537228E-006  0.2150436E+03  0.7818608E-02  0.1339806E+00
          2   -1    0    0  502    0  0.00000000000E+00  0.00000000000E+00  0.15902985949E+04  0.15902985949E+04  0.00000000000E+00 0. -1.
          1   -1    0    0  501    0 -0.00000000000E+00 -0.00000000000E+00 -0.17481718663E+04  0.17481718663E+04  0.00000000000E+00 0. -1.
         25    2    1    2    0    0 -0.20808801271E+03 -0.73241943847E+02 -0.51660794434E+03  0.57547685255E+03  0.12499934517E+03 0.  0.
          2    1    1    2  501    0  0.19151643176E+03  0.94674935007E+02 -0.11925183703E+04  0.12115040035E+04  0.00000000000E+00 0. -1.
          1    1    1    2  502    0  0.16571580946E+02 -0.21432991160E+02  0.15512530433E+04  0.15514896052E+04  0.00000000000E+00 0. -1.
         22    1    3    3    0    0 -0.17277557037E+03 -0.16673522128E+02 -0.27812447328E+03  0.32784543110E+03  0.00000000000E+00 0.  1.
         22    1    3    3    0    0 -0.35312442341E+02 -0.56568421719E+02 -0.23848347105E+03  0.24763142144E+03  0.00000000000E+00 0.  1.
</event>
<event>
 7    1  0.5537228E-006  0.5025128E+02  0.7818608E-02  0.1527196E+00
          2   -1    0    0  502    0  0.00000000000E+00  0.00000000000E+00  0.70803260487E+03  0.70803260487E+03  0.00000000000E+00 0. -1.
          1   -1    0    0  501    0 -0.00000000000E+00 -0.00000000000E+00 -0.14349168170E+04  0.14349168170E+04  0.00000000000E+00 0. -1.
         25    2    1    2    0    0  0.61392796448E+02 -0.38013457702E+02  0.26728961043E+03  0.30378154145E+03  0.12500156264E+03 0.  0.
          2    1    1    2  501    0 -0.27910988630E+02  0.26121827093E+01 -0.14151266632E+04  0.14154042955E+04  0.00000000000E+00 0. -1.
          1    1    1    2  502    0 -0.33481807818E+02  0.35401274993E+02  0.42095284072E+03  0.42376358484E+03  0.00000000000E+00 0. -1.
         22    1    3    3    0    0  0.56397629794E+02  0.29126968458E+02  0.66171953769E+02  0.91694058714E+02  0.00000000000E+00 0. -1.
         22    1    3    3    0    0  0.49951666538E+01 -0.67140426160E+02  0.20111765666E+03  0.21208748274E+03  0.00000000000E+00 0. -1.
</event>
<event>
 7    1  0.5537228E-006  0.4702747E+02  0.7818608E-02  0.1488224E+00
          2   -1    0    0  502    0  0.00000000000E+00  0.00000000000E+00  0.29686002569E+03  0.29686002569E+03  0.00000000000E+00 0. -1.
          1   -1    0    0  501    0 -0.00000000000E+00 -0.00000000000E+00 -0.28664923160E+03  0.28664923160E+03  0.00000000000E+00 0. -1.
         25    2    1    2    0    0  0.95608516919E+01 -0.40958591495E+01  0.41132096796E+02  0.13200363747E+03  0.12499969988E+03 0.  0.
          2    1    1    2  501    0  0.37486369697E+02 -0.10921025205E+02 -0.23669236308E+03  0.23989116583E+03  0.00000000000E+00 0. -1.
          1    1    1    2  502    0 -0.47047221389E+02  0.15016884355E+02  0.20577106037E+03  0.21161445400E+03  0.00000000000E+00 0. -1.
         22    1    3    3    0    0  0.53855416362E+02 -0.41068155143E+02  0.22914286865E+02  0.71498697757E+02  0.00000000000E+00 0. -1.
         22    1    3    3    0    0 -0.44294564670E+02  0.36972295994E+02  0.18217809931E+02  0.60504939708E+02  0.00000000000E+00 0. -1.
</event>
<event>
 7    1  0.5537228E-006  0.5372713E+02  0.7818608E-02  0.1448467E+00
          2   -1    0    0  502    0  0.00000000000E+00  0.00000000000E+00  0.10316552213E+04  0.10316552213E+04  0.00000000000E+00 0. -1.
          1   -1    0    0  501    0 -0.00000000000E+00 -0.00000000000E+00 -0.15988911137E+04  0.15988911137E+04  0.00000000000E+00 0. -1.
         25    2    1    2    0    0 -0.32428472988E+02  0.92436265606E+02  0.24367374468E+02  0.16067188680E+03  0.12500246882E+03 0.  0.
          2    1    1    2  501    0  0.20637796217E+02 -0.40514094392E+02 -0.15296461214E+04  0.15303217202E+04  0.00000000000E+00 0. -1.
          1    1    1    2  502    0  0.11790676770E+02 -0.51922171213E+02  0.93804285455E+03  0.93955272810E+03  0.00000000000E+00 0. -1.
         22    1    3    3    0    0 -0.86209159175E+01  0.71094580922E+02 -0.44798979918E+02  0.84473121343E+02  0.00000000000E+00 0. -1.
         22    1    3    3    0    0 -0.23807557070E+02  0.21341684684E+02  0.69166354386E+02  0.76198765461E+02  0.00000000000E+00 0. -1.
</event>
<event>
 7    1  0.5537228E-006  0.3160905E+03  0.7818608E-02  0.1171306E+00
          2   -1    0    0  502    0  0.00000000000E+00  0.00000000000E+00  0.12580102660E+04  0.12580102660E+04  0.00000000000E+00 0. -1.
          1   -1    0    0  501    0 -0.00000000000E+00 -0.00000000000E+00 -0.31192427404E+03  0.31192427404E+03  0.00000000000E+00 0. -1.
         25    2    1    2    0    0  0.35922492904E+03 -0.16522501610E+03  0.22736387685E+03  0.47292868832E+03  0.12500142458E+03 0.  0.
          2    1    1    2  501    0 -0.78524395289E+02  0.59422196796E+02 -0.14916523338E+03  0.17873820234E+03  0.00000000000E+00 0. -1.
          1    1    1    2  502    0 -0.28070053375E+03  0.10580281930E+03  0.86788734846E+03  0.91826764934E+03  0.00000000000E+00 0. -1.
         22    1    3    3    0    0  0.31467789064E+02 -0.17709606699E+02 -0.15342317769E+02  0.39233131822E+02  0.00000000000E+00 0.  1.
         22    1    3    3    0    0  0.32775713998E+03 -0.14751540940E+03  0.24270619462E+03  0.43369555650E+03  0.00000000000E+00 0.  1.
</event>
<event>
 7    1  0.5537228E-006  0.2308167E+03  0.7818608E-02  0.1341629E+00
          2   -1    0    0  502    0  0.00000000000E+00  0.00000000000E+00  0.31538617624E+04  0.31538617624E+04  0.00000000000E+00 0. -1.
          1   -1    0    0  501    0 -0.00000000000E+00 -0.00000000000E+00 -0.33678310856E+02  0.33678310856E+02  0.00000000000E+00 0. -1.
         25    2    1    2    0    0  0.26291084591E+02  0.21084818210E+03  0.85130896910E+03  0.88628470747E+03  0.12500177915E+03 0.  0.
          2    1    1    2  501    0  0.36162350341E+01  0.24581251904E+02  0.54670497264E+01  0.25440199168E+02  0.00000000000E+00 0. -1.
          1    1    1    2  502    0 -0.29907319625E+02 -0.23542943400E+03  0.22634074327E+04  0.22758151666E+04  0.00000000000E+00 0. -1.
         22    1    3    3    0    0 -0.94378549384E+01  0.19544714387E+03  0.78837418943E+03  0.81229460278E+03  0.00000000000E+00 0. -1.
         22    1    3    3    0    0  0.35728939530E+02  0.15401038232E+02  0.62934779676E+02  0.73990104685E+02  0.00000000000E+00 0. -1.
</event>
<event>
 7    1  0.5537228E-006  0.1025603E+03  0.7818608E-02  0.1297696E+00
          2   -1    0    0  502    0  0.00000000000E+00  0.00000000000E+00  0.72927256838E+03  0.72927256838E+03  0.00000000000E+00 0. -1.
          1   -1    0    0  501    0 -0.00000000000E+00 -0.00000000000E+00 -0.77699983750E+03  0.77699983750E+03  0.00000000000E+00 0. -1.
         25    2    1    2    0    0  0.19745337612E+02 -0.55778029084E+02  0.30041157167E+02  0.14152574540E+03  0.12500399434E+03 0.  0.
          2    1    1    2  501    0 -0.73937025108E+02 -0.37315921673E+02 -0.71434027739E+03  0.71912529756E+03  0.00000000000E+00 0. -1.
          1    1    1    2  502    0  0.54191687496E+02  0.93093950757E+02  0.63657185110E+03  0.64562136293E+03  0.00000000000E+00 0. -1.
         22    1    3    3    0    0 -0.39250685670E+02 -0.47758762656E+02  0.49171188554E+02  0.78989375993E+02  0.00000000000E+00 0. -1.
         22    1    3    3    0    0  0.58996023282E+02 -0.80192664286E+01 -0.19130031388E+02  0.62536369403E+02  0.00000000000E+00 0. -1.
</event>
<event>
 7    1  0.5537228E-006  0.5201583E+02  0.7818608E-02  0.1565740E+00
          2   -1    0    0  502    0  0.00000000000E+00  0.00000000000E+00  0.56974606664E+03  0.56974606664E+03  0.00000000000E+00 0. -1.
          1   -1    0    0  501    0 -0.00000000000E+00 -0.00000000000E+00 -0.23014072300E+03  0.23014072300E+03  0.00000000000E+00 0. -1.
         25    2    1    2    0    0  0.44969562886E+02  0.54658876888E+02  0.19415998834E+03  0.24152530101E+03  0.12500606204E+03 0.  0.
          2    1    1    2  501    0 -0.38525943882E+02 -0.34548471955E+02 -0.20289067203E+03  0.20938593569E+03  0.00000000000E+00 0. -1.
          1    1    1    2  502    0 -0.64436190043E+01 -0.20110404933E+02  0.34833602733E+03  0.34897555294E+03  0.00000000000E+00 0. -1.
         22    1    3    3    0    0  0.62392589333E+02  0.60842607541E+02  0.20308669393E+03  0.22099516589E+03  0.00000000000E+00 0.  1.
         22    1    3    3    0    0 -0.17423026447E+02 -0.61837306524E+01 -0.89267055877E+01  0.20530135119E+02  0.00000000000E+00 0.  1.
</event>
<event>
 7    1  0.5537228E-006  0.8076999E+02  0.7818608E-02  0.1420834E+00
          2   -1    0    0  502    0  0.00000000000E+00  0.00000000000E+00  0.27821222591E+03  0.27821222591E+03  0.00000000000E+00 0. -1.
          1   -1    0    0  501    0 -0.00000000000E+00 -0.00000000000E+00 -0.60964112201E+03  0.60964112201E+03  0.00000000000E+00 0. -1.
         25    2    1    2    0    0 -0.62065120164E+02 -0.87295636861E+02  0.15617350138E+03  0.22691195256E+03  0.12500505719E+03 0.  0.
          2    1    1    2  501    0  0.18415339913E+02  0.32369311259E+02 -0.55935234716E+03  0.56059071106E+03  0.00000000000E+00 0. -1.
          1    1    1    2  502    0  0.43649780251E+02  0.54926325602E+02  0.71749949675E+02  0.10035068429E+03  0.00000000000E+00 0. -1.
         22    1    3    3    0    0 -0.82300732558E+01  0.24631917840E+02 -0.17149422921E+01  0.26027034202E+02  0.00000000000E+00 0. -1.
         22    1    3    3    0    0 -0.53835046908E+02 -0.11192755470E+03  0.15788844367E+03  0.20088491835E+03  0.00000000000E+00 0. -1.
</event>
<event>
 7    1  0.5537228E-006  0.1038116E+03  0.7818608E-02  0.1427783E+00
          2   -1    0    0  502    0  0.00000000000E+00  0.00000000000E+00  0.72287184513E+03  0.72287184513E+03  0.00000000000E+00 0. -1.
          1   -1    0    0  501    0 -0.00000000000E+00 -0.00000000000E+00 -0.99574856763E+03  0.99574856763E+03  0.00000000000E+00 0. -1.
         25    2    1    2    0    0 -0.57592814716E+02  0.73076846536E+02 -0.14143639637E+03  0.21044841463E+03  0.12500849249E+03 0.  0.
          2    1    1    2  501    0  0.15968035073E+02  0.22360044482E+02 -0.81563634636E+03  0.81609901314E+03  0.00000000000E+00 0. -1.
          1    1    1    2  502    0  0.41624779643E+02 -0.95436891018E+02  0.68419602024E+03  0.69207298499E+03  0.00000000000E+00 0. -1.
         22    1    3    3    0    0 -0.37065041269E+02  0.86340624407E+02 -0.15591728252E+03  0.18204043424E+03  0.00000000000E+00 0. -1.
         22    1    3    3    0    0 -0.20527773447E+02 -0.13263777871E+02  0.14480886156E+02  0.28407980392E+02  0.00000000000E+00 0. -1.
</event>
<event>
 7    1  0.5537228E-006  0.9066177E+02  0.7818608E-02  0.1362949E+00
          2   -1    0    0  502    0  0.00000000000E+00  0.00000000000E+00  0.82422459857E+03  0.82422459857E+03  0.00000000000E+00 0. -1.
          1   -1    0    0  501    0 -0.00000000000E+00 -0.00000000000E+00 -0.73018144665E+02  0.73018144665E+02  0.00000000000E+00 0. -1.
         25    2    1    2    0    0  0.19017649092E+02 -0.61325810050E+02  0.16509064818E+03  0.21679576864E+03  0.12499182866E+03 0.  0.
          2    1    1    2  501    0  0.52730722395E+02 -0.19890406192E+01 -0.27438423372E+02  0.59475645806E+02  0.00000000000E+00 0. -1.
          1    1    1    2  502    0 -0.71748371488E+02  0.63314850669E+02  0.61355422910E+03  0.62097132878E+03  0.00000000000E+00 0. -1.
         22    1    3    3    0    0 -0.47710701250E+02 -0.24916253522E+02  0.11142895546E+03  0.12374790026E+03  0.00000000000E+00 0.  1.
         22    1    3    3    0    0  0.66728350342E+02 -0.36409556528E+02  0.53661692716E+02  0.93047868386E+02  0.00000000000E+00 0.  1.
</event>
<event>
 7    1  0.5537228E-006  0.6083489E+02  0.7818608E-02  0.1531924E+00
          2   -1    0    0  502    0  0.00000000000E+00  0.00000000000E+00  0.37618478943E+03  0.37618478943E+03  0.00000000000E+00 0. -1.
          1   -1    0    0  501    0 -0.00000000000E+00 -0.00000000000E+00 -0.22108849267E+03  0.22108849267E+03  0.00000000000E+00 0. -1.
         25    2    1    2    0    0 -0.44835717285E+02  0.29868088622E+02 -0.35455280036E+02  0.14065690146E+03  0.12499977113E+03 0.  0.
          2    1    1    2  501    0 -0.14926192410E+02 -0.16762031463E+02 -0.12916391643E+03  0.13109948217E+03  0.00000000000E+00 0. -1.
          1    1    1    2  502    0  0.59761909695E+02 -0.13106057159E+02  0.31971549322E+03  0.32551689847E+03  0.00000000000E+00 0. -1.
         22    1    3    3    0    0 -0.45558868687E+02  0.73625404526E+02 -0.42299586219E+02  0.96361640200E+02  0.00000000000E+00 0.  1.
         22    1    3    3    0    0  0.72315140222E+00 -0.43757315904E+02  0.68443061825E+01  0.44295261261E+02  0.00000000000E+00 0.  1.
</event>
<event>
 7    1  0.5537228E-006  0.9383029E+02  0.7818608E-02  0.1393478E+00
          2   -1    0    0  502    0  0.00000000000E+00  0.00000000000E+00  0.27169089957E+03  0.27169089957E+03  0.00000000000E+00 0. -1.
          1   -1    0    0  501    0 -0.00000000000E+00 -0.00000000000E+00 -0.19545599604E+03  0.19545599604E+03  0.00000000000E+00 0. -1.
         25    2    1    2    0    0  0.45177028341E+02  0.45341096653E+02  0.65495233867E+01  0.14058889566E+03  0.12500224955E+03 0.  0.
          2    1    1    2  501    0  0.84061553481E+01  0.38821841413E+02 -0.11224455361E+03  0.11906569042E+03  0.00000000000E+00 0. -1.
          1    1    1    2  502    0 -0.53583183689E+02 -0.84162938067E+02  0.18192993375E+03  0.20749230953E+03  0.00000000000E+00 0. -1.
         22    1    3    3    0    0  0.40259310205E+02  0.79483600299E+02  0.35148627519E+02  0.95780377902E+02  0.00000000000E+00 0.  1.
         22    1    3    3    0    0  0.49177181361E+01 -0.34142503646E+02 -0.28599104133E+02  0.44808517762E+02  0.00000000000E+00 0.  1.
</event>
<event>
 7    1  0.5537228E-006  0.6189420E+02  0.7818608E-02  0.1523474E+00
          2   -1    0    0  502    0  0.00000000000E+00  0.00000000000E+00  0.33651744727E+03  0.33651744727E+03  0.00000000000E+00 0. -1.
          1   -1    0    0  501    0 -0.00000000000E+00 -0.00000000000E+00 -0.55718509420E+03  0.55718509420E+03  0.00000000000E+00 0. -1.
         25    2    1    2    0    0 -0.28687421075E+02  0.28217922708E+02 -0.16929288598E+03  0.21425037974E+03  0.12499569865E+03 0.  0.
          2    1    1    2  501    0 -0.84404090698E+01  0.21748701467E+02 -0.36194932236E+03  0.36270037011E+03  0.00000000000E+00 0. -1.
          1    1    1    2  502    0  0.37127830145E+02 -0.49966624175E+02  0.31057456142E+03  0.31675179163E+03  0.00000000000E+00 0. -1.
         22    1    3    3    0    0  0.37731732518E+02 -0.12667377701E+02 -0.17267893352E+02  0.43385783818E+02  0.00000000000E+00 0.  1.
         22    1    3    3    0    0 -0.66419153593E+02  0.40885300409E+02 -0.15202499263E+03  0.17086459592E+03  0.00000000000E+00 0.  1.
</event>
<event>
 7    1  0.5537228E-006  0.6418838E+02  0.7818608E-02  0.1518365E+00
          2   -1    0    0  502    0  0.00000000000E+00  0.00000000000E+00  0.30090799223E+03  0.30090799223E+03  0.00000000000E+00 0. -1.
          1   -1    0    0  501    0 -0.00000000000E+00 -0.00000000000E+00 -0.25318888836E+03  0.25318888836E+03  0.00000000000E+00 0. -1.
         25    2    1    2    0    0 -0.96078988481E+01  0.80510951150E+02  0.87624241967E+01  0.14925105917E+03  0.12499909444E+03 0.  0.
          2    1    1    2  501    0 -0.55909502656E+01 -0.62882295266E+02 -0.17685384524E+03  0.18778371697E+03  0.00000000000E+00 0. -1.
          1    1    1    2  502    0  0.15198849114E+02 -0.17628655884E+02  0.21581052492E+03  0.21706210445E+03  0.00000000000E+00 0. -1.
         22    1    3    3    0    0 -0.13831412707E+02  0.23376871141E+01  0.56058031692E+02  0.57786466198E+02  0.00000000000E+00 0.  1.
         22    1    3    3    0    0  0.42235138587E+01  0.78173264036E+02 -0.47295607495E+02  0.91464592973E+02  0.00000000000E+00 0.  1.
</event>
<event>
 7    1  0.5865481E-006  0.5840411E+02  0.7818608E-02  0.1442313E+00
          2   -1    0    0  502    0  0.00000000000E+00  0.00000000000E+00  0.68506090870E+03  0.68506090870E+03  0.00000000000E+00 0. -1.
          1   -1    0    0  501    0 -0.00000000000E+00 -0.00000000000E+00 -0.12102812469E+04  0.12102812469E+04  0.00000000000E+00 0. -1.
         25    2    1    2    0    0 -0.25020902984E+02 -0.18375526460E+02 -0.35427542439E+03  0.37696161158E+03  0.12500109888E+03 0.  0.
          2    1    1    2  501    0 -0.32472375300E+02  0.29363119714E+02 -0.84282213835E+03  0.84395841417E+03  0.00000000000E+00 0. -1.
          1    1    1    2  502    0  0.57493278284E+02 -0.10987593253E+02  0.67187722459E+03  0.67442212980E+03  0.00000000000E+00 0. -1.
         22    1    3    3    0    0 -0.61359062896E+02 -0.17887017730E+02 -0.32223676815E+03  0.32851394910E+03  0.00000000000E+00 0. -1.
         22    1    3    3    0    0  0.36338159912E+02 -0.48850873029E+00 -0.32038656238E+02  0.48447662483E+02  0.00000000000E+00 0. -1.
</event>
<event>
 7    1  0.5537228E-006  0.3453389E+03  0.7818608E-02  0.1268719E+00
          2   -1    0    0  502    0  0.00000000000E+00  0.00000000000E+00  0.48300856641E+03  0.48300856641E+03  0.00000000000E+00 0. -1.
          1   -1    0    0  501    0 -0.00000000000E+00 -0.00000000000E+00 -0.70234107209E+03  0.70234107209E+03  0.00000000000E+00 0. -1.
         25    2    1    2    0    0  0.21237067029E+03  0.26652116239E+03  0.23429835920E+03  0.43204380218E+03  0.12502517457E+03 0.  0.
          2    1    1    2  501    0  0.31526897101E+02 -0.72994094252E+01 -0.39048506765E+03  0.39182370357E+03  0.00000000000E+00 0. -1.
          1    1    1    2  502    0 -0.24389756739E+03 -0.25922175296E+03 -0.63145797240E+02  0.36148213275E+03  0.00000000000E+00 0. -1.
         22    1    3    3    0    0  0.12316212685E+03  0.12911173837E+03  0.49688455043E+02  0.18522335986E+03  0.00000000000E+00 0.  1.
         22    1    3    3    0    0  0.89208543446E+02  0.13740942402E+03  0.18460990416E+03  0.24682044232E+03  0.00000000000E+00 0.  1.
</event>
<event>
 7    1  0.5537228E-006  0.8568789E+02  0.7818608E-02  0.1316838E+00
          2   -1    0    0  502    0  0.00000000000E+00  0.00000000000E+00  0.10177829153E+04  0.10177829153E+04  0.00000000000E+00 0. -1.
          1   -1    0    0  501    0 -0.00000000000E+00 -0.00000000000E+00 -0.14947625384E+04  0.14947625384E+04  0.00000000000E+00 0. -1.
         25    2    1    2    0    0  0.39931052693E+02 -0.12776415768E+03  0.55262652951E+03  0.58218482346E+03  0.12499967438E+03 0.  0.
          2    1    1    2  501    0 -0.69561685426E+02  0.49955737825E+02 -0.14748826226E+04  0.14773669667E+04  0.00000000000E+00 0. -1.
          1    1    1    2  502    0  0.29630632733E+02  0.77808419857E+02  0.44527646988E+03  0.45299366356E+03  0.00000000000E+00 0. -1.
         22    1    3    3    0    0 -0.42828873214E+02 -0.39226129922E+02  0.12718775003E+03  0.13982033260E+03  0.00000000000E+00 0. -1.
         22    1    3    3    0    0  0.82759925907E+02 -0.88538027760E+02  0.42543877948E+03  0.44236449086E+03  0.00000000000E+00 0. -1.
</event>
<event>
 7    1  0.5537228E-006  0.3371282E+02  0.7818608E-02  0.1628772E+00
          2   -1    0    0  502    0  0.00000000000E+00  0.00000000000E+00  0.75156594525E+03  0.75156594525E+03  0.00000000000E+00 0. -1.
          1   -1    0    0  501    0 -0.00000000000E+00 -0.00000000000E+00 -0.68797857240E+02  0.68797857240E+02  0.00000000000E+00 0. -1.
         25    2    1    2    0    0  0.21078758147E+02  0.26550632070E+02  0.34496836882E+02  0.13403405051E+03  0.12500337928E+03 0.  0.
          2    1    1    2  501    0 -0.41175409567E+00 -0.34835476286E+02 -0.27329052721E+01  0.34944938413E+02  0.00000000000E+00 0. -1.
          1    1    1    2  502    0 -0.20667004051E+02  0.82848442156E+01  0.65100415640E+03  0.65138481357E+03  0.00000000000E+00 0. -1.
         22    1    3    3    0    0  0.18302593970E+02 -0.17378414332E+02  0.71944511208E+02  0.76243077874E+02  0.00000000000E+00 0. -1.
         22    1    3    3    0    0  0.27761641764E+01  0.43929046402E+02 -0.37447674326E+02  0.57790972632E+02  0.00000000000E+00 0. -1.
</event>
<event>
 7    1  0.5537228E-006  0.5693304E+02  0.7818608E-02  0.1545889E+00
          2   -1    0    0  502    0  0.00000000000E+00  0.00000000000E+00  0.15550703449E+03  0.15550703449E+03  0.00000000000E+00 0. -1.
          1   -1    0    0  501    0 -0.00000000000E+00 -0.00000000000E+00 -0.71474423212E+03  0.71474423212E+03  0.00000000000E+00 0. -1.
         25    2    1    2    0    0  0.75433949943E+01 -0.43945102902E+02 -0.37272178009E+02  0.13784569449E+03  0.12499658139E+03 0.  0.
          2    1    1    2  501    0  0.10494597798E+02  0.56357213855E+02 -0.62471945720E+03  0.62734414187E+03  0.00000000000E+00 0. -1.
          1    1    1    2  502    0 -0.18037992792E+02 -0.12412110953E+02  0.10275443758E+03  0.10506143024E+03  0.00000000000E+00 0. -1.
         22    1    3    3    0    0 -0.23662072929E+02 -0.62022716202E+02  0.20731358168E+02  0.69544951160E+02  0.00000000000E+00 0. -1.
         22    1    3    3    0    0  0.31205467924E+02  0.18077613300E+02 -0.58003536177E+02  0.68300743334E+02  0.00000000000E+00 0. -1.
</event>
<event>
 7    1  0.1017198E-005  0.1166033E+03  0.7818608E-02  0.1292194E+00
          2   -1    0    0  502    0  0.00000000000E+00  0.00000000000E+00  0.16127453646E+04  0.16127453646E+04  0.00000000000E+00 0. -1.
          1   -1    0    0  501    0 -0.00000000000E+00 -0.00000000000E+00 -0.20748232640E+04  0.20748232640E+04  0.00000000000E+00 0. -1.
         25    2    1    2    0    0 -0.81577707800E+01  0.19200438426E+03 -0.37665507723E+03  0.44093914265E+03  0.12500418999E+03 0.  0.
          2    1    1    2  501    0 -0.47887555155E+01 -0.76517253964E+02 -0.16630057807E+04  0.16647720712E+04  0.00000000000E+00 0. -1.
          1    1    1    2  502    0  0.12946526296E+02 -0.11548713029E+03  0.15775829585E+04  0.15818574148E+04  0.00000000000E+00 0. -1.
         22    1    3    3    0    0  0.26824280971E+02 -0.58527566955E+01 -0.33790244202E+02  0.43538229336E+02  0.00000000000E+00 0. -1.
         22    1    3    3    0    0 -0.34982051751E+02  0.19785714095E+03 -0.34286483303E+03  0.39740091331E+03  0.00000000000E+00 0. -1.
</event>
<event>
 7    1  0.5537228E-006  0.2940628E+02  0.7818608E-02  0.1621085E+00
          2   -1    0    0  502    0  0.00000000000E+00  0.00000000000E+00  0.16913001498E+03  0.16913001498E+03  0.00000000000E+00 0. -1.
          1   -1    0    0  501    0 -0.00000000000E+00 -0.00000000000E+00 -0.56825082376E+02  0.56825082376E+02  0.00000000000E+00 0. -1.
         25    2    1    2    0    0  0.56572901662E+01 -0.87179676242E+01  0.99732114706E+02  0.16025058375E+03  0.12500298795E+03 0.  0.
          2    1    1    2  501    0  0.10793706738E+02  0.29742944375E+02 -0.72409961733E+01  0.32458879691E+02  0.00000000000E+00 0. -1.
          1    1    1    2  502    0 -0.16450996904E+02 -0.21024976751E+02  0.19813814068E+02  0.33245633915E+02  0.00000000000E+00 0. -1.
         22    1    3    3    0    0  0.49450086228E+02 -0.22226011950E+02  0.43010114210E+01  0.54385708917E+02  0.00000000000E+00 0. -1.
         22    1    3    3    0    0 -0.43792796062E+02  0.13508044326E+02  0.95431103285E+02  0.10586487483E+03  0.00000000000E+00 0. -1.
</event>
<event>
 7    1  0.5537228E-006  0.4768704E+02  0.7818608E-02  0.1469856E+00
          2   -1    0    0  502    0  0.00000000000E+00  0.00000000000E+00  0.27352274574E+03  0.27352274574E+03  0.00000000000E+00 0. -1.
          1   -1    0    0  501    0 -0.00000000000E+00 -0.00000000000E+00 -0.15178515340E+03  0.15178515340E+03  0.00000000000E+00 0. -1.
         25    2    1    2    0    0  0.59326817828E+02 -0.41337786833E+02  0.91137384599E+02  0.17076437266E+03  0.12500385659E+03 0.  0.
          2    1    1    2  501    0 -0.12896613579E+02  0.41907343342E+02 -0.10362172726E+03  0.11251671177E+03  0.00000000000E+00 0. -1.
          1    1    1    2  502    0 -0.46430204250E+02 -0.56955650966E+00  0.13422193500E+03  0.14202681471E+03  0.00000000000E+00 0. -1.
         22    1    3    3    0    0  0.58691465069E+02  0.31384282855E+02  0.21156096476E+02  0.69837251524E+02  0.00000000000E+00 0. -1.
         22    1    3    3    0    0  0.63535275907E+00 -0.72722069687E+02  0.69981288123E+02  0.10092712113E+03  0.00000000000E+00 0. -1.
</event>
<event>
 7    1  0.5537228E-006  0.4671515E+02  0.7818608E-02  0.1563907E+00
          2   -1    0    0  502    0  0.00000000000E+00  0.00000000000E+00  0.10071977104E+04  0.10071977104E+04  0.00000000000E+00 0. -1.
          1   -1    0    0  501    0 -0.00000000000E+00 -0.00000000000E+00 -0.13316635808E+04  0.13316635808E+04  0.00000000000E+00 0. -1.
         25    2    1    2    0    0 -0.20571938039E+00  0.32197117329E+02 -0.11390669276E+04  0.11463569835E+04  0.12499668573E+03 0.  0.
          2    1    1    2  501    0  0.21953450453E+02  0.91569167820E+01 -0.18765659926E+03  0.18915814114E+03  0.00000000000E+00 0. -1.
          1    1    1    2  502    0 -0.21747731073E+02 -0.41354034111E+02  0.10022576565E+04  0.10033461665E+04  0.00000000000E+00 0. -1.
         22    1    3    3    0    0 -0.21796827784E+02  0.73135209788E+02 -0.52098495251E+03  0.52654456730E+03  0.00000000000E+00 0. -1.
         22    1    3    3    0    0  0.21591108404E+02 -0.40938092460E+02 -0.61808197506E+03  0.61981241619E+03  0.00000000000E+00 0. -1.
</event>
<event>
 7    1  0.5537228E-006  0.4735993E+02  0.7818608E-02  0.1465853E+00
          2   -1    0    0  502    0  0.00000000000E+00  0.00000000000E+00  0.11124887925E+04  0.11124887925E+04  0.00000000000E+00 0. -1.
          1   -1    0    0  501    0 -0.00000000000E+00 -0.00000000000E+00 -0.83520340370E+02  0.83520340370E+02  0.00000000000E+00 0. -1.
         25    2    1    2    0    0  0.89571965843E+01  0.23478551232E+02  0.28189370263E+03  0.30938888172E+03  0.12500378718E+03 0.  0.
          2    1    1    2  501    0  0.35473607252E+02 -0.32991760198E+02 -0.60647729308E+02  0.77620745440E+02  0.00000000000E+00 0. -1.
          1    1    1    2  502    0 -0.44430803836E+02  0.95132089662E+01  0.80772247885E+03  0.80899950575E+03  0.00000000000E+00 0. -1.
         22    1    3    3    0    0  0.30733453466E+02 -0.56164825335E+01  0.68885485671E+01  0.31992845128E+02  0.00000000000E+00 0. -1.
         22    1    3    3    0    0 -0.21776256882E+02  0.29095033765E+02  0.27500515407E+03  0.27739603659E+03  0.00000000000E+00 0. -1.
</event>
<event>
 7    1  0.5537228E-006  0.1072823E+03  0.7818608E-02  0.1334131E+00
          2   -1    0    0  502    0  0.00000000000E+00  0.00000000000E+00  0.41464359541E+03  0.41464359541E+03  0.00000000000E+00 0. -1.
          1   -1    0    0  501    0 -0.00000000000E+00 -0.00000000000E+00 -0.22649300098E+04  0.22649300098E+04  0.00000000000E+00 0. -1.
         25    2    1    2    0    0 -0.80020974240E+02 -0.82920354106E+02 -0.52078817255E+03  0.54783722722E+03  0.12500466160E+03 0.  0.
          2    1    1    2  501    0  0.10342049734E+03  0.30884432251E+02 -0.17268950232E+04  0.17302647394E+04  0.00000000000E+00 0. -1.
          1    1    1    2  502    0 -0.23399523100E+02  0.52035921855E+02  0.39739678127E+03  0.40147163861E+03  0.00000000000E+00 0. -1.
         22    1    3    3    0    0 -0.61445034093E+02 -0.90389470565E+01 -0.84059839050E+02  0.10451435939E+03  0.00000000000E+00 0.  1.
         22    1    3    3    0    0 -0.18575940147E+02 -0.73881407049E+02 -0.43672833350E+03  0.44332286783E+03  0.00000000000E+00 0.  1.
</event>
<event>
 7    1  0.5537228E-006  0.1488339E+03  0.7818608E-02  0.1271152E+00
          2   -1    0    0  502    0  0.00000000000E+00  0.00000000000E+00  0.80751764136E+03  0.80751764136E+03  0.00000000000E+00 0. -1.
          1   -1    0    0  501    0 -0.00000000000E+00 -0.00000000000E+00 -0.47679524209E+03  0.47679524209E+03  0.00000000000E+00 0. -1.
         25    2    1    2    0    0 -0.25285423515E+02 -0.17818790097E+03 -0.97265281591E+01  0.21935590983E+03  0.12502851327E+03 0.  0.
          2    1    1    2  501    0 -0.38017886122E+02  0.14115360535E+03 -0.34547139705E+03  0.37512689340E+03  0.00000000000E+00 0. -1.
          1    1    1    2  502    0  0.63303309636E+02  0.37034295620E+02  0.68592032448E+03  0.68983008023E+03  0.00000000000E+00 0. -1.
         22    1    3    3    0    0 -0.38106944948E+02 -0.13250890524E+03 -0.59876806742E+02  0.15031959689E+03  0.00000000000E+00 0. -1.
         22    1    3    3    0    0  0.12821521433E+02 -0.45678995729E+02  0.50150278583E+02  0.69036312942E+02  0.00000000000E+00 0. -1.
</event>
<event>
 7    1  0.5537228E-006  0.8728241E+02  0.7818608E-02  0.1320818E+00
          2   -1    0    0  502    0  0.00000000000E+00  0.00000000000E+00  0.96661566139E+03  0.96661566139E+03  0.00000000000E+00 0. -1.
          1   -1    0    0  501    0 -0.00000000000E+00 -0.00000000000E+00 -0.79683426756E+02  0.79683426756E+02  0.00000000000E+00 0. -1.
         25    2    1    2    0    0 -0.37198198395E+02 -0.33237438753E+02  0.27989315902E+02  0.13746553660E+03  0.12499975460E+03 0.  0.
          2    1    1    2  501    0 -0.48019581765E+02  0.62576308334E+02  0.46823623993E+02  0.91728547145E+02  0.00000000000E+00 0. -1.
          1    1    1    2  502    0  0.85217780160E+02 -0.29338869581E+02  0.81211929474E+03  0.81710500440E+03  0.00000000000E+00 0. -1.
         22    1    3    3    0    0  0.20987585399E+01  0.34877721645E+02 -0.24716031513E+02  0.42798860595E+02  0.00000000000E+00 0. -1.
         22    1    3    3    0    0 -0.39296956935E+02 -0.68115160398E+02  0.52705347414E+02  0.94666676008E+02  0.00000000000E+00 0. -1.
</event>
<event>
 7    1  0.5537228E-006  0.7202095E+02  0.7818608E-02  0.1414715E+00
          2   -1    0    0  502    0  0.00000000000E+00  0.00000000000E+00  0.14337472582E+04  0.14337472582E+04  0.00000000000E+00 0. -1.
          1   -1    0    0  501    0 -0.00000000000E+00 -0.00000000000E+00 -0.92088790937E+02  0.92088790937E+02  0.00000000000E+00 0. -1.
         25    2    1    2    0    0 -0.67773345035E+02 -0.44036527822E+02  0.18126701185E+03  0.23455322034E+03  0.12500016604E+03 0.  0.
          2    1    1    2  501    0  0.72288907807E+02  0.48604506231E+00 -0.44963404793E+02  0.85133014761E+02  0.00000000000E+00 0. -1.
          1    1    1    2  502    0 -0.45155627722E+01  0.43550482759E+02  0.12053548602E+04  0.12061498140E+04  0.00000000000E+00 0. -1.
         22    1    3    3    0    0  0.34528588957E+02 -0.12896762113E+01  0.23750784464E+02  0.41928349392E+02  0.00000000000E+00 0. -1.
         22    1    3    3    0    0 -0.10230193399E+03 -0.42746851610E+02  0.15751622738E+03  0.19262487095E+03  0.00000000000E+00 0. -1.
</event>
<event>
 7    1  0.5537228E-006  0.6292208E+02  0.7818608E-02  0.1496268E+00
          2   -1    0    0  502    0  0.00000000000E+00  0.00000000000E+00  0.11733574256E+04  0.11733574256E+04  0.00000000000E+00 0. -1.
          1   -1    0    0  501    0 -0.00000000000E+00 -0.00000000000E+00 -0.25426276536E+03  0.25426276536E+03  0.00000000000E+00 0. -1.
         25    2    1    2    0    0 -0.12985520397E+02 -0.88985603395E+02  0.61429224074E+02  0.16578479250E+03  0.12499594594E+03 0.  0.
          2    1    1    2  501    0  0.19036465614E+01  0.27530383290E+02 -0.20021781357E+03  0.20211065965E+03  0.00000000000E+00 0. -1.
          1    1    1    2  502    0  0.11081873836E+02  0.61455220105E+02  0.10578832497E+04  0.10597247388E+04  0.00000000000E+00 0. -1.
         22    1    3    3    0    0  0.30476621897E+02  0.70148516497E+01  0.51085448436E+02  0.59897876989E+02  0.00000000000E+00 0.  1.
         22    1    3    3    0    0 -0.43462142294E+02 -0.96000455044E+02  0.10343775638E+02  0.10588691551E+03  0.00000000000E+00 0.  1.
</event>
<event>
 7    1  0.5537228E-006  0.7187595E+02  0.7818608E-02  0.1516840E+00
          2   -1    0    0  502    0  0.00000000000E+00  0.00000000000E+00  0.17293549081E+04  0.17293549081E+04  0.00000000000E+00 0. -1.
          1   -1    0    0  501    0 -0.00000000000E+00 -0.00000000000E+00 -0.16506842331E+03  0.16506842331E+03  0.00000000000E+00 0. -1.
         25    2    1    2    0    0  0.10590934810E+02  0.52449066967E+02  0.24084160017E+03  0.27657335869E+03  0.12500029536E+03 0.  0.
          2    1    1    2  501    0  0.13094936161E+02  0.16417541668E+02 -0.14554689275E+03  0.14705410915E+03  0.00000000000E+00 0. -1.
          1    1    1    2  502    0 -0.23685870971E+02 -0.68866608635E+02  0.14689917773E+04  0.14707958635E+04  0.00000000000E+00 0. -1.
         22    1    3    3    0    0  0.23710367811E+02 -0.26969798898E+02  0.19101045581E+02  0.40674335110E+02  0.00000000000E+00 0. -1.
         22    1    3    3    0    0 -0.13119433001E+02  0.79418865865E+02  0.22174055459E+03  0.23589902358E+03  0.00000000000E+00 0. -1.
</event>
<event>
 7    1  0.5537228E-006  0.1165121E+03  0.7818608E-02  0.1281877E+00
          2   -1    0    0  502    0  0.00000000000E+00  0.00000000000E+00  0.17086453470E+04  0.17086453470E+04  0.00000000000E+00 0. -1.
          1   -1    0    0  501    0 -0.00000000000E+00 -0.00000000000E+00 -0.24275372446E+03  0.24275372446E+03  0.00000000000E+00 0. -1.
         25    2    1    2    0    0 -0.15943580500E+02 -0.89823813649E+02  0.39661636358E+03  0.42573746242E+03  0.12500132717E+03 0.  0.
          2    1    1    2  501    0 -0.68318888312E+02  0.96769546563E+02 -0.21133195650E+03  0.24226640601E+03  0.00000000000E+00 0. -1.
          1    1    1    2  502    0  0.84262468812E+02 -0.69457329147E+01  0.12806072155E+04  0.12833952030E+04  0.00000000000E+00 0. -1.
         22    1    3    3    0    0  0.52679828450E+02 -0.25068279945E+02  0.11912321574E+03  0.13264208802E+03  0.00000000000E+00 0. -1.
         22    1    3    3    0    0 -0.68623408950E+02 -0.64755533704E+02  0.27749314784E+03  0.29309537440E+03  0.00000000000E+00 0. -1.
</event>
<event>
 7    1  0.5537228E-006  0.9541148E+02  0.7818608E-02  0.1331955E+00
          2   -1    0    0  502    0  0.00000000000E+00  0.00000000000E+00  0.24875896283E+04  0.24875896283E+04  0.00000000000E+00 0. -1.
          1   -1    0    0  501    0 -0.00000000000E+00 -0.00000000000E+00 -0.24128777075E+02  0.24128777075E+02  0.00000000000E+00 0. -1.
         25    2    1    2    0    0 -0.49260202522E+02  0.67574042748E+02  0.37758392529E+03  0.40643249073E+03  0.12499972032E+03 0.  0.
          2    1    1    2  501    0 -0.46409519640E+02 -0.46061713631E+02  0.11750381701E+03  0.13447182600E+03  0.00000000000E+00 0. -1.
          1    1    1    2  502    0  0.95669722162E+02 -0.21512329117E+02  0.19683731089E+04  0.19708140886E+04  0.00000000000E+00 0. -1.
         22    1    3    3    0    0  0.38932076188E+02  0.17912431572E+02  0.17235183375E+03  0.17759987713E+03  0.00000000000E+00 0.  1.
         22    1    3    3    0    0 -0.88192278710E+02  0.49661611176E+02  0.20523209154E+03  0.22883261360E+03  0.00000000000E+00 0.  1.
</event>
<event>
 7    1  0.5537228E-006  0.3908453E+02  0.7818608E-02  0.1554202E+00
          2   -1    0    0  502    0  0.00000000000E+00  0.00000000000E+00  0.17579513372E+04  0.17579513372E+04  0.00000000000E+00 0. -1.
          1   -1    0    0  501    0 -0.00000000000E+00 -0.00000000000E+00 -0.11651528599E+04  0.11651528599E+04  0.00000000000E+00 0. -1.
         25    2    1    2    0    0  0.61890173315E+01 -0.32149627863E+02  0.49633210544E+01  0.12931813926E+03  0.12500657614E+03 0.  0.
          2    1    1    2  501    0  0.24023726879E+02  0.30944060738E+02 -0.11024923504E+04  0.11031881331E+04  0.00000000000E+00 0. -1.
          1    1    1    2  502    0 -0.30212744211E+02  0.12055671252E+01  0.16903275066E+04  0.16905979247E+04  0.00000000000E+00 0. -1.
         22    1    3    3    0    0  0.48637211129E+02 -0.32403344301E+02  0.42812032357E+02  0.72446015369E+02  0.00000000000E+00 0.  1.
         22    1    3    3    0    0 -0.42448193798E+02  0.25371643857E+00 -0.37848711302E+02  0.56872123892E+02  0.00000000000E+00 0.  1.
</event>
<event>
 7    1  0.5537228E-006  0.4918436E+02  0.7818608E-02  0.1509387E+00
          2   -1    0    0  502    0  0.00000000000E+00  0.00000000000E+00  0.21358402105E+03  0.21358402105E+03  0.00000000000E+00 0. -1.
          1   -1    0    0  501    0 -0.00000000000E+00 -0.00000000000E+00 -0.94042982267E+03  0.94042982267E+03  0.00000000000E+00 0. -1.
         25    2    1    2    0    0 -0.78856643516E+02 -0.17328560155E+02 -0.26330442976E+03  0.30244380230E+03  0.12499752634E+03 0.  0.
          2    1    1    2  501    0  0.32118853610E+02  0.31420609476E+01 -0.65407745500E+03  0.65487312546E+03  0.00000000000E+00 0. -1.
          1    1    1    2  502    0  0.46737789906E+02  0.14186499207E+02  0.19053608316E+03  0.19669691596E+03  0.00000000000E+00 0. -1.
         22    1    3    3    0    0 -0.70783046822E+02  0.45033942499E+02 -0.12535752642E+03  0.15084032990E+03  0.00000000000E+00 0.  1.
         22    1    3    3    0    0 -0.80735966942E+01 -0.62362502654E+02 -0.13794690334E+03  0.15160347240E+03  0.00000000000E+00 0.  1.
</event>
<event>
 7    1  0.5537228E-006  0.7736287E+02  0.7818608E-02  0.1420542E+00
          2   -1    0    0  502    0  0.00000000000E+00  0.00000000000E+00  0.13238155191E+04  0.13238155191E+04  0.00000000000E+00 0. -1.
          1   -1    0    0  501    0 -0.00000000000E+00 -0.00000000000E+00 -0.48721850871E+03  0.48721850871E+03  0.00000000000E+00 0. -1.
         25    2    1    2    0    0 -0.32947424424E+02  0.10940705346E+03  0.18378231995E+03  0.24991513010E+03  0.12500477993E+03 0.  0.
          2    1    1    2  501    0  0.16556922352E+02 -0.35276324446E+02 -0.45201102751E+03  0.45368768964E+03  0.00000000000E+00 0. -1.
          1    1    1    2  502    0  0.16390502072E+02 -0.74130729009E+02  0.11048257180E+04  0.11074312081E+04  0.00000000000E+00 0. -1.
         22    1    3    3    0    0 -0.65071933553E+01  0.12770241230E+03  0.17471596759E+03  0.21650847329E+03  0.00000000000E+00 0. -1.
         22    1    3    3    0    0 -0.26440231069E+02 -0.18295358847E+02  0.90663523573E+01  0.33406656813E+02  0.00000000000E+00 0. -1.
</event>
<event>
 7    1  0.5537228E-006  0.6742352E+02  0.7818608E-02  0.1379160E+00
          2   -1    0    0  502    0  0.00000000000E+00  0.00000000000E+00  0.29688740530E+03  0.29688740530E+03  0.00000000000E+00 0. -1.
          1   -1    0    0  501    0 -0.00000000000E+00 -0.00000000000E+00 -0.17401391013E+04  0.17401391013E+04  0.00000000000E+00 0. -1.
         25    2    1    2    0    0 -0.17971959322E+01  0.90780582209E+01 -0.20371470956E+02  0.12695948640E+03  0.12497229015E+03 0.  0.
          2    1    1    2  501    0 -0.38207528528E+02 -0.56520922870E+02 -0.16618098316E+04  0.16632096519E+04  0.00000000000E+00 0. -1.
          1    1    1    2  502    0  0.40004724460E+02  0.47442864650E+02  0.23892960654E+03  0.24685736826E+03  0.00000000000E+00 0. -1.
         22    1    3    3    0    0  0.18854438032E+02  0.38774068276E+02  0.38540248253E+02  0.57829654500E+02  0.00000000000E+00 0. -1.
         22    1    3    3    0    0 -0.20651633964E+02 -0.29696010055E+02 -0.58911719209E+02  0.69129831902E+02  0.00000000000E+00 0. -1.
</event>
<event>
 7    1  0.5537228E-006  0.7086222E+02  0.7818608E-02  0.1385161E+00
          2   -1    0    0  502    0  0.00000000000E+00  0.00000000000E+00  0.21910489657E+04  0.21910489657E+04  0.00000000000E+00 0. -1.
          1   -1    0    0  501    0 -0.00000000000E+00 -0.00000000000E+00 -0.37393948253E+02  0.37393948253E+02  0.00000000000E+00 0. -1.
         25    2    1    2    0    0 -0.94834687203E+02  0.27724439537E+02  0.16145195608E+04  0.16223627453E+04  0.12500081066E+03 0.  0.
          2    1    1    2  501    0  0.45218704068E+02 -0.54193802886E+02  0.69395893248E+01  0.70921487357E+02  0.00000000000E+00 0. -1.
          1    1    1    2  502    0  0.49615983135E+02  0.26469363349E+02  0.53219586732E+03  0.53515868130E+03  0.00000000000E+00 0. -1.
         22    1    3    3    0    0 -0.93464246317E+02 -0.11998782525E+02  0.62678757726E+03  0.63383136805E+03  0.00000000000E+00 0. -1.
         22    1    3    3    0    0 -0.13704408862E+01  0.39723222063E+02  0.98773198358E+03  0.98853137728E+03  0.00000000000E+00 0. -1.
</event>
<event>
 7    1  0.5537228E-006  0.8767306E+02  0.7818608E-02  0.1421491E+00
          2   -1    0    0  502    0  0.00000000000E+00  0.00000000000E+00  0.12735679758E+04  0.12735679758E+04  0.00000000000E+00 0. -1.
          1   -1    0    0  501    0 -0.00000000000E+00 -0.00000000000E+00 -0.85552484036E+03  0.85552484036E+03  0.00000000000E+00 0. -1.
         25    2    1    2    0    0 -0.86830819540E+02  0.51198222678E+02  0.19947155438E+03  0.25607187602E+03  0.12499222158E+03 0.  0.
          2    1    1    2  501    0  0.85916157512E+02 -0.17074207166E+02 -0.82462578024E+03  0.82926521217E+03  0.00000000000E+00 0. -1.
          1    1    1    2  502    0  0.91466202807E+00 -0.34124015512E+02  0.10431973613E+04  0.10437557280E+04  0.00000000000E+00 0. -1.
         22    1    3    3    0    0 -0.38627457780E+02  0.83814608701E+02  0.16321979246E+03  0.18750378604E+03  0.00000000000E+00 0.  1.
         22    1    3    3    0    0 -0.48203361760E+02 -0.32616386023E+02  0.36251761918E+02  0.68568089987E+02  0.00000000000E+00 0.  1.
</event>
<event>
 7    1  0.5537228E-006  0.1160750E+03  0.7818608E-02  0.1253685E+00
          2   -1    0    0  502    0  0.00000000000E+00  0.00000000000E+00  0.67789599235E+03  0.67789599235E+03  0.00000000000E+00 0. -1.
          1   -1    0    0  501    0 -0.00000000000E+00 -0.00000000000E+00 -0.18388790845E+04  0.18388790845E+04  0.00000000000E+00 0. -1.
         25    2    1    2    0    0  0.59339379471E+02 -0.58766413189E+01  0.34239954626E+02  0.14266363484E+03  0.12499936537E+03 0.  0.
          2    1    1    2  501    0 -0.31441125883E+02  0.11390772336E+03 -0.17774077643E+04  0.17813314892E+04  0.00000000000E+00 0. -1.
          1    1    1    2  502    0 -0.27898253589E+02 -0.10803108204E+03  0.58218471748E+03  0.59277995285E+03  0.00000000000E+00 0. -1.
         22    1    3    3    0    0  0.14053450620E+02  0.18579868151E+02  0.74029635682E+02  0.77608620230E+02  0.00000000000E+00 0. -1.
         22    1    3    3    0    0  0.45285928852E+02 -0.24456509470E+02 -0.39789681056E+02  0.65055014610E+02  0.00000000000E+00 0. -1.
</event>
<event>
 7    1  0.5537228E-006  0.1266116E+03  0.7818608E-02  0.1278510E+00
          2   -1    0    0  502    0  0.00000000000E+00  0.00000000000E+00  0.10736332583E+03  0.10736332583E+03  0.00000000000E+00 0. -1.
          1   -1    0    0  501    0 -0.00000000000E+00 -0.00000000000E+00 -0.11522951696E+04  0.11522951696E+04  0.00000000000E+00 0. -1.
         25    2    1    2    0    0  0.13196908934E+03 -0.82445032001E+02 -0.11906933101E+03  0.23241140408E+03  0.12499812524E+03 0.  0.
          2    1    1    2  501    0 -0.76532961422E+02 -0.24426225935E+02 -0.90067018624E+03  0.90424593949E+03  0.00000000000E+00 0. -1.
          1    1    1    2  502    0 -0.55436127916E+02  0.10687125794E+03 -0.25192326535E+02  0.12300115189E+03  0.00000000000E+00 0. -1.
         22    1    3    3    0    0  0.56014488047E+02 -0.81866573452E+02 -0.12095839928E+03  0.15643111288E+03  0.00000000000E+00 0. -1.
         22    1    3    3    0    0  0.75954601291E+02 -0.57845854871E+00  0.18890682664E+01  0.75980291198E+02  0.00000000000E+00 0. -1.
</event>
<event>
 7    1  0.5537228E-006  0.6334739E+02  0.7818608E-02  0.1462740E+00
          2   -1    0    0  502    0  0.00000000000E+00  0.00000000000E+00  0.10085595172E+04  0.10085595172E+04  0.00000000000E+00 0. -1.
          1   -1    0    0  501    0 -0.00000000000E+00 -0.00000000000E+00 -0.81363447516E+03  0.81363447516E+03  0.00000000000E+00 0. -1.
         25    2    1    2    0    0 -0.92970380002E+02 -0.47697892120E+01  0.52704102936E+03  0.54960332808E+03  0.12500131661E+03 0.  0.
          2    1    1    2  501    0  0.62241525488E+02 -0.11440405266E+02 -0.80046104331E+03  0.80295876122E+03  0.00000000000E+00 0. -1.
          1    1    1    2  502    0  0.30728854514E+02  0.16210194478E+02  0.46834505602E+03  0.46963190310E+03  0.00000000000E+00 0. -1.
         22    1    3    3    0    0 -0.31590542428E+02  0.16317299662E+02  0.43788747318E+03  0.43932864214E+03  0.00000000000E+00 0. -1.
         22    1    3    3    0    0 -0.61379837574E+02 -0.21087088874E+02  0.89153556184E+02  0.11027468593E+03  0.00000000000E+00 0. -1.
</event>
<event>
 7    1  0.5537228E-006  0.7160845E+02  0.7818608E-02  0.1404406E+00
          2   -1    0    0  502    0  0.00000000000E+00  0.00000000000E+00  0.10344059589E+04  0.10344059589E+04  0.00000000000E+00 0. -1.
          1   -1    0    0  501    0 -0.00000000000E+00 -0.00000000000E+00 -0.34677387315E+03  0.34677387315E+03  0.00000000000E+00 0. -1.
         25    2    1    2    0    0  0.29849603056E+02  0.64347266271E+02  0.12384957021E+03  0.18972366158E+03  0.12499912896E+03 0.  0.
          2    1    1    2  501    0 -0.64677506426E+02 -0.31713748247E+02 -0.30904278010E+03  0.31732693172E+03  0.00000000000E+00 0. -1.
          1    1    1    2  502    0  0.34827903369E+02 -0.32633518023E+02  0.87282529562E+03  0.87412923874E+03  0.00000000000E+00 0. -1.
         22    1    3    3    0    0  0.20151559451E+02  0.87918780035E+02  0.13462709131E+03  0.16205014948E+03  0.00000000000E+00 0.  1.
         22    1    3    3    0    0  0.96980436051E+01 -0.23571513765E+02 -0.10777521096E+02  0.27673512099E+02  0.00000000000E+00 0.  1.
</event>
<event>
 7    1  0.5537228E-006  0.1164930E+03  0.7818608E-02  0.1251267E+00
          2   -1    0    0  502    0  0.00000000000E+00  0.00000000000E+00  0.17772580723E+04  0.17772580723E+04  0.00000000000E+00 0. -1.
          1   -1    0    0  501    0 -0.00000000000E+00 -0.00000000000E+00 -0.15212666313E+03  0.15212666313E+03  0.00000000000E+00 0. -1.
         25    2    1    2    0    0  0.16913803195E+03 -0.13006871792E+02  0.61806410537E+03  0.65299579063E+03  0.12499364653E+03 0.  0.
          2    1    1    2  501    0 -0.91961664398E+02 -0.70736298028E+02 -0.10621533136E+03  0.15729675201E+03  0.00000000000E+00 0. -1.
          1    1    1    2  502    0 -0.77176367549E+02  0.83743169819E+02  0.11132826351E+04  0.11190921928E+04  0.00000000000E+00 0. -1.
         22    1    3    3    0    0  0.50801487054E+02  0.27260848357E+02  0.69162478167E+02  0.90041064666E+02  0.00000000000E+00 0. -1.
         22    1    3    3    0    0  0.11833654489E+03 -0.40267720148E+02  0.54890162720E+03  0.56295472597E+03  0.00000000000E+00 0. -1.
</event>
<event>
 7    1  0.7132395E-006  0.1749142E+03  0.7818608E-02  0.1210415E+00
          2   -1    0    0  502    0  0.00000000000E+00  0.00000000000E+00  0.13241190635E+04  0.13241190635E+04  0.00000000000E+00 0. -1.
          1   -1    0    0  501    0 -0.00000000000E+00 -0.00000000000E+00 -0.89140911908E+03  0.89140911908E+03  0.00000000000E+00 0. -1.
         25    2    1    2    0    0  0.44113977179E+02 -0.57874588348E+02 -0.24003066194E+03  0.28024360954E+03  0.12500500414E+03 0.  0.
          2    1    1    2  501    0  0.11288681861E+03 -0.24826554681E+02 -0.61986813964E+03  0.63055237861E+03  0.00000000000E+00 0. -1.
          1    1    1    2  502    0 -0.15700079579E+03  0.82701143030E+02  0.12926087460E+04  0.13047321944E+04  0.00000000000E+00 0. -1.
         22    1    3    3    0    0  0.74067435891E+02 -0.13471207164E+02 -0.73112611550E+02  0.10494242445E+03  0.00000000000E+00 0.  1.
         22    1    3    3    0    0 -0.29953458712E+02 -0.44403381184E+02 -0.16691805039E+03  0.17530118509E+03  0.00000000000E+00 0.  1.
</event>
<event>
 7    1  0.5537228E-006  0.1892287E+03  0.7818608E-02  0.1206315E+00
          2   -1    0    0  502    0  0.00000000000E+00  0.00000000000E+00  0.14150936218E+04  0.14150936218E+04  0.00000000000E+00 0. -1.
          1   -1    0    0  501    0 -0.00000000000E+00 -0.00000000000E+00 -0.93278701109E+03  0.93278701109E+03  0.00000000000E+00 0. -1.
         25    2    1    2    0    0 -0.74192554579E+02 -0.19137172087E+03 -0.99588347841E+00  0.24032294784E+03  0.12500582695E+03 0.  0.
          2    1    1    2  501    0  0.11152322180E+03  0.50110167837E+01 -0.80126559588E+03  0.80900500272E+03  0.00000000000E+00 0. -1.
          1    1    1    2  502    0 -0.37330667218E+02  0.18636070409E+03  0.12845680900E+04  0.12985526823E+04  0.00000000000E+00 0. -1.
         22    1    3    3    0    0 -0.10403463697E+03 -0.17775635497E+03 -0.10323959562E+02  0.20622102599E+03  0.00000000000E+00 0. -1.
         22    1    3    3    0    0  0.29842082394E+02 -0.13615365905E+02  0.93280760834E+01  0.34101921848E+02  0.00000000000E+00 0. -1.
</event>
<event>
 7    1  0.5537228E-006  0.3934281E+02  0.7818608E-02  0.1563337E+00
          2   -1    0    0  502    0  0.00000000000E+00  0.00000000000E+00  0.21793940886E+04  0.21793940886E+04  0.00000000000E+00 0. -1.
          1   -1    0    0  501    0 -0.00000000000E+00 -0.00000000000E+00 -0.76836619601E+01  0.76836619601E+01  0.00000000000E+00 0. -1.
         25    2    1    2    0    0  0.51312358132E+02  0.22805169251E+02  0.14743447563E+04  0.14806993598E+04  0.12500039944E+03 0.  0.
          2    1    1    2  501    0 -0.23988715945E+02 -0.30348525849E+02  0.85360788027E+02  0.93717424455E+02  0.00000000000E+00 0. -1.
          1    1    1    2  502    0 -0.27323642187E+02  0.75433565976E+01  0.61200488225E+03  0.61266096624E+03  0.00000000000E+00 0. -1.
         22    1    3    3    0    0 -0.64669031757E+01 -0.45015126530E+02  0.37434020903E+03  0.37709252784E+03  0.00000000000E+00 0.  1.
         22    1    3    3    0    0  0.57779261308E+02  0.67820295781E+02  0.11000045473E+04  0.11036068320E+04  0.00000000000E+00 0.  1.
</event>
<event>
 7    1  0.5537228E-006  0.1862625E+03  0.7818608E-02  0.1279130E+00
          2   -1    0    0  502    0  0.00000000000E+00  0.00000000000E+00  0.14531326520E+04  0.14531326520E+04  0.00000000000E+00 0. -1.
          1   -1    0    0  501    0 -0.00000000000E+00 -0.00000000000E+00 -0.36624061081E+03  0.36624061081E+03  0.00000000000E+00 0. -1.
         25    2    1    2    0    0  0.15372603986E+03 -0.13025444470E+03 -0.94822533212E+02  0.25536948978E+03  0.12499739122E+03 0.  0.
          2    1    1    2  501    0 -0.10259341435E+03  0.14849019492E+03 -0.14786201988E+03  0.23331935963E+03  0.00000000000E+00 0. -1.
          1    1    1    2  502    0 -0.51132625510E+02 -0.18235750218E+02  0.13295765943E+04  0.13306844134E+04  0.00000000000E+00 0. -1.
         22    1    3    3    0    0  0.93241362405E+02 -0.12997748848E+03 -0.10858785836E+03  0.19333758599E+03  0.00000000000E+00 0.  1.
         22    1    3    3    0    0  0.60484677453E+02 -0.27695622355E+00  0.13765325150E+02  0.62031903790E+02  0.00000000000E+00 0.  1.
</event>
<event>
 7    1  0.5537228E-006  0.4171817E+02  0.7818608E-02  0.1510773E+00
          2   -1    0    0  502    0  0.00000000000E+00  0.00000000000E+00  0.33034510705E+03  0.33034510705E+03  0.00000000000E+00 0. -1.
          1   -1    0    0  501    0 -0.00000000000E+00 -0.00000000000E+00 -0.89122856452E+03  0.89122856452E+03  0.00000000000E+00 0. -1.
         25    2    1    2    0    0  0.39303717477E+02 -0.68598107513E+02 -0.34380078717E+02  0.15183900302E+03  0.12499044148E+03 0.  0.
          2    1    1    2  501    0 -0.20056788896E+02  0.36190568066E+02 -0.79627164816E+03  0.79734595357E+03  0.00000000000E+00 0. -1.
          1    1    1    2  502    0 -0.19246928581E+02  0.32407539447E+02  0.26976826941E+03  0.27238871499E+03  0.00000000000E+00 0. -1.
         22    1    3    3    0    0  0.36231229168E+02 -0.66004200515E+02 -0.77779385001E+02  0.10825381833E+03  0.00000000000E+00 0.  1.
         22    1    3    3    0    0  0.30724883089E+01 -0.25939069985E+01  0.43399306284E+02  0.43585184683E+02  0.00000000000E+00 0.  1.
</event>
<event>
 7    1  0.5537228E-006  0.9556137E+02  0.7818608E-02  0.1475098E+00
          2   -1    0    0  502    0  0.00000000000E+00  0.00000000000E+00  0.18753509589E+03  0.18753509589E+03  0.00000000000E+00 0. -1.
          1   -1    0    0  501    0 -0.00000000000E+00 -0.00000000000E+00 -0.13281314910E+04  0.13281314910E+04  0.00000000000E+00 0. -1.
         25    2    1    2    0    0  0.80619741034E+02 -0.56137798939E+01 -0.31471832964E+03  0.34814368604E+03  0.12500136780E+03 0.  0.
          2    1    1    2  501    0  0.15163023062E+02  0.14639557573E+02 -0.98303261461E+03  0.98325853940E+03  0.00000000000E+00 0. -1.
          1    1    1    2  502    0 -0.95782764095E+02 -0.90257776788E+01  0.15715454917E+03  0.18426436141E+03  0.00000000000E+00 0. -1.
         22    1    3    3    0    0  0.19851364408E+02 -0.59409637387E+02 -0.18306416497E+03  0.19348403081E+03  0.00000000000E+00 0.  1.
         22    1    3    3    0    0  0.60768376626E+02  0.53795857494E+02 -0.13165416468E+03  0.15465965524E+03  0.00000000000E+00 0.  1.
</event>
<event>
 7    1  0.5537228E-006  0.5291820E+02  0.7818608E-02  0.1545607E+00
          2   -1    0    0  502    0  0.00000000000E+00  0.00000000000E+00  0.91798183118E+03  0.91798183118E+03  0.00000000000E+00 0. -1.
          1   -1    0    0  501    0 -0.00000000000E+00 -0.00000000000E+00 -0.19774476024E+03  0.19774476024E+03  0.00000000000E+00 0. -1.
         25    2    1    2    0    0 -0.50512875756E+02  0.50494311043E+02  0.26628199665E+03  0.30270944854E+03  0.12500272969E+03 0.  0.
          2    1    1    2  501    0  0.27586938542E+02 -0.44893942744E+02 -0.17543878313E+03  0.18318098127E+03  0.00000000000E+00 0. -1.
          1    1    1    2  502    0  0.22925937214E+02 -0.56003682985E+01  0.62939385742E+03  0.62983616162E+03  0.00000000000E+00 0. -1.
         22    1    3    3    0    0 -0.66205908764E+02  0.39126629768E+02  0.65563794502E+02  0.10105803611E+03  0.00000000000E+00 0. -1.
         22    1    3    3    0    0  0.15693033009E+02  0.11367681274E+02  0.20071820214E+03  0.20165141243E+03  0.00000000000E+00 0. -1.
</event>
<event>
 7    1  0.5537228E-006  0.3459846E+03  0.7818608E-02  0.1197273E+00
          2   -1    0    0  502    0  0.00000000000E+00  0.00000000000E+00  0.24767274437E+04  0.24767274437E+04  0.00000000000E+00 0. -1.
          1   -1    0    0  501    0 -0.00000000000E+00 -0.00000000000E+00 -0.11611127438E+04  0.11611127438E+04  0.00000000000E+00 0. -1.
         25    2    1    2    0    0  0.76962421486E+02  0.29770451484E+03 -0.13108654896E+03  0.35687439064E+03  0.12499781958E+03 0.  0.
          2    1    1    2  501    0  0.64085778845E+02  0.20666468112E+02 -0.90304804747E+03  0.90555500440E+03  0.00000000000E+00 0. -1.
          1    1    1    2  502    0 -0.14104820033E+03 -0.31837098296E+03  0.23497492963E+04  0.23754107925E+04  0.00000000000E+00 0. -1.
         22    1    3    3    0    0  0.39841854396E+02  0.21878249200E+03 -0.31671387548E+02  0.22462464014E+03  0.00000000000E+00 0. -1.
         22    1    3    3    0    0  0.37120567090E+02  0.78922022844E+02 -0.99415161407E+02  0.13224975050E+03  0.00000000000E+00 0. -1.
</event>
<event>
 7    1  0.5537228E-006  0.3153490E+02  0.7818608E-02  0.1612119E+00
          2   -1    0    0  502    0  0.00000000000E+00  0.00000000000E+00  0.21151713494E+04  0.21151713494E+04  0.00000000000E+00 0. -1.
          1   -1    0    0  501    0 -0.00000000000E+00 -0.00000000000E+00 -0.23681095499E+02  0.23681095499E+02  0.00000000000E+00 0. -1.
         25    2    1    2    0    0  0.19562803635E+02 -0.38156966098E+01  0.37605279470E+03  0.39678431424E+03  0.12499929918E+03 0.  0.
          2    1    1    2  501    0 -0.68190044265E+01 -0.25342708792E+02 -0.91325791725E-01  0.26244238428E+02  0.00000000000E+00 0. -1.
          1    1    1    2  502    0 -0.12743799208E+02  0.29158405401E+02  0.17155287850E+04  0.17158238923E+04  0.00000000000E+00 0. -1.
         22    1    3    3    0    0  0.33350422003E+02 -0.52213650092E+02  0.11214261940E+03  0.12811901884E+03  0.00000000000E+00 0.  1.
         22    1    3    3    0    0 -0.13787618368E+02  0.48397953482E+02  0.26391017531E+03  0.26866529540E+03  0.00000000000E+00 0.  1.
</event>
<event>
 7    1  0.7028603E-006  0.5456364E+02  0.7818608E-02  0.1505063E+00
          2   -1    0    0  502    0  0.00000000000E+00  0.00000000000E+00  0.46214891189E+03  0.46214891189E+03  0.00000000000E+00 0. -1.
          1   -1    0    0  501    0 -0.00000000000E+00 -0.00000000000E+00 -0.20422968310E+04  0.20422968310E+04  0.00000000000E+00 0. -1.
         25    2    1    2    0    0  0.52566738247E+02  0.43312722358E+02 -0.44379741046E+03  0.46606750693E+03  0.12499410222E+03 0.  0.
          2    1    1    2  501    0  0.31086263739E+00 -0.29957303276E+02 -0.15855736172E+04  0.15858566241E+04  0.00000000000E+00 0. -1.
          1    1    1    2  502    0 -0.52877600884E+02 -0.13355419082E+02  0.44922310858E+03  0.45252161183E+03  0.00000000000E+00 0. -1.
         22    1    3    3    0    0  0.66905370277E+02  0.13685250524E+02 -0.10237380939E+03  0.12306100724E+03  0.00000000000E+00 0. -1.
         22    1    3    3    0    0 -0.14338632031E+02  0.29627471834E+02 -0.34142360108E+03  0.34300649969E+03  0.00000000000E+00 0. -1.
</event>
<event>
 7    1  0.5542271E-006  0.4703260E+02  0.7818608E-02  0.1470965E+00
          2   -1    0    0  502    0  0.00000000000E+00  0.00000000000E+00  0.12777038295E+04  0.12777038295E+04  0.00000000000E+00 0. -1.
          1   -1    0    0  501    0 -0.00000000000E+00 -0.00000000000E+00 -0.72004794979E+03  0.72004794979E+03  0.00000000000E+00 0. -1.
         25    2    1    2    0    0  0.82533794237E+02 -0.15851277343E+02 -0.99171417742E+02  0.18034068469E+03  0.12499880908E+03 0.  0.
          2    1    1    2  501    0 -0.43061192561E+02 -0.95396301291E+01 -0.57900775180E+03  0.58068515349E+03  0.00000000000E+00 0. -1.
          1    1    1    2  502    0 -0.39472601676E+02  0.25390907473E+02  0.12358350493E+04  0.12367259412E+04  0.00000000000E+00 0. -1.
         22    1    3    3    0    0  0.45051361307E+02  0.19125560320E+02 -0.11638801184E+03  0.12625997589E+03  0.00000000000E+00 0. -1.
         22    1    3    3    0    0  0.37482432930E+02 -0.34976837663E+02  0.17216594097E+02  0.54080708793E+02  0.00000000000E+00 0. -1.
</event>
<event>
 7    1  0.5537228E-006  0.1703906E+03  0.7818608E-02  0.1187617E+00
          2   -1    0    0  502    0  0.00000000000E+00  0.00000000000E+00  0.48401112958E+03  0.48401112958E+03  0.00000000000E+00 0. -1.
          1   -1    0    0  501    0 -0.00000000000E+00 -0.00000000000E+00 -0.10704406289E+04  0.10704406289E+04  0.00000000000E+00 0. -1.
         25    2    1    2    0    0 -0.27032066982E+03 -0.22267828750E+02 -0.31165324780E+03  0.43164995364E+03  0.12499925953E+03 0.  0.
          2    1    1    2  501    0  0.13307911003E+03 -0.73549210073E+02 -0.67345791360E+03  0.69040936930E+03  0.00000000000E+00 0. -1.
          1    1    1    2  502    0  0.13724155979E+03  0.95817038822E+02  0.39868166206E+03  0.43239243555E+03  0.00000000000E+00 0. -1.
         22    1    3    3    0    0 -0.18743137707E+03  0.39388054427E+02 -0.16838321150E+03  0.25501930487E+03  0.00000000000E+00 0.  1.
         22    1    3    3    0    0 -0.82889292750E+02 -0.61655883177E+02 -0.14327003630E+03  0.17663064877E+03  0.00000000000E+00 0.  1.
</event>
<event>
 7    1  0.5537228E-006  0.2496298E+03  0.7818608E-02  0.1251729E+00
          2   -1    0    0  502    0  0.00000000000E+00  0.00000000000E+00  0.15863124180E+04  0.15863124180E+04  0.00000000000E+00 0. -1.
          1   -1    0    0  501    0 -0.00000000000E+00 -0.00000000000E+00 -0.39912417369E+03  0.39912417369E+03  0.00000000000E+00 0. -1.
         25    2    1    2    0    0  0.23918874376E+03 -0.16594411965E+03  0.11919343972E+03  0.33849753338E+03  0.12499919216E+03 0.  0.
          2    1    1    2  501    0 -0.20555597708E+03  0.12511141293E+03 -0.23883426276E+03  0.33903971807E+03  0.00000000000E+00 0. -1.
          1    1    1    2  502    0 -0.33632766678E+02  0.40832706716E+02  0.13068290673E+04  0.13078993402E+04  0.00000000000E+00 0. -1.
         22    1    3    3    0    0  0.15326230778E+03 -0.38906275973E+02  0.91374599117E+02  0.18262625950E+03  0.00000000000E+00 0. -1.
         22    1    3    3    0    0  0.85926435981E+02 -0.12703784367E+03  0.27818840607E+02  0.15587127387E+03  0.00000000000E+00 0. -1.
</event>
<event>
 7    1  0.5537228E-006  0.3219026E+02  0.7818608E-02  0.1645290E+00
          2   -1    0    0  502    0  0.00000000000E+00  0.00000000000E+00  0.12066370823E+04  0.12066370823E+04  0.00000000000E+00 0. -1.
          1   -1    0    0  501    0 -0.00000000000E+00 -0.00000000000E+00 -0.58323530494E+03  0.58323530494E+03  0.00000000000E+00 0. -1.
         25    2    1    2    0    0 -0.16691552899E+02 -0.38217175020E+02  0.84505064578E+03  0.85526269133E+03  0.12499806734E+03 0.  0.
          2    1    1    2  501    0  0.25900743093E+02  0.19111004823E+02 -0.57736512555E+03  0.57826167710E+03  0.00000000000E+00 0. -1.
          1    1    1    2  502    0 -0.92091901945E+01  0.19106170198E+02  0.35571625710E+03  0.35634801878E+03  0.00000000000E+00 0. -1.
         22    1    3    3    0    0  0.77859189604E+01  0.35301593107E+02  0.10265346514E+03  0.10883270150E+03  0.00000000000E+00 0.  1.
         22    1    3    3    0    0 -0.24477471859E+02 -0.73518768128E+02  0.74239718064E+03  0.74642998983E+03  0.00000000000E+00 0.  1.
</event>
<event>
 7    1  0.5537228E-006  0.1664547E+03  0.7818608E-02  0.1328883E+00
          2   -1    0    0  502    0  0.00000000000E+00  0.00000000000E+00  0.27465336014E+04  0.27465336014E+04  0.00000000000E+00 0. -1.
          1   -1    0    0  501    0 -0.00000000000E+00 -0.00000000000E+00 -0.24990108166E+02  0.24990108166E+02  0.00000000000E+00 0. -1.
         25    2    1    2    0    0  0.13436310016E+03 -0.55357086875E+02  0.78048954353E+03  0.80367714405E+03  0.12496069202E+03 0.  0.
          2    1    1    2  501    0 -0.16806223359E+03  0.73986981549E+02  0.62970613391E+03  0.65593353542E+03  0.00000000000E+00 0. -1.
          1    1    1    2  502    0  0.33699133433E+02 -0.18629894674E+02  0.13113478158E+04  0.13119130301E+04  0.00000000000E+00 0. -1.
         22    1    3    3    0    0  0.12911035846E+03 -0.88740887716E+02  0.60444703636E+03  0.62442025077E+03  0.00000000000E+00 0. -1.
         22    1    3    3    0    0  0.52527416964E+01  0.33383800841E+02  0.17604250717E+03  0.17925689327E+03  0.00000000000E+00 0. -1.
</event>
<event>
 7    1  0.5537228E-006  0.8598643E+02  0.7818608E-02  0.1353894E+00
          2   -1    0    0  502    0  0.00000000000E+00  0.00000000000E+00  0.56412452790E+02  0.56412452790E+02  0.00000000000E+00 0. -1.
          1   -1    0    0  501    0 -0.00000000000E+00 -0.00000000000E+00 -0.61567519912E+03  0.61567519912E+03  0.00000000000E+00 0. -1.
         25    2    1    2    0    0 -0.38793243838E+02  0.98676887111E+01 -0.45223393073E+03  0.47089537641E+03  0.12499856148E+03 0.  0.
          2    1    1    2  501    0 -0.50511215570E+02 -0.32469784840E+02 -0.88940398610E+02  0.10731292714E+03  0.00000000000E+00 0. -1.
          1    1    1    2  502    0  0.89304459408E+02  0.22602096129E+02 -0.18088416986E+02  0.93879348361E+02  0.00000000000E+00 0. -1.
         22    1    3    3    0    0 -0.27173529413E+02  0.59052043922E+02 -0.35906951389E+03  0.36490609805E+03  0.00000000000E+00 0. -1.
         22    1    3    3    0    0 -0.11619714426E+02 -0.49184355211E+02 -0.93164416842E+02  0.10598927836E+03  0.00000000000E+00 0. -1.
</event>
<event>
 7    1  0.5537228E-006  0.2447001E+02  0.7818608E-02  0.1694799E+00
          2   -1    0    0  502    0  0.00000000000E+00  0.00000000000E+00  0.29613023518E+02  0.29613023518E+02  0.00000000000E+00 0. -1.
          1   -1    0    0  501    0 -0.00000000000E+00 -0.00000000000E+00 -0.98786482707E+03  0.98786482707E+03  0.00000000000E+00 0. -1.
         25    2    1    2    0    0 -0.87704155372E+01  0.10645873112E+02 -0.23012224200E+03  0.26224111413E+03  0.12499560343E+03 0.  0.
          2    1    1    2  501    0 -0.16347932628E+02 -0.13561796078E+02 -0.72959797418E+03  0.72990710446E+03  0.00000000000E+00 0. -1.
          1    1    1    2  502    0  0.25118348165E+02  0.29159229658E+01  0.14684126289E+01  0.25329631994E+02  0.00000000000E+00 0. -1.
         22    1    3    3    0    0 -0.30041657284E+02 -0.45584790062E+02 -0.56775216446E+02  0.78764836443E+02  0.00000000000E+00 0. -1.
         22    1    3    3    0    0  0.21271241747E+02  0.56230663175E+02 -0.17334702556E+03  0.18347627769E+03  0.00000000000E+00 0. -1.
</event>
<event>
 7    1  0.5537228E-006  0.1233121E+03  0.7818608E-02  0.1399227E+00
          2   -1    0    0  502    0  0.00000000000E+00  0.00000000000E+00  0.19671856549E+04  0.19671856549E+04  0.00000000000E+00 0. -1.
          1   -1    0    0  501    0 -0.00000000000E+00 -0.00000000000E+00 -0.22343701814E+03  0.22343701814E+03  0.00000000000E+00 0. -1.
         25    2    1    2    0    0  0.71961445735E+02  0.70149915164E+02  0.54840604216E+03  0.57137889782E+03  0.12500079012E+03 0.  0.
          2    1    1    2  501    0  0.22887116606E+02  0.17601642029E+02 -0.20798514688E+03  0.20997966386E+03  0.00000000000E+00 0. -1.
          1    1    1    2  502    0 -0.94848562341E+02 -0.87751557193E+02  0.14033277415E+04  0.14092641113E+04  0.00000000000E+00 0. -1.
         22    1    3    3    0    0  0.87066371185E+02  0.33815205222E+02  0.19974196708E+03  0.22050141612E+03  0.00000000000E+00 0.  1.
         22    1    3    3    0    0 -0.15104925450E+02  0.36334709942E+02  0.34866407507E+03  0.35087748170E+03  0.00000000000E+00 0.  1.
</event>
<event>
 7    1  0.5537228E-006  0.7071071E+02  0.7818608E-02  0.1440298E+00
          2   -1    0    0  502    0  0.00000000000E+00  0.00000000000E+00  0.45605275224E+04  0.45605275224E+04  0.00000000000E+00 0. -1.
          1   -1    0    0  501    0 -0.00000000000E+00 -0.00000000000E+00 -0.44287110817E+03  0.44287110817E+03  0.00000000000E+00 0. -1.
         25    2    1    2    0    0 -0.22167735784E+02  0.90149772810E+02  0.63145975825E+02  0.16801984723E+03  0.12499945900E+03 0.  0.
          2    1    1    2  501    0 -0.17944902906E+02 -0.32022402428E+02 -0.38929017253E+03  0.39101699736E+03  0.00000000000E+00 0. -1.
          1    1    1    2  502    0  0.40112638690E+02 -0.58127370382E+02  0.44438006109E+04  0.44443617860E+04  0.00000000000E+00 0. -1.
         22    1    3    3    0    0 -0.11464366076E+02  0.99707825553E+02 -0.29261477452E+01  0.10040739269E+03  0.00000000000E+00 0. -1.
         22    1    3    3    0    0 -0.10703369708E+02 -0.95580527433E+01  0.66072123570E+02  0.67612454536E+02  0.00000000000E+00 0. -1.
</event>
<event>
 7    1  0.5537228E-006  0.7891196E+02  0.7818608E-02  0.1479203E+00
          2   -1    0    0  502    0  0.00000000000E+00  0.00000000000E+00  0.63957192885E+02  0.63957192885E+02  0.00000000000E+00 0. -1.
          1   -1    0    0  501    0 -0.00000000000E+00 -0.00000000000E+00 -0.10410934505E+04  0.10410934505E+04  0.00000000000E+00 0. -1.
         25    2    1    2    0    0  0.19055125188E+02 -0.69453474068E+02 -0.38227264974E+03  0.40858858118E+03  0.12500146828E+03 0.  0.
          2    1    1    2  501    0 -0.43797280062E+02  0.67890603975E+02 -0.63993900466E+03  0.64501881021E+03  0.00000000000E+00 0. -1.
          1    1    1    2  502    0  0.24742154873E+02  0.15628700924E+01  0.45075396729E+02  0.51443252045E+02  0.00000000000E+00 0. -1.
         22    1    3    3    0    0 -0.25411878364E+02 -0.70215527044E+02 -0.11154389605E+03  0.13423123536E+03  0.00000000000E+00 0.  1.
         22    1    3    3    0    0  0.44467003552E+02  0.76205297597E+00 -0.27072875369E+03  0.27435734582E+03  0.00000000000E+00 0.  1.
</event>
<event>
 7    1  0.5537228E-006  0.4260047E+02  0.7818608E-02  0.1504766E+00
          2   -1    0    0  502    0  0.00000000000E+00  0.00000000000E+00  0.77674884650E+03  0.77674884650E+03  0.00000000000E+00 0. -1.
          1   -1    0    0  501    0 -0.00000000000E+00 -0.00000000000E+00 -0.58783958236E+02  0.58783958236E+02  0.00000000000E+00 0. -1.
         25    2    1    2    0    0  0.18856699316E+01  0.34556430923E+02  0.36167772074E+03  0.38423115152E+03  0.12500040582E+03 0.  0.
          2    1    1    2  501    0 -0.37771212773E+02 -0.71922414601E+01 -0.38224524191E+02  0.54217221444E+02  0.00000000000E+00 0. -1.
          1    1    1    2  502    0  0.35885542841E+02 -0.27364189463E+02  0.39451169172E+03  0.39708443177E+03  0.00000000000E+00 0. -1.
         22    1    3    3    0    0 -0.41381507290E+02 -0.29367077312E+02  0.17543371487E+03  0.18262486875E+03  0.00000000000E+00 0. -1.
         22    1    3    3    0    0  0.43267177222E+02  0.63923508235E+02  0.18624400587E+03  0.20160628277E+03  0.00000000000E+00 0. -1.
</event>
<event>
 7    1  0.5537228E-006  0.6709468E+02  0.7818608E-02  0.1400260E+00
          2   -1    0    0  502    0  0.00000000000E+00  0.00000000000E+00  0.31622241760E+03  0.31622241760E+03  0.00000000000E+00 0. -1.
          1   -1    0    0  501    0 -0.00000000000E+00 -0.00000000000E+00 -0.11344137168E+03  0.11344137168E+03  0.00000000000E+00 0. -1.
         25    2    1    2    0    0  0.44195670209E+01  0.78343836116E+02  0.10199526307E+03  0.17940215256E+03  0.12499923769E+03 0.  0.
          2    1    1    2  501    0  0.43319391948E+02 -0.29892752903E+02 -0.57517461042E+02  0.77964124568E+02  0.00000000000E+00 0. -1.
          1    1    1    2  502    0 -0.47738958969E+02 -0.48451083212E+02  0.15830324389E+03  0.17229751216E+03  0.00000000000E+00 0. -1.
         22    1    3    3    0    0  0.82959092355E+01  0.62426977347E+02 -0.12107736344E+02  0.64129142285E+02  0.00000000000E+00 0.  1.
         22    1    3    3    0    0 -0.38763422146E+01  0.15916858768E+02  0.11410299942E+03  0.11527301027E+03  0.00000000000E+00 0.  1.
</event>
<event>
 7    1  0.8108041E-006  0.8610214E+02  0.7818608E-02  0.1340878E+00
          2   -1    0    0  502    0  0.00000000000E+00  0.00000000000E+00  0.80165019467E+03  0.80165019467E+03  0.00000000000E+00 0. -1.
          1   -1    0    0  501    0 -0.00000000000E+00 -0.00000000000E+00 -0.24445588043E+04  0.24445588043E+04  0.00000000000E+00 0. -1.
         25    2    1    2    0    0 -0.93136850201E+02 -0.30499458678E+01 -0.27394629100E+03  0.31520694981E+03  0.12500030328E+03 0.  0.
          2    1    1    2  501    0  0.60959241511E+02  0.61862017638E+02 -0.21476642979E+04  0.21494196600E+04  0.00000000000E+00 0. -1.
          1    1    1    2  502    0  0.32177608690E+02 -0.58812071770E+02  0.77870197935E+03  0.78158238908E+03  0.00000000000E+00 0. -1.
         22    1    3    3    0    0  0.14663541267E+02 -0.38881872124E+02 -0.87757500378E+02  0.97098909855E+02  0.00000000000E+00 0. -1.
         22    1    3    3    0    0 -0.10780039147E+03  0.35831926256E+02 -0.18618879063E+03  0.21810803996E+03  0.00000000000E+00 0. -1.
</event>
<event>
 7    1  0.5537228E-006  0.4576851E+02  0.7818608E-02  0.1472571E+00
          2   -1    0    0  502    0  0.00000000000E+00  0.00000000000E+00  0.93254190222E+03  0.93254190222E+03  0.00000000000E+00 0. -1.
          1   -1    0    0  501    0 -0.00000000000E+00 -0.00000000000E+00 -0.44326042622E+02  0.44326042622E+02  0.00000000000E+00 0. -1.
         25    2    1    2    0    0  0.18856678426E+02  0.27027931029E+02  0.21894052762E+03  0.25425316105E+03  0.12499452744E+03 0.  0.
          2    1    1    2  501    0 -0.44271638480E+02  0.11609431969E+02 -0.56418995152E+01  0.46114942421E+02  0.00000000000E+00 0. -1.
          1    1    1    2  502    0  0.25414960055E+02 -0.38637362998E+02  0.67491723149E+03  0.67649984137E+03  0.00000000000E+00 0. -1.
         22    1    3    3    0    0 -0.30468259346E+02  0.30357780242E+02  0.19432269694E+03  0.19902567722E+03  0.00000000000E+00 0.  1.
         22    1    3    3    0    0  0.49324937772E+02 -0.33298492137E+01  0.24617830683E+02  0.55227483824E+02  0.00000000000E+00 0.  1.
</event>
<event>
 7    1  0.5537228E-006  0.8039276E+02  0.7818608E-02  0.1329276E+00
          2   -1    0    0  502    0  0.00000000000E+00  0.00000000000E+00  0.14084942096E+03  0.14084942096E+03  0.00000000000E+00 0. -1.
          1   -1    0    0  501    0 -0.00000000000E+00 -0.00000000000E+00 -0.44469525017E+03  0.44469525017E+03  0.00000000000E+00 0. -1.
         25    2    1    2    0    0  0.54715439543E+02 -0.28505016458E+02 -0.12169461894E+03  0.18504223414E+03  0.12499893139E+03 0.  0.
          2    1    1    2  501    0 -0.56993159994E+02 -0.56698987042E+02 -0.26783768984E+03  0.27964267113E+03  0.00000000000E+00 0. -1.
          1    1    1    2  502    0  0.22777204504E+01  0.85204003499E+02  0.85686479567E+02  0.12085976586E+03  0.00000000000E+00 0. -1.
         22    1    3    3    0    0  0.77888355159E+02 -0.10561153224E+02 -0.22719178764E+02  0.81818670916E+02  0.00000000000E+00 0.  1.
         22    1    3    3    0    0 -0.23172915616E+02 -0.17943863233E+02 -0.98975440176E+02  0.10322356322E+03  0.00000000000E+00 0.  1.
</event>
<event>
 7    1  0.5537228E-006  0.1327133E+03  0.7818608E-02  0.1379661E+00
          2   -1    0    0  502    0  0.00000000000E+00  0.00000000000E+00  0.22833416475E+04  0.22833416475E+04  0.00000000000E+00 0. -1.
          1   -1    0    0  501    0 -0.00000000000E+00 -0.00000000000E+00 -0.42834610932E+03  0.42834610932E+03  0.00000000000E+00 0. -1.
         25    2    1    2    0    0 -0.15276211411E+03  0.26729991039E+01  0.32984635523E+03  0.38440906389E+03  0.12501320696E+03 0.  0.
          2    1    1    2  501    0  0.22900077220E+02 -0.21482344153E+02 -0.39821135185E+03  0.39944734996E+03  0.00000000000E+00 0. -1.
          1    1    1    2  502    0  0.12986203689E+03  0.18809345049E+02  0.19233605348E+04  0.19278313430E+04  0.00000000000E+00 0. -1.
         22    1    3    3    0    0 -0.17486390552E+02  0.23148382229E+02  0.19061704340E+01  0.29073268480E+02  0.00000000000E+00 0. -1.
         22    1    3    3    0    0 -0.13527572355E+03 -0.20475383125E+02  0.32794018480E+03  0.35533579541E+03  0.00000000000E+00 0. -1.
</event>
<event>
 7    1  0.5537228E-006  0.1262405E+03  0.7818608E-02  0.1276979E+00
          2   -1    0    0  502    0  0.00000000000E+00  0.00000000000E+00  0.11911923860E+04  0.11911923860E+04  0.00000000000E+00 0. -1.
          1   -1    0    0  501    0 -0.00000000000E+00 -0.00000000000E+00 -0.70233340279E+03  0.70233340279E+03  0.00000000000E+00 0. -1.
         25    2    1    2    0    0 -0.62375446062E+00 -0.18718483982E+03  0.98757225198E+02  0.24579825610E+03  0.12500095938E+03 0.  0.
          2    1    1    2  501    0 -0.41704937249E+02  0.11723576755E+03 -0.62099071358E+03  0.63333481930E+03  0.00000000000E+00 0. -1.
          1    1    1    2  502    0  0.42328691710E+02  0.69949072264E+02  0.10110924716E+04  0.10143927134E+04  0.00000000000E+00 0. -1.
         22    1    3    3    0    0  0.45493068034E+02 -0.16200576548E+03  0.53847317960E+02  0.17667773188E+03  0.00000000000E+00 0. -1.
         22    1    3    3    0    0 -0.46116822495E+02 -0.25179074334E+02  0.44909907237E+02  0.69120524227E+02  0.00000000000E+00 0. -1.
</event>
<event>
 7    1  0.5537228E-006  0.4211316E+02  0.7818608E-02  0.1496731E+00
          2   -1    0    0  502    0  0.00000000000E+00  0.00000000000E+00  0.15461702830E+04  0.15461702830E+04  0.00000000000E+00 0. -1.
          1   -1    0    0  501    0 -0.00000000000E+00 -0.00000000000E+00 -0.70479211965E+03  0.70479211965E+03  0.00000000000E+00 0. -1.
         25    2    1    2    0    0 -0.34459854096E+02  0.25082108990E+02  0.63362313462E+03  0.64724060174E+03  0.12500210426E+03 0.  0.
          2    1    1    2  501    0 -0.61422199189E+01 -0.40638731323E+02 -0.69685572137E+03  0.69806670868E+03  0.00000000000E+00 0. -1.
          1    1    1    2  502    0  0.40602074015E+02  0.15556622333E+02  0.90461075006E+03  0.90565509220E+03  0.00000000000E+00 0. -1.
         22    1    3    3    0    0 -0.15939294164E+02 -0.18617088446E+02  0.55402252840E+03  0.55456435069E+03  0.00000000000E+00 0. -1.
         22    1    3    3    0    0 -0.18520559932E+02  0.43699197436E+02  0.79600606220E+02  0.92676251042E+02  0.00000000000E+00 0. -1.
</event>
<event>
 7    1  0.5537228E-006  0.4735279E+02  0.7818608E-02  0.1470910E+00
          2   -1    0    0  502    0  0.00000000000E+00  0.00000000000E+00  0.31755737108E+03  0.31755737108E+03  0.00000000000E+00 0. -1.
          1   -1    0    0  501    0 -0.00000000000E+00 -0.00000000000E+00 -0.31352500367E+04  0.31352500367E+04  0.00000000000E+00 0. -1.
         25    2    1    2    0    0 -0.46445333552E+02  0.69503648432E+02 -0.43073803988E+03  0.45623220731E+03  0.12499856732E+03 0.  0.
          2    1    1    2  501    0  0.71995426994E+01 -0.43228928453E+02 -0.26897558519E+04  0.26901128445E+04  0.00000000000E+00 0. -1.
          1    1    1    2  502    0  0.39245790853E+02 -0.26274719979E+02  0.30280122618E+03  0.30646235590E+03  0.00000000000E+00 0. -1.
         22    1    3    3    0    0 -0.32796248818E+02  0.40498224598E+02 -0.41879265342E+03  0.42202249548E+03  0.00000000000E+00 0. -1.
         22    1    3    3    0    0 -0.13649084734E+02  0.29005423834E+02 -0.11945386463E+02  0.34209711832E+02  0.00000000000E+00 0. -1.
</event>
<event>
 7    1  0.5537228E-006  0.4738924E+02  0.7818608E-02  0.1481700E+00
          2   -1    0    0  502    0  0.00000000000E+00  0.00000000000E+00  0.21610376885E+03  0.21610376885E+03  0.00000000000E+00 0. -1.
          1   -1    0    0  501    0 -0.00000000000E+00 -0.00000000000E+00 -0.35047976325E+03  0.35047976325E+03  0.00000000000E+00 0. -1.
         25    2    1    2    0    0 -0.13909143991E+02 -0.13597585336E+01  0.57184130305E+02  0.13816459592E+03  0.12499647026E+03 0.  0.
          2    1    1    2  501    0  0.27280861138E+02  0.39653438111E+02 -0.30457040055E+03  0.30835007609E+03  0.00000000000E+00 0. -1.
          1    1    1    2  502    0 -0.13371717147E+02 -0.38293679577E+02  0.11301027584E+03  0.12006886008E+03  0.00000000000E+00 0. -1.
         22    1    3    3    0    0 -0.43737692793E-01  0.11792241462E+02 -0.38667866798E+02  0.40426016306E+02  0.00000000000E+00 0. -1.
         22    1    3    3    0    0 -0.13865406298E+02 -0.13151999995E+02  0.95851997103E+02  0.97738579611E+02  0.00000000000E+00 0. -1.
</event>
<event>
 7    1  0.5537228E-006  0.9860180E+02  0.7818608E-02  0.1414269E+00
          2   -1    0    0  502    0  0.00000000000E+00  0.00000000000E+00  0.18312760320E+04  0.18312760320E+04  0.00000000000E+00 0. -1.
          1   -1    0    0  501    0 -0.00000000000E+00 -0.00000000000E+00 -0.10335069609E+03  0.10335069609E+03  0.00000000000E+00 0. -1.
         25    2    1    2    0    0 -0.12249439095E+03  0.20351218069E+02  0.65694687442E+03  0.68016207618E+03  0.12498882419E+03 0.  0.
          2    1    1    2  501    0  0.92425846882E+02 -0.31565389391E+02 -0.65458706679E+02  0.11757445836E+03  0.00000000000E+00 0. -1.
          1    1    1    2  502    0  0.30068544065E+02  0.11214171321E+02  0.11364371682E+04  0.11368901935E+04  0.00000000000E+00 0. -1.
         22    1    3    3    0    0 -0.13362326292E+03 -0.15447078695E+02  0.56656264243E+03  0.58231178627E+03  0.00000000000E+00 0. -1.
         22    1    3    3    0    0  0.11128871973E+02  0.35798296765E+02  0.90384231987E+02  0.97850289905E+02  0.00000000000E+00 0. -1.
</event>
<event>
 7    1  0.5537228E-006  0.5979909E+02  0.7818608E-02  0.1444289E+00
          2   -1    0    0  502    0  0.00000000000E+00  0.00000000000E+00  0.13318934691E+04  0.13318934691E+04  0.00000000000E+00 0. -1.
          1   -1    0    0  501    0 -0.00000000000E+00 -0.00000000000E+00 -0.41455239167E+03  0.41455239167E+03  0.00000000000E+00 0. -1.
         25    2    1    2    0    0 -0.85483011524E+02  0.68622062237E+01  0.52096972621E+03  0.54257632790E+03  0.12500072332E+03 0.  0.
          2    1    1    2  501    0  0.55310044177E+02  0.22546982727E+02 -0.40098078008E+03  0.40540492524E+03  0.00000000000E+00 0. -1.
          1    1    1    2  502    0  0.30172967346E+02 -0.29409188951E+02  0.79735213135E+03  0.79846460768E+03  0.00000000000E+00 0. -1.
         22    1    3    3    0    0  0.14863624173E+02  0.28812964686E+02  0.26168856198E+03  0.26368924462E+03  0.00000000000E+00 0.  1.
         22    1    3    3    0    0 -0.10034663570E+03 -0.21950758462E+02  0.25928116424E+03  0.27888708328E+03  0.00000000000E+00 0.  1.
</event>
<event>
 7    1  0.5537228E-006  0.6363956E+02  0.7818608E-02  0.1422555E+00
          2   -1    0    0  502    0  0.00000000000E+00  0.00000000000E+00  0.22751487972E+04  0.22751487972E+04  0.00000000000E+00 0. -1.
          1   -1    0    0  501    0 -0.00000000000E+00 -0.00000000000E+00 -0.97825343497E+01  0.97825343497E+01  0.00000000000E+00 0. -1.
         25    2    1    2    0    0 -0.50742670542E+02  0.26718104917E+02  0.76836929288E+03  0.78057995189E+03  0.12500006123E+03 0.  0.
          2    1    1    2  501    0  0.70445290348E+02  0.15562194544E+02  0.40615477757E+03  0.41251233215E+03  0.00000000000E+00 0. -1.
          1    1    1    2  502    0 -0.19702619806E+02 -0.42280299461E+02  0.10908421924E+04  0.10918390475E+04  0.00000000000E+00 0. -1.
         22    1    3    3    0    0  0.41638989834E+02  0.12338362464E+02  0.21089830416E+03  0.21532332748E+03  0.00000000000E+00 0.  1.
         22    1    3    3    0    0 -0.92381660376E+02  0.14379742452E+02  0.55747098873E+03  0.56525662441E+03  0.00000000000E+00 0.  1.
</event>
<event>
 7    1  0.5537228E-006  0.8150631E+02  0.7818608E-02  0.1418553E+00
          2   -1    0    0  502    0  0.00000000000E+00  0.00000000000E+00  0.27867683103E+04  0.27867683103E+04  0.00000000000E+00 0. -1.
          1   -1    0    0  501    0 -0.00000000000E+00 -0.00000000000E+00 -0.97947869089E+02  0.97947869089E+02  0.00000000000E+00 0. -1.
         25    2    1    2    0    0  0.30161263032E+02  0.36576215856E+02  0.23484336777E+03  0.27022946792E+03  0.12500014637E+03 0.  0.
          2    1    1    2  501    0  0.88929382506E+01  0.36489856429E+02 -0.75144951458E+02  0.84008081174E+02  0.00000000000E+00 0. -1.
          1    1    1    2  502    0 -0.39054201282E+02 -0.73066072284E+02  0.25291220249E+04  0.25304786303E+04  0.00000000000E+00 0. -1.
         22    1    3    3    0    0  0.31982696464E+02 -0.69590470289E+01  0.22256546953E+03  0.22495935063E+03  0.00000000000E+00 0.  1.
         22    1    3    3    0    0 -0.18214334329E+01  0.43535262885E+02  0.12277898240E+02  0.45270117289E+02  0.00000000000E+00 0.  1.
</event>
<event>
 7    1  0.5537228E-006  0.8844853E+02  0.7818608E-02  0.1316389E+00
          2   -1    0    0  502    0  0.00000000000E+00  0.00000000000E+00  0.14265449282E+04  0.14265449282E+04  0.00000000000E+00 0. -1.
          1   -1    0    0  501    0 -0.00000000000E+00 -0.00000000000E+00 -0.19858990638E+04  0.19858990638E+04  0.00000000000E+00 0. -1.
         25    2    1    2    0    0  0.49841229695E+02 -0.51365058697E+02  0.91178796882E+03  0.92310225655E+03  0.12505182342E+03 0.  0.
          2    1    1    2  501    0  0.23705988885E+02  0.85271088140E+02 -0.19760243271E+04  0.19780053775E+04  0.00000000000E+00 0. -1.
          1    1    1    2  502    0 -0.73547218580E+02 -0.33906029443E+02  0.50488222260E+03  0.51133635788E+03  0.00000000000E+00 0. -1.
         22    1    3    3    0    0 -0.41957383716E+02 -0.86917226866E+01  0.27445146378E+03  0.27777612219E+03  0.00000000000E+00 0. -1.
         22    1    3    3    0    0  0.91798613412E+02 -0.42673336011E+02  0.63733650504E+03  0.64532613436E+03  0.00000000000E+00 0. -1.
</event>
<event>
 7    1  0.5537228E-006  0.3001957E+02  0.7818608E-02  0.1665136E+00
          2   -1    0    0  502    0  0.00000000000E+00  0.00000000000E+00  0.43227939141E+03  0.43227939141E+03  0.00000000000E+00 0. -1.
          1   -1    0    0  501    0 -0.00000000000E+00 -0.00000000000E+00 -0.10966315092E+04  0.10966315092E+04  0.00000000000E+00 0. -1.
         25    2    1    2    0    0 -0.33483681089E+02 -0.29277845197E+01 -0.15238536127E+03  0.19993662198E+03  0.12499450251E+03 0.  0.
          2    1    1    2  501    0  0.79487195227E+01  0.18730236859E+02 -0.91980599195E+03  0.92003101402E+03  0.00000000000E+00 0. -1.
          1    1    1    2  502    0  0.25534961567E+02 -0.15802452339E+02  0.40783923541E+03  0.40894326465E+03  0.00000000000E+00 0. -1.
         22    1    3    3    0    0 -0.28038566317E+00 -0.41501570688E+02 -0.24234555033E+01  0.41573213999E+02  0.00000000000E+00 0.  1.
         22    1    3    3    0    0 -0.33203295426E+02  0.38573786168E+02 -0.14996190576E+03  0.15836340798E+03  0.00000000000E+00 0.  1.
</event>
<event>
 7    1  0.5537228E-006  0.4917495E+02  0.7818608E-02  0.1502990E+00
          2   -1    0    0  502    0  0.00000000000E+00  0.00000000000E+00  0.24619009932E+04  0.24619009932E+04  0.00000000000E+00 0. -1.
          1   -1    0    0  501    0 -0.00000000000E+00 -0.00000000000E+00 -0.17045699513E+03  0.17045699513E+03  0.00000000000E+00 0. -1.
         25    2    1    2    0    0  0.19884215896E+00  0.73992493727E+02  0.14289939353E+03  0.20376466477E+03  0.12499949308E+03 0.  0.
          2    1    1    2  501    0  0.18017048458E+02 -0.28498456155E+02 -0.13772836982E+03  0.14179520405E+03  0.00000000000E+00 0. -1.
          1    1    1    2  502    0 -0.18215890616E+02 -0.45494037572E+02  0.22862729743E+04  0.22867981195E+04  0.00000000000E+00 0. -1.
         22    1    3    3    0    0 -0.25461931612E+02  0.10061770612E+03  0.80977616143E+02  0.13164196543E+03  0.00000000000E+00 0. -1.
         22    1    3    3    0    0  0.25660773771E+02 -0.26625212390E+02  0.61921777390E+02  0.72122699342E+02  0.00000000000E+00 0. -1.
</event>
<event>
 7    1  0.5537228E-006  0.5381281E+02  0.7818608E-02  0.1510779E+00
          2   -1    0    0  502    0  0.00000000000E+00  0.00000000000E+00  0.92910140305E+02  0.92910140305E+02  0.00000000000E+00 0. -1.
          1   -1    0    0  501    0 -0.00000000000E+00 -0.00000000000E+00 -0.45665015182E+03  0.45665015182E+03  0.00000000000E+00 0. -1.
         25    2    1    2    0    0 -0.17641090938E+02 -0.55282211713E+02 -0.47366489547E+02  0.14572285840E+03  0.12499694439E+03 0.  0.
          2    1    1    2  501    0 -0.11465280133E+02  0.52715027681E+02 -0.35293516287E+03  0.35703439048E+03  0.00000000000E+00 0. -1.
          1    1    1    2  502    0  0.29106371071E+02  0.25671840314E+01  0.36561640909E+02  0.46803043243E+02  0.00000000000E+00 0. -1.
         22    1    3    3    0    0  0.76158727174E+01 -0.53090458331E+02 -0.84904429112E+02  0.10042589490E+03  0.00000000000E+00 0.  1.
         22    1    3    3    0    0 -0.25256963656E+02 -0.21917533812E+01  0.37537939564E+02  0.45296963504E+02  0.00000000000E+00 0.  1.
</event>
<event>
 7    1  0.5537228E-006  0.3317468E+02  0.7818608E-02  0.1592356E+00
          2   -1    0    0  502    0  0.00000000000E+00  0.00000000000E+00  0.55992618816E+03  0.55992618816E+03  0.00000000000E+00 0. -1.
          1   -1    0    0  501    0 -0.00000000000E+00 -0.00000000000E+00 -0.20436689665E+04  0.20436689665E+04  0.00000000000E+00 0. -1.
         25    2    1    2    0    0  0.53315251358E+02  0.18602845440E+02  0.36189474674E+03  0.38701612998E+03  0.12500038105E+03 0.  0.
          2    1    1    2  501    0 -0.22388207393E+02 -0.16960288960E+02 -0.20297175359E+04  0.20299118599E+04  0.00000000000E+00 0. -1.
          1    1    1    2  502    0 -0.30927043964E+02 -0.16425564798E+01  0.18408001082E+03  0.18666716483E+03  0.00000000000E+00 0. -1.
         22    1    3    3    0    0 -0.39858084836E+02  0.11869389783E+02  0.81989144742E+02  0.91933504209E+02  0.00000000000E+00 0.  1.
         22    1    3    3    0    0  0.93173336194E+02  0.67334556563E+01  0.27990560199E+03  0.29508262577E+03  0.00000000000E+00 0.  1.
</event>
<event>
 7    1  0.5537228E-006  0.7553402E+02  0.7818608E-02  0.1344072E+00
          2   -1    0    0  502    0  0.00000000000E+00  0.00000000000E+00  0.10410291688E+03  0.10410291688E+03  0.00000000000E+00 0. -1.
          1   -1    0    0  501    0 -0.00000000000E+00 -0.00000000000E+00 -0.25034458252E+03  0.25034458252E+03  0.00000000000E+00 0. -1.
         25    2    1    2    0    0  0.13795583638E+02  0.50367283190E+02 -0.50082892985E+02  0.14442884457E+03  0.12499685448E+03 0.  0.
          2    1    1    2  501    0  0.74233467587E+02 -0.13956395888E+02 -0.85618942892E+02  0.11417526912E+03  0.00000000000E+00 0. -1.
          1    1    1    2  502    0 -0.88029051225E+02 -0.36410887302E+02 -0.10539829758E+02  0.95843385714E+02  0.00000000000E+00 0. -1.
         22    1    3    3    0    0  0.12166308192E+02  0.11850705518E+02 -0.88434289064E+02  0.90050440079E+02  0.00000000000E+00 0. -1.
         22    1    3    3    0    0  0.16292754459E+01  0.38516577672E+02  0.38351396079E+02  0.54378404493E+02  0.00000000000E+00 0. -1.
</event>
<event>
 7    1  0.5537228E-006  0.1220307E+03  0.7818608E-02  0.1406270E+00
          2   -1    0    0  502    0  0.00000000000E+00  0.00000000000E+00  0.23053968696E+03  0.23053968696E+03  0.00000000000E+00 0. -1.
          1   -1    0    0  501    0 -0.00000000000E+00 -0.00000000000E+00 -0.69106203802E+03  0.69106203802E+03  0.00000000000E+00 0. -1.
         25    2    1    2    0    0 -0.13912429388E+03  0.36607822197E+02 -0.24121714827E+02  0.19210169912E+03  0.12500201553E+03 0.  0.
          2    1    1    2  501    0  0.27599068031E+02 -0.18972018032E+00 -0.55907488882E+03  0.55975572874E+03  0.00000000000E+00 0. -1.
          1    1    1    2  502    0  0.11152522585E+03 -0.36418102017E+02  0.12267425259E+03  0.16974429711E+03  0.00000000000E+00 0. -1.
         22    1    3    3    0    0 -0.12934545020E+03  0.74107618367E+02 -0.32213832428E+02  0.15251201785E+03  0.00000000000E+00 0. -1.
         22    1    3    3    0    0 -0.97788436745E+01 -0.37499796170E+02  0.80921176011E+01  0.39589681277E+02  0.00000000000E+00 0. -1.
</event>
<event>
 7    1  0.5537228E-006  0.9137886E+02  0.7818608E-02  0.1363298E+00
          2   -1    0    0  502    0  0.00000000000E+00  0.00000000000E+00  0.12382760903E+03  0.12382760903E+03  0.00000000000E+00 0. -1.
          1   -1    0    0  501    0 -0.00000000000E+00 -0.00000000000E+00 -0.22198714957E+04  0.22198714957E+04  0.00000000000E+00 0. -1.
         25    2    1    2    0    0  0.52438835093E+02  0.45175382634E+02 -0.11272039614E+03  0.18199138007E+03  0.12499731234E+03 0.  0.
          2    1    1    2  501    0 -0.22552707448E+02  0.47078665242E+02 -0.20457250756E+04  0.20463909965E+04  0.00000000000E+00 0. -1.
          1    1    1    2  502    0 -0.29886127644E+02 -0.92254047876E+02  0.62401585114E+02  0.11531672819E+03  0.00000000000E+00 0. -1.
         22    1    3    3    0    0  0.17664871593E+02  0.85156112645E+02 -0.87280401418E+02  0.12321314735E+03  0.00000000000E+00 0.  1.
         22    1    3    3    0    0  0.34773963500E+02 -0.39980730011E+02 -0.25439994727E+02  0.58778232718E+02  0.00000000000E+00 0.  1.
</event>
<event>
 7    1  0.5537228E-006  0.7464303E+02  0.7818608E-02  0.1372538E+00
          2   -1    0    0  502    0  0.00000000000E+00  0.00000000000E+00  0.14233865977E+04  0.14233865977E+04  0.00000000000E+00 0. -1.
          1   -1    0    0  501    0 -0.00000000000E+00 -0.00000000000E+00 -0.25512289675E+03  0.25512289675E+03  0.00000000000E+00 0. -1.
         25    2    1    2    0    0  0.73197538055E+02  0.95773888908E+02  0.50685790006E+03  0.53577833968E+03  0.12499192388E+03 0.  0.
          2    1    1    2  501    0 -0.13537657302E+02 -0.57616912470E+02 -0.23560697066E+03  0.24292719360E+03  0.00000000000E+00 0. -1.
          1    1    1    2  502    0 -0.59659880753E+02 -0.38156976437E+02  0.89701277159E+03  0.89980396121E+03  0.00000000000E+00 0. -1.
         22    1    3    3    0    0  0.27057210581E+02  0.11396059741E+03  0.41705633468E+03  0.43319175512E+03  0.00000000000E+00 0. -1.
         22    1    3    3    0    0  0.46140327474E+02 -0.18186708505E+02  0.89801565377E+02  0.10258658455E+03  0.00000000000E+00 0. -1.
</event>
<event>
 7    1  0.5537228E-006  0.8843750E+02  0.7818608E-02  0.1351178E+00
          2   -1    0    0  502    0  0.00000000000E+00  0.00000000000E+00  0.10424901716E+04  0.10424901716E+04  0.00000000000E+00 0. -1.
          1   -1    0    0  501    0 -0.00000000000E+00 -0.00000000000E+00 -0.51026404523E+03  0.51026404523E+03  0.00000000000E+00 0. -1.
         25    2    1    2    0    0  0.89078688449E+02  0.11449222468E+03  0.18395218652E+03  0.26553390029E+03  0.12500545199E+03 0.  0.
          2    1    1    2  501    0 -0.35687042894E+02 -0.47916873310E+02 -0.46533151970E+03  0.46915137750E+03  0.00000000000E+00 0. -1.
          1    1    1    2  502    0 -0.53391645554E+02 -0.66575351368E+02  0.81360545952E+03  0.81806893902E+03  0.00000000000E+00 0. -1.
         22    1    3    3    0    0  0.99546966892E+02  0.50447992130E+02  0.62698113443E+02  0.12800645279E+03  0.00000000000E+00 0.  1.
         22    1    3    3    0    0 -0.10468278444E+02  0.64044232548E+02  0.12125407308E+03  0.13752744749E+03  0.00000000000E+00 0.  1.
</event>
<event>
 7    1  0.5537228E-006  0.8672238E+02  0.7818608E-02  0.1321140E+00
          2   -1    0    0  502    0  0.00000000000E+00  0.00000000000E+00  0.65439303386E+03  0.65439303386E+03  0.00000000000E+00 0. -1.
          1   -1    0    0  501    0 -0.00000000000E+00 -0.00000000000E+00 -0.24992513438E+03  0.24992513438E+03  0.00000000000E+00 0. -1.
         25    2    1    2    0    0 -0.23465355420E+02 -0.26385972256E+02  0.46568981482E+02  0.13800499656E+03  0.12501946489E+03 0.  0.
          2    1    1    2  501    0 -0.20183856699E+02  0.92423534767E+02 -0.19025289613E+03  0.21247508639E+03  0.00000000000E+00 0. -1.
          1    1    1    2  502    0  0.43649212120E+02 -0.66037562511E+02  0.54815181414E+03  0.55383808529E+03  0.00000000000E+00 0. -1.
         22    1    3    3    0    0 -0.65452479392E+02 -0.23284196283E+02 -0.70552287230E+01  0.69828053871E+02  0.00000000000E+00 0. -1.
         22    1    3    3    0    0  0.41987123972E+02 -0.31017759730E+01  0.53624210205E+02  0.68176942684E+02  0.00000000000E+00 0. -1.
</event>
<event>
 7    1  0.5537228E-006  0.2657251E+03  0.7818608E-02  0.1170458E+00
          2   -1    0    0  502    0  0.00000000000E+00  0.00000000000E+00  0.14378936021E+04  0.14378936021E+04  0.00000000000E+00 0. -1.
          1   -1    0    0  501    0 -0.00000000000E+00 -0.00000000000E+00 -0.68327960352E+03  0.68327960352E+03  0.00000000000E+00 0. -1.
         25    2    1    2    0    0 -0.83592288284E+02 -0.36310858260E+03  0.22361660118E+03  0.45217853062E+03  0.12500210322E+03 0.  0.
          2    1    1    2  501    0  0.38756532872E+02  0.25365715730E+03 -0.53663593605E+03  0.59482951351E+03  0.00000000000E+00 0. -1.
          1    1    1    2  502    0  0.44835755413E+02  0.10945142530E+03  0.10676333334E+04  0.10741651615E+04  0.00000000000E+00 0. -1.
         22    1    3    3    0    0 -0.11411609343E+03 -0.25136022439E+03  0.14166939434E+03  0.31028158579E+03  0.00000000000E+00 0.  1.
         22    1    3    3    0    0  0.30523805151E+02 -0.11174835821E+03  0.81947206833E+02  0.14189694483E+03  0.00000000000E+00 0.  1.
</event>
<event>
 7    1  0.5537228E-006  0.5287586E+02  0.7818608E-02  0.1460787E+00
          2   -1    0    0  502    0  0.00000000000E+00  0.00000000000E+00  0.75356464018E+03  0.75356464018E+03  0.00000000000E+00 0. -1.
          1   -1    0    0  501    0 -0.00000000000E+00 -0.00000000000E+00 -0.25259192108E+03  0.25259192108E+03  0.00000000000E+00 0. -1.
         25    2    1    2    0    0 -0.36043374339E+02 -0.41751247356E+00  0.10891634488E+03  0.16966454094E+03  0.12499594841E+03 0.  0.
          2    1    1    2  501    0  0.33614520824E+02 -0.41728434610E+02 -0.21824786056E+03  0.22472945269E+03  0.00000000000E+00 0. -1.
          1    1    1    2  502    0  0.24288535151E+01  0.42145947084E+02  0.61030423477E+03  0.61176256764E+03  0.00000000000E+00 0. -1.
         22    1    3    3    0    0  0.41354458701E+02  0.22457174448E+02  0.56042333404E+02  0.73179635637E+02  0.00000000000E+00 0. -1.
         22    1    3    3    0    0 -0.77397833040E+02 -0.22874686921E+02  0.52874011477E+02  0.96484905300E+02  0.00000000000E+00 0. -1.
</event>
<event>
 7    1  0.5537228E-006  0.1094575E+03  0.7818608E-02  0.1411735E+00
          2   -1    0    0  502    0  0.00000000000E+00  0.00000000000E+00  0.19996565899E+02  0.19996565899E+02  0.00000000000E+00 0. -1.
          1   -1    0    0  501    0 -0.00000000000E+00 -0.00000000000E+00 -0.17005996988E+04  0.17005996988E+04  0.00000000000E+00 0. -1.
         25    2    1    2    0    0 -0.13347342996E+02 -0.85486652300E+02 -0.43515883283E+03  0.46095088335E+03  0.12500555102E+03 0.  0.
          2    1    1    2  501    0  0.28558097640E+02  0.11074357114E+03 -0.12002361953E+04  0.12056726869E+04  0.00000000000E+00 0. -1.
          1    1    1    2  502    0 -0.15210754645E+02 -0.25256918840E+02 -0.45208104761E+02  0.53972694413E+02  0.00000000000E+00 0. -1.
         22    1    3    3    0    0  0.24288237997E+02 -0.10507449516E+03 -0.34164365313E+03  0.35826101346E+03  0.00000000000E+00 0.  1.
         22    1    3    3    0    0 -0.37635580993E+02  0.19587842861E+02 -0.93515179696E+02  0.10268986989E+03  0.00000000000E+00 0.  1.
</event>
<event>
 7    1  0.5537228E-006  0.1397674E+03  0.7818608E-02  0.1392981E+00
          2   -1    0    0  502    0  0.00000000000E+00  0.00000000000E+00  0.19738699530E+03  0.19738699530E+03  0.00000000000E+00 0. -1.
          1   -1    0    0  501    0 -0.00000000000E+00 -0.00000000000E+00 -0.99571472292E+03  0.99571472292E+03  0.00000000000E+00 0. -1.
         25    2    1    2    0    0 -0.80499781245E+02 -0.11013061354E+03  0.81506841397E+02  0.20216953664E+03  0.12498075664E+03 0.  0.
          2    1    1    2  501    0  0.10268129752E+03  0.95138955900E+02 -0.92656316374E+03  0.93707746008E+03  0.00000000000E+00 0. -1.
          1    1    1    2  502    0 -0.22181516276E+02  0.14991657642E+02  0.46728594726E+02  0.53854721504E+02  0.00000000000E+00 0. -1.
         22    1    3    3    0    0 -0.19233769764E+02 -0.11444551463E+03  0.79592396172E+02  0.14072193592E+03  0.00000000000E+00 0. -1.
         22    1    3    3    0    0 -0.61266011482E+02  0.43149010920E+01  0.19144452253E+01  0.61447600725E+02  0.00000000000E+00 0. -1.
</event>
<event>
 7    1  0.5537228E-006  0.6805551E+02  0.7818608E-02  0.1387915E+00
          2   -1    0    0  502    0  0.00000000000E+00  0.00000000000E+00  0.41691689545E+03  0.41691689545E+03  0.00000000000E+00 0. -1.
          1   -1    0    0  501    0 -0.00000000000E+00 -0.00000000000E+00 -0.13781939537E+03  0.13781939537E+03  0.00000000000E+00 0. -1.
         25    2    1    2    0    0 -0.57875200440E+01 -0.55718156275E+02  0.15115264380E+02  0.13780923656E+03  0.12499962455E+03 0.  0.
          2    1    1    2  501    0 -0.51472992325E+02  0.54890799010E+02 -0.54770263465E+02  0.93071212063E+02  0.00000000000E+00 0. -1.
          1    1    1    2  502    0  0.57260512369E+02  0.82735726520E+00  0.31875249916E+03  0.32385584219E+03  0.00000000000E+00 0. -1.
         22    1    3    3    0    0  0.17246626182E+02 -0.68432750191E+02 -0.36812274640E+02  0.79596676925E+02  0.00000000000E+00 0. -1.
         22    1    3    3    0    0 -0.23034146227E+02  0.12714593915E+02  0.51927539020E+02  0.58212559637E+02  0.00000000000E+00 0. -1.
</event>
<event>
 7    1  0.5537228E-006  0.6866866E+02  0.7818608E-02  0.1450852E+00
          2   -1    0    0  502    0  0.00000000000E+00  0.00000000000E+00  0.62133321665E+03  0.62133321665E+03  0.00000000000E+00 0. -1.
          1   -1    0    0  501    0 -0.00000000000E+00 -0.00000000000E+00 -0.66041010771E+02  0.66041010771E+02  0.00000000000E+00 0. -1.
         25    2    1    2    0    0  0.91789562884E+02 -0.36949619515E+02  0.51615946010E+03  0.54021835767E+03  0.12499874989E+03 0.  0.
          2    1    1    2  501    0 -0.66115119502E+02  0.13229546213E+02 -0.26779111615E+02  0.72548954084E+02  0.00000000000E+00 0. -1.
          1    1    1    2  502    0 -0.25674443382E+02  0.23720073302E+02  0.65911857390E+02  0.74606915665E+02  0.00000000000E+00 0. -1.
         22    1    3    3    0    0  0.74880707884E+01  0.36022154203E+02  0.57985522590E+02  0.68673048771E+02  0.00000000000E+00 0. -1.
         22    1    3    3    0    0  0.84301492095E+02 -0.72971773719E+02  0.45817393751E+03  0.47154530890E+03  0.00000000000E+00 0. -1.
</event>
<event>
 7    1  0.5537228E-006  0.1329424E+03  0.7818608E-02  0.1427498E+00
          2   -1    0    0  502    0  0.00000000000E+00  0.00000000000E+00  0.74694533976E+03  0.74694533976E+03  0.00000000000E+00 0. -1.
          1   -1    0    0  501    0 -0.00000000000E+00 -0.00000000000E+00 -0.81829005879E+03  0.81829005879E+03  0.00000000000E+00 0. -1.
         25    2    1    2    0    0  0.15247541104E+02  0.14286214108E+03 -0.14233660696E+03  0.23775905591E+03  0.12501032006E+03 0.  0.
          2    1    1    2  501    0 -0.18883565381E+02 -0.10283784717E+02 -0.62176560071E+03  0.62213728991E+03  0.00000000000E+00 0. -1.
          1    1    1    2  502    0  0.36360242765E+01 -0.13257835637E+03  0.69275748864E+03  0.70533905273E+03  0.00000000000E+00 0. -1.
         22    1    3    3    0    0  0.64476272095E+02  0.88207924062E+02 -0.51256309081E+02  0.12068569406E+03  0.00000000000E+00 0.  1.
         22    1    3    3    0    0 -0.49228730991E+02  0.54654217021E+02 -0.91080297875E+02  0.11707336185E+03  0.00000000000E+00 0.  1.
</event>
<event>
 7    1  0.5537228E-006  0.7631728E+02  0.7818608E-02  0.1472797E+00
          2   -1    0    0  502    0  0.00000000000E+00  0.00000000000E+00  0.14423210619E+04  0.14423210619E+04  0.00000000000E+00 0. -1.
          1   -1    0    0  501    0 -0.00000000000E+00 -0.00000000000E+00 -0.32984586410E+03  0.32984586410E+03  0.00000000000E+00 0. -1.
         25    2    1    2    0    0 -0.18241660117E+02 -0.55588790723E+02 -0.51293752427E+02  0.14723521361E+03  0.12499714905E+03 0.  0.
          2    1    1    2  501    0  0.16782436365E+02 -0.20930213661E+02 -0.22874669963E+03  0.23031451671E+03  0.00000000000E+00 0. -1.
          1    1    1    2  502    0  0.14592237522E+01  0.76519004384E+02  0.13925156499E+04  0.13946171957E+04  0.00000000000E+00 0. -1.
         22    1    3    3    0    0  0.17685054456E+02  0.38136086692E+01 -0.72439464784E+02  0.74664454866E+02  0.00000000000E+00 0.  1.
         22    1    3    3    0    0 -0.35926714574E+02 -0.59402399392E+02  0.21145712357E+02  0.72570758744E+02  0.00000000000E+00 0.  1.
</event>
<event>
 7    1  0.5537228E-006  0.4874711E+02  0.7818608E-02  0.1458659E+00
          2   -1    0    0  502    0  0.00000000000E+00  0.00000000000E+00  0.19377424983E+03  0.19377424983E+03  0.00000000000E+00 0. -1.
          1   -1    0    0  501    0 -0.00000000000E+00 -0.00000000000E+00 -0.85982129839E+03  0.85982129839E+03  0.00000000000E+00 0. -1.
         25    2    1    2    0    0 -0.18041086218E+02 -0.26669572961E+01 -0.17622635816E+03  0.21682551534E+03  0.12499992536E+03 0.  0.
          2    1    1    2  501    0  0.13367034443E+02  0.48936616627E+02 -0.65918641347E+03  0.66113553660E+03  0.00000000000E+00 0. -1.
          1    1    1    2  502    0  0.46740517748E+01 -0.46269659331E+02  0.16936572306E+03  0.17563449628E+03  0.00000000000E+00 0. -1.
         22    1    3    3    0    0 -0.57997202531E+01 -0.62300870376E+02 -0.66268633759E+02  0.91140369897E+02  0.00000000000E+00 0.  1.
         22    1    3    3    0    0 -0.12241365965E+02  0.59633913080E+02 -0.10995772440E+03  0.12568514544E+03  0.00000000000E+00 0.  1.
</event>
<event>
 7    1  0.5537228E-006  0.5488382E+02  0.7818608E-02  0.1479365E+00
          2   -1    0    0  502    0  0.00000000000E+00  0.00000000000E+00  0.25542302098E+03  0.25542302098E+03  0.00000000000E+00 0. -1.
          1   -1    0    0  501    0 -0.00000000000E+00 -0.00000000000E+00 -0.10766895051E+03  0.10766895051E+03  0.00000000000E+00 0. -1.
         25    2    1    2    0    0 -0.64667609414E+02  0.36604484226E+02  0.15739302498E+03  0.21429184375E+03  0.12500656788E+03 0.  0.
          2    1    1    2  501    0  0.30098022230E+02 -0.45126281793E+02 -0.63951622886E+02  0.83857512009E+02  0.00000000000E+00 0. -1.
          1    1    1    2  502    0  0.34569587185E+02  0.85217975671E+01  0.54312668378E+02  0.64942615733E+02  0.00000000000E+00 0. -1.
         22    1    3    3    0    0 -0.84032669761E+02 -0.32792621282E+01  0.14604349605E+03  0.16852580184E+03  0.00000000000E+00 0. -1.
         22    1    3    3    0    0  0.19365060346E+02  0.39883746355E+02  0.11349528929E+02  0.45766041913E+02  0.00000000000E+00 0. -1.
</event>
<event>
 7    1  0.5537228E-006  0.4983403E+02  0.7818608E-02  0.1452504E+00
          2   -1    0    0  502    0  0.00000000000E+00  0.00000000000E+00  0.25743333992E+03  0.25743333992E+03  0.00000000000E+00 0. -1.
          1   -1    0    0  501    0 -0.00000000000E+00 -0.00000000000E+00 -0.47515727506E+03  0.47515727506E+03  0.00000000000E+00 0. -1.
         25    2    1    2    0    0 -0.22250438850E+02  0.32059340460E+02 -0.12614570241E+03  0.18182594769E+03  0.12500021471E+03 0.  0.
          2    1    1    2  501    0 -0.27722996234E+02 -0.38674166022E+02 -0.31660496240E+03  0.32016083123E+03  0.00000000000E+00 0. -1.
          1    1    1    2  502    0  0.49973435083E+02  0.66148255616E+01  0.22502672968E+03  0.23060383605E+03  0.00000000000E+00 0. -1.
         22    1    3    3    0    0  0.44371790675E+01  0.44121720924E+02 -0.14183201376E+03  0.14860260746E+03  0.00000000000E+00 0. -1.
         22    1    3    3    0    0 -0.26687617917E+02 -0.12062380464E+02  0.15686311352E+02  0.33223340235E+02  0.00000000000E+00 0. -1.
</event>
<event>
 7    1  0.5537228E-006  0.1474055E+03  0.7818608E-02  0.1359053E+00
          2   -1    0    0  502    0  0.00000000000E+00  0.00000000000E+00  0.27109457810E+04  0.27109457810E+04  0.00000000000E+00 0. -1.
          1   -1    0    0  501    0 -0.00000000000E+00 -0.00000000000E+00 -0.32543195435E+03  0.32543195435E+03  0.00000000000E+00 0. -1.
         25    2    1    2    0    0  0.71295603890E+02 -0.96776606508E+02  0.13131495004E+03  0.21751888485E+03  0.12498829729E+03 0.  0.
          2    1    1    2  501    0  0.31836787708E+02 -0.10532286627E+02 -0.27914237055E+03  0.28114937871E+03  0.00000000000E+00 0. -1.
          1    1    1    2  502    0 -0.10313239160E+03  0.10730889314E+03  0.25333412471E+04  0.25377094718E+04  0.00000000000E+00 0. -1.
         22    1    3    3    0    0 -0.93850970410E+01 -0.92038783901E+02  0.66919702322E+02  0.11418171634E+03  0.00000000000E+00 0.  1.
         22    1    3    3    0    0  0.80680700931E+02 -0.47378226067E+01  0.64395247718E+02  0.10333716850E+03  0.00000000000E+00 0.  1.
</event>
<event>
 7    1  0.1432890E-005  0.9882007E+02  0.7818608E-02  0.1283518E+00
          2   -1    0    0  502    0  0.00000000000E+00  0.00000000000E+00  0.10968099328E+04  0.10968099328E+04  0.00000000000E+00 0. -1.
          1   -1    0    0  501    0 -0.00000000000E+00 -0.00000000000E+00 -0.22228207510E+04  0.22228207510E+04  0.00000000000E+00 0. -1.
         25    2    1    2    0    0 -0.13116629855E+02 -0.76353474190E+02 -0.26183850881E+03  0.30030997750E+03  0.12499911556E+03 0.  0.
          2    1    1    2  501    0  0.95816687911E+02  0.21264630415E+02 -0.19382113339E+04  0.19406947717E+04  0.00000000000E+00 0. -1.
          1    1    1    2  502    0 -0.82700058055E+02  0.55088843775E+02  0.10740390246E+04  0.10786259345E+04  0.00000000000E+00 0. -1.
         22    1    3    3    0    0  0.50745264926E+02 -0.47395845541E+01 -0.97177515046E+02  0.10973155884E+03  0.00000000000E+00 0. -1.
         22    1    3    3    0    0 -0.63861894781E+02 -0.71613889636E+02 -0.16466099377E+03  0.19057841867E+03  0.00000000000E+00 0. -1.
</event>
<event>
 7    1  0.5537228E-006  0.6664971E+02  0.7818608E-02  0.1449223E+00
          2   -1    0    0  502    0  0.00000000000E+00  0.00000000000E+00  0.15909927813E+03  0.15909927813E+03  0.00000000000E+00 0. -1.
          1   -1    0    0  501    0 -0.00000000000E+00 -0.00000000000E+00 -0.99226204307E+03  0.99226204307E+03  0.00000000000E+00 0. -1.
         25    2    1    2    0    0  0.30266424340E+02  0.62127052900E+02 -0.33952423918E+03  0.36834476186E+03  0.12500130982E+03 0.  0.
          2    1    1    2  501    0  0.25779644774E+02 -0.25765599474E+02 -0.63006078001E+03  0.63111412812E+03  0.00000000000E+00 0. -1.
          1    1    1    2  502    0 -0.56046069114E+02 -0.36361453426E+02  0.13642225425E+03  0.15190243122E+03  0.00000000000E+00 0. -1.
         22    1    3    3    0    0 -0.37249110153E+02  0.40551818039E+02 -0.66842985317E+02  0.86602141079E+02  0.00000000000E+00 0. -1.
         22    1    3    3    0    0  0.67515534493E+02  0.21575234860E+02 -0.27268125386E+03  0.28174262078E+03  0.00000000000E+00 0. -1.
</event>
<event>
 7    1  0.5537228E-006  0.1612935E+03  0.7818608E-02  0.1216998E+00
          2   -1    0    0  502    0  0.00000000000E+00  0.00000000000E+00  0.16186421463E+04  0.16186421463E+04  0.00000000000E+00 0. -1.
          1   -1    0    0  501    0 -0.00000000000E+00 -0.00000000000E+00 -0.11490764058E+03  0.11490764058E+03  0.00000000000E+00 0. -1.
         25    2    1    2    0    0 -0.15954086287E+03 -0.18710329177E+03  0.61075771260E+03  0.67015647407E+03  0.12499514996E+03 0.  0.
          2    1    1    2  501    0  0.33383629444E+02  0.11202016172E+03 -0.36452315456E+02  0.12244082101E+03  0.00000000000E+00 0. -1.
          1    1    1    2  502    0  0.12615723343E+03  0.75083130041E+02  0.92942910859E+03  0.94095249182E+03  0.00000000000E+00 0. -1.
         22    1    3    3    0    0 -0.73711360543E+02 -0.18844492289E+02  0.10043042516E+03  0.12599503904E+03  0.00000000000E+00 0. -1.
         22    1    3    3    0    0 -0.85829502329E+02 -0.16825879948E+03  0.51032728744E+03  0.54416143503E+03  0.00000000000E+00 0. -1.
</event>
<event>
 7    1  0.5537228E-006  0.8257557E+02  0.7818608E-02  0.1399060E+00
          2   -1    0    0  502    0  0.00000000000E+00  0.00000000000E+00  0.60221078908E+03  0.60221078908E+03  0.00000000000E+00 0. -1.
          1   -1    0    0  501    0 -0.00000000000E+00 -0.00000000000E+00 -0.65003860769E+03  0.65003860769E+03  0.00000000000E+00 0. -1.
         25    2    1    2    0    0  0.32322958177E+02  0.26140179378E+02 -0.15050368895E+03  0.20000686272E+03  0.12499320840E+03 0.  0.
          2    1    1    2  501    0  0.41125750037E+02  0.13139123029E+02 -0.47078695313E+03  0.47276243411E+03  0.00000000000E+00 0. -1.
          1    1    1    2  502    0 -0.73448708214E+02 -0.39279302407E+02  0.57346282346E+03  0.57948009994E+03  0.00000000000E+00 0. -1.
         22    1    3    3    0    0  0.18631070411E+02 -0.43863581585E+02 -0.20830922435E+02  0.52010171156E+02  0.00000000000E+00 0. -1.
         22    1    3    3    0    0  0.13691887766E+02  0.70003760963E+02 -0.12967276651E+03  0.14799669156E+03  0.00000000000E+00 0. -1.
</event>
<event>
 7    1  0.5537228E-006  0.9881531E+02  0.7818608E-02  0.1311466E+00
          2   -1    0    0  502    0  0.00000000000E+00  0.00000000000E+00  0.23734086894E+04  0.23734086894E+04  0.00000000000E+00 0. -1.
          1   -1    0    0  501    0 -0.00000000000E+00 -0.00000000000E+00 -0.17351755683E+03  0.17351755683E+03  0.00000000000E+00 0. -1.
         25    2    1    2    0    0  0.15759172480E+03 -0.23474502639E+02  0.90467392342E+02  0.22180052990E+03  0.12499968795E+03 0.  0.
          2    1    1    2  501    0 -0.71882963794E+02 -0.23992354858E+02 -0.93314432125E+02  0.12020972015E+03  0.00000000000E+00 0. -1.
          1    1    1    2  502    0 -0.85708761002E+02  0.47466857498E+02  0.22027381723E+04  0.22049159961E+04  0.00000000000E+00 0. -1.
         22    1    3    3    0    0  0.98502593390E+02  0.42194820615E+02  0.20486023335E+02  0.10910014181E+03  0.00000000000E+00 0.  1.
         22    1    3    3    0    0  0.59089131405E+02 -0.65669323254E+02  0.69981369007E+02  0.11270038809E+03  0.00000000000E+00 0.  1.
</event>
<event>
 7    1  0.5537228E-006  0.9785330E+02  0.7818608E-02  0.1426799E+00
          2   -1    0    0  502    0  0.00000000000E+00  0.00000000000E+00  0.59194287872E+03  0.59194287872E+03  0.00000000000E+00 0. -1.
          1   -1    0    0  501    0 -0.00000000000E+00 -0.00000000000E+00 -0.36051195732E+03  0.36051195732E+03  0.00000000000E+00 0. -1.
         25    2    1    2    0    0  0.73737709285E+02  0.41915326874E+01  0.44112619570E+03  0.46440384160E+03  0.12499515526E+03 0.  0.
          2    1    1    2  501    0 -0.95207132182E+02 -0.24231088597E+02 -0.34029369733E+03  0.35419111242E+03  0.00000000000E+00 0. -1.
          1    1    1    2  502    0  0.21469422897E+02  0.20039555910E+02  0.13059842303E+03  0.13385988203E+03  0.00000000000E+00 0. -1.
         22    1    3    3    0    0 -0.34188357673E+02  0.81122072123E+01  0.77807223735E+02  0.85373390301E+02  0.00000000000E+00 0.  1.
         22    1    3    3    0    0  0.10792606696E+03 -0.39206745249E+01  0.36331897197E+03  0.37903045130E+03  0.00000000000E+00 0.  1.
</event>
<event>
 7    1  0.5537228E-006  0.1830100E+03  0.7818608E-02  0.1340556E+00
          2   -1    0    0  502    0  0.00000000000E+00  0.00000000000E+00  0.80446722060E+03  0.80446722060E+03  0.00000000000E+00 0. -1.
          1   -1    0    0  501    0 -0.00000000000E+00 -0.00000000000E+00 -0.20504242241E+03  0.20504242241E+03  0.00000000000E+00 0. -1.
         25    2    1    2    0    0  0.14956869958E+03 -0.14501679510E+03  0.16911996588E+03  0.29601528126E+03  0.12499126820E+03 0.  0.
          2    1    1    2  501    0 -0.26802345882E+02  0.16792564029E+02 -0.12581455152E+03  0.12972916914E+03  0.00000000000E+00 0. -1.
          1    1    1    2  502    0 -0.12276635370E+03  0.12822423107E+03  0.55611938383E+03  0.58376519261E+03  0.00000000000E+00 0. -1.
         22    1    3    3    0    0  0.12824221666E+03 -0.15406497758E+03  0.18091152481E+03  0.27002048674E+03  0.00000000000E+00 0. -1.
         22    1    3    3    0    0  0.21326482924E+02  0.90481824833E+01 -0.11791558933E+02  0.25994794521E+02  0.00000000000E+00 0. -1.
</event>
<event>
 7    1  0.5537228E-006  0.4978174E+02  0.7818608E-02  0.1553916E+00
          2   -1    0    0  502    0  0.00000000000E+00  0.00000000000E+00  0.23643969301E+04  0.23643969301E+04  0.00000000000E+00 0. -1.
          1   -1    0    0  501    0 -0.00000000000E+00 -0.00000000000E+00 -0.15857557532E+04  0.15857557532E+04  0.00000000000E+00 0. -1.
         25    2    1    2    0    0  0.61993376742E+02  0.15361047947E+02  0.21800334244E+03  0.25928646086E+03  0.12499948367E+03 0.  0.
          2    1    1    2  501    0 -0.20555914128E+02  0.11961405379E+02 -0.15647340864E+04  0.15649148162E+04  0.00000000000E+00 0. -1.
          1    1    1    2  502    0 -0.41437462614E+02 -0.27322453326E+02  0.21253719209E+04  0.21259514063E+04  0.00000000000E+00 0. -1.
         22    1    3    3    0    0  0.62347476881E+02 -0.16038411114E+02  0.34350596227E+02  0.72968499818E+02  0.00000000000E+00 0.  1.
         22    1    3    3    0    0 -0.35410013888E+00  0.31399459061E+02  0.18365274621E+03  0.18631796104E+03  0.00000000000E+00 0.  1.
</event>
<event>
 7    1  0.5537228E-006  0.6149789E+02  0.7818608E-02  0.1411809E+00
          2   -1    0    0  502    0  0.00000000000E+00  0.00000000000E+00  0.23234108733E+04  0.23234108733E+04  0.00000000000E+00 0. -1.
          1   -1    0    0  501    0 -0.00000000000E+00 -0.00000000000E+00 -0.91764177730E+02  0.91764177730E+02  0.00000000000E+00 0. -1.
         25    2    1    2    0    0  0.61729968308E+01  0.11156705948E+03  0.39163614889E+03  0.42601555997E+03  0.12500027828E+03 0.  0.
          2    1    1    2  501    0  0.39603035825E+01 -0.52296669261E+02 -0.64819944720E+02  0.83380158634E+02  0.00000000000E+00 0. -1.
          1    1    1    2  502    0 -0.10133300413E+02 -0.59270390216E+02  0.19048304914E+04  0.19057793324E+04  0.00000000000E+00 0. -1.
         22    1    3    3    0    0  0.36820698849E+02 -0.45429438482E+01  0.16934538703E+03  0.17336165179E+03  0.00000000000E+00 0. -1.
         22    1    3    3    0    0 -0.30647702018E+02  0.11611000333E+03  0.22229076186E+03  0.25265390818E+03  0.00000000000E+00 0. -1.
</event>
<event>
 7    1  0.5537228E-006  0.6768366E+02  0.7818608E-02  0.1438866E+00
          2   -1    0    0  502    0  0.00000000000E+00  0.00000000000E+00  0.85379517407E+02  0.85379517407E+02  0.00000000000E+00 0. -1.
          1   -1    0    0  501    0 -0.00000000000E+00 -0.00000000000E+00 -0.50073846620E+03  0.50073846620E+03  0.00000000000E+00 0. -1.
         25    2    1    2    0    0  0.95464855161E+02  0.25771438162E+02 -0.72748206979E+02  0.17517268753E+03  0.12496184714E+03 0.  0.
          2    1    1    2  501    0 -0.57337398745E+02 -0.32757616133E+02 -0.36174136397E+03  0.36771925857E+03  0.00000000000E+00 0. -1.
          1    1    1    2  502    0 -0.38127456416E+02  0.69861779706E+01  0.19130622158E+02  0.43226037519E+02  0.00000000000E+00 0. -1.
         22    1    3    3    0    0  0.35770061370E+02 -0.35544249944E+02 -0.74047855306E+02  0.89587810945E+02  0.00000000000E+00 0. -1.
         22    1    3    3    0    0  0.59694793791E+02  0.61315688106E+02  0.12996483262E+01  0.85584876581E+02  0.00000000000E+00 0. -1.
</event>
<event>
 7    1  0.5537228E-006  0.8066584E+02  0.7818608E-02  0.1379254E+00
          2   -1    0    0  502    0  0.00000000000E+00  0.00000000000E+00  0.12573543404E+03  0.12573543404E+03  0.00000000000E+00 0. -1.
          1   -1    0    0  501    0 -0.00000000000E+00 -0.00000000000E+00 -0.21102603520E+04  0.21102603520E+04  0.00000000000E+00 0. -1.
         25    2    1    2    0    0  0.73843840290E+02 -0.94134521464E+02 -0.34241170968E+03  0.38364629359E+03  0.12499791511E+03 0.  0.
          2    1    1    2  501    0 -0.66679353779E+02  0.42801623267E+02 -0.17398854634E+04  0.17416887038E+04  0.00000000000E+00 0. -1.
          1    1    1    2  502    0 -0.71644865108E+01  0.51332898197E+02  0.97772255042E+02  0.11066078872E+03  0.00000000000E+00 0. -1.
         22    1    3    3    0    0  0.55853518231E+02  0.14140289582E+02 -0.74925472565E+02  0.94516610854E+02  0.00000000000E+00 0. -1.
         22    1    3    3    0    0  0.17990322059E+02 -0.10827481105E+03 -0.26748623712E+03  0.28912968274E+03  0.00000000000E+00 0. -1.
</event>
<event>
 7    1  0.5537228E-006  0.4662956E+02  0.7818608E-02  0.1482363E+00
          2   -1    0    0  502    0  0.00000000000E+00  0.00000000000E+00  0.77344431958E+03  0.77344431958E+03  0.00000000000E+00 0. -1.
          1   -1    0    0  501    0 -0.00000000000E+00 -0.00000000000E+00 -0.75481874547E+02  0.75481874547E+02  0.00000000000E+00 0. -1.
         25    2    1    2    0    0 -0.55173313292E+01  0.68704943950E+01  0.59160100416E+02  0.13857443797E+03  0.12500125095E+03 0.  0.
          2    1    1    2  501    0  0.58515531185E+01  0.40610431445E+02 -0.22873159403E+02  0.46974772348E+02  0.00000000000E+00 0. -1.
          1    1    1    2  502    0 -0.33422178927E+00 -0.47480925840E+02  0.66167550402E+03  0.66337698380E+03  0.00000000000E+00 0. -1.
         22    1    3    3    0    0 -0.38437054695E+01 -0.12738390534E+02  0.95941077792E+02  0.96859336530E+02  0.00000000000E+00 0.  1.
         22    1    3    3    0    0 -0.16736258597E+01  0.19608884928E+02 -0.36780977376E+02  0.41715101443E+02  0.00000000000E+00 0.  1.
</event>
<event>
 7    1  0.5537228E-006  0.2030733E+03  0.7818608E-02  0.1299447E+00
          2   -1    0    0  502    0  0.00000000000E+00  0.00000000000E+00  0.32215747252E+04  0.32215747252E+04  0.00000000000E+00 0. -1.
          1   -1    0    0  501    0 -0.00000000000E+00 -0.00000000000E+00 -0.19587147499E+03  0.19587147499E+03  0.00000000000E+00 0. -1.
         25    2    1    2    0    0 -0.12395183569E+02 -0.20606253522E+03  0.38774547868E+03  0.45671440992E+03  0.12500434790E+03 0.  0.
          2    1    1    2  501    0 -0.39969037145E+02  0.98148009379E+01 -0.15501384812E+03  0.16038437379E+03  0.00000000000E+00 0. -1.
          1    1    1    2  502    0  0.52364220714E+02  0.19624773428E+03  0.27929716196E+04  0.28003474165E+04  0.00000000000E+00 0. -1.
         22    1    3    3    0    0  0.32617470472E+02 -0.17144479527E+03  0.34138906959E+03  0.38341063371E+03  0.00000000000E+00 0. -1.
         22    1    3    3    0    0 -0.45012654041E+02 -0.34617739947E+02  0.46356409091E+02  0.73303776211E+02  0.00000000000E+00 0. -1.
</event>
<event>
 7    1  0.5537228E-006  0.6155382E+02  0.7818608E-02  0.1455175E+00
          2   -1    0    0  502    0  0.00000000000E+00  0.00000000000E+00  0.11667333964E+04  0.11667333964E+04  0.00000000000E+00 0. -1.
          1   -1    0    0  501    0 -0.00000000000E+00 -0.00000000000E+00 -0.20578345115E+03  0.20578345115E+03  0.00000000000E+00 0. -1.
         25    2    1    2    0    0  0.71921242958E+02 -0.50450065510E+02  0.15510216604E+03  0.21771293218E+03  0.12499745850E+03 0.  0.
          2    1    1    2  501    0 -0.34143618328E+02  0.50500839255E+02 -0.16877631159E+03  0.17944794452E+03  0.00000000000E+00 0. -1.
          1    1    1    2  502    0 -0.37777624630E+02 -0.50773744808E-01  0.97462409076E+03  0.97535597081E+03  0.00000000000E+00 0. -1.
         22    1    3    3    0    0  0.10286356251E+02 -0.75164097333E+02  0.42418487093E+02  0.86918229964E+02  0.00000000000E+00 0.  1.
         22    1    3    3    0    0  0.61634886708E+02  0.24714031823E+02  0.11268367894E+03  0.13079470222E+03  0.00000000000E+00 0.  1.
</event>
<event>
 7    1  0.5537228E-006  0.2238141E+03  0.7818608E-02  0.1351855E+00
          2   -1    0    0  502    0  0.00000000000E+00  0.00000000000E+00  0.12013391679E+04  0.12013391679E+04  0.00000000000E+00 0. -1.
          1   -1    0    0  501    0 -0.00000000000E+00 -0.00000000000E+00 -0.27443879834E+03  0.27443879834E+03  0.00000000000E+00 0. -1.
         25    2    1    2    0    0 -0.26516372462E+02 -0.21695830367E+03  0.32519204016E+03  0.41127688646E+03  0.12499916328E+03 0.  0.
          2    1    1    2  501    0  0.49887748862E+02  0.21913233272E+03 -0.17660924192E+03  0.28582965392E+03  0.00000000000E+00 0. -1.
          1    1    1    2  502    0 -0.23371376400E+02 -0.21740290514E+01  0.77831757128E+03  0.77867142582E+03  0.00000000000E+00 0. -1.
         22    1    3    3    0    0 -0.51459714080E+02 -0.18149870080E+03  0.31430760156E+03  0.36657761656E+03  0.00000000000E+00 0. -1.
         22    1    3    3    0    0  0.24943341618E+02 -0.35459602863E+02  0.10884438599E+02  0.44699269903E+02  0.00000000000E+00 0. -1.
</event>
<event>
 7    1  0.5537228E-006  0.6416681E+02  0.7818608E-02  0.1393114E+00
          2   -1    0    0  502    0  0.00000000000E+00  0.00000000000E+00  0.48061912020E+03  0.48061912020E+03  0.00000000000E+00 0. -1.
          1   -1    0    0  501    0 -0.00000000000E+00 -0.00000000000E+00 -0.19272310149E+03  0.19272310149E+03  0.00000000000E+00 0. -1.
         25    2    1    2    0    0 -0.10130056636E+03  0.45186717005E+02  0.27090850683E+01  0.16713218611E+03  0.12498873691E+03 0.  0.
          2    1    1    2  501    0  0.43139973985E+02 -0.41897549488E+02 -0.99974773499E+02  0.11666797909E+03  0.00000000000E+00 0. -1.
          1    1    1    2  502    0  0.58160592373E+02 -0.32891675169E+01  0.38516170714E+03  0.38954205649E+03  0.00000000000E+00 0. -1.
         22    1    3    3    0    0 -0.87380945610E+02 -0.53827341484E+01  0.46206601659E+02  0.98992189185E+02  0.00000000000E+00 0.  1.
         22    1    3    3    0    0 -0.13919620748E+02  0.50569451153E+02 -0.43497516591E+02  0.68139996928E+02  0.00000000000E+00 0.  1.
</event>
<event>
 7    1  0.5537228E-006  0.8740374E+02  0.7818608E-02  0.1346298E+00
          2   -1    0    0  502    0  0.00000000000E+00  0.00000000000E+00  0.30708612066E+04  0.30708612066E+04  0.00000000000E+00 0. -1.
          1   -1    0    0  501    0 -0.00000000000E+00 -0.00000000000E+00 -0.19941038896E+02  0.19941038896E+02  0.00000000000E+00 0. -1.
         25    2    1    2    0    0  0.91871451688E+01 -0.43429695127E+02  0.66241369639E+03  0.67556451592E+03  0.12499987181E+03 0.  0.
          2    1    1    2  501    0  0.20556199814E+02  0.98998005750E+02  0.18497781563E+03  0.21080786221E+03  0.00000000000E+00 0. -1.
          1    1    1    2  502    0 -0.29743344983E+02 -0.55568310622E+02  0.22035286557E+04  0.22044298674E+04  0.00000000000E+00 0. -1.
         22    1    3    3    0    0 -0.14900977075E+02 -0.57079900659E+02  0.13381961556E+03  0.14624583305E+03  0.00000000000E+00 0. -1.
         22    1    3    3    0    0  0.24088122243E+02  0.13650205532E+02  0.52859408084E+03  0.52931868287E+03  0.00000000000E+00 0. -1.
</event>
<event>
 7    1  0.5537228E-006  0.5988896E+02  0.7818608E-02  0.1454075E+00
          2   -1    0    0  502    0  0.00000000000E+00  0.00000000000E+00  0.47499220301E+03  0.47499220301E+03  0.00000000000E+00 0. -1.
          1   -1    0    0  501    0 -0.00000000000E+00 -0.00000000000E+00 -0.18100232782E+03  0.18100232782E+03  0.00000000000E+00 0. -1.
         25    2    1    2    0    0 -0.31679671031E+02 -0.69323384106E+02  0.15010226059E+03  0.20969720055E+03  0.12503157260E+03 0.  0.
          2    1    1    2  501    0  0.48924552759E+02  0.34185495898E+02 -0.14393839531E+03  0.15582208327E+03  0.00000000000E+00 0. -1.
          1    1    1    2  502    0 -0.17244881728E+02  0.35137888209E+02  0.28782600992E+03  0.29047524700E+03  0.00000000000E+00 0. -1.
         22    1    3    3    0    0 -0.16083151525E+01  0.30384191833E+02  0.76046921684E+02  0.81907997709E+02  0.00000000000E+00 0.  1.
         22    1    3    3    0    0 -0.30071355878E+02 -0.99707575939E+02  0.74055338901E+02  0.12778920284E+03  0.00000000000E+00 0.  1.
</event>
<event>
 7    1  0.5537228E-006  0.1290518E+03  0.7818608E-02  0.1430907E+00
          2   -1    0    0  502    0  0.00000000000E+00  0.00000000000E+00  0.11452110828E+03  0.11452110828E+03  0.00000000000E+00 0. -1.
          1   -1    0    0  501    0 -0.00000000000E+00 -0.00000000000E+00 -0.55783658070E+03  0.55783658070E+03  0.00000000000E+00 0. -1.
         25    2    1    2    0    0 -0.99685982918E+02 -0.77261440464E+02 -0.98870708104E+02  0.20324339893E+03  0.12500334762E+03 0.  0.
          2    1    1    2  501    0 -0.15503622821E+02  0.15018026654E+02 -0.33729863412E+03  0.33798856789E+03  0.00000000000E+00 0. -1.
          1    1    1    2  502    0  0.11518960574E+03  0.62243413810E+02 -0.71461301930E+01  0.13112572215E+03  0.00000000000E+00 0. -1.
         22    1    3    3    0    0 -0.63650029059E+02 -0.27790694422E+02 -0.11987012513E+03  0.13853698349E+03  0.00000000000E+00 0. -1.
         22    1    3    3    0    0 -0.36035953860E+02 -0.49470746042E+02  0.20999417023E+02  0.64706415446E+02  0.00000000000E+00 0. -1.
</event>
<event>
 7    1  0.5537228E-006  0.6967699E+02  0.7818608E-02  0.1514901E+00
          2   -1    0    0  502    0  0.00000000000E+00  0.00000000000E+00  0.11046726790E+03  0.11046726790E+03  0.00000000000E+00 0. -1.
          1   -1    0    0  501    0 -0.00000000000E+00 -0.00000000000E+00 -0.19039108227E+04  0.19039108227E+04  0.00000000000E+00 0. -1.
         25    2    1    2    0    0  0.89936801843E+02  0.54600165569E+01 -0.45110095970E+03  0.47669191398E+03  0.12499865963E+03 0.  0.
          2    1    1    2  501    0 -0.21499473609E+02  0.44110815840E+01 -0.14276817816E+04  0.14278504665E+04  0.00000000000E+00 0. -1.
          1    1    1    2  502    0 -0.68437328233E+02 -0.98710981409E+01  0.85339186508E+02  0.10983571017E+03  0.00000000000E+00 0. -1.
         22    1    3    3    0    0  0.14975857644E+02  0.47271419501E+02 -0.68398028319E+02  0.84481676663E+02  0.00000000000E+00 0. -1.
         22    1    3    3    0    0  0.74960944199E+02 -0.41811402944E+02 -0.38270293138E+03  0.39221023732E+03  0.00000000000E+00 0. -1.
</event>
<event>
 7    1  0.5537228E-006  0.8022374E+02  0.7818608E-02  0.1401712E+00
          2   -1    0    0  502    0  0.00000000000E+00  0.00000000000E+00  0.65033293687E+03  0.65033293687E+03  0.00000000000E+00 0. -1.
          1   -1    0    0  501    0 -0.00000000000E+00 -0.00000000000E+00 -0.25188810006E+03  0.25188810006E+03  0.00000000000E+00 0. -1.
         25    2    1    2    0    0 -0.49731715744E+02 -0.10700782249E+03  0.94194605174E+02  0.19598265254E+03  0.12495062557E+03 0.  0.
          2    1    1    2  501    0  0.30085665177E+02  0.31440766948E+02 -0.19557175535E+03  0.20035463700E+03  0.00000000000E+00 0. -1.
          1    1    1    2  502    0  0.19646050567E+02  0.75567055538E+02  0.49982198699E+03  0.50588374738E+03  0.00000000000E+00 0. -1.
         22    1    3    3    0    0  0.32683891392E+00 -0.36748964540E+02  0.10291035722E+03  0.10927549973E+03  0.00000000000E+00 0.  1.
         22    1    3    3    0    0 -0.50058554658E+02 -0.70258857947E+02 -0.87157520495E+01  0.86707152809E+02  0.00000000000E+00 0.  1.
</event>
<event>
 7    1  0.5537228E-006  0.7175448E+02  0.7818608E-02  0.1375108E+00
          2   -1    0    0  502    0  0.00000000000E+00  0.00000000000E+00  0.25364475918E+03  0.25364475918E+03  0.00000000000E+00 0. -1.
          1   -1    0    0  501    0 -0.00000000000E+00 -0.00000000000E+00 -0.52661564680E+03  0.52661564680E+03  0.00000000000E+00 0. -1.
         25    2    1    2    0    0  0.66418040012E+02 -0.22065362032E+02 -0.48242193222E+03  0.50324333510E+03  0.12499878960E+03 0.  0.
          2    1    1    2  501    0 -0.63425230591E+02  0.82271008200E+02  0.70474579528E+02  0.12553065373E+03  0.00000000000E+00 0. -1.
          1    1    1    2  502    0 -0.29928094212E+01 -0.60205646168E+02  0.13897646507E+03  0.15148641715E+03  0.00000000000E+00 0. -1.
         22    1    3    3    0    0  0.42355109987E+02 -0.46148938126E+01 -0.35846227672E+02  0.55679481187E+02  0.00000000000E+00 0. -1.
         22    1    3    3    0    0  0.24062930025E+02 -0.17450468220E+02 -0.44657570455E+03  0.44756385392E+03  0.00000000000E+00 0. -1.
</event>
<event>
 7    1  0.5537228E-006  0.8561659E+02  0.7818608E-02  0.1455969E+00
          2   -1    0    0  502    0  0.00000000000E+00  0.00000000000E+00  0.88466199867E+03  0.88466199867E+03  0.00000000000E+00 0. -1.
          1   -1    0    0  501    0 -0.00000000000E+00 -0.00000000000E+00 -0.74488784693E+03  0.74488784693E+03  0.00000000000E+00 0. -1.
         25    2    1    2    0    0 -0.23653227604E+02 -0.80549992612E+02 -0.88028457447E+02  0.17441442197E+03  0.12499441901E+03 0.  0.
          2    1    1    2  501    0 -0.28014947549E+01  0.85962990425E+02 -0.61043428706E+03  0.61646370770E+03  0.00000000000E+00 0. -1.
          1    1    1    2  502    0  0.26454722359E+02 -0.54129978129E+01  0.83823689625E+03  0.83867171594E+03  0.00000000000E+00 0. -1.
         22    1    3    3    0    0 -0.54307164084E+02 -0.72710991099E+02 -0.10477591102E+03  0.13861510678E+03  0.00000000000E+00 0.  1.
         22    1    3    3    0    0  0.30653936480E+02 -0.78390015134E+01  0.16747453576E+02  0.35799315185E+02  0.00000000000E+00 0.  1.
</event>
<event>
 7    1  0.5537228E-006  0.8969031E+02  0.7818608E-02  0.1442014E+00
          2   -1    0    0  502    0  0.00000000000E+00  0.00000000000E+00  0.14366045281E+04  0.14366045281E+04  0.00000000000E+00 0. -1.
          1   -1    0    0  501    0 -0.00000000000E+00 -0.00000000000E+00 -0.34106838781E+03  0.34106838781E+03  0.00000000000E+00 0. -1.
         25    2    1    2    0    0 -0.82981824899E+02  0.81608474330E+02  0.89500294453E+03  0.91115380323E+03  0.12500022431E+03 0.  0.
          2    1    1    2  501    0  0.69498683737E+02 -0.56418097019E+02 -0.32658312256E+03  0.33862900740E+03  0.00000000000E+00 0. -1.
          1    1    1    2  502    0  0.13483141161E+02 -0.25190377311E+02  0.52711631837E+03  0.52789010532E+03  0.00000000000E+00 0. -1.
         22    1    3    3    0    0 -0.59608294154E+02 -0.16296799390E+02  0.21370092024E+03  0.22245632766E+03  0.00000000000E+00 0. -1.
         22    1    3    3    0    0 -0.23373530745E+02  0.97905273720E+02  0.68130202429E+03  0.68869747557E+03  0.00000000000E+00 0. -1.
</event>
<event>
 7    1  0.5537228E-006  0.6894962E+02  0.7818608E-02  0.1374453E+00
          2   -1    0    0  502    0  0.00000000000E+00  0.00000000000E+00  0.14077419449E+04  0.14077419449E+04  0.00000000000E+00 0. -1.
          1   -1    0    0  501    0 -0.00000000000E+00 -0.00000000000E+00 -0.12768662725E+04  0.12768662725E+04  0.00000000000E+00 0. -1.
         25    2    1    2    0    0  0.48690527893E+02  0.33148541281E+02  0.28499645069E+03  0.31672952369E+03  0.12500008392E+03 0.  0.
          2    1    1    2  501    0  0.17358794219E+02 -0.60634755245E+02 -0.12590535924E+04  0.12606323215E+04  0.00000000000E+00 0. -1.
          1    1    1    2  502    0 -0.66049322112E+02  0.27486213964E+02  0.11049328142E+04  0.11072463722E+04  0.00000000000E+00 0. -1.
         22    1    3    3    0    0 -0.82196036937E+01  0.69888547109E+02  0.15038702556E+03  0.16603682832E+03  0.00000000000E+00 0. -1.
         22    1    3    3    0    0  0.56910131587E+02 -0.36740005829E+02  0.13460942513E+03  0.15069269537E+03  0.00000000000E+00 0. -1.
</event>
<event>
 7    1  0.5537228E-006  0.5788356E+02  0.7818608E-02  0.1460270E+00
          2   -1    0    0  502    0  0.00000000000E+00  0.00000000000E+00  0.18029865914E+04  0.18029865914E+04  0.00000000000E+00 0. -1.
          1   -1    0    0  501    0 -0.00000000000E+00 -0.00000000000E+00 -0.46553529610E+03  0.46553529610E+03  0.00000000000E+00 0. -1.
         25    2    1    2    0    0 -0.77930417377E+01  0.89436426701E+02  0.50640203215E+03  0.52927223441E+03  0.12500589598E+03 0.  0.
          2    1    1    2  501    0 -0.12145018021E+02 -0.36754209086E+02 -0.45265652892E+03  0.45430860274E+03  0.00000000000E+00 0. -1.
          1    1    1    2  502    0  0.19938059758E+02 -0.52682217615E+02  0.12837057921E+04  0.12849410503E+04  0.00000000000E+00 0. -1.
         22    1    3    3    0    0  0.47884380447E+02  0.10387522290E+02  0.97818799167E+02  0.10940444223E+03  0.00000000000E+00 0.  1.
         22    1    3    3    0    0 -0.55677422185E+02  0.79048904411E+02  0.40858323299E+03  0.41986779218E+03  0.00000000000E+00 0.  1.
</event>
<event>
 7    1  0.5537228E-006  0.1032186E+03  0.7818608E-02  0.1278638E+00
          2   -1    0    0  502    0  0.00000000000E+00  0.00000000000E+00  0.10790503621E+04  0.10790503621E+04  0.00000000000E+00 0. -1.
          1   -1    0    0  501    0 -0.00000000000E+00 -0.00000000000E+00 -0.10014564123E+03  0.10014564123E+03  0.00000000000E+00 0. -1.
         25    2    1    2    0    0  0.48502118193E+01 -0.54255497257E+02  0.20640817865E+03  0.24737901798E+03  0.12499943514E+03 0.  0.
          2    1    1    2  501    0 -0.10628790764E+03  0.35164380120E+02 -0.35350635154E+02  0.11740238646E+03  0.00000000000E+00 0. -1.
          1    1    1    2  502    0  0.10143769582E+03  0.19091117138E+02  0.80784717736E+03  0.81441459887E+03  0.00000000000E+00 0. -1.
         22    1    3    3    0    0 -0.38650615473E+02 -0.19268212323E+01  0.10659802985E+02  0.40139931692E+02  0.00000000000E+00 0.  1.
         22    1    3    3    0    0  0.43500827293E+02 -0.52328676025E+02  0.19574837567E+03  0.20723908629E+03  0.00000000000E+00 0.  1.
</event>
<event>
 7    1  0.5537228E-006  0.5006318E+02  0.7818608E-02  0.1490678E+00
          2   -1    0    0  502    0  0.00000000000E+00  0.00000000000E+00  0.19218934657E+04  0.19218934657E+04  0.00000000000E+00 0. -1.
          1   -1    0    0  501    0 -0.00000000000E+00 -0.00000000000E+00 -0.57014557431E+02  0.57014557431E+02  0.00000000000E+00 0. -1.
         25    2    1    2    0    0 -0.79014863160E+02  0.41763697796E+00  0.31282124923E+03  0.34601773194E+03  0.12501045487E+03 0.  0.
          2    1    1    2  501    0  0.46346626223E+02 -0.15673736486E+02 -0.25328085947E+02  0.55092537747E+02  0.00000000000E+00 0. -1.
          1    1    1    2  502    0  0.32668236937E+02  0.15256099508E+02  0.15773857450E+04  0.15777977535E+04  0.00000000000E+00 0. -1.
         22    1    3    3    0    0 -0.84607629461E+02  0.12713683102E+02  0.31963549186E+03  0.33088810247E+03  0.00000000000E+00 0. -1.
         22    1    3    3    0    0  0.55927663011E+01 -0.12296046124E+02 -0.68142426320E+01  0.15129629468E+02  0.00000000000E+00 0. -1.
</event>
<event>
 7    1  0.5537228E-006  0.6204129E+02  0.7818608E-02  0.1475923E+00
          2   -1    0    0  502    0  0.00000000000E+00  0.00000000000E+00  0.88921706721E+03  0.88921706721E+03  0.00000000000E+00 0. -1.
          1   -1    0    0  501    0 -0.00000000000E+00 -0.00000000000E+00 -0.10033784212E+03  0.10033784212E+03  0.00000000000E+00 0. -1.
         25    2    1    2    0    0  0.26126692936E+02  0.42164446710E+02 -0.24207197082E+02  0.13664476903E+03  0.12500143944E+03 0.  0.
          2    1    1    2  501    0 -0.25206465206E+02  0.20156345308E+02 -0.48199212451E+01  0.32632434557E+02  0.00000000000E+00 0. -1.
          1    1    1    2  502    0 -0.92022772992E+00 -0.62320792017E+02  0.81790634342E+03  0.82027770574E+03  0.00000000000E+00 0. -1.
         22    1    3    3    0    0  0.12288716581E+02  0.19298452017E+02 -0.75454364373E+02  0.78846711462E+02  0.00000000000E+00 0. -1.
         22    1    3    3    0    0  0.13837976355E+02  0.22865994693E+02  0.51247167291E+02  0.57798057565E+02  0.00000000000E+00 0. -1.
</event>
<event>
 7    1  0.5537228E-006  0.1372042E+03  0.7818608E-02  0.1254805E+00
          2   -1    0    0  502    0  0.00000000000E+00  0.00000000000E+00  0.17406107941E+04  0.17406107941E+04  0.00000000000E+00 0. -1.
          1   -1    0    0  501    0 -0.00000000000E+00 -0.00000000000E+00 -0.24932922731E+04  0.24932922731E+04  0.00000000000E+00 0. -1.
         25    2    1    2    0    0  0.78291123867E+02  0.16509541014E+03 -0.10680328542E+03  0.24580175856E+03  0.12500227281E+03 0.  0.
          2    1    1    2  501    0 -0.11204810676E+03 -0.78062431053E+02 -0.23136712305E+04  0.23176977983E+04  0.00000000000E+00 0. -1.
          1    1    1    2  502    0  0.33756982891E+02 -0.87032979084E+02  0.16677930369E+04  0.16704035104E+04  0.00000000000E+00 0. -1.
         22    1    3    3    0    0  0.51208526087E+02  0.84543710504E+02  0.12174930608E+02  0.99590065093E+02  0.00000000000E+00 0. -1.
         22    1    3    3    0    0  0.27082597780E+02  0.80551699632E+02 -0.11897821603E+03  0.14621169346E+03  0.00000000000E+00 0. -1.
</event>
<event>
 7    1  0.5537228E-006  0.6255492E+02  0.7818608E-02  0.1484927E+00
          2   -1    0    0  502    0  0.00000000000E+00  0.00000000000E+00  0.14300130100E+03  0.14300130100E+03  0.00000000000E+00 0. -1.
          1   -1    0    0  501    0 -0.00000000000E+00 -0.00000000000E+00 -0.25884855626E+04  0.25884855626E+04  0.00000000000E+00 0. -1.
         25    2    1    2    0    0 -0.23280688730E+02 -0.85514824456E+02  0.22149499486E+00  0.15323290952E+03  0.12500199931E+03 0.  0.
          2    1    1    2  501    0  0.27925444926E+02  0.55837951679E+02 -0.25081677154E+04  0.25089445980E+04  0.00000000000E+00 0. -1.
          1    1    1    2  502    0 -0.46447561962E+01  0.29676872776E+02  0.62461958818E+02  0.69309356059E+02  0.00000000000E+00 0. -1.
         22    1    3    3    0    0 -0.26573306782E+02  0.25022713693E+02  0.18862661204E+02  0.41086212062E+02  0.00000000000E+00 0.  1.
         22    1    3    3    0    0  0.32926180523E+01 -0.11053753815E+03 -0.18641166210E+02  0.11214669746E+03  0.00000000000E+00 0.  1.
</event>
<event>
 7    1  0.5537228E-006  0.1085103E+03  0.7818608E-02  0.1335297E+00
          2   -1    0    0  502    0  0.00000000000E+00  0.00000000000E+00  0.15812746786E+04  0.15812746786E+04  0.00000000000E+00 0. -1.
          1   -1    0    0  501    0 -0.00000000000E+00 -0.00000000000E+00 -0.24608535659E+03  0.24608535659E+03  0.00000000000E+00 0. -1.
         25    2    1    2    0    0 -0.33988677310E+02  0.58676447427E+02  0.31697831031E+03  0.34741691155E+03  0.12500042222E+03 0.  0.
          2    1    1    2  501    0 -0.52460356975E+02  0.19125071437E+02 -0.22473489372E+03  0.23156776517E+03  0.00000000000E+00 0. -1.
          1    1    1    2  502    0  0.86449034285E+02 -0.77801518864E+02  0.12429459054E+04  0.12483753585E+04  0.00000000000E+00 0. -1.
         22    1    3    3    0    0 -0.63537118841E+02  0.58777768139E+02  0.11846530449E+03  0.14671680158E+03  0.00000000000E+00 0. -1.
         22    1    3    3    0    0  0.29548441531E+02 -0.10132071172E+00  0.19851300581E+03  0.20070010996E+03  0.00000000000E+00 0. -1.
</event>
<event>
 7    1  0.5537228E-006  0.4997527E+02  0.7818608E-02  0.1492637E+00
          2   -1    0    0  502    0  0.00000000000E+00  0.00000000000E+00  0.10340690661E+04  0.10340690661E+04  0.00000000000E+00 0. -1.
          1   -1    0    0  501    0 -0.00000000000E+00 -0.00000000000E+00 -0.47493875901E+03  0.47493875901E+03  0.00000000000E+00 0. -1.
         25    2    1    2    0    0  0.57905111414E+02 -0.30563182954E+02  0.34254426261E+03  0.37046380435E+03  0.12497899185E+03 0.  0.
          2    1    1    2  501    0 -0.49784390488E+02 -0.41288972990E+01 -0.45915488233E+03  0.46186441658E+03  0.00000000000E+00 0. -1.
          1    1    1    2  502    0 -0.81207209269E+01  0.34692080253E+02  0.67574092682E+03  0.67667960419E+03  0.00000000000E+00 0. -1.
         22    1    3    3    0    0  0.33162967198E+02  0.44715447773E+02  0.90454094914E+02  0.10621297920E+03  0.00000000000E+00 0. -1.
         22    1    3    3    0    0  0.24742144216E+02 -0.75278630728E+02  0.25209016770E+03  0.26425082515E+03  0.00000000000E+00 0. -1.
</event>
<event>
 7    1  0.5537228E-006  0.7369348E+02  0.7818608E-02  0.1470209E+00
          2   -1    0    0  502    0  0.00000000000E+00  0.00000000000E+00  0.15198944275E+03  0.15198944275E+03  0.00000000000E+00 0. -1.
          1   -1    0    0  501    0 -0.00000000000E+00 -0.00000000000E+00 -0.10042022009E+04  0.10042022009E+04  0.00000000000E+00 0. -1.
         25    2    1    2    0    0 -0.71968955906E+02 -0.25841876787E+02 -0.63251689091E+03  0.64926986927E+03  0.12500565043E+03 0.  0.
          2    1    1    2  501    0  0.74067920838E+02 -0.23817823229E+01 -0.35808272322E+03  0.36567057094E+03  0.00000000000E+00 0. -1.
          1    1    1    2  502    0 -0.20989649323E+01  0.28223659110E+02  0.13838685594E+03  0.14125120348E+03  0.00000000000E+00 0. -1.
         22    1    3    3    0    0 -0.57057587254E+02  0.66857432780E+01 -0.59371349459E+03  0.59648636286E+03  0.00000000000E+00 0.  1.
         22    1    3    3    0    0 -0.14911368652E+02 -0.32527620065E+02 -0.38803396327E+02  0.52783506407E+02  0.00000000000E+00 0.  1.
</event>
<event>
 7    1  0.5537228E-006  0.8507808E+02  0.7818608E-02  0.1431912E+00
          2   -1    0    0  502    0  0.00000000000E+00  0.00000000000E+00  0.34850447620E+02  0.34850447620E+02  0.00000000000E+00 0. -1.
          1   -1    0    0  501    0 -0.00000000000E+00 -0.00000000000E+00 -0.16531710263E+04  0.16531710263E+04  0.00000000000E+00 0. -1.
         25    2    1    2    0    0 -0.51023072000E+02  0.62837018416E+02 -0.14792740953E+04  0.14867515387E+04  0.12500577572E+03 0.  0.
          2    1    1    2  501    0  0.76846696645E+02 -0.82558593371E+02 -0.10303894071E+03  0.15276897404E+03  0.00000000000E+00 0. -1.
          1    1    1    2  502    0 -0.25823624645E+02  0.19721574955E+02 -0.36007542627E+02  0.48500961171E+02  0.00000000000E+00 0. -1.
         22    1    3    3    0    0  0.14453375237E+02 -0.25601985082E+02 -0.14517763006E+03  0.14812462984E+03  0.00000000000E+00 0. -1.
         22    1    3    3    0    0 -0.65476447237E+02  0.88439003498E+02 -0.13340964653E+04  0.13386269089E+04  0.00000000000E+00 0. -1.
</event>
<event>
 7    1  0.5537228E-006  0.8834450E+02  0.7818608E-02  0.1405355E+00
          2   -1    0    0  502    0  0.00000000000E+00  0.00000000000E+00  0.35310225399E+03  0.35310225399E+03  0.00000000000E+00 0. -1.
          1   -1    0    0  501    0 -0.00000000000E+00 -0.00000000000E+00 -0.55254964779E+03  0.55254964779E+03  0.00000000000E+00 0. -1.
         25    2    1    2    0    0  0.88641722870E+02 -0.25249237778E+02  0.62809472202E+01  0.15543461058E+03  0.12500235528E+03 0.  0.
          2    1    1    2  501    0 -0.87570014732E+02 -0.13134270178E+02 -0.47248506483E+03  0.48071109101E+03  0.00000000000E+00 0. -1.
          1    1    1    2  502    0 -0.10717081387E+01  0.38383507956E+02  0.26675672381E+03  0.26950620019E+03  0.00000000000E+00 0. -1.
         22    1    3    3    0    0  0.20212002943E+02  0.49098214030E+02  0.11221132304E+02  0.54268531343E+02  0.00000000000E+00 0. -1.
         22    1    3    3    0    0  0.68429719928E+02 -0.74347451808E+02 -0.49401850840E+01  0.10116607924E+03  0.00000000000E+00 0. -1.
</event>
<event>
 7    1  0.5537228E-006  0.2322924E+03  0.7818608E-02  0.1240326E+00
          2   -1    0    0  502    0  0.00000000000E+00  0.00000000000E+00  0.22602765729E+04  0.22602765729E+04  0.00000000000E+00 0. -1.
          1   -1    0    0  501    0 -0.00000000000E+00 -0.00000000000E+00 -0.99328405144E+02  0.99328405144E+02  0.00000000000E+00 0. -1.
         25    2    1    2    0    0  0.31494347005E+02 -0.19968116510E+03  0.12835834482E+04  0.13054025965E+04  0.12500003569E+03 0.  0.
          2    1    1    2  501    0 -0.92605714000E+02  0.21785060410E+03  0.73573415310E+02  0.24788656965E+03  0.00000000000E+00 0. -1.
          1    1    1    2  502    0  0.61111366995E+02 -0.18169439010E+02  0.80379130432E+03  0.80631581194E+03  0.00000000000E+00 0. -1.
         22    1    3    3    0    0 -0.37152323051E+02 -0.13291186416E+03  0.63802450374E+03  0.65277953868E+03  0.00000000000E+00 0. -1.
         22    1    3    3    0    0  0.68646670055E+02 -0.66769300937E+02  0.64555894441E+03  0.65262305780E+03  0.00000000000E+00 0. -1.
</event>
<event>
 7    1  0.5537228E-006  0.1959485E+03  0.7818608E-02  0.1283039E+00
          2   -1    0    0  502    0  0.00000000000E+00  0.00000000000E+00  0.20606815708E+04  0.20606815708E+04  0.00000000000E+00 0. -1.
          1   -1    0    0  501    0 -0.00000000000E+00 -0.00000000000E+00 -0.80302376064E+03  0.80302376064E+03  0.00000000000E+00 0. -1.
         25    2    1    2    0    0 -0.18615247509E+03  0.15299059156E+03  0.20643205229E+03  0.34102701628E+03  0.12500547400E+03 0.  0.
          2    1    1    2  501    0  0.43968457599E+02 -0.23217984874E+02 -0.72969335204E+03  0.73138545795E+03  0.00000000000E+00 0. -1.
          1    1    1    2  502    0  0.14218401749E+03 -0.12977260668E+03  0.17809191099E+04  0.17912928572E+04  0.00000000000E+00 0. -1.
         22    1    3    3    0    0 -0.67707415624E+02  0.92894773882E+02  0.16651714787E+03  0.20234053889E+03  0.00000000000E+00 0. -1.
         22    1    3    3    0    0 -0.11844505947E+03  0.60095817675E+02  0.39914904418E+02  0.13868647738E+03  0.00000000000E+00 0. -1.
</event>
<event>
 7    1  0.5537228E-006  0.1473347E+03  0.7818608E-02  0.1247778E+00
          2   -1    0    0  502    0  0.00000000000E+00  0.00000000000E+00  0.50853209884E+03  0.50853209884E+03  0.00000000000E+00 0. -1.
          1   -1    0    0  501    0 -0.00000000000E+00 -0.00000000000E+00 -0.34738172662E+03  0.34738172662E+03  0.00000000000E+00 0. -1.
         25    2    1    2    0    0  0.14439410433E+03 -0.10270424761E+03  0.98527073454E+02  0.23818242147E+03  0.12500184740E+03 0.  0.
          2    1    1    2  501    0 -0.56946081416E+02  0.13505291232E+03 -0.25093510481E+03  0.29060380614E+03  0.00000000000E+00 0. -1.
          1    1    1    2  502    0 -0.87448022915E+02 -0.32348664713E+02  0.31355840358E+03  0.32712759785E+03  0.00000000000E+00 0. -1.
         22    1    3    3    0    0  0.90438801726E+02 -0.85500554892E+02  0.12435728130E+03  0.17593821403E+03  0.00000000000E+00 0.  1.
         22    1    3    3    0    0  0.53955302605E+02 -0.17203692719E+02 -0.25830207849E+02  0.62244207440E+02  0.00000000000E+00 0.  1.
</event>
<event>
 7    1  0.5537228E-006  0.7459690E+02  0.7818608E-02  0.1360504E+00
          2   -1    0    0  502    0  0.00000000000E+00  0.00000000000E+00  0.75452676128E+03  0.75452676128E+03  0.00000000000E+00 0. -1.
          1   -1    0    0  501    0 -0.00000000000E+00 -0.00000000000E+00 -0.18752293829E+03  0.18752293829E+03  0.00000000000E+00 0. -1.
         25    2    1    2    0    0 -0.34377232739E+02 -0.43253617423E+02  0.15728331470E+03  0.20834519387E+03  0.12496803262E+03 0.  0.
          2    1    1    2  501    0  0.56759444812E+02 -0.32610025082E+02 -0.15249563500E+03  0.16595170082E+03  0.00000000000E+00 0. -1.
          1    1    1    2  502    0 -0.22382212073E+02  0.75863642505E+02  0.56221614328E+03  0.56775280487E+03  0.00000000000E+00 0. -1.
         22    1    3    3    0    0  0.33338215630E+02 -0.40952290557E+02  0.11978015599E+03  0.13090382918E+03  0.00000000000E+00 0.  1.
         22    1    3    3    0    0 -0.67715448368E+02 -0.23013268664E+01  0.37503158707E+02  0.77441364697E+02  0.00000000000E+00 0.  1.
</event>
<event>
 7    1  0.5537228E-006  0.1871292E+03  0.7818608E-02  0.1215475E+00
          2   -1    0    0  502    0  0.00000000000E+00  0.00000000000E+00  0.60085448799E+03  0.60085448799E+03  0.00000000000E+00 0. -1.
          1   -1    0    0  501    0 -0.00000000000E+00 -0.00000000000E+00 -0.93231356170E+03  0.93231356170E+03  0.00000000000E+00 0. -1.
         25    2    1    2    0    0 -0.20386354674E+03  0.70629794229E+02 -0.11048836164E+03  0.27275151542E+03  0.12504718145E+03 0.  0.
          2    1    1    2  501    0  0.18380831508E+03  0.29772076534E+02 -0.72374957441E+03  0.74731875374E+03  0.00000000000E+00 0. -1.
          1    1    1    2  502    0  0.20055231656E+02 -0.10040187076E+03  0.50277886234E+03  0.51309778053E+03  0.00000000000E+00 0. -1.
         22    1    3    3    0    0 -0.64561136591E+02 -0.16845229021E+02 -0.82159105144E+02  0.10583959872E+03  0.00000000000E+00 0. -1.
         22    1    3    3    0    0 -0.13930241015E+03  0.87475023250E+02 -0.28329256492E+02  0.16691191671E+03  0.00000000000E+00 0. -1.
</event>
<event>
 7    1  0.5537228E-006  0.7114997E+02  0.7818608E-02  0.1417344E+00
          2   -1    0    0  502    0  0.00000000000E+00  0.00000000000E+00  0.11194614259E+04  0.11194614259E+04  0.00000000000E+00 0. -1.
          1   -1    0    0  501    0 -0.00000000000E+00 -0.00000000000E+00 -0.96062644079E+03  0.96062644079E+03  0.00000000000E+00 0. -1.
         25    2    1    2    0    0 -0.55894793183E+01 -0.60145937655E+02  0.15340379707E+03  0.20689577106E+03  0.12499743611E+03 0.  0.
          2    1    1    2  501    0 -0.42934308897E+02  0.65297960041E+01 -0.93198229265E+03  0.93299356210E+03  0.00000000000E+00 0. -1.
          1    1    1    2  502    0  0.48523788215E+02  0.53616141651E+02  0.93741348071E+03  0.94019853355E+03  0.00000000000E+00 0. -1.
         22    1    3    3    0    0 -0.55775903616E+02 -0.66480564445E+02  0.82022996804E+02  0.11940849584E+03  0.00000000000E+00 0. -1.
         22    1    3    3    0    0  0.50186424298E+02  0.63346267899E+01  0.71380800266E+02  0.87487275229E+02  0.00000000000E+00 0. -1.
</event>
<event>
 7    1  0.5537228E-006  0.9279255E+02  0.7818608E-02  0.1306938E+00
          2   -1    0    0  502    0  0.00000000000E+00  0.00000000000E+00  0.48662391442E+03  0.48662391442E+03  0.00000000000E+00 0. -1.
          1   -1    0    0  501    0 -0.00000000000E+00 -0.00000000000E+00 -0.28224865500E+03  0.28224865500E+03  0.00000000000E+00 0. -1.
         25    2    1    2    0    0  0.22674241665E+02  0.13570299769E+03  0.28489623125E+03  0.34017491170E+03  0.12499473251E+03 0.  0.
          2    1    1    2  501    0 -0.66519611603E+02 -0.63949551914E+02 -0.23519248522E+03  0.25264581735E+03  0.00000000000E+00 0. -1.
          1    1    1    2  502    0  0.43845369938E+02 -0.71753445771E+02  0.15467151340E+03  0.17605184038E+03  0.00000000000E+00 0. -1.
         22    1    3    3    0    0  0.64635633099E+02  0.59002050300E+02  0.85021069872E+02  0.12201470947E+03  0.00000000000E+00 0. -1.
         22    1    3    3    0    0 -0.41961391434E+02  0.76700947386E+02  0.19987516138E+03  0.21816020223E+03  0.00000000000E+00 0. -1.
</event>
<event>
 7    1  0.5537228E-006  0.6443133E+02  0.7818608E-02  0.1492875E+00
          2   -1    0    0  502    0  0.00000000000E+00  0.00000000000E+00  0.16302313368E+04  0.16302313368E+04  0.00000000000E+00 0. -1.
          1   -1    0    0  501    0 -0.00000000000E+00 -0.00000000000E+00 -0.45528534316E+03  0.45528534316E+03  0.00000000000E+00 0. -1.
         25    2    1    2    0    0  0.76184758522E+02 -0.49393995349E+02  0.55235787137E+02  0.16407727826E+03  0.12500590728E+03 0.  0.
          2    1    1    2  501    0 -0.50746215774E+02  0.38711905937E+02 -0.39819781163E+03  0.40328065571E+03  0.00000000000E+00 0. -1.
          1    1    1    2  502    0 -0.25438542749E+02  0.10682089412E+02  0.15179080182E+04  0.15181587460E+04  0.00000000000E+00 0. -1.
         22    1    3    3    0    0  0.10649419525E+02 -0.15843475595E+00  0.78223535490E+02  0.78945276885E+02  0.00000000000E+00 0. -1.
         22    1    3    3    0    0  0.65535338998E+02 -0.49235560593E+02 -0.22987748353E+02  0.85132001379E+02  0.00000000000E+00 0. -1.
</event>
<event>
 7    1  0.5537228E-006  0.7282482E+02  0.7818608E-02  0.1441751E+00
          2   -1    0    0  502    0  0.00000000000E+00  0.00000000000E+00  0.96946884892E+03  0.96946884892E+03  0.00000000000E+00 0. -1.
          1   -1    0    0  501    0 -0.00000000000E+00 -0.00000000000E+00 -0.10562293044E+03  0.10562293044E+03  0.00000000000E+00 0. -1.
         25    2    1    2    0    0 -0.39371142226E+02 -0.28974569007E+02  0.80773626709E+03  0.81881147605E+03  0.12499897460E+03 0.  0.
          2    1    1    2  501    0  0.71747990247E+02  0.15015454636E+02 -0.84183348384E+02  0.11162470214E+03  0.00000000000E+00 0. -1.
          1    1    1    2  502    0 -0.32376848020E+02  0.13959114370E+02  0.14029299977E+03  0.14465560116E+03  0.00000000000E+00 0. -1.
         22    1    3    3    0    0  0.44281339019E+00 -0.71811233985E+02  0.54058365664E+03  0.54533268675E+03  0.00000000000E+00 0.  1.
         22    1    3    3    0    0 -0.39813955617E+02  0.42836664978E+02  0.26715261045E+03  0.27347878930E+03  0.00000000000E+00 0.  1.
</event>
<event>
 7    1  0.5537228E-006  0.1552062E+03  0.7818608E-02  0.1239909E+00
          2   -1    0    0  502    0  0.00000000000E+00  0.00000000000E+00  0.10980562900E+04  0.10980562900E+04  0.00000000000E+00 0. -1.
          1   -1    0    0  501    0 -0.00000000000E+00 -0.00000000000E+00 -0.18556741331E+03  0.18556741331E+03  0.00000000000E+00 0. -1.
         25    2    1    2    0    0  0.10664147363E+03  0.19885014207E+03  0.58409559270E+03  0.63851922407E+03  0.12500142078E+03 0.  0.
          2    1    1    2  501    0 -0.57444674465E+02 -0.76697135796E+02 -0.13376758074E+03  0.16454819027E+03  0.00000000000E+00 0. -1.
          1    1    1    2  502    0 -0.49196799167E+02 -0.12215300628E+03  0.46216086475E+03  0.48055628900E+03  0.00000000000E+00 0. -1.
         22    1    3    3    0    0  0.19407558165E+02 -0.11744436862E+02  0.20511976037E+02  0.30583104356E+02  0.00000000000E+00 0.  1.
         22    1    3    3    0    0  0.87233915467E+02  0.21059457893E+03  0.56358361666E+03  0.60793611972E+03  0.00000000000E+00 0.  1.
</event>
<event>
 7    1  0.5537228E-006  0.7596488E+02  0.7818608E-02  0.1398004E+00
          2   -1    0    0  502    0  0.00000000000E+00  0.00000000000E+00  0.24672229057E+03  0.24672229057E+03  0.00000000000E+00 0. -1.
          1   -1    0    0  501    0 -0.00000000000E+00 -0.00000000000E+00 -0.81998037378E+03  0.81998037378E+03  0.00000000000E+00 0. -1.
         25    2    1    2    0    0 -0.41089681406E+02 -0.78097910550E+02 -0.40289546820E+02  0.15822889935E+03  0.12500196580E+03 0.  0.
          2    1    1    2  501    0  0.65924234297E+02  0.37811864213E+02 -0.71569469734E+03  0.71971844602E+03  0.00000000000E+00 0. -1.
          1    1    1    2  502    0 -0.24834552891E+02  0.40286046337E+02  0.18272616095E+03  0.18875531898E+03  0.00000000000E+00 0. -1.
         22    1    3    3    0    0 -0.45795445366E+02 -0.89315448077E+02 -0.72487278882E+02  0.12380984485E+03  0.00000000000E+00 0.  1.
         22    1    3    3    0    0  0.47057639605E+01  0.11217537526E+02  0.32197732062E+02  0.34419054498E+02  0.00000000000E+00 0.  1.
</event>
<event>
 7    1  0.5537228E-006  0.2958799E+02  0.7818608E-02  0.1660012E+00
          2   -1    0    0  502    0  0.00000000000E+00  0.00000000000E+00  0.39517215663E+04  0.39517215663E+04  0.00000000000E+00 0. -1.
          1   -1    0    0  501    0 -0.00000000000E+00 -0.00000000000E+00 -0.79290192736E+02  0.79290192736E+02  0.00000000000E+00 0. -1.
         25    2    1    2    0    0  0.15886771967E+02  0.37222905338E+02  0.34528398916E+04  0.34553387691E+04  0.12499903207E+03 0.  0.
          2    1    1    2  501    0  0.38342052043E+01 -0.29334183276E+02 -0.75000956914E+02  0.80624679696E+02  0.00000000000E+00 0. -1.
          1    1    1    2  502    0 -0.19720977171E+02 -0.78887220624E+01  0.49459243881E+03  0.49504831018E+03  0.00000000000E+00 0. -1.
         22    1    3    3    0    0 -0.39469384430E+02  0.43712195965E+02  0.91858700042E+03  0.92047306627E+03  0.00000000000E+00 0.  1.
         22    1    3    3    0    0  0.55356156397E+02 -0.64892906267E+01  0.25342528912E+04  0.25348657029E+04  0.00000000000E+00 0.  1.
</event>
<event>
 7    1  0.5537228E-006  0.3000372E+03  0.7818608E-02  0.1273314E+00
          2   -1    0    0  502    0  0.00000000000E+00  0.00000000000E+00  0.30715129751E+03  0.30715129751E+03  0.00000000000E+00 0. -1.
          1   -1    0    0  501    0 -0.00000000000E+00 -0.00000000000E+00 -0.17260071581E+04  0.17260071581E+04  0.00000000000E+00 0. -1.
         25    2    1    2    0    0  0.12833778599E+03  0.30234665034E+03  0.95170170590E+02  0.36409653864E+03  0.12499937517E+03 0.  0.
          2    1    1    2  501    0 -0.99662747090E+02 -0.28119711492E+03 -0.15725202675E+04  0.16005700460E+04  0.00000000000E+00 0. -1.
          1    1    1    2  502    0 -0.28675038901E+02 -0.21149535421E+02  0.58494236303E+02  0.68491870942E+02  0.00000000000E+00 0. -1.
         22    1    3    3    0    0  0.13288539675E+03  0.31258274678E+03  0.88262588170E+02  0.35093701248E+03  0.00000000000E+00 0.  1.
         22    1    3    3    0    0 -0.45476107625E+01 -0.10236096439E+02  0.69075824206E+01  0.13159526164E+02  0.00000000000E+00 0.  1.
</event>
<event>
 7    1  0.5537228E-006  0.5349084E+02  0.7818608E-02  0.1522308E+00
          2   -1    0    0  502    0  0.00000000000E+00  0.00000000000E+00  0.42241427622E+03  0.42241427622E+03  0.00000000000E+00 0. -1.
          1   -1    0    0  501    0 -0.00000000000E+00 -0.00000000000E+00 -0.26494563708E+03  0.26494563708E+03  0.00000000000E+00 0. -1.
         25    2    1    2    0    0  0.21055898795E+02  0.65270429498E+02  0.10839082165E+03  0.17913143978E+03  0.12504368300E+03 0.  0.
          2    1    1    2  501    0 -0.33749220565E+02 -0.41208806186E+02 -0.22580522604E+03  0.23200253383E+03  0.00000000000E+00 0. -1.
          1    1    1    2  502    0  0.12693321770E+02 -0.24061623311E+02  0.27488304353E+03  0.27622593969E+03  0.00000000000E+00 0. -1.
         22    1    3    3    0    0 -0.45362764266E+02 -0.53306706191E+01  0.33779386777E+02  0.56808832078E+02  0.00000000000E+00 0. -1.
         22    1    3    3    0    0  0.66418663061E+02  0.70601100117E+02  0.74611434878E+02  0.12232260770E+03  0.00000000000E+00 0. -1.
</event>
<event>
 7    1  0.5537228E-006  0.1632678E+03  0.7818608E-02  0.1298407E+00
          2   -1    0    0  502    0  0.00000000000E+00  0.00000000000E+00  0.12476476288E+04  0.12476476288E+04  0.00000000000E+00 0. -1.
          1   -1    0    0  501    0 -0.00000000000E+00 -0.00000000000E+00 -0.10417474184E+04  0.10417474184E+04  0.00000000000E+00 0. -1.
         25    2    1    2    0    0  0.98019708872E+02 -0.71408312646E+02 -0.41842570806E+02  0.17911619842E+03  0.12499920545E+03 0.  0.
          2    1    1    2  501    0 -0.14940682894E+03  0.76945548852E+02 -0.92311142209E+03  0.93828445347E+03  0.00000000000E+00 0. -1.
          1    1    1    2  502    0  0.51387120065E+02 -0.55372362056E+01  0.11708542034E+04  0.11719943953E+04  0.00000000000E+00 0. -1.
         22    1    3    3    0    0 -0.13192115995E+01 -0.51217382566E+02 -0.56974640322E+02  0.76622909342E+02  0.00000000000E+00 0.  1.
         22    1    3    3    0    0  0.99338920472E+02 -0.20190930080E+02  0.15132069516E+02  0.10249328908E+03  0.00000000000E+00 0.  1.
</event>
<event>
 7    1  0.5537228E-006  0.3988035E+02  0.7818608E-02  0.1518741E+00
          2   -1    0    0  502    0  0.00000000000E+00  0.00000000000E+00  0.13473873877E+04  0.13473873877E+04  0.00000000000E+00 0. -1.
          1   -1    0    0  501    0 -0.00000000000E+00 -0.00000000000E+00 -0.19515495767E+03  0.19515495767E+03  0.00000000000E+00 0. -1.
         25    2    1    2    0    0 -0.42575559514E+02 -0.23949246637E-01  0.19883040114E+03  0.23870166337E+03  0.12502910397E+03 0.  0.
          2    1    1    2  501    0  0.23726786488E+02 -0.32243212370E+02 -0.17261877829E+03  0.17719996546E+03  0.00000000000E+00 0. -1.
          1    1    1    2  502    0  0.18848773026E+02  0.32267161617E+02  0.11260208072E+04  0.11266407165E+04  0.00000000000E+00 0. -1.
         22    1    3    3    0    0  0.18399028719E+02 -0.22603244020E+02 -0.38111164316E+00  0.29147489500E+02  0.00000000000E+00 0. -1.
         22    1    3    3    0    0 -0.60974588234E+02  0.22579294773E+02  0.19921151278E+03  0.20955417387E+03  0.00000000000E+00 0. -1.
</event>
<event>
 7    1  0.1300970E-005  0.9047730E+02  0.7818608E-02  0.1309681E+00
          2   -1    0    0  502    0  0.00000000000E+00  0.00000000000E+00  0.91613416382E+03  0.91613416382E+03  0.00000000000E+00 0. -1.
          1   -1    0    0  501    0 -0.00000000000E+00 -0.00000000000E+00 -0.19436084875E+04  0.19436084875E+04  0.00000000000E+00 0. -1.
         25    2    1    2    0    0 -0.11117551506E+03 -0.21068188954E+02 -0.29966484567E+03  0.34384263168E+03  0.12499948759E+03 0.  0.
          2    1    1    2  501    0  0.48497121216E+02  0.77163947915E+02 -0.16185915243E+04  0.16211553806E+04  0.00000000000E+00 0. -1.
          1    1    1    2  502    0  0.62678393846E+02 -0.56095758962E+02  0.89078204624E+03  0.89474463906E+03  0.00000000000E+00 0. -1.
         22    1    3    3    0    0 -0.80212890505E+01  0.26946640380E+02 -0.16574854104E+03  0.16811615438E+03  0.00000000000E+00 0. -1.
         22    1    3    3    0    0 -0.10315422601E+03 -0.48014829333E+02 -0.13391630462E+03  0.17572647730E+03  0.00000000000E+00 0. -1.
</event>
<event>
 7    1  0.5537228E-006  0.1698383E+03  0.7818608E-02  0.1226661E+00
          2   -1    0    0  502    0  0.00000000000E+00  0.00000000000E+00  0.16260758147E+04  0.16260758147E+04  0.00000000000E+00 0. -1.
          1   -1    0    0  501    0 -0.00000000000E+00 -0.00000000000E+00 -0.12331807714E+04  0.12331807714E+04  0.00000000000E+00 0. -1.
         25    2    1    2    0    0 -0.13214501763E+03  0.19898349474E+03 -0.40718495325E+02  0.27264967297E+03  0.12499244556E+03 0.  0.
          2    1    1    2  501    0  0.93964253149E+02 -0.35168882556E+02 -0.10694575260E+04  0.10741534020E+04  0.00000000000E+00 0. -1.
          1    1    1    2  502    0  0.38180764485E+02 -0.16381461218E+03  0.15030710646E+04  0.15124535111E+04  0.00000000000E+00 0. -1.
         22    1    3    3    0    0 -0.83766209601E+02  0.31930520776E+02  0.13095505481E+02  0.90597065580E+02  0.00000000000E+00 0. -1.
         22    1    3    3    0    0 -0.48378808034E+02  0.16705297396E+03 -0.53814000806E+02  0.18205260739E+03  0.00000000000E+00 0. -1.
</event>
<event>
 7    1  0.5537228E-006  0.2543162E+03  0.7818608E-02  0.1247152E+00
          2   -1    0    0  502    0  0.00000000000E+00  0.00000000000E+00  0.30651746590E+04  0.30651746590E+04  0.00000000000E+00 0. -1.
          1   -1    0    0  501    0 -0.00000000000E+00 -0.00000000000E+00 -0.60075252368E+03  0.60075252368E+03  0.00000000000E+00 0. -1.
         25    2    1    2    0    0 -0.13937309028E+03  0.18704374654E+03  0.49184538021E+03  0.55852193578E+03  0.12499861318E+03 0.  0.
          2    1    1    2  501    0  0.27570913312E+02  0.46846047698E+02 -0.55947901450E+03  0.56211340058E+03  0.00000000000E+00 0. -1.
          1    1    1    2  502    0  0.11180217697E+03 -0.23388979424E+03  0.25320557696E+04  0.25452918463E+04  0.00000000000E+00 0. -1.
         22    1    3    3    0    0 -0.67306256961E+02  0.16994585154E+03  0.28268128654E+03  0.33663100636E+03  0.00000000000E+00 0.  1.
         22    1    3    3    0    0 -0.72066833320E+02  0.17097895001E+02  0.20916409367E+03  0.22189092942E+03  0.00000000000E+00 0.  1.
</event>
<event>
 7    1  0.5537228E-006  0.9339224E+02  0.7818608E-02  0.1353977E+00
          2   -1    0    0  502    0  0.00000000000E+00  0.00000000000E+00  0.12173787729E+04  0.12173787729E+04  0.00000000000E+00 0. -1.
          1   -1    0    0  501    0 -0.00000000000E+00 -0.00000000000E+00 -0.36090669852E+03  0.36090669852E+03  0.00000000000E+00 0. -1.
         25    2    1    2    0    0 -0.83459638628E+02  0.15398470983E+02  0.12668902889E+02  0.15161967056E+03  0.12500159684E+03 0.  0.
          2    1    1    2  501    0  0.18059614147E+02  0.52211585732E+02 -0.28684227224E+03  0.29211417030E+03  0.00000000000E+00 0. -1.
          1    1    1    2  502    0  0.65400024481E+02 -0.67610056716E+02  0.11306454437E+04  0.11345516305E+04  0.00000000000E+00 0. -1.
         22    1    3    3    0    0 -0.82113466880E+02  0.49677807135E+02  0.43616273358E+02  0.10541767056E+03  0.00000000000E+00 0. -1.
         22    1    3    3    0    0 -0.13461717484E+01 -0.34279336152E+02 -0.30947370469E+02  0.46202000003E+02  0.00000000000E+00 0. -1.
</event>
<event>
 7    1  0.5537228E-006  0.1909554E+03  0.7818608E-02  0.1310547E+00
          2   -1    0    0  502    0  0.00000000000E+00  0.00000000000E+00  0.83113623733E+03  0.83113623733E+03  0.00000000000E+00 0. -1.
          1   -1    0    0  501    0 -0.00000000000E+00 -0.00000000000E+00 -0.90945098709E+03  0.90945098709E+03  0.00000000000E+00 0. -1.
         25    2    1    2    0    0 -0.22738298220E+02  0.18868650423E+03 -0.76457624693E+02  0.23997998509E+03  0.12499999115E+03 0.  0.
          2    1    1    2  501    0 -0.16743486408E+02 -0.19088884766E+03 -0.73847368484E+03  0.76293006213E+03  0.00000000000E+00 0. -1.
          1    1    1    2  502    0  0.39481784628E+02  0.22023434349E+01  0.73661655977E+03  0.73767717720E+03  0.00000000000E+00 0. -1.
         22    1    3    3    0    0 -0.10276267880E+02 -0.13423359588E+02 -0.26469600182E+02  0.31407451313E+02  0.00000000000E+00 0. -1.
         22    1    3    3    0    0 -0.12462030340E+02  0.20210986382E+03 -0.49988024511E+02  0.20857253378E+03  0.00000000000E+00 0. -1.
</event>
<event>
 7    1  0.5537228E-006  0.6524917E+02  0.7818608E-02  0.1409243E+00
          2   -1    0    0  502    0  0.00000000000E+00  0.00000000000E+00  0.94558441006E+03  0.94558441006E+03  0.00000000000E+00 0. -1.
          1   -1    0    0  501    0 -0.00000000000E+00 -0.00000000000E+00 -0.13327429813E+03  0.13327429813E+03  0.00000000000E+00 0. -1.
         25    2    1    2    0    0  0.19386169272E+02 -0.85569803923E+02  0.39172409984E+03  0.42045751199E+03  0.12505492432E+03 0.  0.
          2    1    1    2  501    0 -0.43135214558E+02  0.26125461341E+02 -0.11155477964E+03  0.12242407985E+03  0.00000000000E+00 0. -1.
          1    1    1    2  502    0  0.23749045286E+02  0.59444342583E+02  0.53214079173E+03  0.53597711634E+03  0.00000000000E+00 0. -1.
         22    1    3    3    0    0  0.51517831376E+02  0.82560027476E+01  0.16330617441E+03  0.17143848789E+03  0.00000000000E+00 0. -1.
         22    1    3    3    0    0 -0.32131662103E+02 -0.93825806671E+02  0.22841792543E+03  0.24901902410E+03  0.00000000000E+00 0. -1.
</event>
<event>
 7    1  0.5537228E-006  0.6716394E+02  0.7818608E-02  0.1371937E+00
          2   -1    0    0  502    0  0.00000000000E+00  0.00000000000E+00  0.41338515483E+03  0.41338515483E+03  0.00000000000E+00 0. -1.
          1   -1    0    0  501    0 -0.00000000000E+00 -0.00000000000E+00 -0.19979464815E+03  0.19979464815E+03  0.00000000000E+00 0. -1.
         25    2    1    2    0    0 -0.13656883110E+02  0.10242012458E+02 -0.37698783476E+02  0.13166998902E+03  0.12499751381E+03 0.  0.
          2    1    1    2  501    0  0.80353659818E+02 -0.18149925426E+02 -0.96738263143E+02  0.12706070201E+03  0.00000000000E+00 0. -1.
          1    1    1    2  502    0 -0.66696776707E+02  0.79079129679E+01  0.34802755329E+03  0.35444911195E+03  0.00000000000E+00 0. -1.
         22    1    3    3    0    0 -0.44643770229E+02 -0.62193558376E+01 -0.70473738230E+02  0.83655809048E+02  0.00000000000E+00 0.  1.
         22    1    3    3    0    0  0.30986887119E+02  0.16461368295E+02  0.32774954755E+02  0.48014179975E+02  0.00000000000E+00 0.  1.
</event>
<event>
 7    1  0.5537228E-006  0.5654005E+02  0.7818608E-02  0.1542996E+00
          2   -1    0    0  502    0  0.00000000000E+00  0.00000000000E+00  0.16395469032E+04  0.16395469032E+04  0.00000000000E+00 0. -1.
          1   -1    0    0  501    0 -0.00000000000E+00 -0.00000000000E+00 -0.72510057970E+02  0.72510057970E+02  0.00000000000E+00 0. -1.
         25    2    1    2    0    0  0.44984785278E+02  0.63915640256E+02  0.20674748876E+03  0.25392406009E+03  0.12499625679E+03 0.  0.
          2    1    1    2  501    0 -0.15475185418E+02 -0.16284396032E+02 -0.45755086882E+02  0.50972452300E+02  0.00000000000E+00 0. -1.
          1    1    1    2  502    0 -0.29509599860E+02 -0.47631244224E+02  0.14060444433E+04  0.14071604488E+04  0.00000000000E+00 0. -1.
         22    1    3    3    0    0  0.81269770041E+02  0.15627370739E+02  0.88645398058E+02  0.12127240756E+03  0.00000000000E+00 0. -1.
         22    1    3    3    0    0 -0.36284984764E+02  0.48288269517E+02  0.11810209070E+03  0.13265165253E+03  0.00000000000E+00 0. -1.
</event>
<event>
 7    1  0.5537228E-006  0.1532140E+03  0.7818608E-02  0.1208042E+00
          2   -1    0    0  502    0  0.00000000000E+00  0.00000000000E+00  0.33753070627E+03  0.33753070627E+03  0.00000000000E+00 0. -1.
          1   -1    0    0  501    0 -0.00000000000E+00 -0.00000000000E+00 -0.58390120976E+03  0.58390120976E+03  0.00000000000E+00 0. -1.
         25    2    1    2    0    0  0.20268518974E+03 -0.16155801421E+03 -0.15926809321E+03  0.32889804260E+03  0.12500127524E+03 0.  0.
          2    1    1    2  501    0 -0.13054981012E+03  0.35710727416E+02 -0.30333134581E+03  0.33215721327E+03  0.00000000000E+00 0. -1.
          1    1    1    2  502    0 -0.72135379622E+02  0.12584728680E+03  0.21622893554E+03  0.26037666015E+03  0.00000000000E+00 0. -1.
         22    1    3    3    0    0  0.60862163141E+02 -0.12633442308E+03 -0.61805259032E+02  0.15324646620E+03  0.00000000000E+00 0.  1.
         22    1    3    3    0    0  0.14182302660E+03 -0.35223591134E+02 -0.97462834182E+02  0.17565157641E+03  0.00000000000E+00 0.  1.
</event>
<event>
 7    1  0.5537228E-006  0.1047344E+03  0.7818608E-02  0.1450554E+00
          2   -1    0    0  502    0  0.00000000000E+00  0.00000000000E+00  0.66211686570E+03  0.66211686570E+03  0.00000000000E+00 0. -1.
          1   -1    0    0  501    0 -0.00000000000E+00 -0.00000000000E+00 -0.77570658227E+03  0.77570658227E+03  0.00000000000E+00 0. -1.
         25    2    1    2    0    0  0.32729405328E+02 -0.75129266822E+02  0.48074277177E+03  0.50344272259E+03  0.12500136646E+03 0.  0.
          2    1    1    2  501    0 -0.42774514211E+02  0.95784248703E+02 -0.75996120804E+03  0.76716707378E+03  0.00000000000E+00 0. -1.
          1    1    1    2  502    0  0.10045108882E+02 -0.20654981881E+02  0.16562871970E+03  0.16721365160E+03  0.00000000000E+00 0. -1.
         22    1    3    3    0    0  0.74687555581E+02 -0.40632564737E+02  0.37553644067E+03  0.38504136731E+03  0.00000000000E+00 0.  1.
         22    1    3    3    0    0 -0.41958150253E+02 -0.34496702085E+02  0.10520633110E+03  0.11840135528E+03  0.00000000000E+00 0.  1.
</event>
<event>
 7    1  0.5537228E-006  0.1174341E+03  0.7818608E-02  0.1369491E+00
          2   -1    0    0  502    0  0.00000000000E+00  0.00000000000E+00  0.17750457807E+04  0.17750457807E+04  0.00000000000E+00 0. -1.
          1   -1    0    0  501    0 -0.00000000000E+00 -0.00000000000E+00 -0.57310584495E+03  0.57310584495E+03  0.00000000000E+00 0. -1.
         25    2    1    2    0    0 -0.10970391170E+03  0.10701957522E+03  0.78144171066E+02  0.21265061802E+03  0.12500254458E+03 0.  0.
          2    1    1    2  501    0  0.77060928750E+02 -0.86457886214E+02 -0.49899127797E+03  0.51225545221E+03  0.00000000000E+00 0. -1.
          1    1    1    2  502    0  0.32642982948E+02 -0.20561689010E+02  0.16227870427E+04  0.16232455554E+04  0.00000000000E+00 0. -1.
         22    1    3    3    0    0 -0.38366745436E+01  0.69017348260E+02 -0.98728660318E+01  0.69825410246E+02  0.00000000000E+00 0. -1.
         22    1    3    3    0    0 -0.10586723715E+03  0.38002226963E+02  0.88017037097E+02  0.14282520778E+03  0.00000000000E+00 0. -1.
</event>
<event>
 7    1  0.5537228E-006  0.7373049E+02  0.7818608E-02  0.1436558E+00
          2   -1    0    0  502    0  0.00000000000E+00  0.00000000000E+00  0.15977715812E+03  0.15977715812E+03  0.00000000000E+00 0. -1.
          1   -1    0    0  501    0 -0.00000000000E+00 -0.00000000000E+00 -0.80150947555E+03  0.80150947555E+03  0.00000000000E+00 0. -1.
         25    2    1    2    0    0 -0.25330584279E+02  0.32768233790E+02 -0.29739112743E+03  0.32524051489E+03  0.12499805681E+03 0.  0.
          2    1    1    2  501    0 -0.33784717325E+02  0.13013340135E+02 -0.47988418418E+03  0.48124794479E+03  0.00000000000E+00 0. -1.
          1    1    1    2  502    0  0.59115301604E+02 -0.45781573925E+02  0.13554299418E+03  0.15479817398E+03  0.00000000000E+00 0. -1.
         22    1    3    3    0    0 -0.36328832224E+02  0.60422613352E+02 -0.83477433648E+02  0.10926645498E+03  0.00000000000E+00 0.  1.
         22    1    3    3    0    0  0.10998247945E+02 -0.27654379562E+02 -0.21391369379E+03  0.21597405991E+03  0.00000000000E+00 0.  1.
</event>
<event>
 7    1  0.5537228E-006  0.5816299E+02  0.7818608E-02  0.1408975E+00
          2   -1    0    0  502    0  0.00000000000E+00  0.00000000000E+00  0.67057957057E+03  0.67057957057E+03  0.00000000000E+00 0. -1.
          1   -1    0    0  501    0 -0.00000000000E+00 -0.00000000000E+00 -0.33676652482E+02  0.33676652482E+02  0.00000000000E+00 0. -1.
         25    2    1    2    0    0  0.25586251621E+02  0.24279566955E+02  0.34065747473E+03  0.36457542202E+03  0.12499427830E+03 0.  0.
          2    1    1    2  501    0 -0.37158237852E+02  0.44745935949E+02  0.32126067629E+02  0.66445599143E+02  0.00000000000E+00 0. -1.
          1    1    1    2  502    0  0.11571986231E+02 -0.69025502903E+02  0.26411937573E+03  0.27323520189E+03  0.00000000000E+00 0. -1.
         22    1    3    3    0    0 -0.26883736504E+02  0.37205072195E+02  0.27830451632E+03  0.28206445450E+03  0.00000000000E+00 0. -1.
         22    1    3    3    0    0  0.52469988124E+02 -0.12925505240E+02  0.62352958412E+02  0.82510967527E+02  0.00000000000E+00 0. -1.
</event>
<event>
 7    1  0.5537228E-006  0.8872894E+02  0.7818608E-02  0.1342031E+00
          2   -1    0    0  502    0  0.00000000000E+00  0.00000000000E+00  0.49144034730E+03  0.49144034730E+03  0.00000000000E+00 0. -1.
          1   -1    0    0  501    0 -0.00000000000E+00 -0.00000000000E+00 -0.92559745907E+02  0.92559745907E+02  0.00000000000E+00 0. -1.
         25    2    1    2    0    0 -0.12968207231E+03  0.21675134041E+02  0.16816449163E+03  0.24736885047E+03  0.12499920248E+03 0.  0.
          2    1    1    2  501    0  0.69650166204E+02 -0.45014578316E+02 -0.13537432868E+02  0.84028090552E+02  0.00000000000E+00 0. -1.
          1    1    1    2  502    0  0.60031906104E+02  0.23339444275E+02  0.24425354263E+03  0.25260315219E+03  0.00000000000E+00 0. -1.
         22    1    3    3    0    0 -0.11299764050E+02  0.29869006712E+02  0.11128331044E+03  0.11577485656E+03  0.00000000000E+00 0.  1.
         22    1    3    3    0    0 -0.11838230826E+03 -0.81938726711E+01  0.56881181194E+02  0.13159399390E+03  0.00000000000E+00 0.  1.
</event>
<event>
 7    1  0.5537228E-006  0.4913341E+02  0.7818608E-02  0.1468989E+00
          2   -1    0    0  502    0  0.00000000000E+00  0.00000000000E+00  0.21616300220E+04  0.21616300220E+04  0.00000000000E+00 0. -1.
          1   -1    0    0  501    0 -0.00000000000E+00 -0.00000000000E+00 -0.64725838969E+02  0.64725838969E+02  0.00000000000E+00 0. -1.
         25    2    1    2    0    0 -0.58081264146E+02 -0.29396943944E+02  0.45451382473E+03  0.47586256775E+03  0.12499901183E+03 0.  0.
          2    1    1    2  501    0  0.18419765445E+02  0.45541273078E+02 -0.42560961378E+02  0.64997928783E+02  0.00000000000E+00 0. -1.
          1    1    1    2  502    0  0.39661498700E+02 -0.16144329134E+02  0.16849513196E+04  0.16854953644E+04  0.00000000000E+00 0. -1.
         22    1    3    3    0    0  0.12903237906E+02 -0.29580801086E+02  0.25816487546E+02  0.41328057909E+02  0.00000000000E+00 0. -1.
         22    1    3    3    0    0 -0.70984502052E+02  0.18385714169E+00  0.42869733718E+03  0.43453450984E+03  0.00000000000E+00 0. -1.
</event>
<event>
 7    1  0.5537228E-006  0.5428971E+02  0.7818608E-02  0.1495217E+00
          2   -1    0    0  502    0  0.00000000000E+00  0.00000000000E+00  0.61033416676E+03  0.61033416676E+03  0.00000000000E+00 0. -1.
          1   -1    0    0  501    0 -0.00000000000E+00 -0.00000000000E+00 -0.10176480501E+04  0.10176480501E+04  0.00000000000E+00 0. -1.
         25    2    1    2    0    0 -0.77489836433E+02  0.77307555554E+00  0.23808421445E+03  0.27984780560E+03  0.12500171491E+03 0.  0.
          2    1    1    2  501    0  0.27537309814E+02 -0.16722663153E+02 -0.99454757511E+03  0.99506925892E+03  0.00000000000E+00 0. -1.
          1    1    1    2  502    0  0.49952526619E+02  0.15949587597E+02  0.34914947734E+03  0.35306515232E+03  0.00000000000E+00 0. -1.
         22    1    3    3    0    0 -0.76810513167E+02  0.53818245528E+02  0.15957539300E+03  0.18509609541E+03  0.00000000000E+00 0. -1.
         22    1    3    3    0    0 -0.67932326630E+00 -0.53045169972E+02  0.78508821452E+02  0.94751710187E+02  0.00000000000E+00 0. -1.
</event>
<event>
 7    1  0.5537228E-006  0.1100298E+03  0.7818608E-02  0.1360267E+00
          2   -1    0    0  502    0  0.00000000000E+00  0.00000000000E+00  0.34225165012E+03  0.34225165012E+03  0.00000000000E+00 0. -1.
          1   -1    0    0  501    0 -0.00000000000E+00 -0.00000000000E+00 -0.22703519307E+03  0.22703519307E+03  0.00000000000E+00 0. -1.
         25    2    1    2    0    0 -0.47816192253E+02 -0.77494426535E+02 -0.19320253037E+02  0.15584574809E+03  0.12499140224E+03 0.  0.
          2    1    1    2  501    0 -0.43327722146E+02  0.10007723042E+02 -0.12367234426E+03  0.13142410267E+03  0.00000000000E+00 0. -1.
          1    1    1    2  502    0  0.91143914399E+02  0.67486703493E+02  0.25820905434E+03  0.28201699244E+03  0.00000000000E+00 0. -1.
         22    1    3    3    0    0  0.31504609354E+02 -0.66391132718E+02 -0.18360579442E+02  0.75745849996E+02  0.00000000000E+00 0.  1.
         22    1    3    3    0    0 -0.79320801608E+02 -0.11103293817E+02 -0.95967359430E+00  0.80099898094E+02  0.00000000000E+00 0.  1.
</event>
<event>
 7    1  0.5537228E-006  0.6039945E+02  0.7818608E-02  0.1422008E+00
          2   -1    0    0  502    0  0.00000000000E+00  0.00000000000E+00  0.13950091994E+04  0.13950091994E+04  0.00000000000E+00 0. -1.
          1   -1    0    0  501    0 -0.00000000000E+00 -0.00000000000E+00 -0.89702433729E+03  0.89702433729E+03  0.00000000000E+00 0. -1.
         25    2    1    2    0    0 -0.92173663292E+02  0.13905503949E+02  0.59685562414E+03  0.61688725891E+03  0.12499562749E+03 0.  0.
          2    1    1    2  501    0  0.37321651191E+02 -0.32294572541E+02 -0.88525858757E+03  0.88663330184E+03  0.00000000000E+00 0. -1.
          1    1    1    2  502    0  0.54852012100E+02  0.18389068592E+02  0.78638782557E+03  0.78851297598E+03  0.00000000000E+00 0. -1.
         22    1    3    3    0    0 -0.13879533893E+02  0.49059534909E+02  0.38416707322E+03  0.38753557201E+03  0.00000000000E+00 0.  1.
         22    1    3    3    0    0 -0.78294129399E+02 -0.35154030960E+02  0.21268855093E+03  0.22935168690E+03  0.00000000000E+00 0.  1.
</event>
<event>
 7    1  0.5537228E-006  0.1177685E+03  0.7818608E-02  0.1300692E+00
          2   -1    0    0  502    0  0.00000000000E+00  0.00000000000E+00  0.13228004589E+04  0.13228004589E+04  0.00000000000E+00 0. -1.
          1   -1    0    0  501    0 -0.00000000000E+00 -0.00000000000E+00 -0.15539394430E+03  0.15539394430E+03  0.00000000000E+00 0. -1.
         25    2    1    2    0    0 -0.27434980115E+02 -0.11795939344E+03  0.41966580764E+03  0.45432571780E+03  0.12500148448E+03 0.  0.
          2    1    1    2  501    0  0.69998762461E+02  0.47300173445E+01 -0.12470026542E+03  0.14308164105E+03  0.00000000000E+00 0. -1.
          1    1    1    2  502    0 -0.42563782346E+02  0.11322937610E+03  0.87244097239E+03  0.88078704435E+03  0.00000000000E+00 0. -1.
         22    1    3    3    0    0  0.28488895823E+02  0.12713182920E+02  0.92469085303E+02  0.97589824992E+02  0.00000000000E+00 0.  1.
         22    1    3    3    0    0 -0.55923875938E+02 -0.13067257636E+03  0.32719672234E+03  0.35673589281E+03  0.00000000000E+00 0.  1.
</event>
<event>
 7    1  0.5537228E-006  0.1388406E+03  0.7818608E-02  0.1260149E+00
          2   -1    0    0  502    0  0.00000000000E+00  0.00000000000E+00  0.14176198552E+04  0.14176198552E+04  0.00000000000E+00 0. -1.
          1   -1    0    0  501    0 -0.00000000000E+00 -0.00000000000E+00 -0.95889828793E+02  0.95889828793E+02  0.00000000000E+00 0. -1.
         25    2    1    2    0    0  0.93675006779E+02  0.38540205694E+02  0.64114137799E+03  0.66102051236E+03  0.12500198739E+03 0.  0.
          2    1    1    2  501    0  0.56594629693E+02  0.66747695346E+02 -0.48922080009E+02  0.10025755262E+03  0.00000000000E+00 0. -1.
          1    1    1    2  502    0 -0.15026963647E+03 -0.10528790104E+03  0.72951072847E+03  0.75223161905E+03  0.00000000000E+00 0. -1.
         22    1    3    3    0    0  0.94207571510E+02  0.77340617938E+02  0.47183794544E+03  0.48732708161E+03  0.00000000000E+00 0. -1.
         22    1    3    3    0    0 -0.53256473115E+00 -0.38800412244E+02  0.16930343254E+03  0.17369343075E+03  0.00000000000E+00 0. -1.
</event>
<event>
 7    1  0.5537228E-006  0.8592394E+02  0.7818608E-02  0.1368352E+00
          2   -1    0    0  502    0  0.00000000000E+00  0.00000000000E+00  0.23334607109E+04  0.23334607109E+04  0.00000000000E+00 0. -1.
          1   -1    0    0  501    0 -0.00000000000E+00 -0.00000000000E+00 -0.43535463478E+03  0.43535463478E+03  0.00000000000E+00 0. -1.
         25    2    1    2    0    0  0.30339791204E+02 -0.42217691926E+02  0.11248928401E+04  0.11330099323E+04  0.12499907391E+03 0.  0.
          2    1    1    2  501    0  0.28014076479E+02 -0.45258327520E+02 -0.42734697231E+03  0.43064897473E+03  0.00000000000E+00 0. -1.
          1    1    1    2  502    0 -0.58353867683E+02  0.87476019446E+02  0.12005602084E+04  0.12051564387E+04  0.00000000000E+00 0. -1.
         22    1    3    3    0    0  0.17754754688E+02  0.42351614809E+02  0.53283447471E+03  0.53480974938E+03  0.00000000000E+00 0.  1.
         22    1    3    3    0    0  0.12585036517E+02 -0.84569306735E+02  0.59205836541E+03  0.59820018291E+03  0.00000000000E+00 0.  1.
</event>
<event>
 7    1  0.5537228E-006  0.1299459E+03  0.7818608E-02  0.1369833E+00
          2   -1    0    0  502    0  0.00000000000E+00  0.00000000000E+00  0.60597753697E+03  0.60597753697E+03  0.00000000000E+00 0. -1.
          1   -1    0    0  501    0 -0.00000000000E+00 -0.00000000000E+00 -0.13203459878E+04  0.13203459878E+04  0.00000000000E+00 0. -1.
         25    2    1    2    0    0  0.90983297565E+02  0.10476574986E+03 -0.32968925885E+02  0.18964520429E+03  0.12499812262E+03 0.  0.
          2    1    1    2  501    0 -0.32941133636E+02  0.11114949177E+02 -0.12008248787E+04  0.12013280358E+04  0.00000000000E+00 0. -1.
          1    1    1    2  502    0 -0.58042163929E+02 -0.11588069904E+03  0.51942535372E+03  0.53535028467E+03  0.00000000000E+00 0. -1.
         22    1    3    3    0    0  0.88625438714E+02  0.43435235182E+02  0.28552142547E+02  0.10274391898E+03  0.00000000000E+00 0.  1.
         22    1    3    3    0    0  0.23578588508E+01  0.61330514678E+02 -0.61521068432E+02  0.86901285319E+02  0.00000000000E+00 0.  1.
</event>
<event>
 7    1  0.5537228E-006  0.2367327E+02  0.7818608E-02  0.1694002E+00
          2   -1    0    0  502    0  0.00000000000E+00  0.00000000000E+00  0.31085544700E+03  0.31085544700E+03  0.00000000000E+00 0. -1.
          1   -1    0    0  501    0 -0.00000000000E+00 -0.00000000000E+00 -0.81100172122E+03  0.81100172122E+03  0.00000000000E+00 0. -1.
         25    2    1    2    0    0 -0.15470288493E+02 -0.25685823313E+02  0.10420466087E+03  0.16547859342E+03  0.12500184874E+03 0.  0.
          2    1    1    2  501    0  0.23140567617E+02  0.50133264442E+01 -0.77949373814E+03  0.77985325998E+03  0.00000000000E+00 0. -1.
          1    1    1    2  502    0 -0.76702791237E+01  0.20672496869E+02  0.17514280305E+03  0.17652531481E+03  0.00000000000E+00 0. -1.
         22    1    3    3    0    0  0.50698502087E+02  0.97970690959E+01  0.29059652100E+02  0.59251869649E+02  0.00000000000E+00 0. -1.
         22    1    3    3    0    0 -0.66168790580E+02 -0.35482892409E+02  0.75145008773E+02  0.10622672378E+03  0.00000000000E+00 0. -1.
</event>
<event>
 7    1  0.5537228E-006  0.1778822E+03  0.7818608E-02  0.1287607E+00
          2   -1    0    0  502    0  0.00000000000E+00  0.00000000000E+00  0.39998547976E+04  0.39998547976E+04  0.00000000000E+00 0. -1.
          1   -1    0    0  501    0 -0.00000000000E+00 -0.00000000000E+00 -0.19300786803E+03  0.19300786803E+03  0.00000000000E+00 0. -1.
         25    2    1    2    0    0 -0.58416179960E+02  0.17969641083E+03  0.54048805251E+03  0.58605136264E+03  0.12500245837E+03 0.  0.
          2    1    1    2  501    0  0.52409180327E+02 -0.23579904417E+01 -0.16383576020E+03  0.17203034216E+03  0.00000000000E+00 0. -1.
          1    1    1    2  502    0  0.60069996326E+01 -0.17733842039E+03  0.34301946373E+04  0.34347809609E+04  0.00000000000E+00 0. -1.
         22    1    3    3    0    0 -0.15164572249E+02  0.18251496049E+03  0.43115440239E+03  0.46843974400E+03  0.00000000000E+00 0.  1.
         22    1    3    3    0    0 -0.43251607711E+02 -0.28185496564E+01  0.10933365012E+03  0.11761161864E+03  0.00000000000E+00 0.  1.
</event>
<event>
 7    1  0.5537228E-006  0.1616648E+03  0.7818608E-02  0.1340351E+00
          2   -1    0    0  502    0  0.00000000000E+00  0.00000000000E+00  0.23668785736E+03  0.23668785736E+03  0.00000000000E+00 0. -1.
          1   -1    0    0  501    0 -0.00000000000E+00 -0.00000000000E+00 -0.65938282751E+03  0.65938282751E+03  0.00000000000E+00 0. -1.
         25    2    1    2    0    0  0.16240784240E+03  0.10726667301E+03 -0.56071665711E+03  0.60655611670E+03  0.12499882694E+03 0.  0.
          2    1    1    2  501    0 -0.33658957736E+02 -0.12392801525E+02 -0.37614278774E+02  0.51974425761E+02  0.00000000000E+00 0. -1.
          1    1    1    2  502    0 -0.12874888467E+03 -0.94873871481E+02  0.17563596574E+03  0.23754014240E+03  0.00000000000E+00 0. -1.
         22    1    3    3    0    0  0.95480439641E+02  0.12086937834E+03 -0.30247755127E+03  0.33943863952E+03  0.00000000000E+00 0. -1.
         22    1    3    3    0    0  0.66927402761E+02 -0.13602705334E+02 -0.25823910584E+03  0.26711747719E+03  0.00000000000E+00 0. -1.
</event>
<event>
 7    1  0.5537228E-006  0.4348187E+02  0.7818608E-02  0.1509787E+00
          2   -1    0    0  502    0  0.00000000000E+00  0.00000000000E+00  0.29426568687E+03  0.29426568687E+03  0.00000000000E+00 0. -1.
          1   -1    0    0  501    0 -0.00000000000E+00 -0.00000000000E+00 -0.26510577522E+03  0.26510577522E+03  0.00000000000E+00 0. -1.
         25    2    1    2    0    0 -0.15086839311E+02 -0.34418250982E+02 -0.82954328183E+02  0.15465894563E+03  0.12500296068E+03 0.  0.
          2    1    1    2  501    0  0.36188758113E+02 -0.39678702506E+01 -0.14213199669E+03  0.14672039630E+03  0.00000000000E+00 0. -1.
          1    1    1    2  502    0 -0.21101918802E+02  0.38386121232E+02  0.25424623652E+03  0.25799212016E+03  0.00000000000E+00 0. -1.
         22    1    3    3    0    0 -0.15659188824E+01  0.35178898316E+02 -0.75576743033E+02  0.83377761281E+02  0.00000000000E+00 0.  1.
         22    1    3    3    0    0 -0.13520920428E+02 -0.69597149298E+02 -0.73775851500E+01  0.71281184350E+02  0.00000000000E+00 0.  1.
</event>
<event>
 7    1  0.5537228E-006  0.7586099E+02  0.7818608E-02  0.1365251E+00
          2   -1    0    0  502    0  0.00000000000E+00  0.00000000000E+00  0.77003236366E+02  0.77003236366E+02  0.00000000000E+00 0. -1.
          1   -1    0    0  501    0 -0.00000000000E+00 -0.00000000000E+00 -0.35910682779E+03  0.35910682779E+03  0.00000000000E+00 0. -1.
         25    2    1    2    0    0  0.41699334844E+02  0.25499910368E+02 -0.18861685525E+03  0.23149780302E+03  0.12500333900E+03 0.  0.
          2    1    1    2  501    0 -0.25974524708E+02  0.56145507337E+02 -0.10379263911E+03  0.12083007019E+03  0.00000000000E+00 0. -1.
          1    1    1    2  502    0 -0.15724810136E+02 -0.81645417705E+02  0.10305902933E+02  0.83782190956E+02  0.00000000000E+00 0. -1.
         22    1    3    3    0    0  0.67459753936E+02  0.57099151757E+02 -0.97035017408E+02  0.13125138527E+03  0.00000000000E+00 0. -1.
         22    1    3    3    0    0 -0.25760419092E+02 -0.31599241389E+02 -0.91581837841E+02  0.10024641774E+03  0.00000000000E+00 0. -1.
</event>
<event>
 7    1  0.5537228E-006  0.5840881E+02  0.7818608E-02  0.1453714E+00
          2   -1    0    0  502    0  0.00000000000E+00  0.00000000000E+00  0.25681882670E+03  0.25681882670E+03  0.00000000000E+00 0. -1.
          1   -1    0    0  501    0 -0.00000000000E+00 -0.00000000000E+00 -0.21388782414E+03  0.21388782414E+03  0.00000000000E+00 0. -1.
         25    2    1    2    0    0  0.93468947598E+01  0.27245021247E+02 -0.64234455407E+02  0.14345812138E+03  0.12499804681E+03 0.  0.
          2    1    1    2  501    0  0.39599770425E+02  0.71482617296E+01 -0.10202432681E+03  0.10967316319E+03  0.00000000000E+00 0. -1.
          1    1    1    2  502    0 -0.48946665185E+02 -0.34393282977E+02  0.20918978478E+03  0.21757536626E+03  0.00000000000E+00 0. -1.
         22    1    3    3    0    0 -0.14271265815E+01 -0.50057970187E+02 -0.28452529007E+02  0.57596731473E+02  0.00000000000E+00 0.  1.
         22    1    3    3    0    0  0.10774021341E+02  0.77302991434E+02 -0.35781926400E+02  0.85861389911E+02  0.00000000000E+00 0.  1.
</event>
<event>
 7    1  0.5537228E-006  0.1435061E+03  0.7818608E-02  0.1217221E+00
          2   -1    0    0  502    0  0.00000000000E+00  0.00000000000E+00  0.12749924205E+04  0.12749924205E+04  0.00000000000E+00 0. -1.
          1   -1    0    0  501    0 -0.00000000000E+00 -0.00000000000E+00 -0.21847531229E+03  0.21847531229E+03  0.00000000000E+00 0. -1.
         25    2    1    2    0    0 -0.83605173682E+01 -0.72196046133E+02 -0.29153842618E+02  0.14750380970E+03  0.12500104003E+03 0.  0.
          2    1    1    2  501    0  0.13033515134E+03 -0.13849804414E+02 -0.91192310030E+02  0.15967187030E+03  0.00000000000E+00 0. -1.
          1    1    1    2  502    0 -0.12197463397E+03  0.86045850547E+02  0.11768632609E+04  0.11862920528E+04  0.00000000000E+00 0. -1.
         22    1    3    3    0    0 -0.57108887249E+02 -0.69705572208E+02  0.10202353074E+01  0.90118436957E+02  0.00000000000E+00 0. -1.
         22    1    3    3    0    0  0.48748369880E+02 -0.24904739255E+01 -0.30174077925E+02  0.57385372744E+02  0.00000000000E+00 0. -1.
</event>
<event>
 7    1  0.5537228E-006  0.3825459E+02  0.7818608E-02  0.1575052E+00
          2   -1    0    0  502    0  0.00000000000E+00  0.00000000000E+00  0.26222889530E+03  0.26222889530E+03  0.00000000000E+00 0. -1.
          1   -1    0    0  501    0 -0.00000000000E+00 -0.00000000000E+00 -0.48107453678E+03  0.48107453678E+03  0.00000000000E+00 0. -1.
         25    2    1    2    0    0  0.53179302934E+01 -0.13913998106E+02  0.17400452495E+03  0.21476493513E+03  0.12499809171E+03 0.  0.
          2    1    1    2  501    0  0.79620063409E+01  0.37525609993E+02 -0.45715436745E+03  0.45876102780E+03  0.00000000000E+00 0. -1.
          1    1    1    2  502    0 -0.13279936634E+02 -0.23611611887E+02  0.64304201021E+02  0.69777469156E+02  0.00000000000E+00 0. -1.
         22    1    3    3    0    0 -0.22308299980E+02 -0.64268127403E+02  0.10301309288E+03  0.12344938134E+03  0.00000000000E+00 0. -1.
         22    1    3    3    0    0  0.27626230273E+02  0.50354129297E+02  0.70991432074E+02  0.91315553792E+02  0.00000000000E+00 0. -1.
</event>
<event>
 7    1  0.5627458E-006  0.1481981E+03  0.7818608E-02  0.1245992E+00
          2   -1    0    0  502    0  0.00000000000E+00  0.00000000000E+00  0.27394036201E+04  0.27394036201E+04  0.00000000000E+00 0. -1.
          1   -1    0    0  501    0 -0.00000000000E+00 -0.00000000000E+00 -0.12665316320E+04  0.12665316320E+04  0.00000000000E+00 0. -1.
         25    2    1    2    0    0 -0.50082164986E+02 -0.10543623284E+03 -0.35575555705E+03  0.39473077133E+03  0.12500137207E+03 0.  0.
          2    1    1    2  501    0 -0.22838709624E+02  0.16534345411E+03 -0.88264573281E+03  0.89828923745E+03  0.00000000000E+00 0. -1.
          1    1    1    2  502    0  0.72920874610E+02 -0.59907221270E+02  0.27112732780E+04  0.27129152433E+04  0.00000000000E+00 0. -1.
         22    1    3    3    0    0 -0.83881536769E+02 -0.75301528866E+02 -0.31209614367E+03  0.33182892483E+03  0.00000000000E+00 0.  1.
         22    1    3    3    0    0  0.33799371782E+02 -0.30134703978E+02 -0.43659413380E+02  0.62901846502E+02  0.00000000000E+00 0.  1.
</event>
<event>
 7    1  0.5537228E-006  0.9905245E+02  0.7818608E-02  0.1460956E+00
          2   -1    0    0  502    0  0.00000000000E+00  0.00000000000E+00  0.31301424904E+04  0.31301424904E+04  0.00000000000E+00 0. -1.
          1   -1    0    0  501    0 -0.00000000000E+00 -0.00000000000E+00 -0.67323098946E+02  0.67323098946E+02  0.00000000000E+00 0. -1.
         25    2    1    2    0    0 -0.11960070837E+03  0.13831882888E+02  0.19889150493E+04  0.19964728132E+04  0.12499988048E+03 0.  0.
          2    1    1    2  501    0  0.98454702936E+02 -0.61211734144E+01 -0.25075865621E+02  0.10178210221E+03  0.00000000000E+00 0. -1.
          1    1    1    2  502    0  0.21146005434E+02 -0.77107094738E+01  0.10989802078E+04  0.10992106739E+04  0.00000000000E+00 0. -1.
         22    1    3    3    0    0 -0.39931066079E+02 -0.53897195449E+02  0.92610011977E+03  0.92852615986E+03  0.00000000000E+00 0. -1.
         22    1    3    3    0    0 -0.79669642290E+02  0.67729078338E+02  0.10628149295E+04  0.10679466533E+04  0.00000000000E+00 0. -1.
</event>
<event>
 7    1  0.5537228E-006  0.7894645E+02  0.7818608E-02  0.1343517E+00
          2   -1    0    0  502    0  0.00000000000E+00  0.00000000000E+00  0.35861452768E+03  0.35861452768E+03  0.00000000000E+00 0. -1.
          1   -1    0    0  501    0 -0.00000000000E+00 -0.00000000000E+00 -0.14087530080E+04  0.14087530080E+04  0.00000000000E+00 0. -1.
         25    2    1    2    0    0  0.29751023336E+02 -0.85465327160E+02 -0.35016783263E+03  0.38266151279E+03  0.12499150703E+03 0.  0.
          2    1    1    2  501    0  0.43909316366E+02  0.56389164966E+02 -0.10365119804E+04  0.10389729792E+04  0.00000000000E+00 0. -1.
          1    1    1    2  502    0 -0.73660339702E+02  0.29076162195E+02  0.33654133273E+03  0.34573304367E+03  0.00000000000E+00 0. -1.
         22    1    3    3    0    0 -0.46345159269E+02 -0.27836969977E+02 -0.83989269916E+02  0.99884774346E+02  0.00000000000E+00 0. -1.
         22    1    3    3    0    0  0.76096182605E+02 -0.57628357183E+02 -0.26617856271E+03  0.28277673845E+03  0.00000000000E+00 0. -1.
</event>
<event>
 7    1  0.5537228E-006  0.1011032E+03  0.7818608E-02  0.1295563E+00
          2   -1    0    0  502    0  0.00000000000E+00  0.00000000000E+00  0.81358452132E+03  0.81358452132E+03  0.00000000000E+00 0. -1.
          1   -1    0    0  501    0 -0.00000000000E+00 -0.00000000000E+00 -0.68959917815E+03  0.68959917815E+03  0.00000000000E+00 0. -1.
         25    2    1    2    0    0  0.19930421701E+02  0.18255887542E+03 -0.27199678270E+01  0.22216458726E+03  0.12499896360E+03 0.  0.
          2    1    1    2  501    0 -0.11562152823E+02 -0.97277407849E+02 -0.57035742597E+03  0.57870905541E+03  0.00000000000E+00 0. -1.
          1    1    1    2  502    0 -0.83682688785E+01 -0.85281467576E+02  0.69706273696E+03  0.70231005681E+03  0.00000000000E+00 0. -1.
         22    1    3    3    0    0  0.10854117686E+02  0.99133064094E+02 -0.63785700867E+02  0.11837986274E+03  0.00000000000E+00 0.  1.
         22    1    3    3    0    0  0.90763040155E+01  0.83425811331E+02  0.61065733040E+02  0.10378472451E+03  0.00000000000E+00 0.  1.
</event>
<event>
 7    1  0.5537228E-006  0.2091443E+03  0.7818608E-02  0.1319003E+00
          2   -1    0    0  502    0  0.00000000000E+00  0.00000000000E+00  0.59666756482E+03  0.59666756482E+03  0.00000000000E+00 0. -1.
          1   -1    0    0  501    0 -0.00000000000E+00 -0.00000000000E+00 -0.98068451881E+03  0.98068451881E+03  0.00000000000E+00 0. -1.
         25    2    1    2    0    0  0.22868390006E+03 -0.81571310413E+01  0.22183507734E+03  0.34234308349E+03  0.12500048137E+03 0.  0.
          2    1    1    2  501    0 -0.20762287480E+03 -0.17838123260E+02 -0.90769955627E+03  0.93131302001E+03  0.00000000000E+00 0. -1.
          1    1    1    2  502    0 -0.21061025262E+02  0.25995254302E+02  0.30184752495E+03  0.30369598014E+03  0.00000000000E+00 0. -1.
         22    1    3    3    0    0 -0.12992813509E+02 -0.28833830462E+01  0.33040823319E+02  0.35620543319E+02  0.00000000000E+00 0. -1.
         22    1    3    3    0    0  0.24167671357E+03 -0.52737479952E+01  0.18879425402E+03  0.30672254017E+03  0.00000000000E+00 0. -1.
</event>
<event>
 7    1  0.5537228E-006  0.5781245E+02  0.7818608E-02  0.1410401E+00
          2   -1    0    0  502    0  0.00000000000E+00  0.00000000000E+00  0.92906577643E+03  0.92906577643E+03  0.00000000000E+00 0. -1.
          1   -1    0    0  501    0 -0.00000000000E+00 -0.00000000000E+00 -0.14670442883E+04  0.14670442883E+04  0.00000000000E+00 0. -1.
         25    2    1    2    0    0 -0.30748651504E+01  0.10565228002E+00 -0.36532934417E+02  0.13026573782E+03  0.12500016478E+03 0.  0.
          2    1    1    2  501    0  0.40134712965E+02 -0.42627224531E+02 -0.13821229716E+04  0.13833624920E+04  0.00000000000E+00 0. -1.
          1    1    1    2  502    0 -0.37059847814E+02  0.42521572251E+02  0.88067739417E+03  0.88248183496E+03  0.00000000000E+00 0. -1.
         22    1    3    3    0    0 -0.58918695183E+02  0.52168209996E+01 -0.43963759613E+02  0.73698304069E+02  0.00000000000E+00 0. -1.
         22    1    3    3    0    0  0.55843830033E+02 -0.51111687196E+01  0.74308251956E+01  0.56567433754E+02  0.00000000000E+00 0. -1.
</event>
<event>
 7    1  0.5537228E-006  0.7217592E+02  0.7818608E-02  0.1424722E+00
          2   -1    0    0  502    0  0.00000000000E+00  0.00000000000E+00  0.13449616973E+04  0.13449616973E+04  0.00000000000E+00 0. -1.
          1   -1    0    0  501    0 -0.00000000000E+00 -0.00000000000E+00 -0.29262355706E+03  0.29262355706E+03  0.00000000000E+00 0. -1.
         25    2    1    2    0    0 -0.64007396875E+02  0.10781917467E+02  0.89820502141E+02  0.16706048002E+03  0.12501313843E+03 0.  0.
          2    1    1    2  501    0  0.53255213328E+02 -0.49779287521E+02 -0.24842852733E+03  0.25890312552E+03  0.00000000000E+00 0. -1.
          1    1    1    2  502    0  0.10752183547E+02  0.38997370054E+02  0.12109461654E+04  0.12116216488E+04  0.00000000000E+00 0. -1.
         22    1    3    3    0    0 -0.32490002547E+02  0.27497179759E+01 -0.29142430927E+02  0.43731481736E+02  0.00000000000E+00 0. -1.
         22    1    3    3    0    0 -0.31517394328E+02  0.80321994910E+01  0.11896293307E+03  0.12332899829E+03  0.00000000000E+00 0. -1.
</event>
<event>
 7    1  0.5537228E-006  0.7240373E+02  0.7818608E-02  0.1354539E+00
          2   -1    0    0  502    0  0.00000000000E+00  0.00000000000E+00  0.18318864352E+04  0.18318864352E+04  0.00000000000E+00 0. -1.
          1   -1    0    0  501    0 -0.00000000000E+00 -0.00000000000E+00 -0.18493450726E+04  0.18493450726E+04  0.00000000000E+00 0. -1.
         25    2    1    2    0    0  0.69386854775E+02 -0.27071307550E+02  0.63768728430E+02  0.15886711885E+03  0.12499967767E+03 0.  0.
          2    1    1    2  501    0 -0.13919835667E+02  0.71269848080E+02 -0.18003327391E+04  0.18017966379E+04  0.00000000000E+00 0. -1.
          1    1    1    2  502    0 -0.55467019108E+02 -0.44198540530E+02  0.17191053733E+04  0.17205677510E+04  0.00000000000E+00 0. -1.
         22    1    3    3    0    0  0.44714809964E+02 -0.75698037362E+02  0.54822550999E+02  0.10361042027E+03  0.00000000000E+00 0. -1.
         22    1    3    3    0    0  0.24672044811E+02  0.48626729811E+02  0.89461774313E+01  0.55256698580E+02  0.00000000000E+00 0. -1.
</event>
<event>
 7    1  0.5537228E-006  0.1487025E+03  0.7818608E-02  0.1270549E+00
          2   -1    0    0  502    0  0.00000000000E+00  0.00000000000E+00  0.20761239354E+04  0.20761239354E+04  0.00000000000E+00 0. -1.
          1   -1    0    0  501    0 -0.00000000000E+00 -0.00000000000E+00 -0.19296361958E+03  0.19296361958E+03  0.00000000000E+00 0. -1.
         25    2    1    2    0    0  0.14891977248E+03 -0.40646979043E+02  0.45004750829E+03  0.49193086563E+03  0.12499576513E+03 0.  0.
          2    1    1    2  501    0 -0.14577315836E+03 -0.33120293560E+02 -0.13851416284E+03  0.20379632197E+03  0.00000000000E+00 0. -1.
          1    1    1    2  502    0 -0.31466141240E+01  0.73767272603E+02  0.15716269704E+04  0.15733603674E+04  0.00000000000E+00 0. -1.
         22    1    3    3    0    0  0.76496134384E+02 -0.53058879801E+02  0.37698376052E+03  0.38830871609E+03  0.00000000000E+00 0. -1.
         22    1    3    3    0    0  0.72423638097E+02  0.12411900758E+02  0.73063747774E+02  0.10362214954E+03  0.00000000000E+00 0. -1.
</event>
<event>
 7    1  0.5537228E-006  0.2983782E+02  0.7818608E-02  0.1614799E+00
          2   -1    0    0  502    0  0.00000000000E+00  0.00000000000E+00  0.65442156055E+02  0.65442156055E+02  0.00000000000E+00 0. -1.
          1   -1    0    0  501    0 -0.00000000000E+00 -0.00000000000E+00 -0.10304391977E+04  0.10304391977E+04  0.00000000000E+00 0. -1.
         25    2    1    2    0    0  0.25338683544E+02  0.26023016683E+02 -0.28534626710E+02  0.13325750750E+03  0.12499636835E+03 0.  0.
          2    1    1    2  501    0 -0.26937101877E+02  0.44401333331E+01 -0.93128196435E+03  0.93168203769E+03  0.00000000000E+00 0. -1.
          1    1    1    2  502    0  0.15984183332E+01 -0.30463150016E+02 -0.51804506084E+01  0.30941808586E+02  0.00000000000E+00 0. -1.
         22    1    3    3    0    0  0.68914644124E+02  0.77216531699E+01  0.12742812578E+02  0.70506959762E+02  0.00000000000E+00 0. -1.
         22    1    3    3    0    0 -0.43575960580E+02  0.18301363513E+02 -0.41277439289E+02  0.62750547736E+02  0.00000000000E+00 0. -1.
</event>
<event>
 7    1  0.5537228E-006  0.6120891E+02  0.7818608E-02  0.1424553E+00
          2   -1    0    0  502    0  0.00000000000E+00  0.00000000000E+00  0.39086713999E+03  0.39086713999E+03  0.00000000000E+00 0. -1.
          1   -1    0    0  501    0 -0.00000000000E+00 -0.00000000000E+00 -0.16249145395E+04  0.16249145395E+04  0.00000000000E+00 0. -1.
         25    2    1    2    0    0  0.44534218406E+02  0.12626103308E+02 -0.11540828072E+03  0.17631260006E+03  0.12499738632E+03 0.  0.
          2    1    1    2  501    0  0.65903138746E+01 -0.47305474463E+02 -0.14760177656E+04  0.14767903320E+04  0.00000000000E+00 0. -1.
          1    1    1    2  502    0 -0.51124532280E+02  0.34679371155E+02  0.35737864688E+03  0.36267874742E+03  0.00000000000E+00 0. -1.
         22    1    3    3    0    0 -0.20294586202E+02  0.23074544433E+02 -0.10552416831E+03  0.10990748349E+03  0.00000000000E+00 0.  1.
         22    1    3    3    0    0  0.64828804608E+02 -0.10448441126E+02 -0.98841124174E+01  0.66405116573E+02  0.00000000000E+00 0.  1.
</event>
<event>
 7    1  0.5537228E-006  0.1061979E+03  0.7818608E-02  0.1323399E+00
          2   -1    0    0  502    0  0.00000000000E+00  0.00000000000E+00  0.54565473685E+03  0.54565473685E+03  0.00000000000E+00 0. -1.
          1   -1    0    0  501    0 -0.00000000000E+00 -0.00000000000E+00 -0.41416253237E+03  0.41416253237E+03  0.00000000000E+00 0. -1.
         25    2    1    2    0    0 -0.93970855403E+02 -0.87598741108E+02 -0.35900169574E+02  0.18280565552E+03  0.12500009762E+03 0.  0.
          2    1    1    2  501    0 -0.88972845127E+01  0.62727387277E+02 -0.29547933087E+03  0.30219517163E+03  0.00000000000E+00 0. -1.
          1    1    1    2  502    0  0.10286813992E+03  0.24871353832E+02  0.46287170492E+03  0.47481644208E+03  0.00000000000E+00 0. -1.
         22    1    3    3    0    0 -0.96677680879E+02 -0.11445258977E+03 -0.19145497780E+02  0.15103813879E+03  0.00000000000E+00 0. -1.
         22    1    3    3    0    0  0.27068254753E+01  0.26853848659E+02 -0.16754671794E+02  0.31767516725E+02  0.00000000000E+00 0. -1.
</event>
<event>
 7    1  0.5537228E-006  0.1162916E+03  0.7818608E-02  0.1284367E+00
          2   -1    0    0  502    0  0.00000000000E+00  0.00000000000E+00  0.22851655775E+04  0.22851655775E+04  0.00000000000E+00 0. -1.
          1   -1    0    0  501    0 -0.00000000000E+00 -0.00000000000E+00 -0.67749918798E+03  0.67749918798E+03  0.00000000000E+00 0. -1.
         25    2    1    2    0    0 -0.74833338605E+02 -0.18095364594E+03  0.26550584541E+03  0.35279279997E+03  0.12500062088E+03 0.  0.
          2    1    1    2  501    0  0.27037359284E+02  0.78192349875E+02 -0.62952173179E+03  0.63493517242E+03  0.00000000000E+00 0. -1.
          1    1    1    2  502    0  0.47795979321E+02  0.10276129607E+03  0.19716822759E+04  0.19749367931E+04  0.00000000000E+00 0. -1.
         22    1    3    3    0    0 -0.40775371874E+02 -0.12761091581E+03  0.78283312806E+02  0.15516266900E+03  0.00000000000E+00 0. -1.
         22    1    3    3    0    0 -0.34057966730E+02 -0.53342730126E+02  0.18722253260E+03  0.19763013098E+03  0.00000000000E+00 0. -1.
</event>
<event>
 7    1  0.5537228E-006  0.1482851E+03  0.7818608E-02  0.1381949E+00
          2   -1    0    0  502    0  0.00000000000E+00  0.00000000000E+00  0.10034831286E+04  0.10034831286E+04  0.00000000000E+00 0. -1.
          1   -1    0    0  501    0 -0.00000000000E+00 -0.00000000000E+00 -0.33714823315E+03  0.33714823315E+03  0.00000000000E+00 0. -1.
         25    2    1    2    0    0  0.33521423112E+02  0.14859804078E+03  0.20139713859E+03  0.28176380050E+03  0.12499987325E+03 0.  0.
          2    1    1    2  501    0 -0.58185677733E+02 -0.13624928394E+03 -0.27821497038E+03  0.31520312532E+03  0.00000000000E+00 0. -1.
          1    1    1    2  502    0  0.24664254622E+02 -0.12348756846E+02  0.74315272728E+03  0.74366443597E+03  0.00000000000E+00 0. -1.
         22    1    3    3    0    0 -0.33241511622E+02  0.56546502067E+00  0.47909215234E+02  0.58314755851E+02  0.00000000000E+00 0.  1.
         22    1    3    3    0    0  0.66762934734E+02  0.14803257576E+03  0.15348792335E+03  0.22344904465E+03  0.00000000000E+00 0.  1.
</event>
<event>
 7    1  0.5537228E-006  0.7291346E+02  0.7818608E-02  0.1369965E+00
          2   -1    0    0  502    0  0.00000000000E+00  0.00000000000E+00  0.19151180413E+04  0.19151180413E+04  0.00000000000E+00 0. -1.
          1   -1    0    0  501    0 -0.00000000000E+00 -0.00000000000E+00 -0.17186725521E+03  0.17186725521E+03  0.00000000000E+00 0. -1.
         25    2    1    2    0    0  0.21659925797E+02  0.43689323760E+02  0.25698153787E+03  0.28990166198E+03  0.12500221364E+03 0.  0.
          2    1    1    2  501    0 -0.73689701446E+02 -0.10170499681E+02 -0.14588514488E+03  0.16375618052E+03  0.00000000000E+00 0. -1.
          1    1    1    2  502    0  0.52029775649E+02 -0.33518824079E+02  0.16321543931E+04  0.16333274540E+04  0.00000000000E+00 0. -1.
         22    1    3    3    0    0  0.45995972433E+02 -0.25716964906E+02  0.15820128393E+03  0.16674722787E+03  0.00000000000E+00 0.  1.
         22    1    3    3    0    0 -0.24336046635E+02  0.69406288666E+02  0.98780253937E+02  0.12315443411E+03  0.00000000000E+00 0.  1.
</event>
<event>
 7    1  0.5537228E-006  0.1065682E+03  0.7818608E-02  0.1303496E+00
          2   -1    0    0  502    0  0.00000000000E+00  0.00000000000E+00  0.60828341007E+02  0.60828341007E+02  0.00000000000E+00 0. -1.
          1   -1    0    0  501    0 -0.00000000000E+00 -0.00000000000E+00 -0.14285973700E+04  0.14285973700E+04  0.00000000000E+00 0. -1.
         25    2    1    2    0    0  0.38246900702E+02  0.11745659659E+03 -0.11210532515E+04  0.11347439796E+04  0.12499851641E+03 0.  0.
          2    1    1    2  501    0 -0.80689071399E+02 -0.54943374544E+02 -0.26021728904E+03  0.27792541835E+03  0.00000000000E+00 0. -1.
          1    1    1    2  502    0  0.42442170697E+02 -0.62513222043E+02  0.13501511504E+02  0.76756313073E+02  0.00000000000E+00 0. -1.
         22    1    3    3    0    0 -0.34571914519E+01  0.15198008381E+02 -0.10684450375E+02  0.18896801616E+02  0.00000000000E+00 0.  1.
         22    1    3    3    0    0  0.41704092154E+02  0.10225858821E+03 -0.11103688011E+04  0.11158471780E+04  0.00000000000E+00 0.  1.
</event>
<event>
 7    1  0.5537228E-006  0.6565991E+02  0.7818608E-02  0.1480480E+00
          2   -1    0    0  502    0  0.00000000000E+00  0.00000000000E+00  0.11508753592E+04  0.11508753592E+04  0.00000000000E+00 0. -1.
          1   -1    0    0  501    0 -0.00000000000E+00 -0.00000000000E+00 -0.52414997179E+03  0.52414997179E+03  0.00000000000E+00 0. -1.
         25    2    1    2    0    0 -0.43646548649E+02  0.58780232713E+02  0.45213891721E+03  0.47478212183E+03  0.12501330242E+03 0.  0.
          2    1    1    2  501    0  0.29110196619E+02  0.49469116295E+01 -0.51084726765E+03  0.51169991826E+03  0.00000000000E+00 0. -1.
          1    1    1    2  502    0  0.14536352030E+02 -0.63727144343E+02  0.68543373784E+03  0.68854329089E+03  0.00000000000E+00 0. -1.
         22    1    3    3    0    0 -0.44086146298E+02 -0.35565096880E+01  0.36483720479E+03  0.36750839861E+03  0.00000000000E+00 0. -1.
         22    1    3    3    0    0  0.43959764954E+00  0.62336742401E+02  0.87301712426E+02  0.10727372321E+03  0.00000000000E+00 0. -1.
</event>
<event>
 7    1  0.5537228E-006  0.2816822E+03  0.7818608E-02  0.1274804E+00
          2   -1    0    0  502    0  0.00000000000E+00  0.00000000000E+00  0.22793532976E+04  0.22793532976E+04  0.00000000000E+00 0. -1.
          1   -1    0    0  501    0 -0.00000000000E+00 -0.00000000000E+00 -0.94237753959E+03  0.94237753959E+03  0.00000000000E+00 0. -1.
         25    2    1    2    0    0 -0.31368981824E+03  0.46665966931E+02 -0.44927739195E+03  0.56396247133E+03  0.12499791840E+03 0.  0.
          2    1    1    2  501    0  0.34467840244E+02 -0.14550129042E+02 -0.42604661826E+03  0.42768616905E+03  0.00000000000E+00 0. -1.
          1    1    1    2  502    0  0.27922197800E+03 -0.32115837890E+02  0.22122997682E+04  0.22300821968E+04  0.00000000000E+00 0. -1.
         22    1    3    3    0    0 -0.18309174993E+03 -0.29700094526E+02 -0.20344273059E+03  0.27530642770E+03  0.00000000000E+00 0.  1.
         22    1    3    3    0    0 -0.13059806831E+03  0.76366061457E+02 -0.24583466137E+03  0.28865604362E+03  0.00000000000E+00 0.  1.
</event>
<event>
 7    1  0.5537228E-006  0.1109769E+03  0.7818608E-02  0.1294736E+00
          2   -1    0    0  502    0  0.00000000000E+00  0.00000000000E+00  0.66352110811E+03  0.66352110811E+03  0.00000000000E+00 0. -1.
          1   -1    0    0  501    0 -0.00000000000E+00 -0.00000000000E+00 -0.27875955761E+04  0.27875955761E+04  0.00000000000E+00 0. -1.
         25    2    1    2    0    0 -0.20686642825E+02  0.32856687507E+02 -0.12279922515E+03  0.17947632865E+03  0.12499841496E+03 0.  0.
          2    1    1    2  501    0 -0.70794917501E+02  0.34306403706E+02 -0.26307958049E+04  0.26319717735E+04  0.00000000000E+00 0. -1.
          1    1    1    2  502    0  0.91481560326E+02 -0.67163091213E+02  0.62952056209E+03  0.63966858200E+03  0.00000000000E+00 0. -1.
         22    1    3    3    0    0 -0.20395875071E+02  0.80525999213E+02 -0.73842009932E+02  0.11114436873E+03  0.00000000000E+00 0. -1.
         22    1    3    3    0    0 -0.29076775355E+00 -0.47669311706E+02 -0.48957215223E+02  0.68331959922E+02  0.00000000000E+00 0. -1.
</event>
<event>
 7    1  0.5537228E-006  0.7508490E+02  0.7818608E-02  0.1492542E+00
          2   -1    0    0  502    0  0.00000000000E+00  0.00000000000E+00  0.94537362298E+03  0.94537362298E+03  0.00000000000E+00 0. -1.
          1   -1    0    0  501    0 -0.00000000000E+00 -0.00000000000E+00 -0.37633851886E+03  0.37633851886E+03  0.00000000000E+00 0. -1.
         25    2    1    2    0    0  0.71337946325E+02 -0.52635340823E+02  0.52325903292E+03  0.54523885833E+03  0.12500326159E+03 0.  0.
          2    1    1    2  501    0 -0.23714270869E+02 -0.87123817253E+00 -0.36183691646E+03  0.36261423001E+03  0.00000000000E+00 0. -1.
          1    1    1    2  502    0 -0.47623675455E+02  0.53506578995E+02  0.40761298765E+03  0.41385905350E+03  0.00000000000E+00 0. -1.
         22    1    3    3    0    0  0.15354837034E+02  0.20105254620E+02  0.33337072518E+03  0.33432922799E+03  0.00000000000E+00 0.  1.
         22    1    3    3    0    0  0.55983109291E+02 -0.72740595443E+02  0.18988830775E+03  0.21090963034E+03  0.00000000000E+00 0.  1.
</event>
<event>
 7    1  0.7825158E-006  0.9117387E+02  0.7818608E-02  0.1374041E+00
          2   -1    0    0  502    0  0.00000000000E+00  0.00000000000E+00  0.55563138269E+03  0.55563138269E+03  0.00000000000E+00 0. -1.
          1   -1    0    0  501    0 -0.00000000000E+00 -0.00000000000E+00 -0.26849872313E+04  0.26849872313E+04  0.00000000000E+00 0. -1.
         25    2    1    2    0    0  0.28143883984E+02  0.69219379428E+02 -0.10099811788E+04  0.10204264542E+04  0.12499906515E+03 0.  0.
          2    1    1    2  501    0 -0.43090082425E+02  0.20824924919E+02 -0.16656531752E+04  0.16663405813E+04  0.00000000000E+00 0. -1.
          1    1    1    2  502    0  0.14946198441E+02 -0.90044304346E+02  0.54627850537E+03  0.55385157851E+03  0.00000000000E+00 0. -1.
         22    1    3    3    0    0 -0.41203344720E+02  0.57096619751E+02 -0.37485087967E+03  0.38140650439E+03  0.00000000000E+00 0.  1.
         22    1    3    3    0    0  0.69347228704E+02  0.12122759676E+02 -0.63513029912E+03  0.63901994984E+03  0.00000000000E+00 0.  1.
</event>
<event>
 7    1  0.5537228E-006  0.9836232E+02  0.7818608E-02  0.1321791E+00
          2   -1    0    0  502    0  0.00000000000E+00  0.00000000000E+00  0.30295282911E+04  0.30295282911E+04  0.00000000000E+00 0. -1.
          1   -1    0    0  501    0 -0.00000000000E+00 -0.00000000000E+00 -0.60099327903E+02  0.60099327903E+02  0.00000000000E+00 0. -1.
         25    2    1    2    0    0  0.63734107521E+02 -0.34948247121E+02  0.87765974426E+03  0.88949165146E+03  0.12500141955E+03 0.  0.
          2    1    1    2  501    0  0.41998213709E+02  0.55234301334E+02 -0.30029808148E+02  0.75607323561E+02  0.00000000000E+00 0. -1.
          1    1    1    2  502    0 -0.10573232123E+03 -0.20286054214E+02  0.21217990271E+04  0.21245286440E+04  0.00000000000E+00 0. -1.
         22    1    3    3    0    0  0.95443320233E+02 -0.44777850891E+01  0.69895062058E+03  0.70545123712E+03  0.00000000000E+00 0. -1.
         22    1    3    3    0    0 -0.31709212712E+02 -0.30470462031E+02  0.17870912368E+03  0.18404041435E+03  0.00000000000E+00 0. -1.
</event>
<event>
 7    1  0.5537228E-006  0.3546349E+02  0.7818608E-02  0.1601466E+00
          2   -1    0    0  502    0  0.00000000000E+00  0.00000000000E+00  0.12261852669E+04  0.12261852669E+04  0.00000000000E+00 0. -1.
          1   -1    0    0  501    0 -0.00000000000E+00 -0.00000000000E+00 -0.11584762955E+03  0.11584762955E+03  0.00000000000E+00 0. -1.
         25    2    1    2    0    0 -0.23675504423E+02 -0.43210420326E+01 -0.22604393444E+02  0.12928673849E+03  0.12499960492E+03 0.  0.
          2    1    1    2  501    0  0.33511751648E+02 -0.18518476296E+02 -0.30553710270E+02  0.48984698367E+02  0.00000000000E+00 0. -1.
          1    1    1    2  502    0 -0.98362472247E+01  0.22839518328E+02  0.11634957411E+04  0.11637614596E+04  0.00000000000E+00 0. -1.
         22    1    3    3    0    0 -0.66051098588E+02  0.10742447236E+02 -0.43377056097E+02  0.79747832528E+02  0.00000000000E+00 0. -1.
         22    1    3    3    0    0  0.42375594165E+02 -0.15063489268E+02  0.20772662653E+02  0.49538905957E+02  0.00000000000E+00 0. -1.
</event>
<event>
 7    1  0.5537228E-006  0.1162313E+03  0.7818608E-02  0.1427919E+00
          2   -1    0    0  502    0  0.00000000000E+00  0.00000000000E+00  0.43583828783E+03  0.43583828783E+03  0.00000000000E+00 0. -1.
          1   -1    0    0  501    0 -0.00000000000E+00 -0.00000000000E+00 -0.21232318980E+03  0.21232318980E+03  0.00000000000E+00 0. -1.
         25    2    1    2    0    0  0.88275566462E+02 -0.57466049250E+02 -0.12196960129E+03  0.20394903221E+03  0.12499480648E+03 0.  0.
          2    1    1    2  501    0  0.20211612140E+02  0.13873721213E+02 -0.36928761346E+02  0.44325193967E+02  0.00000000000E+00 0. -1.
          1    1    1    2  502    0 -0.10848717860E+03  0.43592328037E+02  0.38241346067E+03  0.39988725146E+03  0.00000000000E+00 0. -1.
         22    1    3    3    0    0 -0.75306415761E+01  0.19834494223E+02 -0.64865249600E+02  0.68246745924E+02  0.00000000000E+00 0.  1.
         22    1    3    3    0    0  0.95806208038E+02 -0.77300543473E+02 -0.57104351692E+02  0.13570228628E+03  0.00000000000E+00 0.  1.
</event>
<event>
 7    1  0.5537228E-006  0.4148173E+02  0.7818608E-02  0.1582335E+00
          2   -1    0    0  502    0  0.00000000000E+00  0.00000000000E+00  0.81056048591E+02  0.81056048591E+02  0.00000000000E+00 0. -1.
          1   -1    0    0  501    0 -0.00000000000E+00 -0.00000000000E+00 -0.82751489069E+03  0.82751489069E+03  0.00000000000E+00 0. -1.
         25    2    1    2    0    0  0.15403266944E+02 -0.26242627185E+02 -0.87726302765E+02  0.15570384722E+03  0.12498739028E+03 0.  0.
          2    1    1    2  501    0 -0.17309467033E+02 -0.16454118338E+02 -0.69585023799E+03  0.69625994382E+03  0.00000000000E+00 0. -1.
          1    1    1    2  502    0  0.19062000890E+01  0.42696745523E+02  0.37117698661E+02  0.56607148232E+02  0.00000000000E+00 0. -1.
         22    1    3    3    0    0  0.29771944273E+02 -0.53420725319E+02  0.16593706919E+01  0.61179212732E+02  0.00000000000E+00 0.  1.
         22    1    3    3    0    0 -0.14368677329E+02  0.27178098134E+02 -0.89385673457E+02  0.94524634491E+02  0.00000000000E+00 0.  1.
</event>
<event>
 7    1  0.5537228E-006  0.5261994E+02  0.7818608E-02  0.1449135E+00
          2   -1    0    0  502    0  0.00000000000E+00  0.00000000000E+00  0.40935819936E+03  0.40935819936E+03  0.00000000000E+00 0. -1.
          1   -1    0    0  501    0 -0.00000000000E+00 -0.00000000000E+00 -0.58702342495E+02  0.58702342495E+02  0.00000000000E+00 0. -1.
         25    2    1    2    0    0 -0.43324325437E+02 -0.96839154624E+00  0.15857854818E+03  0.20651980084E+03  0.12500134895E+03 0.  0.
          2    1    1    2  501    0  0.83034310936E+01  0.45443501590E+02 -0.13647568584E+02  0.48169647424E+02  0.00000000000E+00 0. -1.
          1    1    1    2  502    0  0.35020894343E+02 -0.44475110044E+02  0.20572487727E+03  0.21337109360E+03  0.00000000000E+00 0. -1.
         22    1    3    3    0    0  0.30156404191E+02 -0.39101457003E+02  0.54787758321E+02  0.73756566591E+02  0.00000000000E+00 0. -1.
         22    1    3    3    0    0 -0.73480729628E+02  0.38133065457E+02  0.10379078986E+03  0.13276323425E+03  0.00000000000E+00 0. -1.
</event>
<event>
 7    1  0.5537228E-006  0.1291332E+03  0.7818608E-02  0.1413182E+00
          2   -1    0    0  502    0  0.00000000000E+00  0.00000000000E+00  0.20153468392E+04  0.20153468392E+04  0.00000000000E+00 0. -1.
          1   -1    0    0  501    0 -0.00000000000E+00 -0.00000000000E+00 -0.81260089492E+03  0.81260089492E+03  0.00000000000E+00 0. -1.
         25    2    1    2    0    0 -0.11461666730E+03 -0.83999635474E+02  0.13269124053E+04  0.13403402098E+04  0.12498971015E+03 0.  0.
          2    1    1    2  501    0  0.91068017331E+02  0.91491569694E+02 -0.80049040189E+03  0.81083227281E+03  0.00000000000E+00 0. -1.
          1    1    1    2  502    0  0.23548649971E+02 -0.74919342199E+01  0.67632394091E+03  0.67677525150E+03  0.00000000000E+00 0. -1.
         22    1    3    3    0    0 -0.10294471188E+03 -0.69002751120E+02  0.57573961962E+03  0.58892707780E+03  0.00000000000E+00 0.  1.
         22    1    3    3    0    0 -0.11671955420E+02 -0.14996884354E+02  0.75117278565E+03  0.75141313203E+03  0.00000000000E+00 0.  1.
</event>
<event>
 7    1  0.5537228E-006  0.5849906E+02  0.7818608E-02  0.1480014E+00
          2   -1    0    0  502    0  0.00000000000E+00  0.00000000000E+00  0.48677393041E+03  0.48677393041E+03  0.00000000000E+00 0. -1.
          1   -1    0    0  501    0 -0.00000000000E+00 -0.00000000000E+00 -0.12983978782E+03  0.12983978782E+03  0.00000000000E+00 0. -1.
         25    2    1    2    0    0 -0.63501085969E+02  0.53988923668E+02  0.35365217378E+02  0.15434659307E+03  0.12499992157E+03 0.  0.
          2    1    1    2  501    0  0.10273289988E+02 -0.31624402099E+02 -0.64147651871E+02  0.72253474213E+02  0.00000000000E+00 0. -1.
          1    1    1    2  502    0  0.53227795981E+02 -0.22364521569E+02  0.38571657709E+03  0.39001365095E+03  0.00000000000E+00 0. -1.
         22    1    3    3    0    0 -0.60833820665E+02  0.83178092239E+02  0.57140868148E+02  0.11783220094E+03  0.00000000000E+00 0. -1.
         22    1    3    3    0    0 -0.26672653036E+01 -0.29189168571E+02 -0.21775650770E+02  0.36514392129E+02  0.00000000000E+00 0. -1.
</event>
<event>
 7    1  0.5537228E-006  0.1044962E+03  0.7818608E-02  0.1420992E+00
          2   -1    0    0  502    0  0.00000000000E+00  0.00000000000E+00  0.87822489485E+02  0.87822489485E+02  0.00000000000E+00 0. -1.
          1   -1    0    0  501    0 -0.00000000000E+00 -0.00000000000E+00 -0.11330558156E+04  0.11330558156E+04  0.00000000000E+00 0. -1.
         25    2    1    2    0    0  0.77673916779E+02 -0.92415429072E+02 -0.54091012274E+02  0.18200343527E+03  0.12500225583E+03 0.  0.
          2    1    1    2  501    0 -0.16133484890E+02  0.23797126905E+02 -0.92495181261E+03  0.92539853481E+03  0.00000000000E+00 0. -1.
          1    1    1    2  502    0 -0.61540431889E+02  0.68618302167E+02 -0.66190501202E+02  0.11347633497E+03  0.00000000000E+00 0. -1.
         22    1    3    3    0    0  0.24256439830E+01  0.21789954913E+02 -0.38560512611E+02  0.44357626364E+02  0.00000000000E+00 0.  1.
         22    1    3    3    0    0  0.75248272796E+02 -0.11420538398E+03 -0.15530499663E+02  0.13764580891E+03  0.00000000000E+00 0.  1.
</event>
<event>
 7    1  0.5537228E-006  0.9884497E+02  0.7818608E-02  0.1384017E+00
          2   -1    0    0  502    0  0.00000000000E+00  0.00000000000E+00  0.15619604145E+04  0.15619604145E+04  0.00000000000E+00 0. -1.
          1   -1    0    0  501    0 -0.00000000000E+00 -0.00000000000E+00 -0.11014357944E+04  0.11014357944E+04  0.00000000000E+00 0. -1.
         25    2    1    2    0    0 -0.62444657234E+02  0.20826953776E+02 -0.97691770527E+01  0.14161550559E+03  0.12500566940E+03 0.  0.
          2    1    1    2  501    0  0.10002037798E+03 -0.52134981468E+01 -0.10230207813E+04  0.10279118520E+04  0.00000000000E+00 0. -1.
          1    1    1    2  502    0 -0.37575720743E+02 -0.15613455629E+02  0.14933145784E+04  0.14938688513E+04  0.00000000000E+00 0. -1.
         22    1    3    3    0    0 -0.44607766092E+02  0.54981435927E+01  0.55977846102E+02  0.71788589852E+02  0.00000000000E+00 0. -1.
         22    1    3    3    0    0 -0.17836891142E+02  0.15328810183E+02 -0.65747023155E+02  0.69826915734E+02  0.00000000000E+00 0. -1.
</event>
<event>
 7    1  0.5537228E-006  0.1008876E+03  0.7818608E-02  0.1412724E+00
          2   -1    0    0  502    0  0.00000000000E+00  0.00000000000E+00  0.12166659896E+04  0.12166659896E+04  0.00000000000E+00 0. -1.
          1   -1    0    0  501    0 -0.00000000000E+00 -0.00000000000E+00 -0.14872086315E+03  0.14872086315E+03  0.00000000000E+00 0. -1.
         25    2    1    2    0    0 -0.83421265927E+02 -0.80535459988E+02 -0.13392872720E+02  0.17102123822E+03  0.12499530775E+03 0.  0.
          2    1    1    2  501    0  0.80536093138E+02  0.48923754425E+02 -0.16843769525E+02  0.95725172326E+02  0.00000000000E+00 0. -1.
          1    1    1    2  502    0  0.28851727888E+01  0.31611705563E+02  0.10981817686E+04  0.10986404422E+04  0.00000000000E+00 0. -1.
         22    1    3    3    0    0 -0.23545478773E+02  0.32437362255E+02  0.93424476416E+01  0.41156449903E+02  0.00000000000E+00 0. -1.
         22    1    3    3    0    0 -0.59875787154E+02 -0.11297282224E+03 -0.22735320361E+02  0.12986478832E+03  0.00000000000E+00 0. -1.
</event>
<event>
 7    1  0.5537228E-006  0.1087084E+03  0.7818608E-02  0.1287187E+00
          2   -1    0    0  502    0  0.00000000000E+00  0.00000000000E+00  0.35078583454E+03  0.35078583454E+03  0.00000000000E+00 0. -1.
          1   -1    0    0  501    0 -0.00000000000E+00 -0.00000000000E+00 -0.76887660990E+03  0.76887660990E+03  0.00000000000E+00 0. -1.
         25    2    1    2    0    0 -0.10782406475E+02  0.28089662084E+02 -0.12564525632E+03  0.17976923804E+03  0.12499983641E+03 0.  0.
          2    1    1    2  501    0 -0.62770568848E+02  0.59056485344E+02 -0.60296638151E+03  0.60909463140E+03  0.00000000000E+00 0. -1.
          1    1    1    2  502    0  0.73552975324E+02 -0.87146147427E+02  0.31052086248E+03  0.33079857500E+03  0.00000000000E+00 0. -1.
         22    1    3    3    0    0 -0.67877997118E+02  0.18395732262E+02 -0.75286036074E+02  0.10302335990E+03  0.00000000000E+00 0.  1.
         22    1    3    3    0    0  0.57095590643E+02  0.96939298222E+01 -0.50359220250E+02  0.76745878133E+02  0.00000000000E+00 0.  1.
</event>
<event>
 7    1  0.5537228E-006  0.6158990E+02  0.7818608E-02  0.1532749E+00
          2   -1    0    0  502    0  0.00000000000E+00  0.00000000000E+00  0.10653118937E+04  0.10653118937E+04  0.00000000000E+00 0. -1.
          1   -1    0    0  501    0 -0.00000000000E+00 -0.00000000000E+00 -0.47753203266E+03  0.47753203266E+03  0.00000000000E+00 0. -1.
         25    2    1    2    0    0 -0.61531018853E+02 -0.35405868917E+02  0.14589979852E+03  0.20482188208E+03  0.12500244132E+03 0.  0.
          2    1    1    2  501    0  0.60036143357E+02  0.13407192868E+02 -0.44582212327E+03  0.45004606090E+03  0.00000000000E+00 0. -1.
          1    1    1    2  502    0  0.14948754967E+01  0.21998676050E+02  0.88770218581E+03  0.88797598339E+03  0.00000000000E+00 0. -1.
         22    1    3    3    0    0  0.27790048932E+02 -0.46040984414E+02  0.56417929392E+02  0.77942554631E+02  0.00000000000E+00 0.  1.
         22    1    3    3    0    0 -0.89321067785E+02  0.10635115497E+02  0.89481869127E+02  0.12687932745E+03  0.00000000000E+00 0.  1.
</event>
<event>
 7    1  0.5537228E-006  0.3965182E+02  0.7818608E-02  0.1569670E+00
          2   -1    0    0  502    0  0.00000000000E+00  0.00000000000E+00  0.71873831377E+03  0.71873831377E+03  0.00000000000E+00 0. -1.
          1   -1    0    0  501    0 -0.00000000000E+00 -0.00000000000E+00 -0.92138663822E+03  0.92138663822E+03  0.00000000000E+00 0. -1.
         25    2    1    2    0    0  0.61007317068E+01  0.65285406596E+02  0.18142696229E+03  0.22987079618E+03  0.12500174818E+03 0.  0.
          2    1    1    2  501    0  0.71865967136E+00 -0.27017941026E+02 -0.89622452853E+03  0.89663197085E+03  0.00000000000E+00 0. -1.
          1    1    1    2  502    0 -0.68193913782E+01 -0.38267465570E+02  0.51214924179E+03  0.51362218496E+03  0.00000000000E+00 0. -1.
         22    1    3    3    0    0 -0.29612891515E+02 -0.48360043474E+00  0.14243664622E+03  0.14548317910E+03  0.00000000000E+00 0.  1.
         22    1    3    3    0    0  0.35713623222E+02  0.65769007031E+02  0.38990316067E+02  0.84387617080E+02  0.00000000000E+00 0.  1.
</event>
<event>
 7    1  0.5537228E-006  0.8609946E+02  0.7818608E-02  0.1349983E+00
          2   -1    0    0  502    0  0.00000000000E+00  0.00000000000E+00  0.61649326041E+03  0.61649326041E+03  0.00000000000E+00 0. -1.
          1   -1    0    0  501    0 -0.00000000000E+00 -0.00000000000E+00 -0.42764722668E+02  0.42764722668E+02  0.00000000000E+00 0. -1.
         25    2    1    2    0    0  0.20306615502E+02  0.43783372124E+02  0.16903856874E+03  0.21570491046E+03  0.12500091346E+03 0.  0.
          2    1    1    2  501    0  0.60354588274E+02  0.14175833909E+02  0.65794846230E+02  0.90402391468E+02  0.00000000000E+00 0. -1.
          1    1    1    2  502    0 -0.80661203776E+02 -0.57959206034E+02  0.33889512278E+03  0.35315068116E+03  0.00000000000E+00 0. -1.
         22    1    3    3    0    0 -0.80195754970E+01 -0.82558618136E+01  0.15419603406E+03  0.15462499722E+03  0.00000000000E+00 0. -1.
         22    1    3    3    0    0  0.28326190999E+02  0.52039233938E+02  0.14842534678E+02  0.61079913237E+02  0.00000000000E+00 0. -1.
</event>
<event>
 7    1  0.5537228E-006  0.5190064E+02  0.7818608E-02  0.1566765E+00
          2   -1    0    0  502    0  0.00000000000E+00  0.00000000000E+00  0.97251577027E+03  0.97251577027E+03  0.00000000000E+00 0. -1.
          1   -1    0    0  501    0 -0.00000000000E+00 -0.00000000000E+00 -0.65957409397E+03  0.65957409397E+03  0.00000000000E+00 0. -1.
         25    2    1    2    0    0  0.32436991642E+00  0.35465729022E+02  0.17151932960E+03  0.21518157672E+03  0.12500522942E+03 0.  0.
          2    1    1    2  501    0 -0.14522626790E+02  0.15208093796E+02 -0.63668059993E+03  0.63702776951E+03  0.00000000000E+00 0. -1.
          1    1    1    2  502    0  0.14198256874E+02 -0.50673822818E+02  0.77810294663E+03  0.77988051801E+03  0.00000000000E+00 0. -1.
         22    1    3    3    0    0  0.60940303083E+02  0.15958713730E+02  0.61347942141E+02  0.87931627352E+02  0.00000000000E+00 0.  1.
         22    1    3    3    0    0 -0.60615933167E+02  0.19507015292E+02  0.11017138746E+03  0.12724994937E+03  0.00000000000E+00 0.  1.
</event>
<event>
 7    1  0.5537228E-006  0.1098377E+03  0.7818608E-02  0.1322434E+00
          2   -1    0    0  502    0  0.00000000000E+00  0.00000000000E+00  0.98535501866E+03  0.98535501866E+03  0.00000000000E+00 0. -1.
          1   -1    0    0  501    0 -0.00000000000E+00 -0.00000000000E+00 -0.45525170414E+02  0.45525170414E+02  0.00000000000E+00 0. -1.
         25    2    1    2    0    0  0.55160139474E+02 -0.53368719882E+02  0.45389230122E+03  0.47700578082E+03  0.12500173033E+03 0.  0.
          2    1    1    2  501    0  0.47618316895E+02 -0.39367088035E+02  0.15789419312E+02  0.63769722333E+02  0.00000000000E+00 0. -1.
          1    1    1    2  502    0 -0.10277845637E+03  0.92735807916E+02  0.47014812772E+03  0.49010468592E+03  0.00000000000E+00 0. -1.
         22    1    3    3    0    0  0.57454850675E+02 -0.85176696962E+02  0.41045527969E+03  0.42311897405E+03  0.00000000000E+00 0. -1.
         22    1    3    3    0    0 -0.22947112002E+01  0.31807977080E+02  0.43437021525E+02  0.53886806775E+02  0.00000000000E+00 0. -1.
</event>
<event>
 7    1  0.5537228E-006  0.6598686E+02  0.7818608E-02  0.1456719E+00
          2   -1    0    0  502    0  0.00000000000E+00  0.00000000000E+00  0.96956747903E+03  0.96956747903E+03  0.00000000000E+00 0. -1.
          1   -1    0    0  501    0 -0.00000000000E+00 -0.00000000000E+00 -0.24910640990E+03  0.24910640990E+03  0.00000000000E+00 0. -1.
         25    2    1    2    0    0 -0.66923026439E+02 -0.16384929933E+01  0.26436294076E+03  0.29999136554E+03  0.12500271528E+03 0.  0.
          2    1    1    2  501    0  0.57859808243E+02 -0.32006446860E+02 -0.22611265443E+03  0.23558247503E+03  0.00000000000E+00 0. -1.
          1    1    1    2  502    0  0.90632181967E+01  0.33644939853E+02  0.68221078279E+03  0.68310004835E+03  0.00000000000E+00 0. -1.
         22    1    3    3    0    0 -0.43116857359E+02  0.61029329637E+02  0.14282772694E+03  0.16119367868E+03  0.00000000000E+00 0. -1.
         22    1    3    3    0    0 -0.23806169081E+02 -0.62667822631E+02  0.12153521382E+03  0.13879768686E+03  0.00000000000E+00 0. -1.
</event>
<event>
 7    1  0.5537228E-006  0.7928438E+02  0.7818608E-02  0.1401124E+00
          2   -1    0    0  502    0  0.00000000000E+00  0.00000000000E+00  0.13063789123E+04  0.13063789123E+04  0.00000000000E+00 0. -1.
          1   -1    0    0  501    0 -0.00000000000E+00 -0.00000000000E+00 -0.73627958918E+02  0.73627958918E+02  0.00000000000E+00 0. -1.
         25    2    1    2    0    0  0.52801517046E+02  0.80441073294E+02  0.10348803196E+03  0.18865950920E+03  0.12499548463E+03 0.  0.
          2    1    1    2  501    0 -0.65898764310E+02 -0.38187589835E+02  0.16786583070E+02  0.77991849100E+02  0.00000000000E+00 0. -1.
          1    1    1    2  502    0  0.13097247263E+02 -0.42253483459E+02  0.11124763383E+04  0.11133555129E+04  0.00000000000E+00 0. -1.
         22    1    3    3    0    0  0.71442181463E+02  0.70928130324E+02  0.20065332386E+02  0.10265185107E+03  0.00000000000E+00 0. -1.
         22    1    3    3    0    0 -0.18640664416E+02  0.95129429697E+01  0.83422699572E+02  0.86007658134E+02  0.00000000000E+00 0. -1.
</event>
<event>
 7    1  0.5537228E-006  0.4526550E+03  0.7818608E-02  0.1105842E+00
          2   -1    0    0  502    0  0.00000000000E+00  0.00000000000E+00  0.80525106375E+03  0.80525106375E+03  0.00000000000E+00 0. -1.
          1   -1    0    0  501    0 -0.00000000000E+00 -0.00000000000E+00 -0.10805152295E+04  0.10805152295E+04  0.00000000000E+00 0. -1.
         25    2    1    2    0    0  0.25743959829E+03  0.42911112421E+03  0.13340457116E+03  0.53276042477E+03  0.12500154760E+03 0.  0.
          2    1    1    2  501    0 -0.10570079808E+03 -0.43501273355E+03 -0.80913213119E+03  0.92471808828E+03  0.00000000000E+00 0. -1.
          1    1    1    2  502    0 -0.15173880021E+03  0.59016093398E+01  0.40046339429E+03  0.42828778018E+03  0.00000000000E+00 0. -1.
         22    1    3    3    0    0  0.12713368683E+03  0.12515622805E+03  0.64409836380E+01  0.17851762383E+03  0.00000000000E+00 0.  1.
         22    1    3    3    0    0  0.13030591146E+03  0.30395489616E+03  0.12696358753E+03  0.35424280094E+03  0.00000000000E+00 0.  1.
</event>
<event>
 7    1  0.5537228E-006  0.9865241E+02  0.7818608E-02  0.1446986E+00
          2   -1    0    0  502    0  0.00000000000E+00  0.00000000000E+00  0.21750146568E+04  0.21750146568E+04  0.00000000000E+00 0. -1.
          1   -1    0    0  501    0 -0.00000000000E+00 -0.00000000000E+00 -0.30253056900E+02  0.30253056900E+02  0.00000000000E+00 0. -1.
         25    2    1    2    0    0 -0.38519450132E+02  0.10967620881E+03  0.67013607158E+03  0.69153478684E+03  0.12500155264E+03 0.  0.
          2    1    1    2  501    0  0.43733377492E+02 -0.85190521948E+02  0.98488434718E+02  0.13736813717E+03  0.00000000000E+00 0. -1.
          1    1    1    2  502    0 -0.52139273607E+01 -0.24485686861E+02  0.13761370936E+04  0.13763647897E+04  0.00000000000E+00 0. -1.
         22    1    3    3    0    0 -0.29195656892E+02 -0.22916968866E+02  0.12255537944E+03  0.12805231303E+03  0.00000000000E+00 0. -1.
         22    1    3    3    0    0 -0.93237932401E+01  0.13259317767E+03  0.54758069214E+03  0.56348247381E+03  0.00000000000E+00 0. -1.
</event>
<event>
 7    1  0.5537228E-006  0.3149042E+02  0.7818608E-02  0.1598584E+00
          2   -1    0    0  502    0  0.00000000000E+00  0.00000000000E+00  0.88145994999E+02  0.88145994999E+02  0.00000000000E+00 0. -1.
          1   -1    0    0  501    0 -0.00000000000E+00 -0.00000000000E+00 -0.62153437019E+03  0.62153437019E+03  0.00000000000E+00 0. -1.
         25    2    1    2    0    0  0.41802655217E+02  0.41025516042E+02 -0.25880469037E+03  0.29331682669E+03  0.12499735241E+03 0.  0.
          2    1    1    2  501    0 -0.23894052871E+02 -0.18861645386E+02 -0.34190634541E+03  0.34325884761E+03  0.00000000000E+00 0. -1.
          1    1    1    2  502    0 -0.17908602346E+02 -0.22163870656E+02  0.67322660597E+02  0.73104690891E+02  0.00000000000E+00 0. -1.
         22    1    3    3    0    0  0.19974500893E+02  0.85870941791E+02 -0.16560278790E+03  0.18760885557E+03  0.00000000000E+00 0. -1.
         22    1    3    3    0    0  0.21828154324E+02 -0.44845425749E+02 -0.93201902478E+02  0.10570797112E+03  0.00000000000E+00 0. -1.
</event>
<event>
 7    1  0.5537228E-006  0.1192909E+03  0.7818608E-02  0.1270945E+00
          2   -1    0    0  502    0  0.00000000000E+00  0.00000000000E+00  0.21098149440E+04  0.21098149440E+04  0.00000000000E+00 0. -1.
          1   -1    0    0  501    0 -0.00000000000E+00 -0.00000000000E+00 -0.16579335640E+03  0.16579335640E+03  0.00000000000E+00 0. -1.
         25    2    1    2    0    0  0.70950892896E+02 -0.12249723749E+03  0.77123535507E+03  0.79402084517E+03  0.12500210900E+03 0.  0.
          2    1    1    2  501    0  0.20615721962E+02  0.11779501137E+03 -0.12938922852E+03  0.17618809594E+03  0.00000000000E+00 0. -1.
          1    1    1    2  502    0 -0.91566614858E+02  0.47022261215E+01  0.13021754611E+04  0.13053993593E+04  0.00000000000E+00 0. -1.
         22    1    3    3    0    0  0.10319923280E+03 -0.91628424210E+02  0.48226863920E+03  0.50162624545E+03  0.00000000000E+00 0. -1.
         22    1    3    3    0    0 -0.32248339903E+02 -0.30868813280E+02  0.28896671587E+03  0.29239459972E+03  0.00000000000E+00 0. -1.
</event>
<event>
 7    1  0.5537228E-006  0.1180713E+03  0.7818608E-02  0.1259765E+00
          2   -1    0    0  502    0  0.00000000000E+00  0.00000000000E+00  0.21681458001E+04  0.21681458001E+04  0.00000000000E+00 0. -1.
          1   -1    0    0  501    0 -0.00000000000E+00 -0.00000000000E+00 -0.59884281640E+03  0.59884281640E+03  0.00000000000E+00 0. -1.
         25    2    1    2    0    0  0.10632313736E+03 -0.11599192670E+03  0.33154977887E+03  0.38769705044E+03  0.12500004182E+03 0.  0.
          2    1    1    2  501    0 -0.10327811040E+03 -0.17981297986E+01 -0.56415582540E+03  0.57353412862E+03  0.00000000000E+00 0. -1.
          1    1    1    2  502    0 -0.30450269513E+01  0.11779005650E+03  0.18019090302E+04  0.18057574374E+04  0.00000000000E+00 0. -1.
         22    1    3    3    0    0  0.10974343676E+03 -0.82623669361E+02  0.15131939720E+03  0.20437184889E+03  0.00000000000E+00 0.  1.
         22    1    3    3    0    0 -0.34202994022E+01 -0.33368257342E+02  0.18023038167E+03  0.18332520155E+03  0.00000000000E+00 0.  1.
</event>
<event>
 7    1  0.5537228E-006  0.1563718E+03  0.7818608E-02  0.1197168E+00
          2   -1    0    0  502    0  0.00000000000E+00  0.00000000000E+00  0.13466895790E+03  0.13466895790E+03  0.00000000000E+00 0. -1.
          1   -1    0    0  501    0 -0.00000000000E+00 -0.00000000000E+00 -0.96447181652E+03  0.96447181652E+03  0.00000000000E+00 0. -1.
         25    2    1    2    0    0  0.73237432243E+02  0.77395251406E+02 -0.93148822806E+02  0.18882099792E+03  0.12499167830E+03 0.  0.
          2    1    1    2  501    0  0.61129384034E+02 -0.15738091435E+03 -0.73478921724E+03  0.75393683261E+03  0.00000000000E+00 0. -1.
          1    1    1    2  502    0 -0.13436681628E+03  0.79985662939E+02 -0.18648185840E+01  0.15638294389E+03  0.00000000000E+00 0. -1.
         22    1    3    3    0    0 -0.11462023360E+02  0.58649186185E+02 -0.81843404040E+02  0.10133828400E+03  0.00000000000E+00 0. -1.
         22    1    3    3    0    0  0.84699455604E+02  0.18746065221E+02 -0.11305418766E+02  0.87482713917E+02  0.00000000000E+00 0. -1.
</event>
<event>
 7    1  0.5537228E-006  0.7159735E+02  0.7818608E-02  0.1382544E+00
          2   -1    0    0  502    0  0.00000000000E+00  0.00000000000E+00  0.22073741011E+03  0.22073741011E+03  0.00000000000E+00 0. -1.
          1   -1    0    0  501    0 -0.00000000000E+00 -0.00000000000E+00 -0.66692085282E+03  0.66692085282E+03  0.00000000000E+00 0. -1.
         25    2    1    2    0    0 -0.15378135800E+02  0.38011759186E+02 -0.22699148603E+03  0.26235784181E+03  0.12500048612E+03 0.  0.
          2    1    1    2  501    0  0.72166853003E+02 -0.35345111876E+02 -0.41432946554E+03  0.42205004161E+03  0.00000000000E+00 0. -1.
          1    1    1    2  502    0 -0.56788717203E+02 -0.26666473096E+01  0.19513750886E+03  0.20325037952E+03  0.00000000000E+00 0. -1.
         22    1    3    3    0    0 -0.63113118080E+02  0.64858076274E+01 -0.17066228029E+03  0.18207401047E+03  0.00000000000E+00 0. -1.
         22    1    3    3    0    0  0.47734982280E+02  0.31525951559E+02 -0.56329205742E+02  0.80283831339E+02  0.00000000000E+00 0. -1.
</event>
<event>
 7    1  0.5537228E-006  0.8866606E+02  0.7818608E-02  0.1390815E+00
          2   -1    0    0  502    0  0.00000000000E+00  0.00000000000E+00  0.25985242375E+04  0.25985242375E+04  0.00000000000E+00 0. -1.
          1   -1    0    0  501    0 -0.00000000000E+00 -0.00000000000E+00 -0.17743277614E+03  0.17743277614E+03  0.00000000000E+00 0. -1.
         25    2    1    2    0    0 -0.97645730911E+01 -0.92033969781E+02  0.88522732258E+03  0.89878133272E+03  0.12495948515E+03 0.  0.
          2    1    1    2  501    0  0.42079591342E+02  0.85600881580E+01 -0.16676010742E+03  0.17220017579E+03  0.00000000000E+00 0. -1.
          1    1    1    2  502    0 -0.32315018250E+02  0.83473881623E+02  0.17026242462E+04  0.17049755051E+04  0.00000000000E+00 0. -1.
         22    1    3    3    0    0 -0.15094096192E+02 -0.10853887536E+02  0.12806132197E+02  0.22575110993E+02  0.00000000000E+00 0. -1.
         22    1    3    3    0    0  0.53295231009E+01 -0.81180082245E+02  0.87242119038E+03  0.87620622173E+03  0.00000000000E+00 0. -1.
</event>
<event>
 7    1  0.5537228E-006  0.1393610E+03  0.7818608E-02  0.1255018E+00
          2   -1    0    0  502    0  0.00000000000E+00  0.00000000000E+00  0.33914386137E+04  0.33914386137E+04  0.00000000000E+00 0. -1.
          1   -1    0    0  501    0 -0.00000000000E+00 -0.00000000000E+00 -0.56566275332E+02  0.56566275332E+02  0.00000000000E+00 0. -1.
         25    2    1    2    0    0  0.49884450059E+02  0.38380154754E+02  0.25417911091E+03  0.29016137193E+03  0.12500042679E+03 0.  0.
          2    1    1    2  501    0  0.25741647773E+02  0.88025279826E+02  0.20331068197E+02  0.93938462051E+02  0.00000000000E+00 0. -1.
          1    1    1    2  502    0 -0.75626097832E+02 -0.12640543458E+03  0.30603621593E+04  0.30639050551E+04  0.00000000000E+00 0. -1.
         22    1    3    3    0    0  0.44836620327E+02 -0.20083235632E+02  0.21270126410E+03  0.21830136653E+03  0.00000000000E+00 0. -1.
         22    1    3    3    0    0  0.50478297316E+01  0.58463390386E+02  0.41477846810E+02  0.71860005402E+02  0.00000000000E+00 0. -1.
</event>
<event>
 7    1  0.5537228E-006  0.1015005E+03  0.7818608E-02  0.1379867E+00
          2   -1    0    0  502    0  0.00000000000E+00  0.00000000000E+00  0.38151852982E+03  0.38151852982E+03  0.00000000000E+00 0. -1.
          1   -1    0    0  501    0 -0.00000000000E+00 -0.00000000000E+00 -0.12310377111E+04  0.12310377111E+04  0.00000000000E+00 0. -1.
         25    2    1    2    0    0  0.92722589436E+02 -0.17398749147E+02  0.29996924122E+01  0.15662719942E+03  0.12499154523E+03 0.  0.
          2    1    1    2  501    0  0.78528203117E+01  0.40226702777E+02 -0.11450329009E+04  0.11457662058E+04  0.00000000000E+00 0. -1.
          1    1    1    2  502    0 -0.10057540975E+03 -0.22827953631E+02  0.29251402718E+03  0.31016283564E+03  0.00000000000E+00 0. -1.
         22    1    3    3    0    0  0.74018381504E+02 -0.20378915275E+02  0.59440174011E+02  0.97093538790E+02  0.00000000000E+00 0.  1.
         22    1    3    3    0    0  0.18704207932E+02  0.29801661280E+01 -0.56440481599E+02  0.59533660627E+02  0.00000000000E+00 0.  1.
</event>
<event>
 7    1  0.5537228E-006  0.5512673E+02  0.7818608E-02  0.1471411E+00
          2   -1    0    0  502    0  0.00000000000E+00  0.00000000000E+00  0.26290034300E+04  0.26290034300E+04  0.00000000000E+00 0. -1.
          1   -1    0    0  501    0 -0.00000000000E+00 -0.00000000000E+00 -0.38705291977E+03  0.38705291977E+03  0.00000000000E+00 0. -1.
         25    2    1    2    0    0 -0.25440709369E+02  0.88180468630E+02  0.14133290120E+04  0.14218142091E+04  0.12503489293E+03 0.  0.
          2    1    1    2  501    0  0.94183952924E+01 -0.54264956382E+02 -0.38053698330E+03  0.38450199911E+03  0.00000000000E+00 0. -1.
          1    1    1    2  502    0  0.16022314077E+02 -0.33915512248E+02  0.12091584815E+04  0.12097401415E+04  0.00000000000E+00 0. -1.
         22    1    3    3    0    0 -0.50060212371E+02 -0.35901408244E+01  0.75468865540E+03  0.75635565745E+03  0.00000000000E+00 0. -1.
         22    1    3    3    0    0  0.24619503002E+02  0.91770609454E+02  0.65864035659E+03  0.66545855169E+03  0.00000000000E+00 0. -1.
</event>
<event>
 7    1  0.5537228E-006  0.4199311E+02  0.7818608E-02  0.1581442E+00
          2   -1    0    0  502    0  0.00000000000E+00  0.00000000000E+00  0.19995742388E+02  0.19995742388E+02  0.00000000000E+00 0. -1.
          1   -1    0    0  501    0 -0.00000000000E+00 -0.00000000000E+00 -0.15459807825E+04  0.15459807825E+04  0.00000000000E+00 0. -1.
         25    2    1    2    0    0 -0.39937538141E+02 -0.40404950250E+02 -0.11498735353E+04  0.11580432424E+04  0.12500974792E+03 0.  0.
          2    1    1    2  501    0  0.16805932108E+02  0.35148471910E+02 -0.38160133609E+03  0.38358497643E+03  0.00000000000E+00 0. -1.
          1    1    1    2  502    0  0.23131606034E+02  0.52564783396E+01  0.54898312725E+01  0.24348306094E+02  0.00000000000E+00 0. -1.
         22    1    3    3    0    0 -0.43460933823E+02  0.37871089444E+02 -0.56799672077E+03  0.57091448308E+03  0.00000000000E+00 0.  1.
         22    1    3    3    0    0  0.35233956815E+01 -0.78276039694E+02 -0.58187681455E+03  0.58712875932E+03  0.00000000000E+00 0.  1.
</event>
<event>
 7    1  0.5537228E-006  0.1121890E+03  0.7818608E-02  0.1310546E+00
          2   -1    0    0  502    0  0.00000000000E+00  0.00000000000E+00  0.11557941109E+04  0.11557941109E+04  0.00000000000E+00 0. -1.
          1   -1    0    0  501    0 -0.00000000000E+00 -0.00000000000E+00 -0.22112419224E+04  0.22112419224E+04  0.00000000000E+00 0. -1.
         25    2    1    2    0    0  0.58157494498E+02 -0.76382830190E+02  0.56162008308E+02  0.16732053163E+03  0.12500143285E+03 0.  0.
          2    1    1    2  501    0 -0.14515860826E+01  0.11263919151E+03 -0.21531039818E+04  0.21560488053E+04  0.00000000000E+00 0. -1.
          1    1    1    2  502    0 -0.56705908416E+02 -0.36256361322E+02  0.10414941620E+04  0.10436666964E+04  0.00000000000E+00 0. -1.
         22    1    3    3    0    0 -0.12257157919E+02 -0.64902302646E+01 -0.31822813967E+02  0.34713866076E+02  0.00000000000E+00 0. -1.
         22    1    3    3    0    0  0.70414652417E+02 -0.69892599926E+02  0.87984822275E+02  0.13260666556E+03  0.00000000000E+00 0. -1.
</event>
<event>
 7    1  0.5537228E-006  0.2942665E+02  0.7818608E-02  0.1659221E+00
          2   -1    0    0  502    0  0.00000000000E+00  0.00000000000E+00  0.25990743190E+04  0.25990743190E+04  0.00000000000E+00 0. -1.
          1   -1    0    0  501    0 -0.00000000000E+00 -0.00000000000E+00 -0.41941479070E+03  0.41941479070E+03  0.00000000000E+00 0. -1.
         25    2    1    2    0    0 -0.92674992434E+01  0.31532656242E+02  0.16464985856E+04  0.16515641279E+04  0.12500512571E+03 0.  0.
          2    1    1    2  501    0  0.24449320564E+02 -0.16377904434E+02 -0.41624137996E+03  0.41728035111E+03  0.00000000000E+00 0. -1.
          1    1    1    2  502    0 -0.15181821321E+02 -0.15154751808E+02  0.94940232271E+03  0.94964463067E+03  0.00000000000E+00 0. -1.
         22    1    3    3    0    0 -0.63220653090E+02  0.18766597573E+02  0.60338884741E+03  0.60698199096E+03  0.00000000000E+00 0. -1.
         22    1    3    3    0    0  0.53953153846E+02  0.12766058669E+02  0.10431097382E+04  0.10445821370E+04  0.00000000000E+00 0. -1.
</event>
<event>
 7    1  0.5537228E-006  0.7568411E+02  0.7818608E-02  0.1382695E+00
          2   -1    0    0  502    0  0.00000000000E+00  0.00000000000E+00  0.11532069964E+03  0.11532069964E+03  0.00000000000E+00 0. -1.
          1   -1    0    0  501    0 -0.00000000000E+00 -0.00000000000E+00 -0.24184069442E+04  0.24184069442E+04  0.00000000000E+00 0. -1.
         25    2    1    2    0    0  0.43351213326E+02  0.57980923839E+02 -0.20864309581E+04  0.20914242081E+04  0.12497983880E+03 0.  0.
          2    1    1    2  501    0  0.31128319089E+02 -0.43776631057E+02 -0.31419865018E+03  0.31875720769E+03  0.00000000000E+00 0. -1.
          1    1    1    2  502    0 -0.74479532416E+02 -0.14204292782E+02  0.97543363667E+02  0.12354622810E+03  0.00000000000E+00 0. -1.
         22    1    3    3    0    0  0.48127947573E+02  0.95287623427E+02 -0.15709818916E+04  0.15746047549E+04  0.00000000000E+00 0. -1.
         22    1    3    3    0    0 -0.47767342463E+01 -0.37306699588E+02 -0.51544906645E+03  0.51681945313E+03  0.00000000000E+00 0. -1.
</event>
<event>
 7    1  0.5537228E-006  0.4405952E+02  0.7818608E-02  0.1596795E+00
          2   -1    0    0  502    0  0.00000000000E+00  0.00000000000E+00  0.29041543443E+04  0.29041543443E+04  0.00000000000E+00 0. -1.
          1   -1    0    0  501    0 -0.00000000000E+00 -0.00000000000E+00 -0.20293617166E+02  0.20293617166E+02  0.00000000000E+00 0. -1.
         25    2    1    2    0    0  0.33052411172E+01  0.40118342911E+02  0.18911964268E+04  0.18957502358E+04  0.12499850240E+03 0.  0.
          2    1    1    2  501    0 -0.23696643838E+02 -0.37287260348E+02  0.93381357314E+01  0.45156079240E+02  0.00000000000E+00 0. -1.
          1    1    1    2  502    0  0.20391402721E+02 -0.28310825634E+01  0.98332616453E+03  0.98354164639E+03  0.00000000000E+00 0. -1.
         22    1    3    3    0    0 -0.55138214487E+02  0.41481268758E+02  0.12467003326E+04  0.12486082803E+04  0.00000000000E+00 0. -1.
         22    1    3    3    0    0  0.58443455604E+02 -0.13629258473E+01  0.64449609419E+03  0.64714195545E+03  0.00000000000E+00 0. -1.
</event>
<event>
 7    1  0.5537228E-006  0.9155882E+02  0.7818608E-02  0.1349810E+00
          2   -1    0    0  502    0  0.00000000000E+00  0.00000000000E+00  0.14487605882E+04  0.14487605882E+04  0.00000000000E+00 0. -1.
          1   -1    0    0  501    0 -0.00000000000E+00 -0.00000000000E+00 -0.13813376569E+03  0.13813376569E+03  0.00000000000E+00 0. -1.
         25    2    1    2    0    0 -0.13397637169E+01 -0.81093477692E+02  0.25851003949E+03  0.29838227141E+03  0.12500636896E+03 0.  0.
          2    1    1    2  501    0 -0.56640164152E+02  0.74216668429E+02 -0.98905873827E+02  0.13600953623E+03  0.00000000000E+00 0. -1.
          1    1    1    2  502    0  0.57979927869E+02  0.68768092629E+01  0.11510226568E+04  0.11525025462E+04  0.00000000000E+00 0. -1.
         22    1    3    3    0    0 -0.46210744974E+02 -0.57310610635E+02  0.64638747884E+02  0.97969927888E+02  0.00000000000E+00 0. -1.
         22    1    3    3    0    0  0.44870981258E+02 -0.23782867057E+02  0.19387129161E+03  0.20041234352E+03  0.00000000000E+00 0. -1.
</event>
<event>
 7    1  0.5537228E-006  0.5369987E+02  0.7818608E-02  0.1428623E+00
          2   -1    0    0  502    0  0.00000000000E+00  0.00000000000E+00  0.74340274108E+03  0.74340274108E+03  0.00000000000E+00 0. -1.
          1   -1    0    0  501    0 -0.00000000000E+00 -0.00000000000E+00 -0.37438844020E+03  0.37438844020E+03  0.00000000000E+00 0. -1.
         25    2    1    2    0    0 -0.64682231392E+02  0.67830342991E+02  0.88494063561E+02  0.17955548335E+03  0.12499690328E+03 0.  0.
          2    1    1    2  501    0  0.49975985967E+02 -0.16970763529E+02 -0.32557868057E+03  0.32982886961E+03  0.00000000000E+00 0. -1.
          1    1    1    2  502    0  0.14706245426E+02 -0.50859579462E+02  0.60609891789E+03  0.60840682832E+03  0.00000000000E+00 0. -1.
         22    1    3    3    0    0 -0.88410245963E+02  0.60958227838E+02  0.23367721175E+02  0.10990144460E+03  0.00000000000E+00 0. -1.
         22    1    3    3    0    0  0.23728014570E+02  0.68721151523E+01  0.65126342386E+02  0.69654038754E+02  0.00000000000E+00 0. -1.
</event>
<event>
 7    1  0.5537228E-006  0.6678268E+02  0.7818608E-02  0.1510884E+00
          2   -1    0    0  502    0  0.00000000000E+00  0.00000000000E+00  0.13832278477E+04  0.13832278477E+04  0.00000000000E+00 0. -1.
          1   -1    0    0  501    0 -0.00000000000E+00 -0.00000000000E+00 -0.11538647805E+03  0.11538647805E+03  0.00000000000E+00 0. -1.
         25    2    1    2    0    0  0.96893288286E+01 -0.86507369539E+02  0.32666827849E+03  0.36043937548E+03  0.12500788432E+03 0.  0.
          2    1    1    2  501    0  0.20581826794E+01  0.66122013753E+02 -0.87243786458E+02  0.10948897248E+03  0.00000000000E+00 0. -1.
          1    1    1    2  502    0 -0.11747511508E+02  0.20385355786E+02  0.10284168776E+04  0.10286859778E+04  0.00000000000E+00 0. -1.
         22    1    3    3    0    0  0.54317964287E+02 -0.66480766290E+01  0.76415063554E+02  0.93988829682E+02  0.00000000000E+00 0.  1.
         22    1    3    3    0    0 -0.44628635458E+02 -0.79859292910E+02  0.25025321494E+03  0.26645054579E+03  0.00000000000E+00 0.  1.
</event>
<event>
 7    1  0.5537228E-006  0.6536067E+02  0.7818608E-02  0.1483379E+00
          2   -1    0    0  502    0  0.00000000000E+00  0.00000000000E+00  0.12927749763E+03  0.12927749763E+03  0.00000000000E+00 0. -1.
          1   -1    0    0  501    0 -0.00000000000E+00 -0.00000000000E+00 -0.19915800160E+03  0.19915800160E+03  0.00000000000E+00 0. -1.
         25    2    1    2    0    0 -0.40612392352E+02  0.71882924692E+01 -0.58930412475E+02  0.14422478073E+03  0.12500782336E+03 0.  0.
          2    1    1    2  501    0 -0.28167353409E+02 -0.71599966761E+01 -0.80989751033E+02  0.86046528825E+02  0.00000000000E+00 0. -1.
          1    1    1    2  502    0  0.68779745761E+02 -0.28295793064E-01  0.70039659535E+02  0.98164189679E+02  0.00000000000E+00 0. -1.
         22    1    3    3    0    0 -0.68167879660E+02 -0.27701898327E+02 -0.41852126985E+01  0.73700549479E+02  0.00000000000E+00 0.  1.
         22    1    3    3    0    0  0.27555487308E+02  0.34890190796E+02 -0.54745199777E+02  0.70524231248E+02  0.00000000000E+00 0.  1.
</event>
<event>
 7    1  0.5537228E-006  0.1100502E+03  0.7818608E-02  0.1358649E+00
          2   -1    0    0  502    0  0.00000000000E+00  0.00000000000E+00  0.89558928013E+03  0.89558928013E+03  0.00000000000E+00 0. -1.
          1   -1    0    0  501    0 -0.00000000000E+00 -0.00000000000E+00 -0.75096169024E+02  0.75096169024E+02  0.00000000000E+00 0. -1.
         25    2    1    2    0    0  0.90468205485E+01  0.11867187750E+03  0.65477212549E+03  0.67713851892E+03  0.12500071207E+03 0.  0.
          2    1    1    2  501    0  0.37393970637E+02 -0.25157750887E+02 -0.41654140056E+02  0.61370097388E+02  0.00000000000E+00 0. -1.
          1    1    1    2  502    0 -0.46440791185E+02 -0.93514126612E+02  0.20737512567E+03  0.23217683284E+03  0.00000000000E+00 0. -1.
         22    1    3    3    0    0  0.63752217844E+02  0.88273817245E+02  0.45184056944E+03  0.46477576559E+03  0.00000000000E+00 0.  1.
         22    1    3    3    0    0 -0.54705397295E+02  0.30398060254E+02  0.20293155605E+03  0.21236275333E+03  0.00000000000E+00 0.  1.
</event>
<event>
 7    1  0.5537228E-006  0.4284355E+02  0.7818608E-02  0.1572388E+00
          2   -1    0    0  502    0  0.00000000000E+00  0.00000000000E+00  0.81410385641E+03  0.81410385641E+03  0.00000000000E+00 0. -1.
          1   -1    0    0  501    0 -0.00000000000E+00 -0.00000000000E+00 -0.82791554297E+02  0.82791554297E+02  0.00000000000E+00 0. -1.
         25    2    1    2    0    0 -0.46894599964E+02  0.47729136570E+02  0.11201996403E+03  0.18069296697E+03  0.12499720792E+03 0.  0.
          2    1    1    2  501    0  0.18119523674E+02 -0.16628086705E+02 -0.44615134225E+02  0.50944289254E+02  0.00000000000E+00 0. -1.
          1    1    1    2  502    0  0.28775076291E+02 -0.31101049865E+02  0.66390747231E+03  0.66525815448E+03  0.00000000000E+00 0. -1.
         22    1    3    3    0    0  0.25204762192E+02  0.38476215803E+02 -0.13545059124E+01  0.46016669870E+02  0.00000000000E+00 0. -1.
         22    1    3    3    0    0 -0.72099362156E+02  0.92529207677E+01  0.11337446994E+03  0.13467629710E+03  0.00000000000E+00 0. -1.
</event>
<event>
 7    1  0.5537228E-006  0.1484720E+03  0.7818608E-02  0.1321267E+00
          2   -1    0    0  502    0  0.00000000000E+00  0.00000000000E+00  0.15836901028E+04  0.15836901028E+04  0.00000000000E+00 0. -1.
          1   -1    0    0  501    0 -0.00000000000E+00 -0.00000000000E+00 -0.19189948667E+03  0.19189948667E+03  0.00000000000E+00 0. -1.
         25    2    1    2    0    0 -0.54018312031E+02 -0.10208964563E+03  0.28459744693E+03  0.33160685292E+03  0.12500849701E+03 0.  0.
          2    1    1    2  501    0  0.61099557672E+01 -0.45778652939E+02 -0.16038898445E+03  0.16690609024E+03  0.00000000000E+00 0. -1.
          1    1    1    2  502    0  0.47908356263E+02  0.14786829857E+03  0.12675821536E+04  0.12770766463E+04  0.00000000000E+00 0. -1.
         22    1    3    3    0    0  0.16814685930E+02 -0.88946701547E+02  0.20586626988E+03  0.22488924041E+03  0.00000000000E+00 0. -1.
         22    1    3    3    0    0 -0.70832997961E+02 -0.13142944081E+02  0.78731177050E+02  0.10671761251E+03  0.00000000000E+00 0. -1.
</event>
<event>
 7    1  0.5537228E-006  0.5091107E+02  0.7818608E-02  0.1481225E+00
          2   -1    0    0  502    0  0.00000000000E+00  0.00000000000E+00  0.17768915930E+03  0.17768915930E+03  0.00000000000E+00 0. -1.
          1   -1    0    0  501    0 -0.00000000000E+00 -0.00000000000E+00 -0.22514113004E+03  0.22514113004E+03  0.00000000000E+00 0. -1.
         25    2    1    2    0    0  0.37260463511E+02 -0.36028758005E+02 -0.64223712110E+02  0.14982344756E+03  0.12504385910E+03 0.  0.
          2    1    1    2  501    0 -0.30947642439E+01  0.52391393240E+02 -0.10936420510E+03  0.12130525549E+03  0.00000000000E+00 0. -1.
          1    1    1    2  502    0 -0.34165699267E+02 -0.16362635235E+02  0.12613594648E+03  0.13170158629E+03  0.00000000000E+00 0. -1.
         22    1    3    3    0    0  0.45710385186E+02 -0.74677248318E+02 -0.18735713465E+02  0.89538582127E+02  0.00000000000E+00 0. -1.
         22    1    3    3    0    0 -0.84499216750E+01  0.38648490313E+02 -0.45487998645E+02  0.60284865435E+02  0.00000000000E+00 0. -1.
</event>
<event>
 7    1  0.5537228E-006  0.1218227E+03  0.7818608E-02  0.1307267E+00
          2   -1    0    0  502    0  0.00000000000E+00  0.00000000000E+00  0.19376413979E+03  0.19376413979E+03  0.00000000000E+00 0. -1.
          1   -1    0    0  501    0 -0.00000000000E+00 -0.00000000000E+00 -0.13752284646E+04  0.13752284646E+04  0.00000000000E+00 0. -1.
         25    2    1    2    0    0 -0.50964674016E+02 -0.15270988875E+03 -0.32889176600E+03  0.38692712922E+03  0.12500040584E+03 0.  0.
          2    1    1    2  501    0 -0.24125488780E+02  0.59126486558E+02 -0.99431179586E+03  0.99636034044E+03  0.00000000000E+00 0. -1.
          1    1    1    2  502    0  0.75090162796E+02  0.93583402188E+02  0.14173923709E+03  0.18570513468E+03  0.00000000000E+00 0. -1.
         22    1    3    3    0    0 -0.59935497590E+02 -0.13772814333E+03 -0.33602197381E+03  0.36806530972E+03  0.00000000000E+00 0. -1.
         22    1    3    3    0    0  0.89708235739E+01 -0.14981745420E+02  0.71302078060E+01  0.18861819498E+02  0.00000000000E+00 0. -1.
</event>
<event>
 7    1  0.5537228E-006  0.3947219E+02  0.7818608E-02  0.1535803E+00
          2   -1    0    0  502    0  0.00000000000E+00  0.00000000000E+00  0.14307267312E+04  0.14307267312E+04  0.00000000000E+00 0. -1.
          1   -1    0    0  501    0 -0.00000000000E+00 -0.00000000000E+00 -0.57434410663E+03  0.57434410663E+03  0.00000000000E+00 0. -1.
         25    2    1    2    0    0  0.11547255391E+02  0.39009777400E+02  0.18106528487E+03  0.22375170984E+03  0.12500035371E+03 0.  0.
          2    1    1    2  501    0  0.24717821481E+02 -0.22939365026E+02 -0.55216612719E+03  0.55319491790E+03  0.00000000000E+00 0. -1.
          1    1    1    2  502    0 -0.36265076872E+02 -0.16070412375E+02  0.12274834669E+04  0.12281242101E+04  0.00000000000E+00 0. -1.
         22    1    3    3    0    0  0.47886153001E+02 -0.21164099388E+02  0.11888257912E+03  0.12990023237E+03  0.00000000000E+00 0. -1.
         22    1    3    3    0    0 -0.36338897610E+02  0.60173876788E+02  0.62182705755E+02  0.93851477465E+02  0.00000000000E+00 0. -1.
</event>
<event>
 7    1  0.5537228E-006  0.7223619E+02  0.7818608E-02  0.1435628E+00
          2   -1    0    0  502    0  0.00000000000E+00  0.00000000000E+00  0.41973840307E+03  0.41973840307E+03  0.00000000000E+00 0. -1.
          1   -1    0    0  501    0 -0.00000000000E+00 -0.00000000000E+00 -0.62156527381E+03  0.62156527381E+03  0.00000000000E+00 0. -1.
         25    2    1    2    0    0  0.21462380135E+01  0.72203068903E+02  0.21484978631E+03  0.25885145498E+03  0.12500302226E+03 0.  0.
          2    1    1    2  501    0  0.34100478243E+02 -0.63780101862E+02 -0.59546054266E+03  0.59983664599E+03  0.00000000000E+00 0. -1.
          1    1    1    2  502    0 -0.36246716256E+02 -0.84229670402E+01  0.17878388561E+03  0.18261557591E+03  0.00000000000E+00 0. -1.
         22    1    3    3    0    0  0.89179991508E+01 -0.83579252714E+01  0.16156319889E+03  0.16202485259E+03  0.00000000000E+00 0. -1.
         22    1    3    3    0    0 -0.67717611373E+01  0.80560994174E+02  0.53286587421E+02  0.96826602389E+02  0.00000000000E+00 0. -1.
</event>
<event>
 7    1  0.5537228E-006  0.2328424E+03  0.7818608E-02  0.1213230E+00
          2   -1    0    0  502    0  0.00000000000E+00  0.00000000000E+00  0.58720679494E+03  0.58720679494E+03  0.00000000000E+00 0. -1.
          1   -1    0    0  501    0 -0.00000000000E+00 -0.00000000000E+00 -0.59327875869E+03  0.59327875869E+03  0.00000000000E+00 0. -1.
         25    2    1    2    0    0 -0.15844772734E+03  0.18273980133E+03 -0.16893477225E+03  0.32041128016E+03  0.12499965556E+03 0.  0.
          2    1    1    2  501    0  0.76339744277E+02  0.35677730517E+02 -0.31618390479E+03  0.32721998511E+03  0.00000000000E+00 0. -1.
          1    1    1    2  502    0  0.82107983064E+02 -0.21841753184E+03  0.47904671329E+03  0.53285428835E+03  0.00000000000E+00 0. -1.
         22    1    3    3    0    0 -0.36722205315E+02 -0.34922685993E+01  0.60208537396E+01  0.37376021497E+02  0.00000000000E+00 0.  1.
         22    1    3    3    0    0 -0.12172552203E+03  0.18623206993E+03 -0.17495562599E+03  0.28303525867E+03  0.00000000000E+00 0.  1.
</event>
<event>
 7    1  0.5537228E-006  0.9638881E+02  0.7818608E-02  0.1434340E+00
          2   -1    0    0  502    0  0.00000000000E+00  0.00000000000E+00  0.27539469223E+03  0.27539469223E+03  0.00000000000E+00 0. -1.
          1   -1    0    0  501    0 -0.00000000000E+00 -0.00000000000E+00 -0.12294858284E+04  0.12294858284E+04  0.00000000000E+00 0. -1.
         25    2    1    2    0    0 -0.10190219785E+03 -0.31649022756E+02  0.51516106691E+02  0.17223437024E+03  0.12500020191E+03 0.  0.
          2    1    1    2  501    0  0.21451127732E+02 -0.18243061514E+02 -0.11552396160E+04  0.11555827666E+04  0.00000000000E+00 0. -1.
          1    1    1    2  502    0  0.80451070116E+02  0.49892084269E+02  0.14963237317E+03  0.17706338372E+03  0.00000000000E+00 0. -1.
         22    1    3    3    0    0  0.79992472345E+01  0.24513323858E+02 -0.17179370753E+02  0.30984218279E+02  0.00000000000E+00 0. -1.
         22    1    3    3    0    0 -0.10990144508E+03 -0.56162346614E+02  0.68695477444E+02  0.14125015196E+03  0.00000000000E+00 0. -1.
</event>
<event>
 7    1  0.5537228E-006  0.1591008E+03  0.7818608E-02  0.1211344E+00
          2   -1    0    0  502    0  0.00000000000E+00  0.00000000000E+00  0.85313388291E+02  0.85313388291E+02  0.00000000000E+00 0. -1.
          1   -1    0    0  501    0 -0.00000000000E+00 -0.00000000000E+00 -0.92734457491E+03  0.92734457491E+03  0.00000000000E+00 0. -1.
         25    2    1    2    0    0 -0.49378274805E+02  0.14565681125E+03 -0.51023275732E+03  0.54737276853E+03  0.12500144161E+03 0.  0.
          2    1    1    2  501    0  0.12562797117E+03  0.69543547851E+01 -0.24138399111E+03  0.27220760708E+03  0.00000000000E+00 0. -1.
          1    1    1    2  502    0 -0.76249696368E+02 -0.15261116603E+03 -0.90414438194E+02  0.19307758759E+03  0.00000000000E+00 0. -1.
         22    1    3    3    0    0  0.12442204793E+02  0.49914970460E+02 -0.33101229640E+03  0.33498575060E+03  0.00000000000E+00 0.  1.
         22    1    3    3    0    0 -0.61820479598E+02  0.95741840788E+02 -0.17922046092E+03  0.21238701793E+03  0.00000000000E+00 0.  1.
</event>
<event>
 7    1  0.5537228E-006  0.5763262E+02  0.7818608E-02  0.1526420E+00
          2   -1    0    0  502    0  0.00000000000E+00  0.00000000000E+00  0.35145463144E+03  0.35145463144E+03  0.00000000000E+00 0. -1.
          1   -1    0    0  501    0 -0.00000000000E+00 -0.00000000000E+00 -0.78850709527E+02  0.78850709527E+02  0.00000000000E+00 0. -1.
         25    2    1    2    0    0  0.38378950019E+02  0.88018276985E+01 -0.10508115962E+02  0.13147531529E+03  0.12499968822E+03 0.  0.
          2    1    1    2  501    0  0.19937172757E+02 -0.14357130915E+02  0.28788110055E+02  0.37846708525E+02  0.00000000000E+00 0. -1.
          1    1    1    2  502    0 -0.58316122776E+02  0.55553032160E+01  0.25432392782E+03  0.26098331715E+03  0.00000000000E+00 0. -1.
         22    1    3    3    0    0  0.34274768143E+01 -0.55599198037E+02 -0.16109612493E+02  0.57987395478E+02  0.00000000000E+00 0. -1.
         22    1    3    3    0    0  0.34951473205E+02  0.64401025735E+02  0.56014965310E+01  0.73487919812E+02  0.00000000000E+00 0. -1.
</event>
<event>
 7    1  0.5537228E-006  0.1358651E+03  0.7818608E-02  0.1282478E+00
          2   -1    0    0  502    0  0.00000000000E+00  0.00000000000E+00  0.25726305911E+03  0.25726305911E+03  0.00000000000E+00 0. -1.
          1   -1    0    0  501    0 -0.00000000000E+00 -0.00000000000E+00 -0.12518145558E+04  0.12518145558E+04  0.00000000000E+00 0. -1.
         25    2    1    2    0    0 -0.12630675339E+03 -0.15065125077E+03 -0.78682172051E+02  0.24589526358E+03  0.12499760454E+03 0.  0.
          2    1    1    2  501    0  0.33026046869E+02  0.64083883225E+02 -0.10648271829E+04  0.10672649125E+04  0.00000000000E+00 0. -1.
          1    1    1    2  502    0  0.93280706522E+02  0.86567367540E+02  0.14895785826E+03  0.19591743891E+03  0.00000000000E+00 0. -1.
         22    1    3    3    0    0 -0.94895698181E+02 -0.16430284393E+03 -0.39412630257E+02  0.19378847613E+03  0.00000000000E+00 0.  1.
         22    1    3    3    0    0 -0.31411055210E+02  0.13651593165E+02 -0.39269541794E+02  0.52106787447E+02  0.00000000000E+00 0.  1.
</event>
<event>
 7    1  0.5537228E-006  0.1079198E+03  0.7818608E-02  0.1273736E+00
          2   -1    0    0  502    0  0.00000000000E+00  0.00000000000E+00  0.53788228190E+03  0.53788228190E+03  0.00000000000E+00 0. -1.
          1   -1    0    0  501    0 -0.00000000000E+00 -0.00000000000E+00 -0.16189481994E+04  0.16189481994E+04  0.00000000000E+00 0. -1.
         25    2    1    2    0    0  0.12379734450E+03  0.16224793828E+03 -0.28683862538E+03  0.37356567609E+03  0.12499896544E+03 0.  0.
          2    1    1    2  501    0 -0.52221888393E+02 -0.83705155277E+02 -0.12811188415E+04  0.12849121234E+04  0.00000000000E+00 0. -1.
          1    1    1    2  502    0 -0.71575456106E+02 -0.78542782998E+02  0.48689154937E+03  0.49835268187E+03  0.00000000000E+00 0. -1.
         22    1    3    3    0    0  0.96610588642E+02  0.14634932675E+03 -0.29300565407E+03  0.34147334390E+03  0.00000000000E+00 0. -1.
         22    1    3    3    0    0  0.27186755857E+02  0.15898611526E+02  0.61670286876E+01  0.32092332189E+02  0.00000000000E+00 0. -1.
</event>
<event>
 7    1  0.5537228E-006  0.4897622E+02  0.7818608E-02  0.1535045E+00
          2   -1    0    0  502    0  0.00000000000E+00  0.00000000000E+00  0.23591692639E+04  0.23591692639E+04  0.00000000000E+00 0. -1.
          1   -1    0    0  501    0 -0.00000000000E+00 -0.00000000000E+00 -0.15612653264E+02  0.15612653264E+02  0.00000000000E+00 0. -1.
         25    2    1    2    0    0  0.26532311395E+02  0.10472442218E+02  0.44683288810E+03  0.46486398573E+03  0.12500103897E+03 0.  0.
          2    1    1    2  501    0 -0.53694358882E+02 -0.75991871115E+01  0.10673942202E+03  0.11972525228E+03  0.00000000000E+00 0. -1.
          1    1    1    2  502    0  0.27162047487E+02 -0.28732551068E+01  0.17899843006E+04  0.17901926792E+04  0.00000000000E+00 0. -1.
         22    1    3    3    0    0  0.68384944543E+02  0.37356119418E+02  0.29325726709E+03  0.30343336171E+03  0.00000000000E+00 0. -1.
         22    1    3    3    0    0 -0.41852633148E+02 -0.26883677200E+02  0.15357562101E+03  0.16143062402E+03  0.00000000000E+00 0. -1.
</event>
<event>
 7    1  0.5689202E-006  0.2074549E+03  0.7818608E-02  0.1227743E+00
          2   -1    0    0  502    0  0.00000000000E+00  0.00000000000E+00  0.79026952124E+03  0.79026952124E+03  0.00000000000E+00 0. -1.
          1   -1    0    0  501    0 -0.00000000000E+00 -0.00000000000E+00 -0.21131266652E+04  0.21131266652E+04  0.00000000000E+00 0. -1.
         25    2    1    2    0    0  0.57724969594E+02  0.13047507543E+03 -0.80037708868E+03  0.82254722234E+03  0.12499812585E+03 0.  0.
          2    1    1    2  501    0 -0.28354834849E+02  0.76111187900E+02 -0.12863908349E+04  0.12889524000E+04  0.00000000000E+00 0. -1.
          1    1    1    2  502    0 -0.29370134746E+02 -0.20658626333E+03  0.76391077958E+03  0.79189656406E+03  0.00000000000E+00 0. -1.
         22    1    3    3    0    0  0.79802701636E+01  0.11532979593E+03 -0.33733129742E+03  0.35659087308E+03  0.00000000000E+00 0.  1.
         22    1    3    3    0    0  0.49744699431E+02  0.15145279496E+02 -0.46304579126E+03  0.46595634926E+03  0.00000000000E+00 0.  1.
</event>
<event>
 7    1  0.5537228E-006  0.7368382E+02  0.7818608E-02  0.1364877E+00
          2   -1    0    0  502    0  0.00000000000E+00  0.00000000000E+00  0.76683192729E+03  0.76683192729E+03  0.00000000000E+00 0. -1.
          1   -1    0    0  501    0 -0.00000000000E+00 -0.00000000000E+00 -0.36953414508E+03  0.36953414508E+03  0.00000000000E+00 0. -1.
         25    2    1    2    0    0  0.10104445339E+03  0.53343074130E+02  0.37319484325E+03  0.40982211342E+03  0.12499723397E+03 0.  0.
          2    1    1    2  501    0 -0.73321789603E+02  0.42182767535E+01 -0.34460364408E+03  0.35234294402E+03  0.00000000000E+00 0. -1.
          1    1    1    2  502    0 -0.27722663783E+02 -0.57561350883E+02  0.36870658303E+03  0.37420101493E+03  0.00000000000E+00 0. -1.
         22    1    3    3    0    0  0.78425328982E+02  0.63294958556E+02  0.12577438514E+03  0.16117065478E+03  0.00000000000E+00 0.  1.
         22    1    3    3    0    0  0.22619124404E+02 -0.99518844264E+01  0.24742045811E+03  0.24865145864E+03  0.00000000000E+00 0.  1.
</event>
<event>
 7    1  0.5537228E-006  0.5134452E+02  0.7818608E-02  0.1519157E+00
          2   -1    0    0  502    0  0.00000000000E+00  0.00000000000E+00  0.15356033655E+04  0.15356033655E+04  0.00000000000E+00 0. -1.
          1   -1    0    0  501    0 -0.00000000000E+00 -0.00000000000E+00 -0.80689098866E+02  0.80689098866E+02  0.00000000000E+00 0. -1.
         25    2    1    2    0    0 -0.38653707315E+02  0.69125071494E+02  0.34768271792E+03  0.37786345590E+03  0.12500053745E+03 0.  0.
          2    1    1    2  501    0  0.21529131882E+02 -0.45789652071E+02 -0.55634752141E+02  0.75202535875E+02  0.00000000000E+00 0. -1.
          1    1    1    2  502    0  0.17124575433E+02 -0.23335419424E+02  0.11628663008E+04  0.11632264726E+04  0.00000000000E+00 0. -1.
         22    1    3    3    0    0 -0.49092863143E+02  0.62298803517E+02  0.35476255560E+03  0.36352127997E+03  0.00000000000E+00 0.  1.
         22    1    3    3    0    0  0.10439155828E+02  0.68262679770E+01 -0.70798376787E+01  0.14342175932E+02  0.00000000000E+00 0.  1.
</event>
<event>
 7    1  0.5537228E-006  0.1022406E+03  0.7818608E-02  0.1418619E+00
          2   -1    0    0  502    0  0.00000000000E+00  0.00000000000E+00  0.27256131313E+04  0.27256131313E+04  0.00000000000E+00 0. -1.
          1   -1    0    0  501    0 -0.00000000000E+00 -0.00000000000E+00 -0.13233006812E+04  0.13233006812E+04  0.00000000000E+00 0. -1.
         25    2    1    2    0    0 -0.10711844920E+03 -0.71559594498E+01  0.37617002329E+03  0.41067507979E+03  0.12499825927E+03 0.  0.
          2    1    1    2  501    0  0.11112416128E+02 -0.27786485213E+02 -0.13047575759E+04  0.13051007266E+04  0.00000000000E+00 0. -1.
          1    1    1    2  502    0  0.96006033072E+02  0.34942444663E+02  0.23309000028E+04  0.23331380061E+04  0.00000000000E+00 0. -1.
         22    1    3    3    0    0 -0.91427982261E+02  0.45314812665E+02  0.29985728958E+03  0.31674422221E+03  0.00000000000E+00 0. -1.
         22    1    3    3    0    0 -0.15690466939E+02 -0.52470772115E+02  0.76312733715E+02  0.93930857582E+02  0.00000000000E+00 0. -1.
</event>
<event>
 7    1  0.5537228E-006  0.7443091E+02  0.7818608E-02  0.1358649E+00
          2   -1    0    0  502    0  0.00000000000E+00  0.00000000000E+00  0.10916865638E+03  0.10916865638E+03  0.00000000000E+00 0. -1.
          1   -1    0    0  501    0 -0.00000000000E+00 -0.00000000000E+00 -0.11802040003E+04  0.11802040003E+04  0.00000000000E+00 0. -1.
         25    2    1    2    0    0 -0.56632328198E+02 -0.33952549611E+02 -0.30640120829E+03  0.33744094983E+03  0.12499879182E+03 0.  0.
          2    1    1    2  501    0  0.72036573425E+02 -0.30879993104E+02 -0.84437954791E+03  0.84800923510E+03  0.00000000000E+00 0. -1.
          1    1    1    2  502    0 -0.15404245227E+02  0.64832542715E+02  0.79745412251E+02  0.10392247178E+03  0.00000000000E+00 0. -1.
         22    1    3    3    0    0 -0.36929990818E+02 -0.81716545981E+02 -0.19745400365E+03  0.21686286373E+03  0.00000000000E+00 0. -1.
         22    1    3    3    0    0 -0.19702337379E+02  0.47763996369E+02 -0.10894720464E+03  0.12057808610E+03  0.00000000000E+00 0. -1.
</event>
<event>
 7    1  0.5537228E-006  0.1092213E+03  0.7818608E-02  0.1313479E+00
          2   -1    0    0  502    0  0.00000000000E+00  0.00000000000E+00  0.95972866027E+03  0.95972866027E+03  0.00000000000E+00 0. -1.
          1   -1    0    0  501    0 -0.00000000000E+00 -0.00000000000E+00 -0.24024700100E+03  0.24024700100E+03  0.00000000000E+00 0. -1.
         25    2    1    2    0    0 -0.10411573394E+03  0.36519704011E+02  0.25501349484E+03  0.30467863752E+03  0.12499365895E+03 0.  0.
          2    1    1    2  501    0  0.10577339502E+03  0.30785041477E+02 -0.19951582410E+03  0.22790852099E+03  0.00000000000E+00 0. -1.
          1    1    1    2  502    0 -0.16576610814E+01 -0.67304745487E+02  0.66398398852E+03  0.66738850276E+03  0.00000000000E+00 0. -1.
         22    1    3    3    0    0 -0.10045415724E+03  0.79632066993E+01  0.25676920110E+03  0.27583486546E+03  0.00000000000E+00 0.  1.
         22    1    3    3    0    0 -0.36615766927E+01  0.28556497311E+02 -0.17557062582E+01  0.28843772067E+02  0.00000000000E+00 0.  1.
</event>
<event>
 7    1  0.5537228E-006  0.1090777E+03  0.7818608E-02  0.1283102E+00
          2   -1    0    0  502    0  0.00000000000E+00  0.00000000000E+00  0.75765305567E+02  0.75765305567E+02  0.00000000000E+00 0. -1.
          1   -1    0    0  501    0 -0.00000000000E+00 -0.00000000000E+00 -0.18862362398E+04  0.18862362398E+04  0.00000000000E+00 0. -1.
         25    2    1    2    0    0  0.55369050586E+02 -0.17742791984E+03 -0.38032063761E+03  0.44138008172E+03  0.12500476247E+03 0.  0.
          2    1    1    2  501    0 -0.40149518482E+02  0.79730560605E+02 -0.14182221410E+04  0.14210288482E+04  0.00000000000E+00 0. -1.
          1    1    1    2  502    0 -0.15219532103E+02  0.97697359235E+02 -0.11928155615E+02  0.99592615466E+02  0.00000000000E+00 0. -1.
         22    1    3    3    0    0 -0.17047560398E+02 -0.12148802386E+03 -0.15150500689E+03  0.19494544460E+03  0.00000000000E+00 0. -1.
         22    1    3    3    0    0  0.72416610984E+02 -0.55939895977E+02 -0.22881563072E+03  0.24643463711E+03  0.00000000000E+00 0. -1.
</event>
<event>
 7    1  0.5537228E-006  0.6590311E+02  0.7818608E-02  0.1436506E+00
          2   -1    0    0  502    0  0.00000000000E+00  0.00000000000E+00  0.46186410906E+03  0.46186410906E+03  0.00000000000E+00 0. -1.
          1   -1    0    0  501    0 -0.00000000000E+00 -0.00000000000E+00 -0.12687741276E+03  0.12687741276E+03  0.00000000000E+00 0. -1.
         25    2    1    2    0    0 -0.60218608970E+02 -0.76912606958E+02  0.13595444557E+02  0.15922230649E+03  0.12500030718E+03 0.  0.
          2    1    1    2  501    0  0.27223822013E+02  0.53391984579E+02 -0.35950392714E+02  0.69887561400E+02  0.00000000000E+00 0. -1.
          1    1    1    2  502    0  0.32994786957E+02  0.23520622379E+02  0.35734164446E+03  0.35963165393E+03  0.00000000000E+00 0. -1.
         22    1    3    3    0    0 -0.69660685248E+02 -0.33805443334E+02 -0.42122311496E+02  0.88145948256E+02  0.00000000000E+00 0.  1.
         22    1    3    3    0    0  0.94420762783E+01 -0.43107163624E+02  0.55717756053E+02  0.71076358233E+02  0.00000000000E+00 0.  1.
</event>
<event>
 7    1  0.5537228E-006  0.7297111E+02  0.7818608E-02  0.1378768E+00
          2   -1    0    0  502    0  0.00000000000E+00  0.00000000000E+00  0.31279030643E+03  0.31279030643E+03  0.00000000000E+00 0. -1.
          1   -1    0    0  501    0 -0.00000000000E+00 -0.00000000000E+00 -0.70586812322E+03  0.70586812322E+03  0.00000000000E+00 0. -1.
         25    2    1    2    0    0  0.53031304304E+02 -0.11526942656E+03  0.11717344515E+03  0.21319837884E+03  0.12499829022E+03 0.  0.
          2    1    1    2  501    0 -0.17198105057E+02  0.70269868676E+02 -0.65016773560E+03  0.65418018441E+03  0.00000000000E+00 0. -1.
          1    1    1    2  502    0 -0.35833199248E+02  0.44999557881E+02  0.13991647366E+03  0.15127986640E+03  0.00000000000E+00 0. -1.
         22    1    3    3    0    0  0.43666246514E+02 -0.18681952994E+02  0.10519701526E+03  0.11542169845E+03  0.00000000000E+00 0.  1.
         22    1    3    3    0    0  0.93650577900E+01 -0.96587473562E+02  0.11976429892E+02  0.97776680397E+02  0.00000000000E+00 0.  1.
</event>
<event>
 7    1  0.5537228E-006  0.5450255E+02  0.7818608E-02  0.1435299E+00
          2   -1    0    0  502    0  0.00000000000E+00  0.00000000000E+00  0.95573005180E+02  0.95573005180E+02  0.00000000000E+00 0. -1.
          1   -1    0    0  501    0 -0.00000000000E+00 -0.00000000000E+00 -0.11208162382E+04  0.11208162382E+04  0.00000000000E+00 0. -1.
         25    2    1    2    0    0 -0.33504273606E+00  0.69623190246E+01 -0.41931529783E+03  0.43760380041E+03  0.12499272377E+03 0.  0.
          2    1    1    2  501    0 -0.27662253323E+02  0.40979928579E+02 -0.68245339008E+03  0.68424205106E+03  0.00000000000E+00 0. -1.
          1    1    1    2  502    0  0.27997296059E+02 -0.47942247604E+02  0.76525454939E+02  0.94543391866E+02  0.00000000000E+00 0. -1.
         22    1    3    3    0    0 -0.37005276064E+02 -0.26488444355E+02 -0.34652855100E+03  0.34950402687E+03  0.00000000000E+00 0.  1.
         22    1    3    3    0    0  0.36670233328E+02  0.33450763379E+02 -0.72786746834E+02  0.88099773539E+02  0.00000000000E+00 0.  1.
</event>
<event>
 7    1  0.5537228E-006  0.4758730E+02  0.7818608E-02  0.1571572E+00
          2   -1    0    0  502    0  0.00000000000E+00  0.00000000000E+00  0.49489813296E+03  0.49489813296E+03  0.00000000000E+00 0. -1.
          1   -1    0    0  501    0 -0.00000000000E+00 -0.00000000000E+00 -0.79703198361E+03  0.79703198361E+03  0.00000000000E+00 0. -1.
         25    2    1    2    0    0  0.33146463383E+02  0.75547021635E+01 -0.67265372332E+02  0.14596702189E+03  0.12500391836E+03 0.  0.
          2    1    1    2  501    0 -0.46897949653E+02  0.99424499338E+01 -0.68931096501E+03  0.69097603177E+03  0.00000000000E+00 0. -1.
          1    1    1    2  502    0  0.13751486270E+02 -0.17497152097E+02  0.45444248669E+03  0.45498706291E+03  0.00000000000E+00 0. -1.
         22    1    3    3    0    0 -0.17494636037E+02  0.15165408399E+02 -0.87794128897E+02  0.90795710090E+02  0.00000000000E+00 0.  1.
         22    1    3    3    0    0  0.50641099420E+02 -0.76107062351E+01  0.20528756565E+02  0.55171311802E+02  0.00000000000E+00 0.  1.
</event>
<event>
 7    1  0.5537228E-006  0.5294474E+02  0.7818608E-02  0.1544400E+00
          2   -1    0    0  502    0  0.00000000000E+00  0.00000000000E+00  0.16101829399E+04  0.16101829399E+04  0.00000000000E+00 0. -1.
          1   -1    0    0  501    0 -0.00000000000E+00 -0.00000000000E+00 -0.12052009936E+04  0.12052009936E+04  0.00000000000E+00 0. -1.
         25    2    1    2    0    0 -0.75687408329E+02 -0.12077204072E+02  0.28654711126E+03  0.32187998512E+03  0.12499214060E+03 0.  0.
          2    1    1    2  501    0  0.52081209933E+02  0.92648779862E+01 -0.11868371693E+04  0.11880154700E+04  0.00000000000E+00 0. -1.
          1    1    1    2  502    0  0.23606198396E+02  0.28123260861E+01  0.13052720044E+04  0.13054884784E+04  0.00000000000E+00 0. -1.
         22    1    3    3    0    0 -0.51333398054E+02  0.54301028202E+02  0.16763294631E+03  0.18353344139E+03  0.00000000000E+00 0.  1.
         22    1    3    3    0    0 -0.24354010275E+02 -0.66378232274E+02  0.11891416494E+03  0.13834654372E+03  0.00000000000E+00 0.  1.
</event>
<event>
 7    1  0.5537228E-006  0.5277994E+02  0.7818608E-02  0.1500614E+00
          2   -1    0    0  502    0  0.00000000000E+00  0.00000000000E+00  0.46734989649E+03  0.46734989649E+03  0.00000000000E+00 0. -1.
          1   -1    0    0  501    0 -0.00000000000E+00 -0.00000000000E+00 -0.84128115496E+03  0.84128115496E+03  0.00000000000E+00 0. -1.
         25    2    1    2    0    0 -0.74884099396E+02  0.27940820675E+02 -0.54292913225E+02  0.15799058185E+03  0.12499994290E+03 0.  0.
          2    1    1    2  501    0  0.31868066958E+02  0.19735225952E+01 -0.73313878239E+03  0.73383372962E+03  0.00000000000E+00 0. -1.
          1    1    1    2  502    0  0.43016032438E+02 -0.29914343270E+02  0.41350043714E+03  0.41680673999E+03  0.00000000000E+00 0. -1.
         22    1    3    3    0    0  0.49409106200E+01 -0.40329143363E+02 -0.20599831409E+01  0.40682870261E+02  0.00000000000E+00 0.  1.
         22    1    3    3    0    0 -0.79825010016E+02  0.68269964038E+02 -0.52232930084E+02  0.11730771159E+03  0.00000000000E+00 0.  1.
</event>
<event>
 7    1  0.5537228E-006  0.5997107E+02  0.7818608E-02  0.1455420E+00
          2   -1    0    0  502    0  0.00000000000E+00  0.00000000000E+00  0.21591294002E+04  0.21591294002E+04  0.00000000000E+00 0. -1.
          1   -1    0    0  501    0 -0.00000000000E+00 -0.00000000000E+00 -0.23788281528E+02  0.23788281528E+02  0.00000000000E+00 0. -1.
         25    2    1    2    0    0  0.34837556357E+01 -0.80078149364E+02  0.84391415108E+03  0.85687752612E+03  0.12499341511E+03 0.  0.
          2    1    1    2  501    0  0.25551635162E+02  0.29072265148E+02  0.58741577642E+01  0.39148287188E+02  0.00000000000E+00 0. -1.
          1    1    1    2  502    0 -0.29035390797E+02  0.51005884216E+02  0.12855528098E+04  0.12868918684E+04  0.00000000000E+00 0. -1.
         22    1    3    3    0    0  0.39435067151E+02 -0.99919644522E+02  0.61276057241E+03  0.62210495818E+03  0.00000000000E+00 0.  1.
         22    1    3    3    0    0 -0.35951311515E+02  0.19841495158E+02  0.23115357866E+03  0.23477256794E+03  0.00000000000E+00 0.  1.
</event>
<event>
 7    1  0.5537228E-006  0.1241925E+03  0.7818608E-02  0.1362141E+00
          2   -1    0    0  502    0  0.00000000000E+00  0.00000000000E+00  0.30460230865E+03  0.30460230865E+03  0.00000000000E+00 0. -1.
          1   -1    0    0  501    0 -0.00000000000E+00 -0.00000000000E+00 -0.37807926225E+03  0.37807926225E+03  0.00000000000E+00 0. -1.
         25    2    1    2    0    0  0.92925325825E+02  0.83148623368E+02  0.17246456066E+03  0.24681527392E+03  0.12499978004E+03 0.  0.
          2    1    1    2  501    0 -0.62747192605E+02 -0.10750826944E+03 -0.32488214179E+03  0.34791327113E+03  0.00000000000E+00 0. -1.
          1    1    1    2  502    0 -0.30178133220E+02  0.24359646067E+02  0.78940627521E+02  0.87953025841E+02  0.00000000000E+00 0. -1.
         22    1    3    3    0    0  0.11329594046E+02 -0.20811065037E+02 -0.62865748728E+01  0.24514916946E+02  0.00000000000E+00 0. -1.
         22    1    3    3    0    0  0.81595731779E+02  0.10395968841E+03  0.17875113553E+03  0.22230035698E+03  0.00000000000E+00 0. -1.
</event>
<event>
 7    1  0.5537228E-006  0.1420178E+03  0.7818608E-02  0.1245324E+00
          2   -1    0    0  502    0  0.00000000000E+00  0.00000000000E+00  0.34149872382E+04  0.34149872382E+04  0.00000000000E+00 0. -1.
          1   -1    0    0  501    0 -0.00000000000E+00 -0.00000000000E+00 -0.77443607165E+02  0.77443607165E+02  0.00000000000E+00 0. -1.
         25    2    1    2    0    0 -0.66369894272E+02 -0.63836557286E+02  0.38504049704E+03  0.41516526395E+03  0.12500377242E+03 0.  0.
          2    1    1    2  501    0  0.29439218968E+02  0.15584506352E+03  0.40653513901E+02  0.16372861579E+03  0.00000000000E+00 0. -1.
          1    1    1    2  502    0  0.36930675304E+02 -0.92008506234E+02  0.29118496201E+04  0.29135369656E+04  0.00000000000E+00 0. -1.
         22    1    3    3    0    0 -0.70945478848E+02  0.17973270085E+02  0.17298431236E+03  0.18782936866E+03  0.00000000000E+00 0.  1.
         22    1    3    3    0    0  0.45755845752E+01 -0.81809827372E+02  0.21205618468E+03  0.22733589530E+03  0.00000000000E+00 0.  1.
</event>
<event>
 7    1  0.5537228E-006  0.1161443E+03  0.7818608E-02  0.1312858E+00
          2   -1    0    0  502    0  0.00000000000E+00  0.00000000000E+00  0.26237933246E+04  0.26237933246E+04  0.00000000000E+00 0. -1.
          1   -1    0    0  501    0 -0.00000000000E+00 -0.00000000000E+00 -0.23072619047E+03  0.23072619047E+03  0.00000000000E+00 0. -1.
         25    2    1    2    0    0  0.29220399983E+02  0.11443368599E+03  0.10373104781E+03  0.20083118491E+03  0.12499653711E+03 0.  0.
          2    1    1    2  501    0 -0.63594773587E+02 -0.30482628816E+01 -0.17519338703E+03  0.18640362119E+03  0.00000000000E+00 0. -1.
          1    1    1    2  502    0  0.34374373605E+02 -0.11138542311E+03  0.24645294733E+04  0.24672847089E+04  0.00000000000E+00 0. -1.
         22    1    3    3    0    0 -0.21591523200E+02  0.74121872951E+02 -0.14997682750E+01  0.77217195162E+02  0.00000000000E+00 0. -1.
         22    1    3    3    0    0  0.50811923182E+02  0.40311813043E+02  0.10523081608E+03  0.12361398975E+03  0.00000000000E+00 0. -1.
</event>
<event>
 7    1  0.5537228E-006  0.9840856E+02  0.7818608E-02  0.1343013E+00
          2   -1    0    0  502    0  0.00000000000E+00  0.00000000000E+00  0.15529678921E+04  0.15529678921E+04  0.00000000000E+00 0. -1.
          1   -1    0    0  501    0 -0.00000000000E+00 -0.00000000000E+00 -0.17825485458E+04  0.17825485458E+04  0.00000000000E+00 0. -1.
         25    2    1    2    0    0  0.22252078477E+01 -0.14874026151E+03 -0.14970962182E+04  0.15096498130E+04  0.12496741274E+03 0.  0.
          2    1    1    2  501    0  0.21706646777E+02  0.53335894108E+02 -0.27462260329E+03  0.28059485091E+03  0.00000000000E+00 0. -1.
          1    1    1    2  502    0 -0.23931854625E+02  0.95404367406E+02  0.15421381678E+04  0.15452717740E+04  0.00000000000E+00 0. -1.
         22    1    3    3    0    0 -0.33829398061E+02 -0.15373025819E+03 -0.11723698009E+04  0.11828898387E+04  0.00000000000E+00 0. -1.
         22    1    3    3    0    0  0.36054605909E+02  0.49899966783E+01 -0.32472641731E+03  0.32675997425E+03  0.00000000000E+00 0. -1.
</event>
<event>
 7    1  0.5537228E-006  0.1504496E+03  0.7818608E-02  0.1390554E+00
          2   -1    0    0  502    0  0.00000000000E+00  0.00000000000E+00  0.97358172784E+03  0.97358172784E+03  0.00000000000E+00 0. -1.
          1   -1    0    0  501    0 -0.00000000000E+00 -0.00000000000E+00 -0.12279206398E+04  0.12279206398E+04  0.00000000000E+00 0. -1.
         25    2    1    2    0    0 -0.16227050459E+03 -0.48803722860E+02  0.15441410606E+02  0.21113223670E+03  0.12499945675E+03 0.  0.
          2    1    1    2  501    0  0.15880578299E+02  0.19772300011E+02 -0.11234586113E+04  0.11237448055E+04  0.00000000000E+00 0. -1.
          1    1    1    2  502    0  0.14638992629E+03  0.29031422850E+02  0.85367828873E+03  0.86662532543E+03  0.00000000000E+00 0. -1.
         22    1    3    3    0    0 -0.17920726015E+03 -0.42261290895E+02  0.31614156886E+02  0.18681732713E+03  0.00000000000E+00 0.  1.
         22    1    3    3    0    0  0.16936755566E+02 -0.65424319657E+01 -0.16172746280E+02  0.24314909569E+02  0.00000000000E+00 0.  1.
</event>
<event>
 7    1  0.5537228E-006  0.4550639E+02  0.7818608E-02  0.1477863E+00
          2   -1    0    0  502    0  0.00000000000E+00  0.00000000000E+00  0.16219257429E+04  0.16219257429E+04  0.00000000000E+00 0. -1.
          1   -1    0    0  501    0 -0.00000000000E+00 -0.00000000000E+00 -0.30423112170E+03  0.30423112170E+03  0.00000000000E+00 0. -1.
         25    2    1    2    0    0  0.91759691709E+01 -0.27761591184E+02 -0.82164516723E+02  0.15242183142E+03  0.12500600997E+03 0.  0.
          2    1    1    2  501    0  0.33678925166E+02  0.34620595709E+02 -0.18351580612E+03  0.18976539922E+03  0.00000000000E+00 0. -1.
          1    1    1    2  502    0 -0.42854894337E+02 -0.68590045252E+01  0.15833749440E+04  0.15839696340E+04  0.00000000000E+00 0. -1.
         22    1    3    3    0    0 -0.32423185951E-03 -0.17797616065E+02 -0.11527858942E+03  0.11664436684E+03  0.00000000000E+00 0. -1.
         22    1    3    3    0    0  0.91762934027E+01 -0.99639751185E+01  0.33114072698E+02  0.35777464575E+02  0.00000000000E+00 0. -1.
</event>
<event>
 7    1  0.5537228E-006  0.8594260E+02  0.7818608E-02  0.1420822E+00
          2   -1    0    0  502    0  0.00000000000E+00  0.00000000000E+00  0.66895324826E+02  0.66895324826E+02  0.00000000000E+00 0. -1.
          1   -1    0    0  501    0 -0.00000000000E+00 -0.00000000000E+00 -0.11850230197E+04  0.11850230197E+04  0.00000000000E+00 0. -1.
         25    2    1    2    0    0 -0.46523503891E+02 -0.65547657418E+02 -0.26028699026E+03  0.29972478623E+03  0.12499879350E+03 0.  0.
          2    1    1    2  501    0 -0.28514849107E+02  0.20300439024E+02 -0.86366652125E+03  0.86437553434E+03  0.00000000000E+00 0. -1.
          1    1    1    2  502    0  0.75038352998E+02  0.45247218394E+02  0.58258166248E+01  0.87818023960E+02  0.00000000000E+00 0. -1.
         22    1    3    3    0    0 -0.11038044618E+02 -0.48913091783E+01 -0.21668958995E+03  0.21702567067E+03  0.00000000000E+00 0. -1.
         22    1    3    3    0    0 -0.35485459272E+02 -0.60656348240E+02 -0.43597400303E+02  0.82699115562E+02  0.00000000000E+00 0. -1.
</event>
<event>
 7    1  0.5537228E-006  0.1004578E+03  0.7818608E-02  0.1349352E+00
          2   -1    0    0  502    0  0.00000000000E+00  0.00000000000E+00  0.16407868870E+04  0.16407868870E+04  0.00000000000E+00 0. -1.
          1   -1    0    0  501    0 -0.00000000000E+00 -0.00000000000E+00 -0.55717977306E+02  0.55717977306E+02  0.00000000000E+00 0. -1.
         25    2    1    2    0    0  0.59711202352E+02 -0.65260096763E+02  0.18996405428E+03  0.24399851957E+03  0.12499851088E+03 0.  0.
          2    1    1    2  501    0 -0.26481285795E+02  0.10709015654E+03  0.79886789039E+02  0.13620374146E+03  0.00000000000E+00 0. -1.
          1    1    1    2  502    0 -0.33229916556E+02 -0.41830059772E+02  0.13152180664E+04  0.13163026033E+04  0.00000000000E+00 0. -1.
         22    1    3    3    0    0 -0.23898511742E+02 -0.10466157451E+02 -0.34123716424E+01  0.26312042785E+02  0.00000000000E+00 0.  1.
         22    1    3    3    0    0  0.83609714094E+02 -0.54793939312E+02  0.19337642592E+03  0.21768647679E+03  0.00000000000E+00 0.  1.
</event>
<event>
 7    1  0.5537228E-006  0.1539136E+03  0.7818608E-02  0.1349136E+00
          2   -1    0    0  502    0  0.00000000000E+00  0.00000000000E+00  0.40663619465E+03  0.40663619465E+03  0.00000000000E+00 0. -1.
          1   -1    0    0  501    0 -0.00000000000E+00 -0.00000000000E+00 -0.10050949228E+04  0.10050949228E+04  0.00000000000E+00 0. -1.
         25    2    1    2    0    0  0.13924291274E+03 -0.93568792396E+02 -0.56594811584E+03  0.60338031339E+03  0.12500730020E+03 0.  0.
          2    1    1    2  501    0  0.27206537147E+01  0.34826704443E+02 -0.40443612376E+03  0.40594196568E+03  0.00000000000E+00 0. -1.
          1    1    1    2  502    0 -0.14196356645E+03  0.58742087953E+02  0.37192551148E+03  0.40240883835E+03  0.00000000000E+00 0. -1.
         22    1    3    3    0    0  0.14905070766E+02  0.23278336722E+02 -0.29391290244E+02  0.40347119318E+02  0.00000000000E+00 0. -1.
         22    1    3    3    0    0  0.12433784197E+03 -0.11684712912E+03 -0.53655682560E+03  0.56303319407E+03  0.00000000000E+00 0. -1.
</event>
<event>
 7    1  0.5537228E-006  0.2383006E+03  0.7818608E-02  0.1213580E+00
          2   -1    0    0  502    0  0.00000000000E+00  0.00000000000E+00  0.22497803712E+03  0.22497803712E+03  0.00000000000E+00 0. -1.
          1   -1    0    0  501    0 -0.00000000000E+00 -0.00000000000E+00 -0.12958980302E+04  0.12958980302E+04  0.00000000000E+00 0. -1.
         25    2    1    2    0    0  0.19759290912E+03 -0.19418251433E+03 -0.28583693475E+03  0.41722557967E+03  0.12499849782E+03 0.  0.
          2    1    1    2  501    0  0.41091981866E+01  0.81927113840E+02 -0.85773756064E+03  0.86165112454E+03  0.00000000000E+00 0. -1.
          1    1    1    2  502    0 -0.20170210731E+03  0.11225540049E+03  0.72654502328E+02  0.24199936310E+03  0.00000000000E+00 0. -1.
         22    1    3    3    0    0  0.17885557668E+03 -0.10106099348E+03 -0.22370875138E+03  0.30372396540E+03  0.00000000000E+00 0.  1.
         22    1    3    3    0    0  0.18737332434E+02 -0.93121520857E+02 -0.62128183374E+02  0.11350161427E+03  0.00000000000E+00 0.  1.
</event>
<event>
 7    1  0.5537228E-006  0.1140530E+03  0.7818608E-02  0.1419257E+00
          2   -1    0    0  502    0  0.00000000000E+00  0.00000000000E+00  0.27081804099E+03  0.27081804099E+03  0.00000000000E+00 0. -1.
          1   -1    0    0  501    0 -0.00000000000E+00 -0.00000000000E+00 -0.63525622085E+03  0.63525622085E+03  0.00000000000E+00 0. -1.
         25    2    1    2    0    0  0.96472028406E+02  0.87684673124E+02 -0.12189857084E+03  0.21790041092E+03  0.12500349331E+03 0.  0.
          2    1    1    2  501    0 -0.93805410875E+02 -0.61123140738E+02 -0.45778590238E+03  0.47127850137E+03  0.00000000000E+00 0. -1.
          1    1    1    2  502    0 -0.26666175315E+01 -0.26561532386E+02  0.21524629336E+03  0.21689534955E+03  0.00000000000E+00 0. -1.
         22    1    3    3    0    0  0.10891199814E+03  0.11016625564E+03 -0.10515549434E+03  0.18723275678E+03  0.00000000000E+00 0.  1.
         22    1    3    3    0    0 -0.12439969737E+02 -0.22481582520E+02 -0.16743076499E+02  0.30667654137E+02  0.00000000000E+00 0.  1.
</event>
<event>
 7    1  0.5537228E-006  0.6664871E+02  0.7818608E-02  0.1379516E+00
          2   -1    0    0  502    0  0.00000000000E+00  0.00000000000E+00  0.10771676444E+04  0.10771676444E+04  0.00000000000E+00 0. -1.
          1   -1    0    0  501    0 -0.00000000000E+00 -0.00000000000E+00 -0.13381045420E+04  0.13381045420E+04  0.00000000000E+00 0. -1.
         25    2    1    2    0    0  0.11318728326E+03  0.38112052483E+02  0.21267419544E+03  0.27407768117E+03  0.12499748906E+03 0.  0.
          2    1    1    2  501    0 -0.66403211387E+02  0.34771869789E+01 -0.13053804967E+04  0.13070729583E+04  0.00000000000E+00 0. -1.
          1    1    1    2  502    0 -0.46784071876E+02 -0.41589239462E+02  0.83176940364E+03  0.83412154693E+03  0.00000000000E+00 0. -1.
         22    1    3    3    0    0  0.32081037696E+02  0.76574769618E+02  0.97662820445E+02  0.12818313001E+03  0.00000000000E+00 0. -1.
         22    1    3    3    0    0  0.81106245568E+02 -0.38462717135E+02  0.11501137500E+03  0.14589455116E+03  0.00000000000E+00 0. -1.
</event>
<event>
 7    1  0.5537228E-006  0.7218796E+02  0.7818608E-02  0.1401424E+00
          2   -1    0    0  502    0  0.00000000000E+00  0.00000000000E+00  0.77751308127E+03  0.77751308127E+03  0.00000000000E+00 0. -1.
          1   -1    0    0  501    0 -0.00000000000E+00 -0.00000000000E+00 -0.23647033432E+03  0.23647033432E+03  0.00000000000E+00 0. -1.
         25    2    1    2    0    0 -0.19871807187E+01  0.55263068609E+02  0.13035048945E+03  0.18888378689E+03  0.12501151632E+03 0.  0.
          2    1    1    2  501    0 -0.46457081465E+02 -0.56863137755E+02 -0.19970736741E+03  0.21277854556E+03  0.00000000000E+00 0. -1.
          1    1    1    2  502    0  0.48444262184E+02  0.16000691459E+01  0.61039962491E+03  0.61232108314E+03  0.00000000000E+00 0. -1.
         22    1    3    3    0    0  0.24921750197E+02  0.24389197448E+02  0.14206881941E+03  0.14628559749E+03  0.00000000000E+00 0. -1.
         22    1    3    3    0    0 -0.26908930916E+02  0.30873871161E+02 -0.11718329958E+02  0.42598189404E+02  0.00000000000E+00 0. -1.
</event>
<event>
 7    1  0.5537228E-006  0.7859165E+02  0.7818608E-02  0.1414180E+00
          2   -1    0    0  502    0  0.00000000000E+00  0.00000000000E+00  0.18691093746E+04  0.18691093746E+04  0.00000000000E+00 0. -1.
          1   -1    0    0  501    0 -0.00000000000E+00 -0.00000000000E+00 -0.87493791394E+03  0.87493791394E+03  0.00000000000E+00 0. -1.
         25    2    1    2    0    0  0.43698500037E+02  0.96471006052E+02  0.42005663397E+03  0.45087653797E+03  0.12500345131E+03 0.  0.
          2    1    1    2  501    0 -0.78351419959E+01 -0.78109946596E+02 -0.85745151834E+03  0.86103754826E+03  0.00000000000E+00 0. -1.
          1    1    1    2  502    0 -0.35863358041E+02 -0.18361059456E+02  0.14315663450E+04  0.14321332023E+04  0.00000000000E+00 0. -1.
         22    1    3    3    0    0 -0.62662812523E+01  0.37406292566E+02  0.32991671395E+03  0.33208964926E+03  0.00000000000E+00 0.  1.
         22    1    3    3    0    0  0.49964781289E+02  0.59064713486E+02  0.90139920024E+02  0.11878688871E+03  0.00000000000E+00 0.  1.
</event>
<event>
 7    1  0.5537228E-006  0.1664484E+03  0.7818608E-02  0.1231252E+00
          2   -1    0    0  502    0  0.00000000000E+00  0.00000000000E+00  0.12523028480E+04  0.12523028480E+04  0.00000000000E+00 0. -1.
          1   -1    0    0  501    0 -0.00000000000E+00 -0.00000000000E+00 -0.14135669234E+04  0.14135669234E+04  0.00000000000E+00 0. -1.
         25    2    1    2    0    0 -0.23789742789E+03 -0.51277392207E+02 -0.18802060416E+03  0.33196624921E+03  0.12500114351E+03 0.  0.
          2    1    1    2  501    0  0.73451946694E+02  0.64309214789E+02 -0.11457237704E+04  0.11498755679E+04  0.00000000000E+00 0. -1.
          1    1    1    2  502    0  0.16444548119E+03 -0.13031822581E+02  0.11724802992E+04  0.11840279543E+04  0.00000000000E+00 0. -1.
         22    1    3    3    0    0 -0.14955152928E+03 -0.79807077565E+02 -0.74084332421E+02  0.18499545359E+03  0.00000000000E+00 0.  1.
         22    1    3    3    0    0 -0.88345898609E+02  0.28529685358E+02 -0.11393627174E+03  0.14697079562E+03  0.00000000000E+00 0.  1.
</event>
<event>
 7    1  0.5537228E-006  0.5457954E+02  0.7818608E-02  0.1541996E+00
          2   -1    0    0  502    0  0.00000000000E+00  0.00000000000E+00  0.98394891892E+02  0.98394891892E+02  0.00000000000E+00 0. -1.
          1   -1    0    0  501    0 -0.00000000000E+00 -0.00000000000E+00 -0.54469261386E+03  0.54469261386E+03  0.00000000000E+00 0. -1.
         25    2    1    2    0    0 -0.33960835893E+02 -0.62641398334E+02  0.74795246004E+01  0.14407739117E+03  0.12500027279E+03 0.  0.
          2    1    1    2  501    0  0.37281961861E+02  0.39454902009E+02 -0.46830954402E+03  0.47144507951E+03  0.00000000000E+00 0. -1.
          1    1    1    2  502    0 -0.33211259679E+01  0.23186496325E+02  0.14532297451E+02  0.27565035076E+02  0.00000000000E+00 0. -1.
         22    1    3    3    0    0 -0.64146758740E+02 -0.40797432669E+02 -0.38240265361E+02  0.85097327009E+02  0.00000000000E+00 0.  1.
         22    1    3    3    0    0  0.30185922847E+02 -0.21843965665E+02  0.45719789961E+02  0.58980064159E+02  0.00000000000E+00 0.  1.
</event>
<event>
 7    1  0.5537228E-006  0.4118107E+02  0.7818608E-02  0.1547129E+00
          2   -1    0    0  502    0  0.00000000000E+00  0.00000000000E+00  0.69401253574E+01  0.69401253574E+01  0.00000000000E+00 0. -1.
          1   -1    0    0  501    0 -0.00000000000E+00 -0.00000000000E+00 -0.31639550696E+04  0.31639550696E+04  0.00000000000E+00 0. -1.
         25    2    1    2    0    0 -0.45236226482E+01  0.36909704181E+02 -0.11783290709E+04  0.11855240656E+04  0.12500048626E+03 0.  0.
          2    1    1    2  501    0 -0.25324068608E+02 -0.33605646655E+02 -0.19093235718E+04  0.19097872002E+04  0.00000000000E+00 0. -1.
          1    1    1    2  502    0  0.29847691257E+02 -0.33040575254E+01 -0.69362301520E+02  0.75583929122E+02  0.00000000000E+00 0. -1.
         22    1    3    3    0    0  0.88882026193E+01  0.67514395353E+02 -0.35238821090E+03  0.35890757154E+03  0.00000000000E+00 0.  1.
         22    1    3    3    0    0 -0.13411825267E+02 -0.30604691172E+02 -0.82594085995E+03  0.82661649410E+03  0.00000000000E+00 0.  1.
</event>
<event>
 7    1  0.5537228E-006  0.1044564E+03  0.7818608E-02  0.1452764E+00
          2   -1    0    0  502    0  0.00000000000E+00  0.00000000000E+00  0.20298663303E+04  0.20298663303E+04  0.00000000000E+00 0. -1.
          1   -1    0    0  501    0 -0.00000000000E+00 -0.00000000000E+00 -0.37403049603E+02  0.37403049603E+02  0.00000000000E+00 0. -1.
         25    2    1    2    0    0 -0.11699305838E+03  0.40693202485E+02  0.57781726881E+03  0.60402086411E+03  0.12500038284E+03 0.  0.
          2    1    1    2  501    0  0.19427323124E+02 -0.11660739755E+02 -0.16787875316E+02  0.28199760513E+02  0.00000000000E+00 0. -1.
          1    1    1    2  502    0  0.97565735257E+02 -0.29032462730E+02  0.14314338873E+04  0.14350487553E+04  0.00000000000E+00 0. -1.
         22    1    3    3    0    0 -0.43905792213E+02  0.37206322053E+01  0.38481667021E+02  0.58501285376E+02  0.00000000000E+00 0. -1.
         22    1    3    3    0    0 -0.73087266167E+02  0.36972570280E+02  0.53933560179E+03  0.54551957874E+03  0.00000000000E+00 0. -1.
</event>
<event>
 7    1  0.5537228E-006  0.1577307E+03  0.7818608E-02  0.1246440E+00
          2   -1    0    0  502    0  0.00000000000E+00  0.00000000000E+00  0.16348832518E+03  0.16348832518E+03  0.00000000000E+00 0. -1.
          1   -1    0    0  501    0 -0.00000000000E+00 -0.00000000000E+00 -0.19013440836E+04  0.19013440836E+04  0.00000000000E+00 0. -1.
         25    2    1    2    0    0 -0.15467924945E+03 -0.14243868293E+03 -0.39326188575E+03  0.46313549531E+03  0.12500051051E+03 0.  0.
          2    1    1    2  501    0  0.11380992073E+02  0.87533975291E+02 -0.14254919790E+04  0.14282223588E+04  0.00000000000E+00 0. -1.
          1    1    1    2  502    0  0.14329825737E+03  0.54904707636E+02  0.80898106416E+02  0.17347455464E+03  0.00000000000E+00 0. -1.
         22    1    3    3    0    0 -0.44983628102E+02 -0.75704475576E+02 -0.61546966446E+02  0.10743706762E+03  0.00000000000E+00 0.  1.
         22    1    3    3    0    0 -0.10969562134E+03 -0.66734207352E+02 -0.33171491930E+03  0.35569842769E+03  0.00000000000E+00 0.  1.
</event>
<event>
 7    1  0.5537228E-006  0.4114449E+02  0.7818608E-02  0.1546851E+00
          2   -1    0    0  502    0  0.00000000000E+00  0.00000000000E+00  0.95295541273E+03  0.95295541273E+03  0.00000000000E+00 0. -1.
          1   -1    0    0  501    0 -0.00000000000E+00 -0.00000000000E+00 -0.51322847620E+03  0.51322847620E+03  0.00000000000E+00 0. -1.
         25    2    1    2    0    0 -0.20797918087E+02  0.57089613711E+02  0.39721587570E+03  0.42082923377E+03  0.12500005878E+03 0.  0.
          2    1    1    2  501    0  0.29780640093E+02 -0.28350056232E+02 -0.50016082736E+03  0.50184805015E+03  0.00000000000E+00 0. -1.
          1    1    1    2  502    0 -0.89827220053E+01 -0.28739557479E+02  0.54267188819E+03  0.54350660501E+03  0.00000000000E+00 0. -1.
         22    1    3    3    0    0 -0.56511809279E+02  0.74803533451E+02  0.32602196861E+03  0.33923366169E+03  0.00000000000E+00 0.  1.
         22    1    3    3    0    0  0.35713891192E+02 -0.17713919740E+02  0.71193907084E+02  0.81595572077E+02  0.00000000000E+00 0.  1.
</event>
<event>
 7    1  0.5537228E-006  0.1513024E+03  0.7818608E-02  0.1207034E+00
          2   -1    0    0  502    0  0.00000000000E+00  0.00000000000E+00  0.28290332314E+03  0.28290332314E+03  0.00000000000E+00 0. -1.
          1   -1    0    0  501    0 -0.00000000000E+00 -0.00000000000E+00 -0.65337702629E+03  0.65337702629E+03  0.00000000000E+00 0. -1.
         25    2    1    2    0    0  0.50115016058E+02  0.53422268677E+02 -0.29458125763E+02  0.14785003376E+03  0.12500559061E+03 0.  0.
          2    1    1    2  501    0 -0.14867592799E+03  0.61373910817E+02 -0.52565716422E+03  0.54971514695E+03  0.00000000000E+00 0. -1.
          1    1    1    2  502    0  0.98560911934E+02 -0.11479617949E+03  0.18464158684E+03  0.23871516872E+03  0.00000000000E+00 0. -1.
         22    1    3    3    0    0  0.26695742041E+02 -0.37881929579E+02  0.68347964994E+01  0.46844612016E+02  0.00000000000E+00 0.  1.
         22    1    3    3    0    0  0.23419274016E+02  0.91304198256E+02 -0.36292922262E+02  0.10100542174E+03  0.00000000000E+00 0.  1.
</event>
<event>
 7    1  0.5537228E-006  0.7685872E+02  0.7818608E-02  0.1407861E+00
          2   -1    0    0  502    0  0.00000000000E+00  0.00000000000E+00  0.23766574468E+04  0.23766574468E+04  0.00000000000E+00 0. -1.
          1   -1    0    0  501    0 -0.00000000000E+00 -0.00000000000E+00 -0.74052502102E+03  0.74052502102E+03  0.00000000000E+00 0. -1.
         25    2    1    2    0    0  0.40962118058E+02  0.11129505976E+03  0.13159746456E+03  0.21681540271E+03  0.12500616277E+03 0.  0.
          2    1    1    2  501    0 -0.19122033516E+02 -0.73932168405E+02 -0.69561367219E+03  0.69979282550E+03  0.00000000000E+00 0. -1.
          1    1    1    2  502    0 -0.21840084542E+02 -0.37362891357E+02  0.22001486335E+04  0.22005742397E+04  0.00000000000E+00 0. -1.
         22    1    3    3    0    0 -0.11972059054E+02  0.11780326646E+03  0.98711071886E+02  0.15415841041E+03  0.00000000000E+00 0. -1.
         22    1    3    3    0    0  0.52934177112E+02 -0.65082067012E+01  0.32886392669E+02  0.62656992298E+02  0.00000000000E+00 0. -1.
</event>
<event>
 7    1  0.5537228E-006  0.1330704E+03  0.7818608E-02  0.1316023E+00
          2   -1    0    0  502    0  0.00000000000E+00  0.00000000000E+00  0.27365896020E+04  0.27365896020E+04  0.00000000000E+00 0. -1.
          1   -1    0    0  501    0 -0.00000000000E+00 -0.00000000000E+00 -0.46342443434E+03  0.46342443434E+03  0.00000000000E+00 0. -1.
         25    2    1    2    0    0  0.32311375663E+02  0.91251340040E+02 -0.43499164753E+02  0.16396066888E+03  0.12498036466E+03 0.  0.
          2    1    1    2  501    0 -0.33334200119E+02  0.42492309015E+02 -0.35598555928E+03  0.36005900022E+03  0.00000000000E+00 0. -1.
          1    1    1    2  502    0  0.10228244562E+01 -0.13374364905E+03  0.26726498917E+04  0.26759943673E+04  0.00000000000E+00 0. -1.
         22    1    3    3    0    0  0.29282315353E+02  0.12201886814E+03 -0.25053639883E+02  0.12795992751E+03  0.00000000000E+00 0. -1.
         22    1    3    3    0    0  0.30290603098E+01 -0.30767528104E+02 -0.18445524870E+02  0.36000741378E+02  0.00000000000E+00 0. -1.
</event>
<event>
 7    1  0.5537228E-006  0.7507841E+02  0.7818608E-02  0.1442946E+00
          2   -1    0    0  502    0  0.00000000000E+00  0.00000000000E+00  0.72763858871E+03  0.72763858871E+03  0.00000000000E+00 0. -1.
          1   -1    0    0  501    0 -0.00000000000E+00 -0.00000000000E+00 -0.75669551215E+03  0.75669551215E+03  0.00000000000E+00 0. -1.
         25    2    1    2    0    0 -0.41277766564E+02  0.21204788570E+02 -0.16263871396E+03  0.21030898149E+03  0.12500007738E+03 0.  0.
          2    1    1    2  501    0  0.61938285060E+02 -0.48077020473E+02 -0.56711469222E+03  0.57250923589E+03  0.00000000000E+00 0. -1.
          1    1    1    2  502    0 -0.20660518496E+02  0.26872231903E+02  0.70069648273E+03  0.70151588349E+03  0.00000000000E+00 0. -1.
         22    1    3    3    0    0 -0.26603215747E+02  0.59603121008E+02 -0.15542494512E+03  0.16857395020E+03  0.00000000000E+00 0.  1.
         22    1    3    3    0    0 -0.14674550817E+02 -0.38398332438E+02 -0.72137688443E+01  0.41735031288E+02  0.00000000000E+00 0.  1.
</event>
<event>
 7    1  0.5537228E-006  0.8374736E+02  0.7818608E-02  0.1353450E+00
          2   -1    0    0  502    0  0.00000000000E+00  0.00000000000E+00  0.63916655636E+03  0.63916655636E+03  0.00000000000E+00 0. -1.
          1   -1    0    0  501    0 -0.00000000000E+00 -0.00000000000E+00 -0.21198910891E+03  0.21198910891E+03  0.00000000000E+00 0. -1.
         25    2    1    2    0    0  0.23583845130E+02 -0.17371131746E+02  0.53865395285E+02  0.13923753677E+03  0.12501062702E+03 0.  0.
          2    1    1    2  501    0 -0.64388294413E+02  0.63898463665E+02 -0.15521560426E+03  0.17977972611E+03  0.00000000000E+00 0. -1.
          1    1    1    2  502    0  0.40804449283E+02 -0.46527331919E+02  0.52852765642E+03  0.53213840239E+03  0.00000000000E+00 0. -1.
         22    1    3    3    0    0  0.52166438090E+02 -0.49269064832E+02  0.17444705219E+01  0.71776188181E+02  0.00000000000E+00 0.  1.
         22    1    3    3    0    0 -0.28582592960E+02  0.31897933086E+02  0.52120924763E+02  0.67461348590E+02  0.00000000000E+00 0.  1.
</event>
<event>
 7    1  0.5537228E-006  0.7139564E+02  0.7818608E-02  0.1369173E+00
          2   -1    0    0  502    0  0.00000000000E+00  0.00000000000E+00  0.12215121760E+03  0.12215121760E+03  0.00000000000E+00 0. -1.
          1   -1    0    0  501    0 -0.00000000000E+00 -0.00000000000E+00 -0.27162500027E+04  0.27162500027E+04  0.00000000000E+00 0. -1.
         25    2    1    2    0    0  0.49178093550E+02 -0.14605159041E+02 -0.58567055987E+03  0.60105497297E+03  0.12500112112E+03 0.  0.
          2    1    1    2  501    0 -0.21523993742E+02  0.71904392337E+02 -0.21133277674E+04  0.21146602035E+04  0.00000000000E+00 0. -1.
          1    1    1    2  502    0 -0.27654099808E+02 -0.57299233296E+02  0.10489954222E+03  0.12268604375E+03  0.00000000000E+00 0. -1.
         22    1    3    3    0    0 -0.48894156589E+01 -0.61309123719E+02 -0.32511727529E+03  0.33088360148E+03  0.00000000000E+00 0.  1.
         22    1    3    3    0    0  0.54067509208E+02  0.46703964678E+02 -0.26055328458E+03  0.27017137149E+03  0.00000000000E+00 0.  1.
</event>
<event>
 7    1  0.5537228E-006  0.7185212E+02  0.7818608E-02  0.1432573E+00
          2   -1    0    0  502    0  0.00000000000E+00  0.00000000000E+00  0.77054996252E+02  0.77054996252E+02  0.00000000000E+00 0. -1.
          1   -1    0    0  501    0 -0.00000000000E+00 -0.00000000000E+00 -0.57479291978E+03  0.57479291978E+03  0.00000000000E+00 0. -1.
         25    2    1    2    0    0  0.55743934867E+02 -0.69045921843E+02 -0.30737751285E+03  0.34348372262E+03  0.12500162679E+03 0.  0.
          2    1    1    2  501    0 -0.61389026828E+02  0.31181938657E+02 -0.23770622351E+03  0.24747762446E+03  0.00000000000E+00 0. -1.
          1    1    1    2  502    0  0.56450919610E+01  0.37863983187E+02  0.47345812834E+02  0.60886568953E+02  0.00000000000E+00 0. -1.
         22    1    3    3    0    0  0.44239596333E+02  0.29994683412E+02 -0.10031668090E+03  0.11366731889E+03  0.00000000000E+00 0. -1.
         22    1    3    3    0    0  0.11504338534E+02 -0.99040605255E+02 -0.20706083196E+03  0.22981640373E+03  0.00000000000E+00 0. -1.
</event>
<event>
 7    1  0.5537228E-006  0.5567061E+02  0.7818608E-02  0.1527379E+00
          2   -1    0    0  502    0  0.00000000000E+00  0.00000000000E+00  0.35335608867E+03  0.35335608867E+03  0.00000000000E+00 0. -1.
          1   -1    0    0  501    0 -0.00000000000E+00 -0.00000000000E+00 -0.23254850358E+03  0.23254850358E+03  0.00000000000E+00 0. -1.
         25    2    1    2    0    0 -0.38059578751E+02 -0.16237269884E+01  0.11070373232E+03  0.17126551003E+03  0.12500156219E+03 0.  0.
          2    1    1    2  501    0  0.53017931105E+02 -0.18747650632E+02 -0.19757802912E+03  0.20542505450E+03  0.00000000000E+00 0. -1.
          1    1    1    2  502    0 -0.14958352354E+02  0.20371377620E+02  0.20768188190E+03  0.20921402773E+03  0.00000000000E+00 0. -1.
         22    1    3    3    0    0 -0.30093445078E+02 -0.21546209181E+02  0.13433877984E+03  0.13934404305E+03  0.00000000000E+00 0.  1.
         22    1    3    3    0    0 -0.79661336734E+01  0.19922482193E+02 -0.23635047518E+02  0.31921466971E+02  0.00000000000E+00 0.  1.
</event>
<event>
 7    1  0.5537228E-006  0.2584030E+03  0.7818608E-02  0.1331920E+00
          2   -1    0    0  502    0  0.00000000000E+00  0.00000000000E+00  0.18227670245E+04  0.18227670245E+04  0.00000000000E+00 0. -1.
          1   -1    0    0  501    0 -0.00000000000E+00 -0.00000000000E+00 -0.14916589166E+03  0.14916589166E+03  0.00000000000E+00 0. -1.
         25    2    1    2    0    0 -0.27733291966E+03  0.13218545177E+01  0.79464650483E+03  0.85088382662E+03  0.12499969250E+03 0.  0.
          2    1    1    2  501    0  0.25510071109E+03 -0.10755212075E+02  0.13950792861E+02  0.25570817744E+03  0.00000000000E+00 0. -1.
          1    1    1    2  502    0  0.22232208571E+02  0.94333575573E+01  0.86500383513E+03  0.86534091208E+03  0.00000000000E+00 0. -1.
         22    1    3    3    0    0 -0.15296833068E+03  0.51084377495E+02  0.53415106934E+03  0.55796620748E+03  0.00000000000E+00 0. -1.
         22    1    3    3    0    0 -0.12436458899E+03 -0.49762522977E+02  0.26049543550E+03  0.29291761914E+03  0.00000000000E+00 0. -1.
</event>
<event>
 7    1  0.5537228E-006  0.9658951E+02  0.7818608E-02  0.1321411E+00
          2   -1    0    0  502    0  0.00000000000E+00  0.00000000000E+00  0.37043272173E+03  0.37043272173E+03  0.00000000000E+00 0. -1.
          1   -1    0    0  501    0 -0.00000000000E+00 -0.00000000000E+00 -0.52349214985E+03  0.52349214985E+03  0.00000000000E+00 0. -1.
         25    2    1    2    0    0 -0.41120908814E+01 -0.56481650733E+02 -0.10993525934E+03  0.17583523735E+03  0.12500073315E+03 0.  0.
          2    1    1    2  501    0 -0.57271393261E+02  0.91965078333E+02 -0.36900725977E+03  0.38458282057E+03  0.00000000000E+00 0. -1.
          1    1    1    2  502    0  0.61383484143E+02 -0.35483427600E+02  0.32588309099E+03  0.33350681365E+03  0.00000000000E+00 0. -1.
         22    1    3    3    0    0 -0.60009154936E+02 -0.54567570580E+02 -0.69604408826E+02  0.10688073804E+03  0.00000000000E+00 0. -1.
         22    1    3    3    0    0  0.55897064055E+02 -0.19140801532E+01 -0.40330850516E+02  0.68954499318E+02  0.00000000000E+00 0. -1.
</event>
<event>
 7    1  0.5537228E-006  0.4620798E+02  0.7818608E-02  0.1515717E+00
          2   -1    0    0  502    0  0.00000000000E+00  0.00000000000E+00  0.17573404015E+04  0.17573404015E+04  0.00000000000E+00 0. -1.
          1   -1    0    0  501    0 -0.00000000000E+00 -0.00000000000E+00 -0.19780100175E+03  0.19780100175E+03  0.00000000000E+00 0. -1.
         25    2    1    2    0    0 -0.32137776610E+02  0.13572986862E+02  0.11109991417E+03  0.17083664276E+03  0.12499961970E+03 0.  0.
          2    1    1    2  501    0  0.43346825623E+02  0.17372539024E+02 -0.16451503590E+03  0.17101447144E+03  0.00000000000E+00 0. -1.
          1    1    1    2  502    0 -0.11209049013E+02 -0.30945525886E+02  0.16129545214E+04  0.16132902890E+04  0.00000000000E+00 0. -1.
         22    1    3    3    0    0 -0.80262102783E+02  0.13416479324E+02  0.75137624685E+02  0.11075951293E+03  0.00000000000E+00 0.  1.
         22    1    3    3    0    0  0.48124326174E+02  0.15650753759E+00  0.35962289481E+02  0.60077129833E+02  0.00000000000E+00 0.  1.
</event>
<event>
 7    1  0.5537228E-006  0.1935643E+03  0.7818608E-02  0.1239474E+00
          2   -1    0    0  502    0  0.00000000000E+00  0.00000000000E+00  0.15180476240E+04  0.15180476240E+04  0.00000000000E+00 0. -1.
          1   -1    0    0  501    0 -0.00000000000E+00 -0.00000000000E+00 -0.13056667343E+04  0.13056667343E+04  0.00000000000E+00 0. -1.
         25    2    1    2    0    0  0.12007611449E+03 -0.19745308479E+03  0.13620471228E+03  0.29594247081E+03  0.12499691364E+03 0.  0.
          2    1    1    2  501    0 -0.14659733369E+03  0.12497707098E+03 -0.12170718263E+04  0.12322231441E+04  0.00000000000E+00 0. -1.
          1    1    1    2  502    0  0.26521219203E+02  0.72476013806E+02  0.12932480037E+04  0.12955487435E+04  0.00000000000E+00 0. -1.
         22    1    3    3    0    0  0.87021404821E+02 -0.10435650099E+03  0.14256648563E+03  0.19694721887E+03  0.00000000000E+00 0. -1.
         22    1    3    3    0    0  0.33054709669E+02 -0.93096583800E+02 -0.63617733538E+01  0.98995251940E+02  0.00000000000E+00 0. -1.
</event>
<event>
 7    1  0.5537228E-006  0.1405706E+03  0.7818608E-02  0.1394594E+00
          2   -1    0    0  502    0  0.00000000000E+00  0.00000000000E+00  0.30162751911E+03  0.30162751911E+03  0.00000000000E+00 0. -1.
          1   -1    0    0  501    0 -0.00000000000E+00 -0.00000000000E+00 -0.70880171868E+03  0.70880171868E+03  0.00000000000E+00 0. -1.
         25    2    1    2    0    0 -0.59304902278E+02 -0.11625572924E+03 -0.55379128014E+02  0.18900932315E+03  0.12500084160E+03 0.  0.
          2    1    1    2  501    0 -0.26196760036E+02  0.20721244252E+01 -0.56460909621E+03  0.56522030701E+03  0.00000000000E+00 0. -1.
          1    1    1    2  502    0  0.85501662314E+02  0.11418360482E+03  0.21281402465E+03  0.25619960764E+03  0.00000000000E+00 0. -1.
         22    1    3    3    0    0 -0.46048769640E+02 -0.35636277305E+00  0.19908195495E+02  0.50169237862E+02  0.00000000000E+00 0.  1.
         22    1    3    3    0    0 -0.13256132638E+02 -0.11589936647E+03 -0.75287323509E+02  0.13884008528E+03  0.00000000000E+00 0.  1.
</event>
<event>
 7    1  0.5537228E-006  0.5979673E+02  0.7818608E-02  0.1409602E+00
          2   -1    0    0  502    0  0.00000000000E+00  0.00000000000E+00  0.61260197489E+03  0.61260197489E+03  0.00000000000E+00 0. -1.
          1   -1    0    0  501    0 -0.00000000000E+00 -0.00000000000E+00 -0.55706897342E+03  0.55706897342E+03  0.00000000000E+00 0. -1.
         25    2    1    2    0    0 -0.14711853942E+02  0.34279563010E+02  0.29523782621E+03  0.32277771881E+03  0.12501421778E+03 0.  0.
          2    1    1    2  501    0  0.59943834047E+02 -0.32103814344E+01 -0.53913986506E+03  0.54247153278E+03  0.00000000000E+00 0. -1.
          1    1    1    2  502    0 -0.45231980106E+02 -0.31069181576E+02  0.29943504031E+03  0.30442169672E+03  0.00000000000E+00 0. -1.
         22    1    3    3    0    0 -0.33053451779E+02 -0.21340912993E+02  0.23678843061E+03  0.24003484354E+03  0.00000000000E+00 0.  1.
         22    1    3    3    0    0  0.18341597837E+02  0.55620476003E+02  0.58449395607E+02  0.82742875276E+02  0.00000000000E+00 0.  1.
</event>
<event>
 7    1  0.5537228E-006  0.8294564E+02  0.7818608E-02  0.1349253E+00
          2   -1    0    0  502    0  0.00000000000E+00  0.00000000000E+00  0.30280983709E+04  0.30280983709E+04  0.00000000000E+00 0. -1.
          1   -1    0    0  501    0 -0.00000000000E+00 -0.00000000000E+00 -0.18327187933E+03  0.18327187933E+03  0.00000000000E+00 0. -1.
         25    2    1    2    0    0 -0.77636356889E+02 -0.22615148277E+02  0.18826533773E+03  0.24001381962E+03  0.12499578943E+03 0.  0.
          2    1    1    2  501    0  0.39148583492E+02 -0.51582850500E+02 -0.15008849006E+03  0.16346240211E+03  0.00000000000E+00 0. -1.
          1    1    1    2  502    0  0.38487773397E+02  0.74197998777E+02  0.28066496439E+04  0.28078940285E+04  0.00000000000E+00 0. -1.
         22    1    3    3    0    0 -0.82822824640E+02 -0.65547725785E+02  0.13272919033E+03  0.16962653861E+03  0.00000000000E+00 0. -1.
         22    1    3    3    0    0  0.51864677507E+01  0.42932577508E+02  0.55536147399E+02  0.70387281004E+02  0.00000000000E+00 0. -1.
</event>
<event>
 7    1  0.5537228E-006  0.1001491E+03  0.7818608E-02  0.1371654E+00
          2   -1    0    0  502    0  0.00000000000E+00  0.00000000000E+00  0.51291445674E+03  0.51291445674E+03  0.00000000000E+00 0. -1.
          1   -1    0    0  501    0 -0.00000000000E+00 -0.00000000000E+00 -0.49073599173E+03  0.49073599173E+03  0.00000000000E+00 0. -1.
         25    2    1    2    0    0  0.12537279714E+02 -0.13202876828E+03  0.74702924441E+02  0.19696706683E+03  0.12500687765E+03 0.  0.
          2    1    1    2  501    0  0.15679058024E+02  0.97701968512E+02 -0.42255903445E+03  0.43399037445E+03  0.00000000000E+00 0. -1.
          1    1    1    2  502    0 -0.28216337738E+02  0.34326799768E+02  0.37003457503E+03  0.37269300720E+03  0.00000000000E+00 0. -1.
         22    1    3    3    0    0  0.52457414044E+02 -0.39231998452E+02 -0.85526812604E+01  0.66061171254E+02  0.00000000000E+00 0.  1.
         22    1    3    3    0    0 -0.39920134330E+02 -0.92796769829E+02  0.83255605701E+02  0.13090589557E+03  0.00000000000E+00 0.  1.
</event>
<event>
 7    1  0.5537228E-006  0.6841897E+02  0.7818608E-02  0.1372072E+00
          2   -1    0    0  502    0  0.00000000000E+00  0.00000000000E+00  0.23844089152E+04  0.23844089152E+04  0.00000000000E+00 0. -1.
          1   -1    0    0  501    0 -0.00000000000E+00 -0.00000000000E+00 -0.18460858391E+02  0.18460858391E+02  0.00000000000E+00 0. -1.
         25    2    1    2    0    0 -0.55304033008E+02  0.11168711687E+02  0.63142203366E+03  0.64614365959E+03  0.12499827222E+03 0.  0.
          2    1    1    2  501    0  0.30772546216E+02  0.57048485583E+02  0.91670000293E+02  0.11227140447E+03  0.00000000000E+00 0. -1.
          1    1    1    2  502    0  0.24531486792E+02 -0.68217197270E+02  0.16428560229E+04  0.16444547096E+04  0.00000000000E+00 0. -1.
         22    1    3    3    0    0 -0.79931153511E+02  0.44352173856E+02  0.35168807430E+03  0.36337392068E+03  0.00000000000E+00 0.  1.
         22    1    3    3    0    0  0.24627120503E+02 -0.33183462169E+02  0.27973395936E+03  0.28276973891E+03  0.00000000000E+00 0.  1.
</event>
<event>
 7    1  0.5537228E-006  0.5721290E+02  0.7818608E-02  0.1436869E+00
          2   -1    0    0  502    0  0.00000000000E+00  0.00000000000E+00  0.35812908238E+03  0.35812908238E+03  0.00000000000E+00 0. -1.
          1   -1    0    0  501    0 -0.00000000000E+00 -0.00000000000E+00 -0.19433437948E+04  0.19433437948E+04  0.00000000000E+00 0. -1.
         25    2    1    2    0    0  0.21837612946E+02 -0.19202062923E+02 -0.34169934677E+01  0.12838374004E+03  0.12500043321E+03 0.  0.
          2    1    1    2  501    0  0.49316705032E+01  0.57282503564E+02 -0.18751679005E+04  0.18760491096E+04  0.00000000000E+00 0. -1.
          1    1    1    2  502    0 -0.26769283449E+02 -0.38080440642E+02  0.29337018158E+03  0.29704002750E+03  0.00000000000E+00 0. -1.
         22    1    3    3    0    0 -0.25487741832E+02 -0.80560458674E+01  0.49664192432E+02  0.56400858758E+02  0.00000000000E+00 0. -1.
         22    1    3    3    0    0  0.47325354779E+02 -0.11146017055E+02 -0.53081185900E+02  0.71982881282E+02  0.00000000000E+00 0. -1.
</event>
<event>
 7    1  0.5537228E-006  0.4438540E+02  0.7818608E-02  0.1548214E+00
          2   -1    0    0  502    0  0.00000000000E+00  0.00000000000E+00  0.11521883589E+03  0.11521883589E+03  0.00000000000E+00 0. -1.
          1   -1    0    0  501    0 -0.00000000000E+00 -0.00000000000E+00 -0.73871719308E+03  0.73871719308E+03  0.00000000000E+00 0. -1.
         25    2    1    2    0    0  0.15482618334E+02  0.13653161793E+02 -0.22546145397E+03  0.25862759226E+03  0.12501697467E+03 0.  0.
          2    1    1    2  501    0 -0.43026464853E+02 -0.16270045576E+02 -0.49364185055E+03  0.49578046318E+03  0.00000000000E+00 0. -1.
          1    1    1    2  502    0  0.27543846519E+02  0.26168837828E+01  0.95604947326E+02  0.99527973530E+02  0.00000000000E+00 0. -1.
         22    1    3    3    0    0 -0.44343252042E+02  0.39061339949E+02 -0.81465014466E+02  0.10064124831E+03  0.00000000000E+00 0. -1.
         22    1    3    3    0    0  0.59825870377E+02 -0.25408178156E+02 -0.14399643950E+03  0.15798634394E+03  0.00000000000E+00 0. -1.
</event>
<event>
 7    1  0.5537228E-006  0.7170594E+02  0.7818608E-02  0.1383077E+00
          2   -1    0    0  502    0  0.00000000000E+00  0.00000000000E+00  0.86933551835E+03  0.86933551835E+03  0.00000000000E+00 0. -1.
          1   -1    0    0  501    0 -0.00000000000E+00 -0.00000000000E+00 -0.10981702161E+03  0.10981702161E+03  0.00000000000E+00 0. -1.
         25    2    1    2    0    0 -0.69635471887E+02 -0.89155211927E+02  0.19846081723E+03  0.26040176332E+03  0.12499852641E+03 0.  0.
          2    1    1    2  501    0  0.52181314681E+02  0.21717486951E+02 -0.66536756781E+02  0.87302227029E+02  0.00000000000E+00 0. -1.
          1    1    1    2  502    0  0.17454157206E+02  0.67437724976E+02  0.62759443629E+03  0.63144854962E+03  0.00000000000E+00 0. -1.
         22    1    3    3    0    0 -0.17436147031E+02  0.82466897906E+01 -0.11983267000E+02  0.22707395354E+02  0.00000000000E+00 0. -1.
         22    1    3    3    0    0 -0.52199324856E+02 -0.97401901718E+02  0.21044408423E+03  0.23769436796E+03  0.00000000000E+00 0. -1.
</event>
<event>
 7    1  0.5537228E-006  0.1324515E+03  0.7818608E-02  0.1374110E+00
          2   -1    0    0  502    0  0.00000000000E+00  0.00000000000E+00  0.41010617523E+03  0.41010617523E+03  0.00000000000E+00 0. -1.
          1   -1    0    0  501    0 -0.00000000000E+00 -0.00000000000E+00 -0.17991890463E+03  0.17991890463E+03  0.00000000000E+00 0. -1.
         25    2    1    2    0    0 -0.66287653353E+02  0.11149298241E+03 -0.17442776244E+02  0.18098119774E+03  0.12500082151E+03 0.  0.
          2    1    1    2  501    0  0.28562446499E+02  0.16378112055E+02 -0.62959904485E+02  0.71049317219E+02  0.00000000000E+00 0. -1.
          1    1    1    2  502    0  0.37725206854E+02 -0.12787109446E+03  0.31058995133E+03  0.33799456489E+03  0.00000000000E+00 0. -1.
         22    1    3    3    0    0  0.97003895505E+01  0.49503745933E+02 -0.56213860058E+02  0.75529573555E+02  0.00000000000E+00 0.  1.
         22    1    3    3    0    0 -0.75988042904E+02  0.61989236476E+02  0.38771083814E+02  0.10545162419E+03  0.00000000000E+00 0.  1.
</event>
<event>
 7    1  0.5537228E-006  0.4241485E+02  0.7818608E-02  0.1521078E+00
          2   -1    0    0  502    0  0.00000000000E+00  0.00000000000E+00  0.25596993613E+04  0.25596993613E+04  0.00000000000E+00 0. -1.
          1   -1    0    0  501    0 -0.00000000000E+00 -0.00000000000E+00 -0.18811792046E+02  0.18811792046E+02  0.00000000000E+00 0. -1.
         25    2    1    2    0    0 -0.48707215365E+01 -0.26982120194E+02  0.13104783412E+04  0.13167120729E+04  0.12500176601E+03 0.  0.
          2    1    1    2  501    0 -0.29444081378E+02  0.31346169924E+02  0.14480826228E+02  0.45378746406E+02  0.00000000000E+00 0. -1.
          1    1    1    2  502    0  0.34314802915E+02 -0.43640497296E+01  0.12159284019E+04  0.12164203340E+04  0.00000000000E+00 0. -1.
         22    1    3    3    0    0 -0.53042195423E+02  0.13052745822E+01  0.29748549689E+03  0.30218007726E+03  0.00000000000E+00 0. -1.
         22    1    3    3    0    0  0.48171473886E+02 -0.28287394777E+02  0.10129928443E+04  0.10145319957E+04  0.00000000000E+00 0. -1.
</event>
<event>
 7    1  0.5537228E-006  0.6885910E+02  0.7818608E-02  0.1370761E+00
          2   -1    0    0  502    0  0.00000000000E+00  0.00000000000E+00  0.34350368899E+02  0.34350368899E+02  0.00000000000E+00 0. -1.
          1   -1    0    0  501    0 -0.00000000000E+00 -0.00000000000E+00 -0.63304728746E+03  0.63304728746E+03  0.00000000000E+00 0. -1.
         25    2    1    2    0    0 -0.42216144949E+02 -0.70096823383E+02 -0.27785080806E+03  0.31546928232E+03  0.12499611595E+03 0.  0.
          2    1    1    2  501    0  0.65077896877E+02  0.19023653125E+01 -0.20940523206E+03  0.21929273328E+03  0.00000000000E+00 0. -1.
          1    1    1    2  502    0 -0.22861751929E+02  0.68194458071E+02 -0.11144087844E+03  0.13263564076E+03  0.00000000000E+00 0. -1.
         22    1    3    3    0    0 -0.83655569724E+02 -0.67079339640E+02 -0.18684516866E+03  0.21542750336E+03  0.00000000000E+00 0.  1.
         22    1    3    3    0    0  0.41439424776E+02 -0.30174837433E+01 -0.91005639402E+02  0.10004177896E+03  0.00000000000E+00 0.  1.
</event>
<event>
 7    1  0.5537228E-006  0.4048332E+02  0.7818608E-02  0.1587279E+00
          2   -1    0    0  502    0  0.00000000000E+00  0.00000000000E+00  0.25624040814E+03  0.25624040814E+03  0.00000000000E+00 0. -1.
          1   -1    0    0  501    0 -0.00000000000E+00 -0.00000000000E+00 -0.93479196958E+02  0.93479196958E+02  0.00000000000E+00 0. -1.
         25    2    1    2    0    0  0.14867920295E+02 -0.22838098023E+02  0.69839777311E+02  0.14575812786E+03  0.12500081427E+03 0.  0.
          2    1    1    2  501    0  0.23135929407E+02  0.53210755808E+01 -0.49833635997E+02  0.55199423471E+02  0.00000000000E+00 0. -1.
          1    1    1    2  502    0 -0.38003849703E+02  0.17517022442E+02  0.14275506986E+03  0.14876205376E+03  0.00000000000E+00 0. -1.
         22    1    3    3    0    0  0.26348913634E+02  0.31624601334E+02  0.79255734923E+02  0.89307626648E+02  0.00000000000E+00 0. -1.
         22    1    3    3    0    0 -0.11480993339E+02 -0.54462699357E+02 -0.94159576124E+01  0.56450501212E+02  0.00000000000E+00 0. -1.
</event>
<event>
 7    1  0.5537228E-006  0.9883871E+02  0.7818608E-02  0.1409661E+00
          2   -1    0    0  502    0  0.00000000000E+00  0.00000000000E+00  0.14662967865E+03  0.14662967865E+03  0.00000000000E+00 0. -1.
          1   -1    0    0  501    0 -0.00000000000E+00 -0.00000000000E+00 -0.43697284439E+03  0.43697284439E+03  0.00000000000E+00 0. -1.
         25    2    1    2    0    0 -0.55095747314E+02 -0.69605984469E+02 -0.77670738663E+02  0.17186609305E+03  0.12499870339E+03 0.  0.
          2    1    1    2  501    0 -0.30110878194E+02  0.13945300505E+02 -0.28497008636E+03  0.28689560211E+03  0.00000000000E+00 0. -1.
          1    1    1    2  502    0  0.85206625507E+02  0.55660683963E+02  0.72297659273E+02  0.12484082788E+03  0.00000000000E+00 0. -1.
         22    1    3    3    0    0  0.10320166649E+02 -0.85221080475E+02 -0.48070299946E+02  0.98386442835E+02  0.00000000000E+00 0. -1.
         22    1    3    3    0    0 -0.65415913963E+02  0.15615096006E+02 -0.29600438717E+02  0.73479650211E+02  0.00000000000E+00 0. -1.
</event>
<event>
 7    1  0.5537228E-006  0.8059600E+02  0.7818608E-02  0.1472696E+00
          2   -1    0    0  502    0  0.00000000000E+00  0.00000000000E+00  0.30899902345E+04  0.30899902345E+04  0.00000000000E+00 0. -1.
          1   -1    0    0  501    0 -0.00000000000E+00 -0.00000000000E+00 -0.33287588784E+03  0.33287588784E+03  0.00000000000E+00 0. -1.
         25    2    1    2    0    0 -0.33203825381E+02 -0.10055902949E+03  0.13701452941E+04  0.13799069830E+04  0.12502216845E+03 0.  0.
          2    1    1    2  501    0  0.24256013326E+02  0.76764034347E+02 -0.32295922253E+03  0.33284190026E+03  0.00000000000E+00 0. -1.
          1    1    1    2  502    0  0.89478120555E+01  0.23794995143E+02  0.17099282751E+04  0.17101172390E+04  0.00000000000E+00 0. -1.
         22    1    3    3    0    0 -0.79132497045E+02 -0.70461924214E+02  0.77022506420E+03  0.77747892857E+03  0.00000000000E+00 0. -1.
         22    1    3    3    0    0  0.45928671664E+02 -0.30097105276E+02  0.59992022985E+03  0.60242805447E+03  0.00000000000E+00 0. -1.
</event>
<event>
 7    1  0.5537228E-006  0.2660536E+02  0.7818608E-02  0.1649733E+00
          2   -1    0    0  502    0  0.00000000000E+00  0.00000000000E+00  0.20951054035E+04  0.20951054035E+04  0.00000000000E+00 0. -1.
          1   -1    0    0  501    0 -0.00000000000E+00 -0.00000000000E+00 -0.34839328632E+03  0.34839328632E+03  0.00000000000E+00 0. -1.
         25    2    1    2    0    0 -0.14651023265E+02 -0.39646095499E+02  0.12297060829E+04  0.12367654273E+04  0.12500082629E+03 0.  0.
          2    1    1    2  501    0  0.20578462567E+02  0.14238746681E+02 -0.34421185200E+03  0.34512028930E+03  0.00000000000E+00 0. -1.
          1    1    1    2  502    0 -0.59274393016E+01  0.25407348818E+02  0.86121788633E+03  0.86161297324E+03  0.00000000000E+00 0. -1.
         22    1    3    3    0    0 -0.13238275637E+02  0.45195938349E+02  0.43394206791E+03  0.43649014089E+03  0.00000000000E+00 0. -1.
         22    1    3    3    0    0 -0.14127476280E+01 -0.84842033848E+02  0.79576401496E+03  0.80027528643E+03  0.00000000000E+00 0. -1.
</event>
<event>
 7    1  0.5537228E-006  0.1184260E+03  0.7818608E-02  0.1384903E+00
          2   -1    0    0  502    0  0.00000000000E+00  0.00000000000E+00  0.22692250721E+04  0.22692250721E+04  0.00000000000E+00 0. -1.
          1   -1    0    0  501    0 -0.00000000000E+00 -0.00000000000E+00 -0.32513465905E+02  0.32513465905E+02  0.00000000000E+00 0. -1.
         25    2    1    2    0    0 -0.42754351838E+02  0.87795734006E+02  0.98157698392E+03  0.99431123072E+03  0.12500169067E+03 0.  0.
          2    1    1    2  501    0  0.28490978325E+02 -0.11835019703E+03  0.11715789150E+03  0.16895110690E+03  0.00000000000E+00 0. -1.
          1    1    1    2  502    0  0.14263373513E+02  0.30554463026E+02  0.11379767307E+04  0.11384762003E+04  0.00000000000E+00 0. -1.
         22    1    3    3    0    0 -0.78615326069E+02  0.63713881157E+02  0.84571611377E+03  0.85174853873E+03  0.00000000000E+00 0. -1.
         22    1    3    3    0    0  0.35860974232E+02  0.24081852850E+02  0.13586087015E+03  0.14256269199E+03  0.00000000000E+00 0. -1.
</event>
<event>
 7    1  0.5537228E-006  0.1421807E+03  0.7818608E-02  0.1217343E+00
          2   -1    0    0  502    0  0.00000000000E+00  0.00000000000E+00  0.87235027276E+03  0.87235027276E+03  0.00000000000E+00 0. -1.
          1   -1    0    0  501    0 -0.00000000000E+00 -0.00000000000E+00 -0.31157855490E+03  0.31157855490E+03  0.00000000000E+00 0. -1.
         25    2    1    2    0    0  0.21864688538E+02  0.82286480884E+02  0.14417573466E+03  0.20895218870E+03  0.12500098062E+03 0.  0.
          2    1    1    2  501    0  0.12024228348E+03 -0.77708525083E+02 -0.25286639661E+03  0.29058258059E+03  0.00000000000E+00 0. -1.
          1    1    1    2  502    0 -0.14210697202E+03 -0.45779558009E+01  0.66946237980E+03  0.68439405838E+03  0.00000000000E+00 0. -1.
         22    1    3    3    0    0 -0.26836670236E+02 -0.22929423961E+02  0.33009593664E+02  0.48328031477E+02  0.00000000000E+00 0. -1.
         22    1    3    3    0    0  0.48701358774E+02  0.10521590485E+03  0.11116614100E+03  0.16062415722E+03  0.00000000000E+00 0. -1.
</event>
<event>
 7    1  0.5537228E-006  0.2413435E+03  0.7818608E-02  0.1297104E+00
          2   -1    0    0  502    0  0.00000000000E+00  0.00000000000E+00  0.24204167924E+04  0.24204167924E+04  0.00000000000E+00 0. -1.
          1   -1    0    0  501    0 -0.00000000000E+00 -0.00000000000E+00 -0.20857739646E+04  0.20857739646E+04  0.00000000000E+00 0. -1.
         25    2    1    2    0    0 -0.39490344537E+02 -0.26488570133E+03 -0.13665810294E+04  0.13981741593E+04  0.12499338997E+03 0.  0.
          2    1    1    2  501    0 -0.17837444184E+02  0.30563984090E+02 -0.69689613773E+03  0.69779406584E+03  0.00000000000E+00 0. -1.
          1    1    1    2  502    0  0.57327788720E+02  0.23432171724E+03  0.23981199950E+04  0.24102225318E+04  0.00000000000E+00 0. -1.
         22    1    3    3    0    0 -0.49272792803E+02 -0.81549223331E+02 -0.71150582959E+03  0.71785697007E+03  0.00000000000E+00 0. -1.
         22    1    3    3    0    0  0.97824482663E+01 -0.18333647800E+03 -0.65507519985E+03  0.68031718920E+03  0.00000000000E+00 0. -1.
</event>
<event>
 7    1  0.7781907E-006  0.1543554E+03  0.7818608E-02  0.1248893E+00
          2   -1    0    0  502    0  0.00000000000E+00  0.00000000000E+00  0.73778287703E+03  0.73778287703E+03  0.00000000000E+00 0. -1.
          1   -1    0    0  501    0 -0.00000000000E+00 -0.00000000000E+00 -0.17224789503E+04  0.17224789503E+04  0.00000000000E+00 0. -1.
         25    2    1    2    0    0  0.63836722839E+02 -0.29478554256E+02 -0.18706901880E+03  0.23572269404E+03  0.12500503328E+03 0.  0.
          2    1    1    2  501    0  0.73153684662E+02 -0.48931373936E+02 -0.15010481330E+04  0.15036260301E+04  0.00000000000E+00 0. -1.
          1    1    1    2  502    0 -0.13699040750E+03  0.78409928192E+02  0.70342107853E+03  0.72091310315E+03  0.00000000000E+00 0. -1.
         22    1    3    3    0    0 -0.35858396584E+02  0.33746320650E+01 -0.30356817790E+02  0.47103600006E+02  0.00000000000E+00 0. -1.
         22    1    3    3    0    0  0.99695119423E+02 -0.32853186321E+02 -0.15671220101E+03  0.18861909403E+03  0.00000000000E+00 0. -1.
</event>
<event>
 7    1  0.5537228E-006  0.8026014E+02  0.7818608E-02  0.1357640E+00
          2   -1    0    0  502    0  0.00000000000E+00  0.00000000000E+00  0.18033576355E+04  0.18033576355E+04  0.00000000000E+00 0. -1.
          1   -1    0    0  501    0 -0.00000000000E+00 -0.00000000000E+00 -0.50199503336E+02  0.50199503336E+02  0.00000000000E+00 0. -1.
         25    2    1    2    0    0 -0.55608493069E+02 -0.13351828961E+02  0.41448441332E+03  0.43668511877E+03  0.12500395285E+03 0.  0.
          2    1    1    2  501    0 -0.15293157959E+02  0.60419651174E+02 -0.12042209722E+02  0.63477789370E+02  0.00000000000E+00 0. -1.
          1    1    1    2  502    0  0.70901651028E+02 -0.47067822212E+02  0.13507159286E+04  0.13533942307E+04  0.00000000000E+00 0. -1.
         22    1    3    3    0    0 -0.81634243475E+02 -0.47228953083E+02  0.26872804475E+03  0.28479727132E+03  0.00000000000E+00 0.  1.
         22    1    3    3    0    0  0.26025750406E+02  0.33877124122E+02  0.14575636857E+03  0.15188784745E+03  0.00000000000E+00 0.  1.
</event>
<event>
 7    1  0.5537228E-006  0.1231825E+03  0.7818608E-02  0.1377767E+00
          2   -1    0    0  502    0  0.00000000000E+00  0.00000000000E+00  0.70994062474E+03  0.70994062474E+03  0.00000000000E+00 0. -1.
          1   -1    0    0  501    0 -0.00000000000E+00 -0.00000000000E+00 -0.21638403148E+03  0.21638403148E+03  0.00000000000E+00 0. -1.
         25    2    1    2    0    0  0.13236712485E+02  0.10924142713E+03  0.15706655564E+03  0.22891917818E+03  0.12500074912E+03 0.  0.
          2    1    1    2  501    0  0.33262586164E+02  0.85989162792E+01 -0.17096183471E+03  0.17437972912E+03  0.00000000000E+00 0. -1.
          1    1    1    2  502    0 -0.46499298648E+02 -0.11784034341E+03  0.50745187233E+03  0.52302574893E+03  0.00000000000E+00 0. -1.
         22    1    3    3    0    0 -0.13908018069E+02  0.11196769602E+03  0.59390194636E+02  0.12750448281E+03  0.00000000000E+00 0.  1.
         22    1    3    3    0    0  0.27144730553E+02 -0.27262688849E+01  0.97676361001E+02  0.10141469537E+03  0.00000000000E+00 0.  1.
</event>
<event>
 7    1  0.5537228E-006  0.1752519E+03  0.7818608E-02  0.1292035E+00
          2   -1    0    0  502    0  0.00000000000E+00  0.00000000000E+00  0.12440747045E+04  0.12440747045E+04  0.00000000000E+00 0. -1.
          1   -1    0    0  501    0 -0.00000000000E+00 -0.00000000000E+00 -0.12420300644E+04  0.12420300644E+04  0.00000000000E+00 0. -1.
         25    2    1    2    0    0  0.21131716687E+03  0.36759280878E+02  0.97404614033E+02  0.26668102511E+03  0.12499968229E+03 0.  0.
          2    1    1    2  501    0 -0.16436849661E+03 -0.56898422576E+02 -0.11502351833E+04  0.11633122582E+04  0.00000000000E+00 0. -1.
          1    1    1    2  502    0 -0.46948670262E+02  0.20139141698E+02  0.10548752093E+04  0.10561114856E+04  0.00000000000E+00 0. -1.
         22    1    3    3    0    0  0.11821425787E+03 -0.41848421819E+02  0.61372865498E+02  0.13961565024E+03  0.00000000000E+00 0. -1.
         22    1    3    3    0    0  0.93102909000E+02  0.78607702697E+02  0.36031748535E+02  0.12706537487E+03  0.00000000000E+00 0. -1.
</event>
<event>
 7    1  0.5537228E-006  0.1354193E+03  0.7818608E-02  0.1425819E+00
          2   -1    0    0  502    0  0.00000000000E+00  0.00000000000E+00  0.17809012802E+04  0.17809012802E+04  0.00000000000E+00 0. -1.
          1   -1    0    0  501    0 -0.00000000000E+00 -0.00000000000E+00 -0.34128177711E+02  0.34128177711E+02  0.00000000000E+00 0. -1.
         25    2    1    2    0    0 -0.63651328308E+02 -0.13032538599E+03  0.47149598747E+03  0.50889004996E+03  0.12499767565E+03 0.  0.
          2    1    1    2  501    0  0.21099246661E+02  0.34572751573E+01 -0.23630658707E+01  0.21510812199E+02  0.00000000000E+00 0. -1.
          1    1    1    2  502    0  0.42552081648E+02  0.12686811084E+03  0.12776401809E+04  0.12846285958E+04  0.00000000000E+00 0. -1.
         22    1    3    3    0    0  0.11260237446E+02 -0.26941971960E+02  0.11296657311E+02  0.31309379854E+02  0.00000000000E+00 0.  1.
         22    1    3    3    0    0 -0.74911565754E+02 -0.10338341403E+03  0.46019933016E+03  0.47758067011E+03  0.00000000000E+00 0.  1.
</event>
<event>
 7    1  0.5537228E-006  0.5679274E+02  0.7818608E-02  0.1471629E+00
          2   -1    0    0  502    0  0.00000000000E+00  0.00000000000E+00  0.33323480804E+03  0.33323480804E+03  0.00000000000E+00 0. -1.
          1   -1    0    0  501    0 -0.00000000000E+00 -0.00000000000E+00 -0.14710566804E+04  0.14710566804E+04  0.00000000000E+00 0. -1.
         25    2    1    2    0    0 -0.10508985970E+02 -0.80330176376E+02 -0.13438327417E+03  0.20061876309E+03  0.12500259078E+03 0.  0.
          2    1    1    2  501    0 -0.15000391734E+02  0.54430745865E+02 -0.13018407167E+04  0.13030644534E+04  0.00000000000E+00 0. -1.
          1    1    1    2  502    0  0.25509377704E+02  0.25899430510E+02  0.29840211854E+03  0.30060827201E+03  0.00000000000E+00 0. -1.
         22    1    3    3    0    0  0.50154672656E+01 -0.98903566230E+02 -0.46392137667E+02  0.10935858797E+03  0.00000000000E+00 0.  1.
         22    1    3    3    0    0 -0.15524453235E+02  0.18573389854E+02 -0.87991136506E+02  0.91260175118E+02  0.00000000000E+00 0.  1.
</event>
<event>
 7    1  0.5537228E-006  0.3965865E+02  0.7818608E-02  0.1590927E+00
          2   -1    0    0  502    0  0.00000000000E+00  0.00000000000E+00  0.89101587903E+03  0.89101587903E+03  0.00000000000E+00 0. -1.
          1   -1    0    0  501    0 -0.00000000000E+00 -0.00000000000E+00 -0.12050189374E+04  0.12050189374E+04  0.00000000000E+00 0. -1.
         25    2    1    2    0    0 -0.41023221978E+02  0.25573742306E+02 -0.67502301427E+03  0.68819912572E+03  0.12500018324E+03 0.  0.
          2    1    1    2  501    0  0.14125446834E+01 -0.23657942665E+02 -0.52269467133E+03  0.52323170104E+03  0.00000000000E+00 0. -1.
          1    1    1    2  502    0  0.39610677294E+02 -0.19157996418E+01  0.88371462727E+03  0.88460398964E+03  0.00000000000E+00 0. -1.
         22    1    3    3    0    0 -0.68438010671E+02  0.78313733070E+01 -0.62286136186E+03  0.62665889271E+03  0.00000000000E+00 0.  1.
         22    1    3    3    0    0  0.27414788693E+02  0.17742368999E+02 -0.52161652409E+02  0.61540233009E+02  0.00000000000E+00 0.  1.
</event>
<event>
 7    1  0.6789128E-006  0.8386727E+02  0.7818608E-02  0.1343637E+00
          2   -1    0    0  502    0  0.00000000000E+00  0.00000000000E+00  0.23202932486E+04  0.23202932486E+04  0.00000000000E+00 0. -1.
          1   -1    0    0  501    0 -0.00000000000E+00 -0.00000000000E+00 -0.72827143560E+03  0.72827143560E+03  0.00000000000E+00 0. -1.
         25    2    1    2    0    0 -0.14454278115E+03  0.39221674916E+02 -0.13001107378E+03  0.23443311911E+03  0.12500021065E+03 0.  0.
          2    1    1    2  501    0  0.62022304201E+02 -0.25880856367E+02 -0.54320765435E+03  0.54734919448E+03  0.00000000000E+00 0. -1.
          1    1    1    2  502    0  0.82520476951E+02 -0.13340818549E+02  0.22652405411E+04  0.22667823706E+04  0.00000000000E+00 0. -1.
         22    1    3    3    0    0 -0.75739157406E+02 -0.10421758981E+01 -0.13474259723E+03  0.15457384515E+03  0.00000000000E+00 0.  1.
         22    1    3    3    0    0 -0.68803623746E+02  0.40263850814E+02  0.47315234493E+01  0.79859273958E+02  0.00000000000E+00 0.  1.
</event>
<event>
 7    1  0.5537228E-006  0.1272057E+03  0.7818608E-02  0.1236798E+00
          2   -1    0    0  502    0  0.00000000000E+00  0.00000000000E+00  0.88578293307E+03  0.88578293307E+03  0.00000000000E+00 0. -1.
          1   -1    0    0  501    0 -0.00000000000E+00 -0.00000000000E+00 -0.62144803752E+03  0.62144803752E+03  0.00000000000E+00 0. -1.
         25    2    1    2    0    0 -0.24888050104E+02 -0.76898017601E+02  0.47259457891E+02  0.15617500681E+03  0.12499782495E+03 0.  0.
          2    1    1    2  501    0 -0.10474092862E+03  0.72184609341E+02 -0.55437204917E+03  0.56877908616E+03  0.00000000000E+00 0. -1.
          1    1    1    2  502    0  0.12962897872E+03  0.47134082601E+01  0.77144748682E+03  0.78227687762E+03  0.00000000000E+00 0. -1.
         22    1    3    3    0    0 -0.20496110577E+02 -0.64834088875E+02  0.89286772721E+02  0.11223046561E+03  0.00000000000E+00 0. -1.
         22    1    3    3    0    0 -0.43919395271E+01 -0.12063928726E+02 -0.42027314830E+02  0.43944541196E+02  0.00000000000E+00 0. -1.
</event>
<event>
 7    1  0.5537228E-006  0.6630280E+02  0.7818608E-02  0.1532563E+00
          2   -1    0    0  502    0  0.00000000000E+00  0.00000000000E+00  0.21776952547E+04  0.21776952547E+04  0.00000000000E+00 0. -1.
          1   -1    0    0  501    0 -0.00000000000E+00 -0.00000000000E+00 -0.72860464193E+03  0.72860464193E+03  0.00000000000E+00 0. -1.
         25    2    1    2    0    0  0.24865571219E+02  0.47115917577E+02  0.13190177995E+04  0.13259976521E+04  0.12499444590E+03 0.  0.
          2    1    1    2  501    0  0.16796045532E+02  0.11765974976E+02 -0.72344821622E+03  0.72373881122E+03  0.00000000000E+00 0. -1.
          1    1    1    2  502    0 -0.41661616751E+02 -0.58881892553E+02  0.85352102953E+03  0.85656343339E+03  0.00000000000E+00 0. -1.
         22    1    3    3    0    0  0.37382294967E+01  0.46097812343E+02  0.15416629715E+03  0.16095412340E+03  0.00000000000E+00 0. -1.
         22    1    3    3    0    0  0.21127341723E+02  0.10181052338E+01  0.11648515024E+04  0.11650435287E+04  0.00000000000E+00 0. -1.
</event>
<event>
 7    1  0.5537228E-006  0.1495211E+03  0.7818608E-02  0.1371470E+00
          2   -1    0    0  502    0  0.00000000000E+00  0.00000000000E+00  0.11576533503E+04  0.11576533503E+04  0.00000000000E+00 0. -1.
          1   -1    0    0  501    0 -0.00000000000E+00 -0.00000000000E+00 -0.26783382922E+04  0.26783382922E+04  0.00000000000E+00 0. -1.
         25    2    1    2    0    0 -0.10301192041E+03 -0.14309488530E+03  0.23998309004E+03  0.32296108953E+03  0.12499751959E+03 0.  0.
          2    1    1    2  501    0  0.77539524961E+02  0.12761355327E+03 -0.26344809185E+04  0.26387094018E+04  0.00000000000E+00 0. -1.
          1    1    1    2  502    0  0.25472395452E+02  0.15481332034E+02  0.87381288661E+03  0.87432115116E+03  0.00000000000E+00 0. -1.
         22    1    3    3    0    0 -0.11702756708E+02  0.38956008681E+01  0.98978437981E+02  0.99743979296E+02  0.00000000000E+00 0.  1.
         22    1    3    3    0    0 -0.91309163706E+02 -0.14699048617E+03  0.14100465205E+03  0.22321711024E+03  0.00000000000E+00 0.  1.
</event>
<event>
 7    1  0.5537228E-006  0.5757149E+02  0.7818608E-02  0.1473999E+00
          2   -1    0    0  502    0  0.00000000000E+00  0.00000000000E+00  0.18774415600E+03  0.18774415600E+03  0.00000000000E+00 0. -1.
          1   -1    0    0  501    0 -0.00000000000E+00 -0.00000000000E+00 -0.95284529221E+03  0.95284529221E+03  0.00000000000E+00 0. -1.
         25    2    1    2    0    0 -0.73684843793E+02  0.31451424665E+02 -0.13705997003E+03  0.20206169016E+03  0.12499937171E+03 0.  0.
          2    1    1    2  501    0  0.33955196573E+02  0.95020241600E+01 -0.77762866411E+03  0.77842763509E+03  0.00000000000E+00 0. -1.
          1    1    1    2  502    0  0.39729647220E+02 -0.40953448825E+02  0.14958749792E+03  0.16010012296E+03  0.00000000000E+00 0. -1.
         22    1    3    3    0    0 -0.23517579728E+02 -0.20409341167E+02 -0.12510670640E+03  0.12892364310E+03  0.00000000000E+00 0.  1.
         22    1    3    3    0    0 -0.50167264064E+02  0.51860765832E+02 -0.11953263628E+02  0.73138047060E+02  0.00000000000E+00 0.  1.
</event>
<event>
 7    1  0.5537228E-006  0.1851088E+03  0.7818608E-02  0.1267833E+00
          2   -1    0    0  502    0  0.00000000000E+00  0.00000000000E+00  0.24978674729E+04  0.24978674729E+04  0.00000000000E+00 0. -1.
          1   -1    0    0  501    0 -0.00000000000E+00 -0.00000000000E+00 -0.75124471999E+02  0.75124471999E+02  0.00000000000E+00 0. -1.
         25    2    1    2    0    0  0.19834463082E+03 -0.11852226174E+03  0.10153740099E+04  0.10488075876E+04  0.12499942625E+03 0.  0.
          2    1    1    2  501    0 -0.46459274919E+02  0.39364204313E+02 -0.35966609162E+02  0.70722003520E+02  0.00000000000E+00 0. -1.
          1    1    1    2  502    0 -0.15188535590E+03  0.79158057422E+02  0.14433356001E+04  0.14534623538E+04  0.00000000000E+00 0. -1.
         22    1    3    3    0    0  0.15474676272E+03 -0.12005854210E+03  0.60020878213E+03  0.63135663159E+03  0.00000000000E+00 0. -1.
         22    1    3    3    0    0  0.43597868093E+02  0.15362803623E+01  0.41516522782E+03  0.41745095598E+03  0.00000000000E+00 0. -1.
</event>
<event>
 7    1  0.5537228E-006  0.6719862E+02  0.7818608E-02  0.1516873E+00
          2   -1    0    0  502    0  0.00000000000E+00  0.00000000000E+00  0.34015109120E+04  0.34015109120E+04  0.00000000000E+00 0. -1.
          1   -1    0    0  501    0 -0.00000000000E+00 -0.00000000000E+00 -0.13142758223E+02  0.13142758223E+02  0.00000000000E+00 0. -1.
         25    2    1    2    0    0  0.45047382945E+02  0.93271726810E+01  0.28246224948E+04  0.28277616301E+04  0.12500934230E+03 0.  0.
          2    1    1    2  501    0 -0.65178995947E+02 -0.19278754820E+02  0.90844164214E+02  0.11345763117E+03  0.00000000000E+00 0. -1.
          1    1    1    2  502    0  0.20131613002E+02  0.99515821393E+01  0.47290149480E+03  0.47343440898E+03  0.00000000000E+00 0. -1.
         22    1    3    3    0    0  0.35140067518E+02 -0.56549700045E+02  0.14282693524E+04  0.14298202810E+04  0.00000000000E+00 0.  1.
         22    1    3    3    0    0  0.99073154270E+01  0.65876872726E+02  0.13963531424E+04  0.13979413491E+04  0.00000000000E+00 0.  1.
</event>
<event>
 7    1  0.5537228E-006  0.6173894E+02  0.7818608E-02  0.1505408E+00
          2   -1    0    0  502    0  0.00000000000E+00  0.00000000000E+00  0.55309899710E+03  0.55309899710E+03  0.00000000000E+00 0. -1.
          1   -1    0    0  501    0 -0.00000000000E+00 -0.00000000000E+00 -0.26528623531E+04  0.26528623531E+04  0.00000000000E+00 0. -1.
         25    2    1    2    0    0 -0.36908658100E+02  0.43052788671E+02 -0.67334226303E+02  0.15288708503E+03  0.12499908433E+03 0.  0.
          2    1    1    2  501    0  0.56434275316E+02 -0.25262321754E+02 -0.25420337030E+04  0.25427855512E+04  0.00000000000E+00 0. -1.
          1    1    1    2  502    0 -0.19525617216E+02 -0.17790466917E+02  0.50960457330E+03  0.51028871394E+03  0.00000000000E+00 0. -1.
         22    1    3    3    0    0  0.39507851201E+02 -0.13083474655E+02 -0.28403266445E+02  0.50386438258E+02  0.00000000000E+00 0.  1.
         22    1    3    3    0    0 -0.76416509301E+02  0.56136263327E+02 -0.38930959858E+02  0.10250064678E+03  0.00000000000E+00 0.  1.
</event>
<event>
 7    1  0.5537228E-006  0.9102764E+02  0.7818608E-02  0.1437721E+00
          2   -1    0    0  502    0  0.00000000000E+00  0.00000000000E+00  0.12287494629E+04  0.12287494629E+04  0.00000000000E+00 0. -1.
          1   -1    0    0  501    0 -0.00000000000E+00 -0.00000000000E+00 -0.64587262858E+02  0.64587262858E+02  0.00000000000E+00 0. -1.
         25    2    1    2    0    0  0.76811499794E+02  0.48268465340E+02  0.53690100323E+03  0.55867560381E+03  0.12500356704E+03 0.  0.
          2    1    1    2  501    0 -0.58092538593E+02 -0.70509517999E+02 -0.14274851249E+02  0.92466786182E+02  0.00000000000E+00 0. -1.
          1    1    1    2  502    0 -0.18718961201E+02  0.22241052659E+02  0.64153604804E+03  0.64219433575E+03  0.00000000000E+00 0. -1.
         22    1    3    3    0    0  0.46062737239E+02  0.90086356962E+02  0.31818294061E+03  0.33388278058E+03  0.00000000000E+00 0.  1.
         22    1    3    3    0    0  0.30748762555E+02 -0.41817891622E+02  0.21871806263E+03  0.22479282323E+03  0.00000000000E+00 0.  1.
</event>
<event>
 7    1  0.5537228E-006  0.1271543E+03  0.7818608E-02  0.1369607E+00
          2   -1    0    0  502    0  0.00000000000E+00  0.00000000000E+00  0.25596941429E+02  0.25596941429E+02  0.00000000000E+00 0. -1.
          1   -1    0    0  501    0 -0.00000000000E+00 -0.00000000000E+00 -0.32479862652E+04  0.32479862652E+04  0.00000000000E+00 0. -1.
         25    2    1    2    0    0  0.55250093136E+02 -0.88391677902E+02 -0.13782606186E+04  0.13878374578E+04  0.12499925959E+03 0.  0.
          2    1    1    2  501    0 -0.72970441390E+02  0.11926300898E+03 -0.18448522580E+04  0.18501427525E+04  0.00000000000E+00 0. -1.
          1    1    1    2  502    0  0.17720348253E+02 -0.30871331076E+02  0.72355281788E+00  0.35602996409E+02  0.00000000000E+00 0. -1.
         22    1    3    3    0    0 -0.23549642448E+02 -0.42001291426E+02 -0.18797291475E+03  0.19404254899E+03  0.00000000000E+00 0.  1.
         22    1    3    3    0    0  0.78799735584E+02 -0.46390386476E+02 -0.11902877039E+04  0.11937949088E+04  0.00000000000E+00 0.  1.
</event>
<event>
 7    1  0.5537228E-006  0.1117882E+03  0.7818608E-02  0.1301705E+00
          2   -1    0    0  502    0  0.00000000000E+00  0.00000000000E+00  0.41209282714E+04  0.41209282714E+04  0.00000000000E+00 0. -1.
          1   -1    0    0  501    0 -0.00000000000E+00 -0.00000000000E+00 -0.13307202124E+03  0.13307202124E+03  0.00000000000E+00 0. -1.
         25    2    1    2    0    0 -0.35777803193E+01  0.15088762744E+03  0.22784950948E+03  0.30053379939E+03  0.12500115590E+03 0.  0.
          2    1    1    2  501    0 -0.47205874467E+02 -0.98133164464E+02 -0.65619564548E+02  0.12713945023E+03  0.00000000000E+00 0. -1.
          1    1    1    2  502    0  0.50783654787E+02 -0.52754462978E+02  0.38256263052E+04  0.38263270430E+04  0.00000000000E+00 0. -1.
         22    1    3    3    0    0 -0.43028149653E+02  0.17116772174E+02  0.20495739988E+02  0.50640704081E+02  0.00000000000E+00 0.  1.
         22    1    3    3    0    0  0.39450369333E+02  0.13377085527E+03  0.20735376949E+03  0.24989309531E+03  0.00000000000E+00 0.  1.
</event>
<event>
 7    1  0.5537228E-006  0.1121770E+03  0.7818608E-02  0.1290220E+00
          2   -1    0    0  502    0  0.00000000000E+00  0.00000000000E+00  0.29436616920E+03  0.29436616920E+03  0.00000000000E+00 0. -1.
          1   -1    0    0  501    0 -0.00000000000E+00 -0.00000000000E+00 -0.22109387431E+04  0.22109387431E+04  0.00000000000E+00 0. -1.
         25    2    1    2    0    0  0.10700581767E+03  0.31398967595E+02 -0.52795204867E+03  0.55389063291E+03  0.12500130939E+03 0.  0.
          2    1    1    2  501    0 -0.56932405887E+01 -0.80975825626E+02 -0.16576815478E+04  0.16596679220E+04  0.00000000000E+00 0. -1.
          1    1    1    2  502    0 -0.10131257708E+03  0.49576858031E+02  0.26906102264E+03  0.29174635735E+03  0.00000000000E+00 0. -1.
         22    1    3    3    0    0  0.15294833090E+02  0.31488009588E+02 -0.36682476790E+03  0.36849129842E+03  0.00000000000E+00 0.  1.
         22    1    3    3    0    0  0.91710984577E+02 -0.89041992395E-01 -0.16112728078E+03  0.18539933449E+03  0.00000000000E+00 0.  1.
</event>
<event>
 7    1  0.5537228E-006  0.6338404E+02  0.7818608E-02  0.1483521E+00
          2   -1    0    0  502    0  0.00000000000E+00  0.00000000000E+00  0.26353885138E+03  0.26353885138E+03  0.00000000000E+00 0. -1.
          1   -1    0    0  501    0 -0.00000000000E+00 -0.00000000000E+00 -0.65450200948E+03  0.65450200948E+03  0.00000000000E+00 0. -1.
         25    2    1    2    0    0 -0.81474037626E+02  0.39025442362E+02  0.12068666723E+03  0.19583420777E+03  0.12499904531E+03 0.  0.
          2    1    1    2  501    0  0.60638874818E+02 -0.17525070267E+02 -0.61314618932E+03  0.61638660815E+03  0.00000000000E+00 0. -1.
          1    1    1    2  502    0  0.20835162807E+02 -0.21500372095E+02  0.10149636399E+03  0.10582004494E+03  0.00000000000E+00 0. -1.
         22    1    3    3    0    0 -0.40759707257E+02 -0.27793231091E+02  0.10502739088E+03  0.11603693492E+03  0.00000000000E+00 0. -1.
         22    1    3    3    0    0 -0.40714330368E+02  0.66818673452E+02  0.15659276351E+02  0.79797272855E+02  0.00000000000E+00 0. -1.
</event>
<event>
 7    1  0.5537228E-006  0.1222910E+03  0.7818608E-02  0.1289354E+00
          2   -1    0    0  502    0  0.00000000000E+00  0.00000000000E+00  0.21907071071E+04  0.21907071071E+04  0.00000000000E+00 0. -1.
          1   -1    0    0  501    0 -0.00000000000E+00 -0.00000000000E+00 -0.79685245555E+02  0.79685245555E+02  0.00000000000E+00 0. -1.
         25    2    1    2    0    0 -0.13312290847E+02  0.92620817713E+02  0.97865133757E+03  0.99102932517E+03  0.12499939943E+03 0.  0.
          2    1    1    2  501    0 -0.68185030782E+02  0.31402229530E+02 -0.48389747009E+02  0.89313302804E+02  0.00000000000E+00 0. -1.
          1    1    1    2  502    0  0.81497321629E+02 -0.12402304724E+03  0.11807602710E+04  0.11900497247E+04  0.00000000000E+00 0. -1.
         22    1    3    3    0    0  0.21520311714E+02  0.10526200281E+03  0.52580692867E+03  0.53667135128E+03  0.00000000000E+00 0.  1.
         22    1    3    3    0    0 -0.34832602561E+02 -0.12641185095E+02  0.45284440890E+03  0.45435797388E+03  0.00000000000E+00 0.  1.
</event>
<event>
 7    1  0.5537228E-006  0.1029520E+03  0.7818608E-02  0.1413485E+00
          2   -1    0    0  502    0  0.00000000000E+00  0.00000000000E+00  0.60589237401E+03  0.60589237401E+03  0.00000000000E+00 0. -1.
          1   -1    0    0  501    0 -0.00000000000E+00 -0.00000000000E+00 -0.12601965297E+03  0.12601965297E+03  0.00000000000E+00 0. -1.
         25    2    1    2    0    0 -0.10422180855E+03  0.76955751403E+02  0.16351807792E+03  0.24320277552E+03  0.12500022065E+03 0.  0.
          2    1    1    2  501    0  0.76606132498E+02 -0.63040906838E+02 -0.56770688236E+02  0.11430470906E+03  0.00000000000E+00 0. -1.
          1    1    1    2  502    0  0.27615676047E+02 -0.13914844566E+02  0.37312533136E+03  0.37440454239E+03  0.00000000000E+00 0. -1.
         22    1    3    3    0    0  0.23467949794E+02 -0.98258808771E+01  0.19303008540E+02  0.31935853539E+02  0.00000000000E+00 0.  1.
         22    1    3    3    0    0 -0.12768975834E+03  0.86781632280E+02  0.14421506938E+03  0.21126692198E+03  0.00000000000E+00 0.  1.
</event>
<event>
 7    1  0.5537228E-006  0.3165907E+02  0.7818608E-02  0.1628282E+00
          2   -1    0    0  502    0  0.00000000000E+00  0.00000000000E+00  0.42706414419E+02  0.42706414419E+02  0.00000000000E+00 0. -1.
          1   -1    0    0  501    0 -0.00000000000E+00 -0.00000000000E+00 -0.91631163617E+03  0.91631163617E+03  0.00000000000E+00 0. -1.
         25    2    1    2    0    0  0.29866334794E+01  0.30622767599E+01 -0.76863245388E+03  0.77874207435E+03  0.12500028675E+03 0.  0.
          2    1    1    2  501    0  0.16780690648E+02 -0.27791799821E+02 -0.13366409964E+03  0.13755023537E+03  0.00000000000E+00 0. -1.
          1    1    1    2  502    0 -0.19767324128E+02  0.24729523061E+02  0.28691331773E+02  0.42725740870E+02  0.00000000000E+00 0. -1.
         22    1    3    3    0    0  0.17193968836E+02  0.58580639434E+02 -0.26940086029E+03  0.27623205355E+03  0.00000000000E+00 0.  1.
         22    1    3    3    0    0 -0.14207335357E+02 -0.55518362674E+02 -0.49923159359E+03  0.50251002081E+03  0.00000000000E+00 0.  1.
</event>
<event>
 7    1  0.5537228E-006  0.7262700E+02  0.7818608E-02  0.1363230E+00
          2   -1    0    0  502    0  0.00000000000E+00  0.00000000000E+00  0.30322404580E+03  0.30322404580E+03  0.00000000000E+00 0. -1.
          1   -1    0    0  501    0 -0.00000000000E+00 -0.00000000000E+00 -0.11856740532E+04  0.11856740532E+04  0.00000000000E+00 0. -1.
         25    2    1    2    0    0  0.70156405677E+02 -0.11102547923E+03 -0.23373121306E+03  0.29581052759E+03  0.12500003991E+03 0.  0.
          2    1    1    2  501    0 -0.51197711030E+02  0.48102484463E+02 -0.91557118198E+03  0.91826229581E+03  0.00000000000E+00 0. -1.
          1    1    1    2  502    0 -0.18958694647E+02  0.62922994770E+02  0.26685238759E+03  0.27482527565E+03  0.00000000000E+00 0. -1.
         22    1    3    3    0    0  0.34578977915E+02 -0.34710497143E+02 -0.17558301447E+01  0.49026597527E+02  0.00000000000E+00 0.  1.
         22    1    3    3    0    0  0.35577427762E+02 -0.76314982090E+02 -0.23197538291E+03  0.24678393006E+03  0.00000000000E+00 0.  1.
</event>
<event>
 7    1  0.5537228E-006  0.1375763E+03  0.7818608E-02  0.1341139E+00
          2   -1    0    0  502    0  0.00000000000E+00  0.00000000000E+00  0.33391944695E+03  0.33391944695E+03  0.00000000000E+00 0. -1.
          1   -1    0    0  501    0 -0.00000000000E+00 -0.00000000000E+00 -0.14377924341E+04  0.14377924341E+04  0.00000000000E+00 0. -1.
         25    2    1    2    0    0 -0.22610791300E+02  0.12512339245E+03 -0.97029049113E+03  0.98653761578E+03  0.12500287576E+03 0.  0.
          2    1    1    2  501    0 -0.41735822399E+02 -0.32472489051E+01 -0.44377384505E+03  0.44574392766E+03  0.00000000000E+00 0. -1.
          1    1    1    2  502    0  0.64346613699E+02 -0.12187614355E+03  0.31019134904E+03  0.33943033759E+03  0.00000000000E+00 0. -1.
         22    1    3    3    0    0  0.41316476463E+02  0.99131747126E+02 -0.65859914836E+03  0.66729827868E+03  0.00000000000E+00 0. -1.
         22    1    3    3    0    0 -0.63927267763E+02  0.25991645325E+02 -0.31169134277E+03  0.31923933710E+03  0.00000000000E+00 0. -1.
</event>
<event>
 7    1  0.5537228E-006  0.5669491E+02  0.7818608E-02  0.1433910E+00
          2   -1    0    0  502    0  0.00000000000E+00  0.00000000000E+00  0.14872888220E+03  0.14872888220E+03  0.00000000000E+00 0. -1.
          1   -1    0    0  501    0 -0.00000000000E+00 -0.00000000000E+00 -0.24462794032E+03  0.24462794032E+03  0.00000000000E+00 0. -1.
         25    2    1    2    0    0  0.35458317087E+02  0.51383852839E+02  0.14755546792E+01  0.13973228613E+03  0.12500136776E+03 0.  0.
          2    1    1    2  501    0  0.12323514824E+02 -0.56264046536E+02 -0.16267025134E+03  0.17256628472E+03  0.00000000000E+00 0. -1.
          1    1    1    2  502    0 -0.47781831911E+02  0.48801936970E+01  0.65295638542E+02  0.81058251670E+02  0.00000000000E+00 0. -1.
         22    1    3    3    0    0  0.34372194321E+02  0.61937119734E+02 -0.50302076729E+02  0.86878958711E+02  0.00000000000E+00 0.  1.
         22    1    3    3    0    0  0.10861227660E+01 -0.10553266895E+02  0.51777631408E+02  0.52853327417E+02  0.00000000000E+00 0.  1.
</event>
<event>
 7    1  0.5537228E-006  0.1035479E+03  0.7818608E-02  0.1371986E+00
          2   -1    0    0  502    0  0.00000000000E+00  0.00000000000E+00  0.10999648801E+04  0.10999648801E+04  0.00000000000E+00 0. -1.
          1   -1    0    0  501    0 -0.00000000000E+00 -0.00000000000E+00 -0.84920106283E+02  0.84920106283E+02  0.00000000000E+00 0. -1.
         25    2    1    2    0    0 -0.11649146577E+03 -0.25348519332E+02  0.82845594026E+02  0.19157598008E+03  0.12500061865E+03 0.  0.
          2    1    1    2  501    0  0.14475376321E+02  0.40340637763E+02 -0.11194579620E+02  0.44296977184E+02  0.00000000000E+00 0. -1.
          1    1    1    2  502    0  0.10201608945E+03 -0.14992118431E+02  0.94339375941E+03  0.94901202912E+03  0.00000000000E+00 0. -1.
         22    1    3    3    0    0 -0.36881314619E-01 -0.34095640890E+01 -0.28658744151E+02  0.28860874967E+02  0.00000000000E+00 0.  1.
         22    1    3    3    0    0 -0.11645458446E+03 -0.21938955243E+02  0.11150433818E+03  0.16271510511E+03  0.00000000000E+00 0.  1.
</event>
<event>
 7    1  0.5537228E-006  0.3909454E+02  0.7818608E-02  0.1552552E+00
          2   -1    0    0  502    0  0.00000000000E+00  0.00000000000E+00  0.78333984466E+03  0.78333984466E+03  0.00000000000E+00 0. -1.
          1   -1    0    0  501    0 -0.00000000000E+00 -0.00000000000E+00 -0.51594700663E+03  0.51594700663E+03  0.00000000000E+00 0. -1.
         25    2    1    2    0    0  0.68881866950E+01  0.29299912992E+02 -0.18950094892E+03  0.22900176539E+03  0.12500106757E+03 0.  0.
          2    1    1    2  501    0  0.28153818823E+02 -0.11859475011E+02 -0.30543152808E+03  0.30695553913E+03  0.00000000000E+00 0. -1.
          1    1    1    2  502    0 -0.35042005518E+02 -0.17440437981E+02  0.76232531503E+03  0.76332954676E+03  0.00000000000E+00 0. -1.
         22    1    3    3    0    0 -0.23993311071E+02  0.51398824877E+02 -0.18154908805E+03  0.19020407342E+03  0.00000000000E+00 0. -1.
         22    1    3    3    0    0  0.30881497766E+02 -0.22098911885E+02 -0.79518608721E+01  0.38797691969E+02  0.00000000000E+00 0. -1.
</event>
<event>
 7    1  0.5561863E-006  0.1293182E+03  0.7818608E-02  0.1244946E+00
          2   -1    0    0  502    0  0.00000000000E+00  0.00000000000E+00  0.13226339456E+04  0.13226339456E+04  0.00000000000E+00 0. -1.
          1   -1    0    0  501    0 -0.00000000000E+00 -0.00000000000E+00 -0.16108520059E+04  0.16108520059E+04  0.00000000000E+00 0. -1.
         25    2    1    2    0    0  0.98810844156E+02 -0.97382961039E+01 -0.99623373674E+03  0.10089490242E+04  0.12505222037E+03 0.  0.
          2    1    1    2  501    0 -0.10842081897E+03 -0.11922237637E+03 -0.59432830841E+03  0.61578826490E+03  0.00000000000E+00 0. -1.
          1    1    1    2  502    0  0.96099748104E+01  0.12896067247E+03  0.13023439849E+04  0.13087486625E+04  0.00000000000E+00 0. -1.
         22    1    3    3    0    0  0.71165440558E+02 -0.34895140301E+01 -0.96142093218E+03  0.96405752187E+03  0.00000000000E+00 0.  1.
         22    1    3    3    0    0  0.27645403598E+02 -0.62487820738E+01 -0.34812804561E+02  0.44891502302E+02  0.00000000000E+00 0.  1.
</event>
<event>
 7    1  0.5537228E-006  0.1611546E+03  0.7818608E-02  0.1285785E+00
          2   -1    0    0  502    0  0.00000000000E+00  0.00000000000E+00  0.42381499275E+04  0.42381499275E+04  0.00000000000E+00 0. -1.
          1   -1    0    0  501    0 -0.00000000000E+00 -0.00000000000E+00 -0.88200230687E+02  0.88200230687E+02  0.00000000000E+00 0. -1.
         25    2    1    2    0    0 -0.48088383036E+02 -0.13267794592E+03  0.44119419023E+03  0.47978437856E+03  0.12499922601E+03 0.  0.
          2    1    1    2  501    0 -0.58336932224E+02  0.81922025287E+01 -0.54198923139E+02  0.80048941986E+02  0.00000000000E+00 0. -1.
          1    1    1    2  502    0  0.10642531526E+03  0.12448574340E+03  0.37629544297E+04  0.37665168377E+04  0.00000000000E+00 0. -1.
         22    1    3    3    0    0 -0.10786052687E+02 -0.60449399594E+02  0.35887890665E+03  0.36409413410E+03  0.00000000000E+00 0.  1.
         22    1    3    3    0    0 -0.37302330349E+02 -0.72228546329E+02  0.82315283578E+02  0.11569024447E+03  0.00000000000E+00 0.  1.
</event>
<event>
 7    1  0.5537228E-006  0.7235899E+02  0.7818608E-02  0.1481858E+00
          2   -1    0    0  502    0  0.00000000000E+00  0.00000000000E+00  0.33180203723E+03  0.33180203723E+03  0.00000000000E+00 0. -1.
          1   -1    0    0  501    0 -0.00000000000E+00 -0.00000000000E+00 -0.15973190191E+04  0.15973190191E+04  0.00000000000E+00 0. -1.
         25    2    1    2    0    0  0.65901463727E+02  0.42389657078E+02  0.44949754929E+02  0.15422894666E+03  0.12500480619E+03 0.  0.
          2    1    1    2  501    0  0.44211968138E+01 -0.26163686787E+02 -0.15369546086E+04  0.15371836437E+04  0.00000000000E+00 0. -1.
          1    1    1    2  502    0 -0.70322660541E+02 -0.16225970291E+02  0.22648787184E+03  0.23770846596E+03  0.00000000000E+00 0. -1.
         22    1    3    3    0    0  0.47303227671E+01 -0.27584049119E+02 -0.25297938322E+02  0.37725871794E+02  0.00000000000E+00 0. -1.
         22    1    3    3    0    0  0.61171140960E+02  0.69973706197E+02  0.70247693252E+02  0.11650307486E+03  0.00000000000E+00 0. -1.
</event>
<event>
 7    1  0.5537228E-006  0.8814472E+02  0.7818608E-02  0.1372598E+00
          2   -1    0    0  502    0  0.00000000000E+00  0.00000000000E+00  0.38587968811E+04  0.38587968811E+04  0.00000000000E+00 0. -1.
          1   -1    0    0  501    0 -0.00000000000E+00 -0.00000000000E+00 -0.10524878186E+04  0.10524878186E+04  0.00000000000E+00 0. -1.
         25    2    1    2    0    0  0.64998807418E+02 -0.10890772494E+03  0.73409034647E+03  0.75538036940E+03  0.12500051276E+03 0.  0.
          2    1    1    2  501    0 -0.20652680845E+02  0.85606252314E+02 -0.10397799817E+04  0.10435024552E+04  0.00000000000E+00 0. -1.
          1    1    1    2  502    0 -0.44346126573E+02  0.23301472626E+02  0.31119986978E+04  0.31124018752E+04  0.00000000000E+00 0. -1.
         22    1    3    3    0    0  0.84629606938E+02 -0.11190498868E+03  0.71193343737E+03  0.72562670576E+03  0.00000000000E+00 0.  1.
         22    1    3    3    0    0 -0.19630799520E+02  0.29972637441E+01  0.22156909097E+02  0.29753663648E+02  0.00000000000E+00 0.  1.
</event>
<event>
 7    1  0.5537228E-006  0.9388513E+02  0.7818608E-02  0.1389237E+00
          2   -1    0    0  502    0  0.00000000000E+00  0.00000000000E+00  0.63351423663E+03  0.63351423663E+03  0.00000000000E+00 0. -1.
          1   -1    0    0  501    0 -0.00000000000E+00 -0.00000000000E+00 -0.61566643316E+02  0.61566643316E+02  0.00000000000E+00 0. -1.
         25    2    1    2    0    0  0.15605351427E+02  0.92216661555E+02  0.25004335875E+03  0.29477569253E+03  0.12499435184E+03 0.  0.
          2    1    1    2  501    0 -0.41070021851E+02  0.36333788601E+00 -0.19636327340E+02  0.45524323835E+02  0.00000000000E+00 0. -1.
          1    1    1    2  502    0  0.25464670424E+02 -0.92579999441E+02  0.34154056190E+03  0.35478086357E+03  0.00000000000E+00 0. -1.
         22    1    3    3    0    0  0.20183624280E+02  0.12094895734E+03  0.17000538823E+03  0.20961359927E+03  0.00000000000E+00 0. -1.
         22    1    3    3    0    0 -0.45782728530E+01 -0.28732295789E+02  0.80037970520E+02  0.85162093262E+02  0.00000000000E+00 0. -1.
</event>
<event>
 7    1  0.5537228E-006  0.9559097E+02  0.7818608E-02  0.1328685E+00
          2   -1    0    0  502    0  0.00000000000E+00  0.00000000000E+00  0.10466310374E+04  0.10466310374E+04  0.00000000000E+00 0. -1.
          1   -1    0    0  501    0 -0.00000000000E+00 -0.00000000000E+00 -0.93425033824E+03  0.93425033824E+03  0.00000000000E+00 0. -1.
         25    2    1    2    0    0 -0.15044877153E+03 -0.36077803335E+02 -0.81011999050E+01  0.19906524200E+03  0.12499960153E+03 0.  0.
          2    1    1    2  501    0  0.56098841095E+02  0.36939371790E+02 -0.82696212496E+03  0.82968545442E+03  0.00000000000E+00 0. -1.
          1    1    1    2  502    0  0.94349930437E+02 -0.86156845536E+00  0.94744402406E+03  0.95213067927E+03  0.00000000000E+00 0. -1.
         22    1    3    3    0    0 -0.12370511540E+03  0.29336224544E+02 -0.15192582507E+02  0.12804055690E+03  0.00000000000E+00 0.  1.
         22    1    3    3    0    0 -0.26743656129E+02 -0.65414027879E+02  0.70913826018E+01  0.71024685102E+02  0.00000000000E+00 0.  1.
</event>
<event>
 7    1  0.5537228E-006  0.6964866E+02  0.7818608E-02  0.1431366E+00
          2   -1    0    0  502    0  0.00000000000E+00  0.00000000000E+00  0.13311965939E+04  0.13311965939E+04  0.00000000000E+00 0. -1.
          1   -1    0    0  501    0 -0.00000000000E+00 -0.00000000000E+00 -0.68622974550E+02  0.68622974550E+02  0.00000000000E+00 0. -1.
         25    2    1    2    0    0  0.83037374392E+01  0.47260085850E+02  0.15520186926E+03  0.20497584486E+03  0.12500003593E+03 0.  0.
          2    1    1    2  501    0  0.24126661425E+02 -0.70427942854E+02 -0.11442218271E+02  0.75320085536E+02  0.00000000000E+00 0. -1.
          1    1    1    2  502    0 -0.32430398864E+02  0.23167857004E+02  0.11188139684E+04  0.11195236381E+04  0.00000000000E+00 0. -1.
         22    1    3    3    0    0  0.62588643480E+02  0.21926104471E+01  0.62493704048E+02  0.88473775091E+02  0.00000000000E+00 0. -1.
         22    1    3    3    0    0 -0.54284906041E+02  0.45067475403E+02  0.92708165215E+02  0.11650206977E+03  0.00000000000E+00 0. -1.
</event>
<event>
 7    1  0.5537228E-006  0.8420155E+02  0.7818608E-02  0.1386844E+00
          2   -1    0    0  502    0  0.00000000000E+00  0.00000000000E+00  0.36119963755E+03  0.36119963755E+03  0.00000000000E+00 0. -1.
          1   -1    0    0  501    0 -0.00000000000E+00 -0.00000000000E+00 -0.14779583958E+04  0.14779583958E+04  0.00000000000E+00 0. -1.
         25    2    1    2    0    0 -0.42375996802E+02  0.77919717186E+02 -0.17605599057E+03  0.23342638347E+03  0.12499982902E+03 0.  0.
          2    1    1    2  501    0  0.46245927528E+02  0.64023320389E+01 -0.12674234301E+04  0.12682830232E+04  0.00000000000E+00 0. -1.
          1    1    1    2  502    0 -0.38699307259E+01 -0.84322049225E+02  0.32672066248E+03  0.33744862666E+03  0.00000000000E+00 0. -1.
         22    1    3    3    0    0 -0.52936634659E+02 -0.12747594204E+02 -0.32816157330E+02  0.63574276472E+02  0.00000000000E+00 0.  1.
         22    1    3    3    0    0  0.10560637857E+02  0.90667311390E+02 -0.14323983324E+03  0.16985210700E+03  0.00000000000E+00 0.  1.
</event>
<event>
 7    1  0.5537228E-006  0.3789058E+02  0.7818608E-02  0.1533760E+00
          2   -1    0    0  502    0  0.00000000000E+00  0.00000000000E+00  0.79451978539E+03  0.79451978539E+03  0.00000000000E+00 0. -1.
          1   -1    0    0  501    0 -0.00000000000E+00 -0.00000000000E+00 -0.25419350066E+03  0.25419350066E+03  0.00000000000E+00 0. -1.
         25    2    1    2    0    0 -0.49641025991E+02  0.22370108430E+01 -0.46773285829E+02  0.14242010643E+03  0.12500604293E+03 0.  0.
          2    1    1    2  501    0  0.27815203980E+02  0.25891872651E+02 -0.15690299174E+03  0.16143922528E+03  0.00000000000E+00 0. -1.
          1    1    1    2  502    0  0.21825822011E+02 -0.28128883494E+02  0.74400256230E+03  0.74485395434E+03  0.00000000000E+00 0. -1.
         22    1    3    3    0    0  0.10416637286E+02  0.27957983191E+02 -0.67563853013E+02  0.73858170776E+02  0.00000000000E+00 0.  1.
         22    1    3    3    0    0 -0.60057663277E+02 -0.25720972348E+02  0.20790567184E+02  0.68561935654E+02  0.00000000000E+00 0.  1.
</event>
<event>
 7    1  0.5537228E-006  0.1266849E+03  0.7818608E-02  0.1302639E+00
          2   -1    0    0  502    0  0.00000000000E+00  0.00000000000E+00  0.31742114326E+04  0.31742114326E+04  0.00000000000E+00 0. -1.
          1   -1    0    0  501    0 -0.00000000000E+00 -0.00000000000E+00 -0.86532235132E+02  0.86532235132E+02  0.00000000000E+00 0. -1.
         25    2    1    2    0    0  0.34542297499E+02 -0.18161816763E+03  0.61470570157E+03  0.65396095211E+03  0.12499399266E+03 0.  0.
          2    1    1    2  501    0 -0.30736648380E+02  0.11766805369E+03 -0.10881146904E+02  0.12210205474E+03  0.00000000000E+00 0. -1.
          1    1    1    2  502    0 -0.38056491188E+01  0.63950113940E+02  0.24838546428E+04  0.24846806609E+04  0.00000000000E+00 0. -1.
         22    1    3    3    0    0  0.51683125782E+02 -0.27133647907E+02  0.94913534696E+02  0.11142692407E+03  0.00000000000E+00 0. -1.
         22    1    3    3    0    0 -0.17140828283E+02 -0.15448451973E+03  0.51979216688E+03  0.54253402804E+03  0.00000000000E+00 0. -1.
</event>
<event>
 7    1  0.5537228E-006  0.1397314E+03  0.7818608E-02  0.1264165E+00
          2   -1    0    0  502    0  0.00000000000E+00  0.00000000000E+00  0.67876170925E+03  0.67876170925E+03  0.00000000000E+00 0. -1.
          1   -1    0    0  501    0 -0.00000000000E+00 -0.00000000000E+00 -0.74201590135E+03  0.74201590135E+03  0.00000000000E+00 0. -1.
         25    2    1    2    0    0  0.12524383289E+03  0.17471099797E+03 -0.45262270262E+03  0.51643183617E+03  0.12499831999E+03 0.  0.
          2    1    1    2  501    0 -0.23911928230E+02 -0.80107387068E+02 -0.24299051665E+03  0.25696957983E+03  0.00000000000E+00 0. -1.
          1    1    1    2  502    0 -0.10133190466E+03 -0.94603610901E+02  0.63235902717E+03  0.64737619460E+03  0.00000000000E+00 0. -1.
         22    1    3    3    0    0  0.30475863692E+02  0.14671687328E+03 -0.27333699660E+03  0.31171739266E+03  0.00000000000E+00 0. -1.
         22    1    3    3    0    0  0.94767969198E+02  0.27994124691E+02 -0.17928570601E+03  0.20471444352E+03  0.00000000000E+00 0. -1.
</event>
<event>
 7    1  0.5537228E-006  0.1185323E+03  0.7818608E-02  0.1432077E+00
          2   -1    0    0  502    0  0.00000000000E+00  0.00000000000E+00  0.15940573889E+04  0.15940573889E+04  0.00000000000E+00 0. -1.
          1   -1    0    0  501    0 -0.00000000000E+00 -0.00000000000E+00 -0.14001207336E+03  0.14001207336E+03  0.00000000000E+00 0. -1.
         25    2    1    2    0    0  0.87885425814E+01 -0.99063604002E+02  0.34517260502E+03  0.38033724003E+03  0.12498581032E+03 0.  0.
          2    1    1    2  501    0 -0.51631860337E+01 -0.22713892351E+02 -0.11827738696E+03  0.12054924165E+03  0.00000000000E+00 0. -1.
          1    1    1    2  502    0 -0.36253565477E+01  0.12177749635E+03  0.12271500975E+04  0.12331829806E+04  0.00000000000E+00 0. -1.
         22    1    3    3    0    0  0.59002786986E+00 -0.54876202549E+02  0.31127062912E+02  0.63092311613E+02  0.00000000000E+00 0.  1.
         22    1    3    3    0    0  0.81985147116E+01 -0.44187401453E+02  0.31404554211E+03  0.31724492842E+03  0.00000000000E+00 0.  1.
</event>
<event>
 7    1  0.5537228E-006  0.2288822E+03  0.7818608E-02  0.1212118E+00
          2   -1    0    0  502    0  0.00000000000E+00  0.00000000000E+00  0.10648289227E+04  0.10648289227E+04  0.00000000000E+00 0. -1.
          1   -1    0    0  501    0 -0.00000000000E+00 -0.00000000000E+00 -0.13454824153E+04  0.13454824153E+04  0.00000000000E+00 0. -1.
         25    2    1    2    0    0  0.24685946122E+02  0.27583637476E+03  0.51571059071E+02  0.30818801916E+03  0.12500071776E+03 0.  0.
          2    1    1    2  501    0  0.55994312052E+02 -0.66248962793E+02 -0.12013366069E+04  0.12044641676E+04  0.00000000000E+00 0. -1.
          1    1    1    2  502    0 -0.80680258174E+02 -0.20958741197E+03  0.86911205520E+03  0.89765915125E+03  0.00000000000E+00 0. -1.
         22    1    3    3    0    0  0.34497091236E+02  0.15478431105E+03  0.88040159447E+02  0.18138164716E+03  0.00000000000E+00 0.  1.
         22    1    3    3    0    0 -0.98111451141E+01  0.12105206370E+03 -0.36469100377E+02  0.12680637199E+03  0.00000000000E+00 0.  1.
</event>
<event>
 7    1  0.5537228E-006  0.9587209E+02  0.7818608E-02  0.1321800E+00
          2   -1    0    0  502    0  0.00000000000E+00  0.00000000000E+00  0.25366370541E+04  0.25366370541E+04  0.00000000000E+00 0. -1.
          1   -1    0    0  501    0 -0.00000000000E+00 -0.00000000000E+00 -0.11013770450E+03  0.11013770450E+03  0.00000000000E+00 0. -1.
         25    2    1    2    0    0 -0.28152644514E+02 -0.62625976037E+02  0.12467290802E+04  0.12548596195E+04  0.12499872411E+03 0.  0.
          2    1    1    2  501    0  0.91758156860E+02  0.30663554385E+02 -0.82799419303E+02  0.12734031865E+03  0.00000000000E+00 0. -1.
          1    1    1    2  502    0 -0.63605512346E+02  0.31962421652E+02  0.12625696887E+04  0.12645748204E+04  0.00000000000E+00 0. -1.
         22    1    3    3    0    0  0.21641785201E+01  0.30543062685E+02  0.59699818108E+03  0.59778289585E+03  0.00000000000E+00 0.  1.
         22    1    3    3    0    0 -0.30316823034E+02 -0.93169038722E+02  0.64973089911E+03  0.65707672367E+03  0.00000000000E+00 0.  1.
</event>
<event>
 7    1  0.5537228E-006  0.7949458E+02  0.7818608E-02  0.1335209E+00
          2   -1    0    0  502    0  0.00000000000E+00  0.00000000000E+00  0.18814662172E+03  0.18814662172E+03  0.00000000000E+00 0. -1.
          1   -1    0    0  501    0 -0.00000000000E+00 -0.00000000000E+00 -0.55079910452E+03  0.55079910452E+03  0.00000000000E+00 0. -1.
         25    2    1    2    0    0  0.12434347225E+03 -0.86331792751E+02  0.95228668231E+02  0.21819250406E+03  0.12499996817E+03 0.  0.
          2    1    1    2  501    0 -0.71307679449E+02  0.31509723151E+02 -0.43382236725E+03  0.44077147608E+03  0.00000000000E+00 0. -1.
          1    1    1    2  502    0 -0.53035792803E+02  0.54822069599E+02 -0.24058783781E+02  0.79981746108E+02  0.00000000000E+00 0. -1.
         22    1    3    3    0    0  0.52482550923E+02 -0.42524382692E+02  0.11349202712E+03  0.13207263719E+03  0.00000000000E+00 0.  1.
         22    1    3    3    0    0  0.71860921330E+02 -0.43807410059E+02 -0.18263358892E+02  0.86119866863E+02  0.00000000000E+00 0.  1.
</event>
<event>
 7    1  0.5537228E-006  0.9096654E+02  0.7818608E-02  0.1342535E+00
          2   -1    0    0  502    0  0.00000000000E+00  0.00000000000E+00  0.96432260215E+03  0.96432260215E+03  0.00000000000E+00 0. -1.
          1   -1    0    0  501    0 -0.00000000000E+00 -0.00000000000E+00 -0.87799960929E+02  0.87799960929E+02  0.00000000000E+00 0. -1.
         25    2    1    2    0    0  0.34079898303E+02 -0.20998285643E+02  0.13223758796E+03  0.18632123437E+03  0.12500582083E+03 0.  0.
          2    1    1    2  501    0  0.20590875961E+02 -0.59065920687E+02 -0.40846003787E+02  0.74707182954E+02  0.00000000000E+00 0. -1.
          1    1    1    2  502    0 -0.54670774264E+02  0.80064206330E+02  0.78513105705E+03  0.79109414575E+03  0.00000000000E+00 0. -1.
         22    1    3    3    0    0 -0.23957289552E+02  0.37674021650E+02  0.69710685104E+02  0.82782022491E+02  0.00000000000E+00 0.  1.
         22    1    3    3    0    0  0.58037187855E+02 -0.58672307293E+02  0.62526902852E+02  0.10353921188E+03  0.00000000000E+00 0.  1.
</event>
<event>
 7    1  0.5537228E-006  0.1258031E+03  0.7818608E-02  0.1340565E+00
          2   -1    0    0  502    0  0.00000000000E+00  0.00000000000E+00  0.15516754028E+03  0.15516754028E+03  0.00000000000E+00 0. -1.
          1   -1    0    0  501    0 -0.00000000000E+00 -0.00000000000E+00 -0.40867902143E+03  0.40867902143E+03  0.00000000000E+00 0. -1.
         25    2    1    2    0    0 -0.68722857563E+02  0.73149066284E+02 -0.64032938091E+02  0.17262345447E+03  0.12500009130E+03 0.  0.
          2    1    1    2  501    0 -0.45980353849E+02  0.15741203906E+01 -0.24070096566E+03  0.24505841276E+03  0.00000000000E+00 0. -1.
          1    1    1    2  502    0  0.11470321141E+03 -0.74723186675E+02  0.51222422595E+02  0.14616469448E+03  0.00000000000E+00 0. -1.
         22    1    3    3    0    0 -0.61227954224E+01  0.12692512785E+02  0.36813009816E+02  0.39418094783E+02  0.00000000000E+00 0. -1.
         22    1    3    3    0    0 -0.62600062140E+02  0.60456553499E+02 -0.10084594791E+03  0.13320535969E+03  0.00000000000E+00 0. -1.
</event>
<event>
 7    1  0.5537228E-006  0.9537274E+02  0.7818608E-02  0.1411829E+00
          2   -1    0    0  502    0  0.00000000000E+00  0.00000000000E+00  0.51639135181E+02  0.51639135181E+02  0.00000000000E+00 0. -1.
          1   -1    0    0  501    0 -0.00000000000E+00 -0.00000000000E+00 -0.87105169612E+03  0.87105169612E+03  0.00000000000E+00 0. -1.
         25    2    1    2    0    0 -0.26231651560E+02  0.88445902711E+02 -0.40281070288E+03  0.43172944993E+03  0.12499231309E+03 0.  0.
          2    1    1    2  501    0  0.58605860962E+02 -0.78686819176E+02 -0.43937381503E+03  0.45019508192E+03  0.00000000000E+00 0. -1.
          1    1    1    2  502    0 -0.32374209402E+02 -0.97590835351E+01  0.22771956978E+02  0.40766299445E+02  0.00000000000E+00 0. -1.
         22    1    3    3    0    0 -0.30942849276E+02 -0.16516031578E+02 -0.36386158046E+02  0.50539011840E+02  0.00000000000E+00 0. -1.
         22    1    3    3    0    0  0.47111977164E+01  0.10496193429E+03 -0.36642454484E+03  0.38119043809E+03  0.00000000000E+00 0. -1.
</event>
<event>
 7    1  0.5537228E-006  0.4705888E+02  0.7818608E-02  0.1543307E+00
          2   -1    0    0  502    0  0.00000000000E+00  0.00000000000E+00  0.21266298628E+04  0.21266298628E+04  0.00000000000E+00 0. -1.
          1   -1    0    0  501    0 -0.00000000000E+00 -0.00000000000E+00 -0.35939151972E+03  0.35939151972E+03  0.00000000000E+00 0. -1.
         25    2    1    2    0    0  0.11652132318E+02  0.23952736188E+02  0.27629558298E+03  0.30442370023E+03  0.12500013733E+03 0.  0.
          2    1    1    2  501    0  0.26582368399E+02  0.43527560936E+01 -0.34449351975E+03  0.34554501002E+03  0.00000000000E+00 0. -1.
          1    1    1    2  502    0 -0.38234500717E+02 -0.28305492282E+02  0.18354362799E+04  0.18360526723E+04  0.00000000000E+00 0. -1.
         22    1    3    3    0    0  0.28756882830E+02 -0.39666072988E+02  0.18788527917E+03  0.19416805553E+03  0.00000000000E+00 0. -1.
         22    1    3    3    0    0 -0.17104750512E+02  0.63618809177E+02  0.88410303806E+02  0.11025564471E+03  0.00000000000E+00 0. -1.
</event>
<event>
 7    1  0.5537228E-006  0.1314070E+03  0.7818608E-02  0.1323443E+00
          2   -1    0    0  502    0  0.00000000000E+00  0.00000000000E+00  0.45305772942E+02  0.45305772942E+02  0.00000000000E+00 0. -1.
          1   -1    0    0  501    0 -0.00000000000E+00 -0.00000000000E+00 -0.10931266845E+04  0.10931266845E+04  0.00000000000E+00 0. -1.
         25    2    1    2    0    0 -0.96277359591E+02  0.55536540045E+02 -0.23832072898E+03  0.29116077754E+03  0.12499676502E+03 0.  0.
          2    1    1    2  501    0  0.87517757428E+02 -0.10596282343E+03 -0.77119109533E+03  0.78334103897E+03  0.00000000000E+00 0. -1.
          1    1    1    2  502    0  0.87596021623E+01  0.50426283385E+02 -0.38309087273E+02  0.63930640962E+02  0.00000000000E+00 0. -1.
         22    1    3    3    0    0 -0.10385238643E+03  0.47584655006E+02 -0.25016218787E+03  0.27501043216E+03  0.00000000000E+00 0.  1.
         22    1    3    3    0    0  0.75750268392E+01  0.79518850395E+01  0.11841458885E+02  0.16150345378E+02  0.00000000000E+00 0.  1.
</event>
<event>
 7    1  0.5537228E-006  0.9889440E+02  0.7818608E-02  0.1439152E+00
          2   -1    0    0  502    0  0.00000000000E+00  0.00000000000E+00  0.99034992319E+02  0.99034992319E+02  0.00000000000E+00 0. -1.
          1   -1    0    0  501    0 -0.00000000000E+00 -0.00000000000E+00 -0.96477034299E+03  0.96477034299E+03  0.00000000000E+00 0. -1.
         25    2    1    2    0    0  0.44031070049E+02 -0.71107395745E+02 -0.25226693008E+03  0.29369730390E+03  0.12499802178E+03 0.  0.
          2    1    1    2  501    0 -0.10760803327E+02 -0.24186520731E+02 -0.65889169976E+03  0.65942327430E+03  0.00000000000E+00 0. -1.
          1    1    1    2  502    0 -0.33270266722E+02  0.95293916476E+02  0.45423279170E+02  0.11068475711E+03  0.00000000000E+00 0. -1.
         22    1    3    3    0    0  0.39786116273E+02 -0.73345020722E+02 -0.26619471934E+03  0.27896604761E+03  0.00000000000E+00 0. -1.
         22    1    3    3    0    0  0.42449537766E+01  0.22376249770E+01  0.13927789266E+02  0.14731256292E+02  0.00000000000E+00 0. -1.
</event>
<event>
 7    1  0.5537228E-006  0.1259328E+03  0.7818608E-02  0.1234211E+00
          2   -1    0    0  502    0  0.00000000000E+00  0.00000000000E+00  0.25939482861E+04  0.25939482861E+04  0.00000000000E+00 0. -1.
          1   -1    0    0  501    0 -0.00000000000E+00 -0.00000000000E+00 -0.52060871848E+02  0.52060871848E+02  0.00000000000E+00 0. -1.
         25    2    1    2    0    0  0.29194613374E+02 -0.11021920757E+03  0.74235103173E+03  0.76138724652E+03  0.12499954271E+03 0.  0.
          2    1    1    2  501    0  0.10629191219E+03  0.67535918503E+02  0.60354646208E+02  0.13964868135E+03  0.00000000000E+00 0. -1.
          1    1    1    2  502    0 -0.13548652556E+03  0.42683289071E+02  0.17391817363E+04  0.17449732301E+04  0.00000000000E+00 0. -1.
         22    1    3    3    0    0  0.55540420757E+02 -0.40203649903E+02  0.15757589301E+03  0.17184654160E+03  0.00000000000E+00 0. -1.
         22    1    3    3    0    0 -0.26345807382E+02 -0.70015557671E+02  0.58477513872E+03  0.58954070491E+03  0.00000000000E+00 0. -1.
</event>
<event>
 7    1  0.5537228E-006  0.6146057E+02  0.7818608E-02  0.1452883E+00
          2   -1    0    0  502    0  0.00000000000E+00  0.00000000000E+00  0.61194706464E+03  0.61194706464E+03  0.00000000000E+00 0. -1.
          1   -1    0    0  501    0 -0.00000000000E+00 -0.00000000000E+00 -0.40809280578E+02  0.40809280578E+02  0.00000000000E+00 0. -1.
         25    2    1    2    0    0 -0.61804165272E+02  0.47948031774E+01  0.19376318801E+03  0.23877206867E+03  0.12500073107E+03 0.  0.
          2    1    1    2  501    0  0.54663203660E+02  0.33012176194E+02  0.42050153222E+02  0.76459695248E+02  0.00000000000E+00 0. -1.
          1    1    1    2  502    0  0.71409616124E+01 -0.37806979372E+02  0.33532444284E+03  0.33752458131E+03  0.00000000000E+00 0. -1.
         22    1    3    3    0    0 -0.47610558960E+02  0.57487377234E+02  0.15436757449E+03  0.17146694119E+03  0.00000000000E+00 0.  1.
         22    1    3    3    0    0 -0.14193606312E+02 -0.52692574057E+02  0.39395613514E+02  0.67305127479E+02  0.00000000000E+00 0.  1.
</event>
<event>
 7    1  0.5537228E-006  0.1008194E+03  0.7818608E-02  0.1419517E+00
          2   -1    0    0  502    0  0.00000000000E+00  0.00000000000E+00  0.70095710343E+03  0.70095710343E+03  0.00000000000E+00 0. -1.
          1   -1    0    0  501    0 -0.00000000000E+00 -0.00000000000E+00 -0.91078874558E+02  0.91078874558E+02  0.00000000000E+00 0. -1.
         25    2    1    2    0    0 -0.16996976739E+02  0.11048760956E+03  0.18120619680E+03  0.24689591239E+03  0.12500198683E+03 0.  0.
          2    1    1    2  501    0 -0.23134135362E+02 -0.19317225214E+02 -0.48817137115E+02  0.57371214777E+02  0.00000000000E+00 0. -1.
          1    1    1    2  502    0  0.40131112101E+02 -0.91170384347E+02  0.47748916918E+03  0.48776885082E+03  0.00000000000E+00 0. -1.
         22    1    3    3    0    0 -0.29673168979E+02 -0.52220494194E+01 -0.16048928442E+01  0.30171881586E+02  0.00000000000E+00 0. -1.
         22    1    3    3    0    0  0.12676192240E+02  0.11570965898E+03  0.18281108965E+03  0.21672403080E+03  0.00000000000E+00 0. -1.
</event>
<event>
 7    1  0.5537228E-006  0.7629161E+02  0.7818608E-02  0.1400409E+00
          2   -1    0    0  502    0  0.00000000000E+00  0.00000000000E+00  0.90347538802E+02  0.90347538802E+02  0.00000000000E+00 0. -1.
          1   -1    0    0  501    0 -0.00000000000E+00 -0.00000000000E+00 -0.96007879947E+03  0.96007879947E+03  0.00000000000E+00 0. -1.
         25    2    1    2    0    0  0.13794124264E+02 -0.32587406347E+02 -0.42419954741E+02  0.13666116475E+03  0.12499841788E+03 0.  0.
          2    1    1    2  501    0 -0.41185949717E+01  0.77796593715E+02 -0.85587953934E+03  0.85941786035E+03  0.00000000000E+00 0. -1.
          1    1    1    2  502    0 -0.96755292920E+01 -0.45209187368E+02  0.28568233414E+02  0.54347313181E+02  0.00000000000E+00 0. -1.
         22    1    3    3    0    0 -0.50318451712E+02 -0.38883675192E+02 -0.32714684915E+02  0.71513197301E+02  0.00000000000E+00 0. -1.
         22    1    3    3    0    0  0.64112575976E+02  0.62962688452E+01 -0.97052698256E+01  0.65147967444E+02  0.00000000000E+00 0. -1.
</event>
<event>
 7    1  0.5537228E-006  0.5356934E+02  0.7818608E-02  0.1521671E+00
          2   -1    0    0  502    0  0.00000000000E+00  0.00000000000E+00  0.36111188518E+02  0.36111188518E+02  0.00000000000E+00 0. -1.
          1   -1    0    0  501    0 -0.00000000000E+00 -0.00000000000E+00 -0.23998518944E+04  0.23998518944E+04  0.00000000000E+00 0. -1.
         25    2    1    2    0    0 -0.54753628246E+01 -0.33905359103E+02 -0.48305280747E+03  0.50013152062E+03  0.12494786971E+03 0.  0.
          2    1    1    2  501    0 -0.14320191328E+02  0.52676356117E+02 -0.19010227052E+04  0.19018062972E+04  0.00000000000E+00 0. -1.
          1    1    1    2  502    0  0.19795554152E+02 -0.18770997014E+02  0.20334806830E+02  0.34025265052E+02  0.00000000000E+00 0. -1.
         22    1    3    3    0    0  0.12573395606E+02 -0.25597704682E+02 -0.47900652839E+03  0.47985475616E+03  0.00000000000E+00 0.  1.
         22    1    3    3    0    0 -0.18048758431E+02 -0.83076544208E+01 -0.40462790713E+01  0.20276764465E+02  0.00000000000E+00 0.  1.
</event>
<event>
 7    1  0.5537228E-006  0.9124385E+02  0.7818608E-02  0.1419508E+00
          2   -1    0    0  502    0  0.00000000000E+00  0.00000000000E+00  0.67163614353E+03  0.67163614353E+03  0.00000000000E+00 0. -1.
          1   -1    0    0  501    0 -0.00000000000E+00 -0.00000000000E+00 -0.10245794710E+04  0.10245794710E+04  0.00000000000E+00 0. -1.
         25    2    1    2    0    0 -0.60119489540E+02  0.12884799627E+02 -0.18633864261E+03  0.23265337682E+03  0.12500053174E+03 0.  0.
          2    1    1    2  501    0  0.92594943335E+02 -0.20267555650E+02 -0.81189685280E+03  0.81741121654E+03  0.00000000000E+00 0. -1.
          1    1    1    2  502    0 -0.32475453794E+02  0.73827560234E+01  0.64529216792E+03  0.64615102117E+03  0.00000000000E+00 0. -1.
         22    1    3    3    0    0 -0.41565537482E+02 -0.50275560910E+02 -0.53376086314E+02  0.84287202594E+02  0.00000000000E+00 0. -1.
         22    1    3    3    0    0 -0.18553952059E+02  0.63160360537E+02 -0.13296255629E+03  0.14836617423E+03  0.00000000000E+00 0. -1.
</event>
<event>
 7    1  0.5537228E-006  0.1055041E+03  0.7818608E-02  0.1398101E+00
          2   -1    0    0  502    0  0.00000000000E+00  0.00000000000E+00  0.72385954242E+03  0.72385954242E+03  0.00000000000E+00 0. -1.
          1   -1    0    0  501    0 -0.00000000000E+00 -0.00000000000E+00 -0.90705274396E+02  0.90705274396E+02  0.00000000000E+00 0. -1.
         25    2    1    2    0    0 -0.43723302225E+01  0.12454149655E+03  0.21495014658E+03  0.27813572152E+03  0.12500484965E+03 0.  0.
          2    1    1    2  501    0 -0.22535896758E+02 -0.25524037560E+02 -0.48120824973E+02  0.58948765315E+02  0.00000000000E+00 0. -1.
          1    1    1    2  502    0  0.26908226981E+02 -0.99017458994E+02  0.46632494642E+03  0.47748032998E+03  0.00000000000E+00 0. -1.
         22    1    3    3    0    0  0.55472674879E+01 -0.24657427402E+02  0.46259032086E+02  0.52712986561E+02  0.00000000000E+00 0. -1.
         22    1    3    3    0    0 -0.99195977104E+01  0.14919892396E+03  0.16869111449E+03  0.22542273496E+03  0.00000000000E+00 0. -1.
</event>
<event>
 7    1  0.5537228E-006  0.1433733E+03  0.7818608E-02  0.1239510E+00
          2   -1    0    0  502    0  0.00000000000E+00  0.00000000000E+00  0.13345986343E+04  0.13345986343E+04  0.00000000000E+00 0. -1.
          1   -1    0    0  501    0 -0.00000000000E+00 -0.00000000000E+00 -0.56169359184E+03  0.56169359184E+03  0.00000000000E+00 0. -1.
         25    2    1    2    0    0  0.11321042270E+03 -0.19605564668E+02 -0.40498608147E+02  0.17454367641E+03  0.12499751893E+03 0.  0.
          2    1    1    2  501    0 -0.12982192348E+03 -0.83216169872E+02 -0.43885884082E+03  0.46516206306E+03  0.00000000000E+00 0. -1.
          1    1    1    2  502    0  0.16611500772E+02  0.10282173454E+03  0.12522624914E+04  0.12565864866E+04  0.00000000000E+00 0. -1.
         22    1    3    3    0    0  0.12305535141E+03 -0.52816024427E+02 -0.40511458099E+02  0.13990471823E+03  0.00000000000E+00 0. -1.
         22    1    3    3    0    0 -0.98449287036E+01  0.33210459758E+02  0.12849952000E-01  0.34638958178E+02  0.00000000000E+00 0. -1.
</event>
<event>
 7    1  0.5537228E-006  0.1224395E+03  0.7818608E-02  0.1377032E+00
          2   -1    0    0  502    0  0.00000000000E+00  0.00000000000E+00  0.13626643970E+04  0.13626643970E+04  0.00000000000E+00 0. -1.
          1   -1    0    0  501    0 -0.00000000000E+00 -0.00000000000E+00 -0.15632379255E+04  0.15632379255E+04  0.00000000000E+00 0. -1.
         25    2    1    2    0    0  0.84021098332E+02 -0.12325853160E+03  0.15833539792E+02  0.19526141351E+03  0.12499643214E+03 0.  0.
          2    1    1    2  501    0 -0.58749700831E+00  0.34768201786E+02 -0.14703763545E+04  0.14707874751E+04  0.00000000000E+00 0. -1.
          1    1    1    2  502    0 -0.83433601323E+02  0.88490329816E+02  0.12539692862E+04  0.12598534340E+04  0.00000000000E+00 0. -1.
         22    1    3    3    0    0  0.10386691327E+02 -0.37301553814E+02  0.61939827156E+02  0.73046775848E+02  0.00000000000E+00 0.  1.
         22    1    3    3    0    0  0.73634407004E+02 -0.85956977788E+02 -0.46106287364E+02  0.12221463767E+03  0.00000000000E+00 0.  1.
</event>
<event>
 7    1  0.5537228E-006  0.9112404E+02  0.7818608E-02  0.1408527E+00
          2   -1    0    0  502    0  0.00000000000E+00  0.00000000000E+00  0.23199494663E+04  0.23199494663E+04  0.00000000000E+00 0. -1.
          1   -1    0    0  501    0 -0.00000000000E+00 -0.00000000000E+00 -0.11247180265E+03  0.11247180265E+03  0.00000000000E+00 0. -1.
         25    2    1    2    0    0 -0.62236628851E+02 -0.56422058389E+01  0.27081131446E+03  0.30474389740E+03  0.12499937003E+03 0.  0.
          2    1    1    2  501    0  0.92410456476E+02 -0.14561080445E+02 -0.72393081660E+02  0.11828979585E+03  0.00000000000E+00 0. -1.
          1    1    1    2  502    0 -0.30173827625E+02  0.20203286284E+02  0.20090594309E+04  0.20093875757E+04  0.00000000000E+00 0. -1.
         22    1    3    3    0    0  0.38216691266E+02 -0.24351599741E+01  0.91432993437E+02  0.99128390405E+02  0.00000000000E+00 0. -1.
         22    1    3    3    0    0 -0.10045332012E+03 -0.32070458648E+01  0.17937832102E+03  0.20561550700E+03  0.00000000000E+00 0. -1.
</event>
<event>
 7    1  0.5537228E-006  0.6396137E+02  0.7818608E-02  0.1477599E+00
          2   -1    0    0  502    0  0.00000000000E+00  0.00000000000E+00  0.78328857972E+03  0.78328857972E+03  0.00000000000E+00 0. -1.
          1   -1    0    0  501    0 -0.00000000000E+00 -0.00000000000E+00 -0.23522997619E+03  0.23522997619E+03  0.00000000000E+00 0. -1.
         25    2    1    2    0    0 -0.51621974532E+02 -0.35225445631E+02  0.80869293061E+02  0.16146503631E+03  0.12500182045E+03 0.  0.
          2    1    1    2  501    0  0.63971520021E+02  0.68616219022E+01 -0.18924907468E+03  0.19988659159E+03  0.00000000000E+00 0. -1.
          1    1    1    2  502    0 -0.12349545488E+02  0.28363823729E+02  0.65643838516E+03  0.65716692801E+03  0.00000000000E+00 0. -1.
         22    1    3    3    0    0  0.33385691858E+02 -0.42770700973E+02  0.27759004832E+02  0.60946695004E+02  0.00000000000E+00 0.  1.
         22    1    3    3    0    0 -0.85007666390E+02  0.75452553427E+01  0.53110288229E+02  0.10051834131E+03  0.00000000000E+00 0.  1.
</event>
<event>
 7    1  0.5537228E-006  0.6186988E+02  0.7818608E-02  0.1417440E+00
          2   -1    0    0  502    0  0.00000000000E+00  0.00000000000E+00  0.11850001736E+04  0.11850001736E+04  0.00000000000E+00 0. -1.
          1   -1    0    0  501    0 -0.00000000000E+00 -0.00000000000E+00 -0.22740100310E+04  0.22740100310E+04  0.00000000000E+00 0. -1.
         25    2    1    2    0    0  0.14810345410E+02  0.36870913134E+02  0.32603443820E+03  0.35142715162E+03  0.12499510966E+03 0.  0.
          2    1    1    2  501    0 -0.45269612441E+02  0.21004070454E+02 -0.22597742006E+04  0.22603251860E+04  0.00000000000E+00 0. -1.
          1    1    1    2  502    0  0.30459267031E+02 -0.57874983588E+02  0.84472990500E+03  0.84725786693E+03  0.00000000000E+00 0. -1.
         22    1    3    3    0    0  0.54047447733E+02 -0.22903191688E+02  0.12613550884E+03  0.13912530103E+03  0.00000000000E+00 0.  1.
         22    1    3    3    0    0 -0.39237102323E+02  0.59774104822E+02  0.19989892936E+03  0.21230185059E+03  0.00000000000E+00 0.  1.
</event>
<event>
 7    1  0.5537228E-006  0.4248438E+02  0.7818608E-02  0.1520186E+00
          2   -1    0    0  502    0  0.00000000000E+00  0.00000000000E+00  0.21041751976E+03  0.21041751976E+03  0.00000000000E+00 0. -1.
          1   -1    0    0  501    0 -0.00000000000E+00 -0.00000000000E+00 -0.95631636932E+03  0.95631636932E+03  0.00000000000E+00 0. -1.
         25    2    1    2    0    0 -0.33306284642E+02 -0.24903359134E+02 -0.43006426266E+03  0.44978849645E+03  0.12499974251E+03 0.  0.
          2    1    1    2  501    0  0.29994431801E+02 -0.17529220696E+02 -0.51353837817E+03  0.51471215778E+03  0.00000000000E+00 0. -1.
          1    1    1    2  502    0  0.33118528410E+01  0.42432579829E+02  0.19770379126E+03  0.20223323486E+03  0.00000000000E+00 0. -1.
         22    1    3    3    0    0  0.34411838335E+02 -0.48956633395E+02 -0.20036789299E+03  0.20911293388E+03  0.00000000000E+00 0. -1.
         22    1    3    3    0    0 -0.67718122977E+02  0.24053274261E+02 -0.22969636967E+03  0.24067556257E+03  0.00000000000E+00 0. -1.
</event>
<event>
 7    1  0.5537228E-006  0.8581587E+02  0.7818608E-02  0.1417169E+00
          2   -1    0    0  502    0  0.00000000000E+00  0.00000000000E+00  0.56903780550E+03  0.56903780550E+03  0.00000000000E+00 0. -1.
          1   -1    0    0  501    0 -0.00000000000E+00 -0.00000000000E+00 -0.16949533515E+04  0.16949533515E+04  0.00000000000E+00 0. -1.
         25    2    1    2    0    0 -0.11218660495E+03  0.35865829716E+02 -0.11964164828E+04  0.12086829760E+04  0.12501977478E+03 0.  0.
          2    1    1    2  501    0  0.27350956470E+02 -0.23491971511E+02 -0.48847094604E+03  0.48979976793E+03  0.00000000000E+00 0. -1.
          1    1    1    2  502    0  0.84835648477E+02 -0.12373858205E+02  0.55897188276E+03  0.56550841314E+03  0.00000000000E+00 0. -1.
         22    1    3    3    0    0 -0.94470531292E+02  0.38120327424E+02 -0.11801119280E+04  0.11845007401E+04  0.00000000000E+00 0. -1.
         22    1    3    3    0    0 -0.17716073656E+02 -0.22544977082E+01 -0.16304554728E+02  0.24182235847E+02  0.00000000000E+00 0. -1.
</event>
<event>
 7    1  0.5537228E-006  0.5066080E+02  0.7818608E-02  0.1470322E+00
          2   -1    0    0  502    0  0.00000000000E+00  0.00000000000E+00  0.12820103735E+04  0.12820103735E+04  0.00000000000E+00 0. -1.
          1   -1    0    0  501    0 -0.00000000000E+00 -0.00000000000E+00 -0.52922632098E+02  0.52922632098E+02  0.00000000000E+00 0. -1.
         25    2    1    2    0    0 -0.15717978569E+02  0.15229222748E+02  0.17466252613E+03  0.21589506417E+03  0.12499878650E+03 0.  0.
          2    1    1    2  501    0  0.38952072000E+01 -0.54629048061E+02 -0.84076477167E+01  0.55409331987E+02  0.00000000000E+00 0. -1.
          1    1    1    2  502    0  0.11822771369E+02  0.39399825312E+02  0.10628328630E+04  0.10636286095E+04  0.00000000000E+00 0. -1.
         22    1    3    3    0    0 -0.14741469838E+02 -0.50733618202E+02  0.11660756866E+03  0.12801771760E+03  0.00000000000E+00 0.  1.
         22    1    3    3    0    0 -0.97650873081E+00  0.65962840951E+02  0.58054957461E+02  0.87877346577E+02  0.00000000000E+00 0.  1.
</event>
<event>
 7    1  0.5537228E-006  0.9011139E+02  0.7818608E-02  0.1408933E+00
          2   -1    0    0  502    0  0.00000000000E+00  0.00000000000E+00  0.70436344295E+02  0.70436344295E+02  0.00000000000E+00 0. -1.
          1   -1    0    0  501    0 -0.00000000000E+00 -0.00000000000E+00 -0.97075554161E+03  0.97075554161E+03  0.00000000000E+00 0. -1.
         25    2    1    2    0    0 -0.24821585038E+02 -0.92428678495E+02 -0.12346972157E+03  0.20007127553E+03  0.12499828581E+03 0.  0.
          2    1    1    2  501    0 -0.11660380907E+02  0.89434629820E+02 -0.79511352793E+03  0.80021249665E+03  0.00000000000E+00 0. -1.
          1    1    1    2  502    0  0.36481965945E+02  0.29940486752E+01  0.18264052184E+02  0.40908113730E+02  0.00000000000E+00 0. -1.
         22    1    3    3    0    0  0.15976931969E+02 -0.10422385120E+02  0.21404269971E+02  0.28671087174E+02  0.00000000000E+00 0.  1.
         22    1    3    3    0    0 -0.40798517007E+02 -0.82006293375E+02 -0.14487399154E+03  0.17140018835E+03  0.00000000000E+00 0.  1.
</event>
<event>
 7    1  0.5537228E-006  0.2144743E+03  0.7818608E-02  0.1269823E+00
          2   -1    0    0  502    0  0.00000000000E+00  0.00000000000E+00  0.50131866114E+03  0.50131866114E+03  0.00000000000E+00 0. -1.
          1   -1    0    0  501    0 -0.00000000000E+00 -0.00000000000E+00 -0.77723955191E+03  0.77723955191E+03  0.00000000000E+00 0. -1.
         25    2    1    2    0    0 -0.12481728206E+03  0.12610952654E+03 -0.19667925508E+03  0.29289985947E+03  0.12499852684E+03 0.  0.
          2    1    1    2  501    0 -0.28198962605E+01  0.51475107369E+02 -0.50467748529E+03  0.50730365922E+03  0.00000000000E+00 0. -1.
          1    1    1    2  502    0  0.12763717832E+03 -0.17758463391E+03  0.42543584961E+03  0.47835469437E+03  0.00000000000E+00 0. -1.
         22    1    3    3    0    0 -0.83817694130E+02  0.14655555442E+03 -0.17134293516E+03  0.24054591622E+03  0.00000000000E+00 0.  1.
         22    1    3    3    0    0 -0.40999587930E+02 -0.20446027880E+02 -0.25336319923E+02  0.52353943249E+02  0.00000000000E+00 0.  1.
</event>
<event>
 7    1  0.5537228E-006  0.9030631E+02  0.7818608E-02  0.1439050E+00
          2   -1    0    0  502    0  0.00000000000E+00  0.00000000000E+00  0.50594844718E+03  0.50594844718E+03  0.00000000000E+00 0. -1.
          1   -1    0    0  501    0 -0.00000000000E+00 -0.00000000000E+00 -0.12435547158E+03  0.12435547158E+03  0.00000000000E+00 0. -1.
         25    2    1    2    0    0 -0.41719178603E+02 -0.10298923630E+03  0.67387725063E+02  0.18031435711E+03  0.12499955694E+03 0.  0.
          2    1    1    2  501    0  0.24057295861E+02  0.16215530812E+02 -0.59360874925E+02  0.66071252414E+02  0.00000000000E+00 0. -1.
          1    1    1    2  502    0  0.17661882741E+02  0.86773705484E+02  0.37356612546E+03  0.38391830923E+03  0.00000000000E+00 0. -1.
         22    1    3    3    0    0 -0.23468374767E+01 -0.28174632342E+02 -0.36630781245E+02  0.46272364197E+02  0.00000000000E+00 0. -1.
         22    1    3    3    0    0 -0.39372341126E+02 -0.74814603954E+02  0.10401850631E+03  0.13404199292E+03  0.00000000000E+00 0. -1.
</event>
<event>
 7    1  0.5537228E-006  0.5187244E+03  0.7818608E-02  0.1256392E+00
          2   -1    0    0  502    0  0.00000000000E+00  0.00000000000E+00  0.57584738189E+03  0.57584738189E+03  0.00000000000E+00 0. -1.
          1   -1    0    0  501    0 -0.00000000000E+00 -0.00000000000E+00 -0.23056865587E+04  0.23056865587E+04  0.00000000000E+00 0. -1.
         25    2    1    2    0    0  0.44299149835E+03  0.27461220961E+03 -0.23794803272E+03  0.58642714779E+03  0.12499680039E+03 0.  0.
          2    1    1    2  501    0 -0.15939460134E+02  0.18350722315E+02 -0.17264234771E+04  0.17265945782E+04  0.00000000000E+00 0. -1.
          1    1    1    2  502    0 -0.42705203822E+03 -0.29296293192E+03  0.23453233303E+03  0.56851221453E+03  0.00000000000E+00 0. -1.
         22    1    3    3    0    0  0.44599344548E+02  0.81922042925E+02 -0.46946263123E+02  0.10442353314E+03  0.00000000000E+00 0. -1.
         22    1    3    3    0    0  0.39839215380E+03  0.19269016668E+03 -0.19100176960E+03  0.48200361465E+03  0.00000000000E+00 0. -1.
</event>
<event>
 7    1  0.5537228E-006  0.5884850E+02  0.7818608E-02  0.1493734E+00
          2   -1    0    0  502    0  0.00000000000E+00  0.00000000000E+00  0.32235852069E+02  0.32235852069E+02  0.00000000000E+00 0. -1.
          1   -1    0    0  501    0 -0.00000000000E+00 -0.00000000000E+00 -0.48251599710E+03  0.48251599710E+03  0.00000000000E+00 0. -1.
         25    2    1    2    0    0 -0.26668303093E+02  0.23973524019E+02 -0.23144047322E+03  0.26547316704E+03  0.12500152610E+03 0.  0.
          2    1    1    2  501    0  0.46321457044E+02 -0.46676960740E+02 -0.20666694159E+03  0.21687701766E+03  0.00000000000E+00 0. -1.
          1    1    1    2  502    0 -0.19653153951E+02  0.22703436721E+02 -0.12172730227E+02  0.32401664469E+02  0.00000000000E+00 0. -1.
         22    1    3    3    0    0  0.13498828029E+02  0.24912360356E+02  0.21844322723E+01  0.28418581967E+02  0.00000000000E+00 0.  1.
         22    1    3    3    0    0 -0.40167131121E+02 -0.93883633754E+00 -0.23362490549E+03  0.23705458507E+03  0.00000000000E+00 0.  1.
</event>
<event>
 7    1  0.5537228E-006  0.1311272E+03  0.7818608E-02  0.1239001E+00
          2   -1    0    0  502    0  0.00000000000E+00  0.00000000000E+00  0.92987805077E+03  0.92987805077E+03  0.00000000000E+00 0. -1.
          1   -1    0    0  501    0 -0.00000000000E+00 -0.00000000000E+00 -0.12991058239E+04  0.12991058239E+04  0.00000000000E+00 0. -1.
         25    2    1    2    0    0  0.16201178529E+03 -0.76202248440E+02 -0.24607834964E+03  0.32898980197E+03  0.12500053760E+03 0.  0.
          2    1    1    2  501    0 -0.12587414783E+03 -0.32417212704E+02 -0.10036759773E+04  0.10120576289E+04  0.00000000000E+00 0. -1.
          1    1    1    2  502    0 -0.36137637462E+02  0.10861946114E+03  0.88052655384E+03  0.88793644379E+03  0.00000000000E+00 0. -1.
         22    1    3    3    0    0  0.96569190030E+02 -0.53224419790E+02 -0.23387489179E+03  0.25856510270E+03  0.00000000000E+00 0. -1.
         22    1    3    3    0    0  0.65442595264E+02 -0.22977828651E+02 -0.12203457848E+02  0.70424699274E+02  0.00000000000E+00 0. -1.
</event>
<event>
 7    1  0.5537228E-006  0.5838284E+02  0.7818608E-02  0.1466820E+00
          2   -1    0    0  502    0  0.00000000000E+00  0.00000000000E+00  0.31651307416E+04  0.31651307416E+04  0.00000000000E+00 0. -1.
          1   -1    0    0  501    0 -0.00000000000E+00 -0.00000000000E+00 -0.38212355420E+02  0.38212355420E+02  0.00000000000E+00 0. -1.
         25    2    1    2    0    0  0.10828632855E+02 -0.57585764994E+02  0.16114227700E+04  0.16173255875E+04  0.12500133035E+03 0.  0.
          2    1    1    2  501    0 -0.42866180041E+02  0.39883155643E+02 -0.10583526181E+02  0.59499466567E+02  0.00000000000E+00 0. -1.
          1    1    1    2  502    0  0.32037547186E+02  0.17702609352E+02  0.15260791423E+04  0.15265180429E+04  0.00000000000E+00 0. -1.
         22    1    3    3    0    0  0.14079997321E+02 -0.18771878692E+01  0.18017311846E+02  0.22943271018E+02  0.00000000000E+00 0. -1.
         22    1    3    3    0    0 -0.32513644662E+01 -0.55708577125E+02  0.15934054582E+04  0.15943823165E+04  0.00000000000E+00 0. -1.
</event>
<event>
 7    1  0.5537228E-006  0.2304165E+03  0.7818608E-02  0.1324168E+00
          2   -1    0    0  502    0  0.00000000000E+00  0.00000000000E+00  0.17669634422E+04  0.17669634422E+04  0.00000000000E+00 0. -1.
          1   -1    0    0  501    0 -0.00000000000E+00 -0.00000000000E+00 -0.87355738185E+03  0.87355738185E+03  0.00000000000E+00 0. -1.
         25    2    1    2    0    0 -0.20484868395E+03  0.14311148457E+03  0.26473425644E+03  0.38490623589E+03  0.12499881426E+03 0.  0.
          2    1    1    2  501    0  0.19873429803E+03 -0.11476182285E+03 -0.79713554845E+03  0.82951231444E+03  0.00000000000E+00 0. -1.
          1    1    1    2  502    0  0.61143859230E+01 -0.28349661724E+02  0.14258073524E+04  0.14261022737E+04  0.00000000000E+00 0. -1.
         22    1    3    3    0    0 -0.17869033013E+03  0.61393402548E+02  0.14787641849E+03  0.23993086318E+03  0.00000000000E+00 0.  1.
         22    1    3    3    0    0 -0.26158353815E+02  0.81718082021E+02  0.11685783795E+03  0.14497537271E+03  0.00000000000E+00 0.  1.
</event>
<event>
 7    1  0.5537228E-006  0.6240226E+02  0.7818608E-02  0.1464408E+00
          2   -1    0    0  502    0  0.00000000000E+00  0.00000000000E+00  0.10028563996E+04  0.10028563996E+04  0.00000000000E+00 0. -1.
          1   -1    0    0  501    0 -0.00000000000E+00 -0.00000000000E+00 -0.46092663418E+03  0.46092663418E+03  0.00000000000E+00 0. -1.
         25    2    1    2    0    0  0.38920333780E+02  0.35158926636E+02 -0.86135208615E+02  0.16061154376E+03  0.12500340525E+03 0.  0.
          2    1    1    2  501    0 -0.16371027884E+02 -0.61725246180E+02 -0.33421480129E+03  0.34026100272E+03  0.00000000000E+00 0. -1.
          1    1    1    2  502    0 -0.22549305896E+02  0.26566319545E+02  0.96227977535E+03  0.96291048732E+03  0.00000000000E+00 0. -1.
         22    1    3    3    0    0 -0.34486614671E+02  0.44065877072E+02 -0.60349123489E+02  0.82299117975E+02  0.00000000000E+00 0. -1.
         22    1    3    3    0    0  0.73406948451E+02 -0.89069504359E+01 -0.25786085125E+02  0.78312425790E+02  0.00000000000E+00 0. -1.
</event>
<event>
 7    1  0.5537228E-006  0.7541514E+02  0.7818608E-02  0.1367241E+00
          2   -1    0    0  502    0  0.00000000000E+00  0.00000000000E+00  0.18591235418E+03  0.18591235418E+03  0.00000000000E+00 0. -1.
          1   -1    0    0  501    0 -0.00000000000E+00 -0.00000000000E+00 -0.58380950449E+03  0.58380950449E+03  0.00000000000E+00 0. -1.
         25    2    1    2    0    0 -0.38680511483E+02 -0.68730963987E+02 -0.30742055048E+03  0.34110466017E+03  0.12499946783E+03 0.  0.
          2    1    1    2  501    0 -0.21861918023E+02  0.77720224231E+02 -0.24736775019E+03  0.26020987789E+03  0.00000000000E+00 0. -1.
          1    1    1    2  502    0  0.60542429507E+02 -0.89892602441E+01  0.15689115037E+03  0.16840732061E+03  0.00000000000E+00 0. -1.
         22    1    3    3    0    0 -0.43505531490E+01 -0.11344415259E+01 -0.23881442720E+03  0.23885674558E+03  0.00000000000E+00 0. -1.
         22    1    3    3    0    0 -0.34329958334E+02 -0.67596522461E+02 -0.68606123280E+02  0.10224791460E+03  0.00000000000E+00 0. -1.
</event>
<event>
 7    1  0.5537228E-006  0.5795806E+02  0.7818608E-02  0.1459606E+00
          2   -1    0    0  502    0  0.00000000000E+00  0.00000000000E+00  0.40075784331E+03  0.40075784331E+03  0.00000000000E+00 0. -1.
          1   -1    0    0  501    0 -0.00000000000E+00 -0.00000000000E+00 -0.84028037947E+03  0.84028037947E+03  0.00000000000E+00 0. -1.
         25    2    1    2    0    0 -0.23744377806E+02 -0.23185020994E+02 -0.10762318310E+03  0.16825353893E+03  0.12500065258E+03 0.  0.
          2    1    1    2  501    0  0.17011348688E+02 -0.34922979639E+02 -0.69949043411E+03  0.70056824643E+03  0.00000000000E+00 0. -1.
          1    1    1    2  502    0  0.67330291182E+01  0.58108000633E+02  0.36759108105E+03  0.37221643743E+03  0.00000000000E+00 0. -1.
         22    1    3    3    0    0 -0.42827131410E+02  0.33556073397E+02 -0.12442397280E+02  0.55812064078E+02  0.00000000000E+00 0. -1.
         22    1    3    3    0    0  0.19082753603E+02 -0.56741094391E+02 -0.95180785823E+02  0.11244147486E+03  0.00000000000E+00 0. -1.
</event>
<event>
 7    1  0.5537228E-006  0.5636782E+02  0.7818608E-02  0.1481746E+00
          2   -1    0    0  502    0  0.00000000000E+00  0.00000000000E+00  0.44373876134E+04  0.44373876134E+04  0.00000000000E+00 0. -1.
          1   -1    0    0  501    0 -0.00000000000E+00 -0.00000000000E+00 -0.20837717165E+03  0.20837717165E+03  0.00000000000E+00 0. -1.
         25    2    1    2    0    0 -0.84738751241E+02 -0.14629073398E+02  0.68302506717E+03  0.69967336982E+03  0.12499966519E+03 0.  0.
          2    1    1    2  501    0  0.33384323234E+02 -0.68970215231E+01 -0.19839228968E+03  0.20129973310E+03  0.00000000000E+00 0. -1.
          1    1    1    2  502    0  0.51354428007E+02  0.21526094921E+02  0.37443776643E+04  0.37447916821E+04  0.00000000000E+00 0. -1.
         22    1    3    3    0    0 -0.10533021690E+03 -0.43516574771E+02  0.56725144670E+03  0.57858651095E+03  0.00000000000E+00 0. -1.
         22    1    3    3    0    0  0.20591465654E+02  0.28887501373E+02  0.11577362047E+03  0.12108685887E+03  0.00000000000E+00 0. -1.
</event>
<event>
 7    1  0.5537228E-006  0.8800211E+02  0.7818608E-02  0.1481558E+00
          2   -1    0    0  502    0  0.00000000000E+00  0.00000000000E+00  0.18589098769E+04  0.18589098769E+04  0.00000000000E+00 0. -1.
          1   -1    0    0  501    0 -0.00000000000E+00 -0.00000000000E+00 -0.34818287630E+02  0.34818287630E+02  0.00000000000E+00 0. -1.
         25    2    1    2    0    0 -0.75635011788E+02 -0.45822246015E+02  0.62650923252E+03  0.64494881742E+03  0.12499930166E+03 0.  0.
          2    1    1    2  501    0  0.13636122009E+02 -0.17090794060E+02 -0.19017264186E+02  0.28977498204E+02  0.00000000000E+00 0. -1.
          1    1    1    2  502    0  0.61998889779E+02  0.62913040075E+02  0.12165996210E+04  0.12198018489E+04  0.00000000000E+00 0. -1.
         22    1    3    3    0    0  0.51064426178E+01  0.36241441503E+02  0.11679354857E+03  0.12239383492E+03  0.00000000000E+00 0.  1.
         22    1    3    3    0    0 -0.80741454406E+02 -0.82063687518E+02  0.50971568395E+03  0.52255498250E+03  0.00000000000E+00 0.  1.
</event>
<event>
 7    1  0.5537228E-006  0.6846876E+02  0.7818608E-02  0.1494861E+00
          2   -1    0    0  502    0  0.00000000000E+00  0.00000000000E+00  0.11780990132E+04  0.11780990132E+04  0.00000000000E+00 0. -1.
          1   -1    0    0  501    0 -0.00000000000E+00 -0.00000000000E+00 -0.16862922368E+02  0.16862922368E+02  0.00000000000E+00 0. -1.
         25    2    1    2    0    0 -0.27604977689E+02 -0.49826903590E+02  0.35085038773E+03  0.37678369074E+03  0.12500079970E+03 0.  0.
          2    1    1    2  501    0  0.16445929928E+02 -0.19629664318E+02  0.71431954678E+02  0.75883571882E+02  0.00000000000E+00 0. -1.
          1    1    1    2  502    0  0.11159047761E+02  0.69456567908E+02  0.73895374845E+03  0.74229467297E+03  0.00000000000E+00 0. -1.
         22    1    3    3    0    0 -0.50019223056E+02 -0.81458583999E+02  0.28210826052E+03  0.29786321396E+03  0.00000000000E+00 0. -1.
         22    1    3    3    0    0  0.22414245367E+02  0.31631680409E+02  0.68742127217E+02  0.78920476780E+02  0.00000000000E+00 0. -1.
</event>
<event>
 7    1  0.5537228E-006  0.5970505E+02  0.7818608E-02  0.1401716E+00
          2   -1    0    0  502    0  0.00000000000E+00  0.00000000000E+00  0.20535931945E+04  0.20535931945E+04  0.00000000000E+00 0. -1.
          1   -1    0    0  501    0 -0.00000000000E+00 -0.00000000000E+00 -0.93156109749E+03  0.93156109749E+03  0.00000000000E+00 0. -1.
         25    2    1    2    0    0 -0.61743788434E+01  0.59092309439E+01  0.87481974498E+02  0.15281419302E+03  0.12500415898E+03 0.  0.
          2    1    1    2  501    0 -0.47111899892E+02 -0.34629172135E+02 -0.89746964441E+03  0.89937226626E+03  0.00000000000E+00 0. -1.
          1    1    1    2  502    0  0.53286278735E+02  0.28719941192E+02  0.19320197669E+04  0.19329678327E+04  0.00000000000E+00 0. -1.
         22    1    3    3    0    0 -0.61460147967E+02 -0.15327276524E+02  0.60999586013E+02  0.87938755322E+02  0.00000000000E+00 0. -1.
         22    1    3    3    0    0  0.55285769124E+02  0.21236507468E+02  0.26482388485E+02  0.64875437701E+02  0.00000000000E+00 0. -1.
</event>
<event>
 7    1  0.5537228E-006  0.1990441E+03  0.7818608E-02  0.1232189E+00
          2   -1    0    0  502    0  0.00000000000E+00  0.00000000000E+00  0.78197657301E+03  0.78197657301E+03  0.00000000000E+00 0. -1.
          1   -1    0    0  501    0 -0.00000000000E+00 -0.00000000000E+00 -0.18480457685E+03  0.18480457685E+03  0.00000000000E+00 0. -1.
         25    2    1    2    0    0 -0.13309272227E+03 -0.52910028547E+02  0.48772891773E+03  0.52346585311E+03  0.12499543325E+03 0.  0.
          2    1    1    2  501    0  0.16289610889E+03  0.12807171855E+03 -0.91649052287E+02  0.22657682178E+03  0.00000000000E+00 0. -1.
          1    1    1    2  502    0 -0.29803386622E+02 -0.75161690001E+02  0.20109213071E+03  0.21673847497E+03  0.00000000000E+00 0. -1.
         22    1    3    3    0    0 -0.15624725981E+03 -0.34204338376E+02  0.42264072207E+03  0.45189415012E+03  0.00000000000E+00 0.  1.
         22    1    3    3    0    0  0.23154537539E+02 -0.18705690171E+02  0.65088195663E+02  0.71571702984E+02  0.00000000000E+00 0.  1.
</event>
<event>
 7    1  0.5537228E-006  0.1967806E+03  0.7818608E-02  0.1257201E+00
          2   -1    0    0  502    0  0.00000000000E+00  0.00000000000E+00  0.41894639878E+03  0.41894639878E+03  0.00000000000E+00 0. -1.
          1   -1    0    0  501    0 -0.00000000000E+00 -0.00000000000E+00 -0.12346660837E+04  0.12346660837E+04  0.00000000000E+00 0. -1.
         25    2    1    2    0    0  0.11602938390E+03 -0.21405606752E+03 -0.30357913908E+02  0.27537023005E+03  0.12499737075E+03 0.  0.
          2    1    1    2  501    0 -0.34038898176E+01  0.63472134484E+02 -0.10509243164E+04  0.10528448210E+04  0.00000000000E+00 0. -1.
          1    1    1    2  502    0 -0.11262549408E+03  0.15058393303E+03  0.26556254544E+03  0.32539743137E+03  0.00000000000E+00 0. -1.
         22    1    3    3    0    0  0.57177935437E+02 -0.19094141064E+03 -0.56161211528E+02  0.20707974377E+03  0.00000000000E+00 0.  1.
         22    1    3    3    0    0  0.58851448466E+02 -0.23114656871E+02  0.25803297621E+02  0.68290486284E+02  0.00000000000E+00 0.  1.
</event>
<event>
 7    1  0.5537228E-006  0.4940376E+02  0.7818608E-02  0.1518063E+00
          2   -1    0    0  502    0  0.00000000000E+00  0.00000000000E+00  0.21018778303E+04  0.21018778303E+04  0.00000000000E+00 0. -1.
          1   -1    0    0  501    0 -0.00000000000E+00 -0.00000000000E+00 -0.20563178632E+02  0.20563178632E+02  0.00000000000E+00 0. -1.
         25    2    1    2    0    0  0.11069017311E+02 -0.24668311113E+02  0.43504445995E+03  0.45345328324E+03  0.12500059692E+03 0.  0.
          2    1    1    2  501    0 -0.16270669411E+02 -0.25564348307E+02  0.99591674296E+01  0.31897579897E+02  0.00000000000E+00 0. -1.
          1    1    1    2  502    0  0.52016520997E+01  0.50232659420E+02  0.16363110243E+04  0.16370901458E+04  0.00000000000E+00 0. -1.
         22    1    3    3    0    0 -0.39004459012E+02 -0.56304003929E+02  0.22170338024E+03  0.23204283546E+03  0.00000000000E+00 0.  1.
         22    1    3    3    0    0  0.50073476323E+02  0.31635692816E+02  0.21334107972E+03  0.22141044778E+03  0.00000000000E+00 0.  1.
</event>
<event>
 7    1  0.5537228E-006  0.3475164E+02  0.7818608E-02  0.1557503E+00
          2   -1    0    0  502    0  0.00000000000E+00  0.00000000000E+00  0.14877556871E+04  0.14877556871E+04  0.00000000000E+00 0. -1.
          1   -1    0    0  501    0 -0.00000000000E+00 -0.00000000000E+00 -0.16227649325E+04  0.16227649325E+04  0.00000000000E+00 0. -1.
         25    2    1    2    0    0 -0.39598117057E+02  0.17818221980E+02  0.13694217641E+04  0.13758002843E+04  0.12499981770E+03 0.  0.
          2    1    1    2  501    0  0.29818060982E+02  0.14821965927E+02 -0.16168796793E+04  0.16172225279E+04  0.00000000000E+00 0. -1.
          1    1    1    2  502    0  0.97800560754E+01 -0.32640187907E+02  0.11244866989E+03  0.11749780731E+03  0.00000000000E+00 0. -1.
         22    1    3    3    0    0 -0.12986150341E+02  0.43086905369E+02  0.12513084705E+04  0.12521174106E+04  0.00000000000E+00 0. -1.
         22    1    3    3    0    0 -0.26611966716E+02 -0.25268683389E+02  0.11811329363E+03  0.12368287378E+03  0.00000000000E+00 0. -1.
</event>
<event>
 7    1  0.5537228E-006  0.5824778E+02  0.7818608E-02  0.1449596E+00
          2   -1    0    0  502    0  0.00000000000E+00  0.00000000000E+00  0.13097458681E+04  0.13097458681E+04  0.00000000000E+00 0. -1.
          1   -1    0    0  501    0 -0.00000000000E+00 -0.00000000000E+00 -0.54767948116E+02  0.54767948116E+02  0.00000000000E+00 0. -1.
         25    2    1    2    0    0  0.30617401642E+02 -0.37329448191E+02  0.23101406676E+03  0.26706362533E+03  0.12499827177E+03 0.  0.
          2    1    1    2  501    0  0.40174305489E+01  0.60356370225E+02 -0.11143338684E+02  0.61507765135E+02  0.00000000000E+00 0. -1.
          1    1    1    2  502    0 -0.34634832191E+02 -0.23026922033E+02  0.10351071919E+04  0.10359424258E+04  0.00000000000E+00 0. -1.
         22    1    3    3    0    0 -0.10971548960E+02  0.20587837978E+02 -0.19711005500E+01  0.23411945595E+02  0.00000000000E+00 0.  1.
         22    1    3    3    0    0  0.41588950602E+02 -0.57917286169E+02  0.23298516731E+03  0.24365167973E+03  0.00000000000E+00 0.  1.
</event>
<event>
 7    1  0.5537228E-006  0.3920689E+02  0.7818608E-02  0.1515200E+00
          2   -1    0    0  502    0  0.00000000000E+00  0.00000000000E+00  0.14260068005E+03  0.14260068005E+03  0.00000000000E+00 0. -1.
          1   -1    0    0  501    0 -0.00000000000E+00 -0.00000000000E+00 -0.34812631896E+03  0.34812631896E+03  0.00000000000E+00 0. -1.
         25    2    1    2    0    0  0.10989521779E+01 -0.27647208722E+02 -0.11279408943E+03  0.17062519318E+03  0.12499949637E+03 0.  0.
          2    1    1    2  501    0 -0.38106814547E+02  0.15580248627E+02 -0.20093531605E+03  0.20510942129E+03  0.00000000000E+00 0. -1.
          1    1    1    2  502    0  0.37007862369E+02  0.12066960095E+02  0.10820376657E+03  0.11499238454E+03  0.00000000000E+00 0. -1.
         22    1    3    3    0    0 -0.20405658176E+02  0.43085813276E+02 -0.71524289475E+02  0.85956396948E+02  0.00000000000E+00 0.  1.
         22    1    3    3    0    0  0.21504610354E+02 -0.70733021998E+02 -0.41269799954E+02  0.84668796234E+02  0.00000000000E+00 0.  1.
</event>
<event>
 7    1  0.5537228E-006  0.1429319E+03  0.7818608E-02  0.1220465E+00
          2   -1    0    0  502    0  0.00000000000E+00  0.00000000000E+00  0.12971475729E+03  0.12971475729E+03  0.00000000000E+00 0. -1.
          1   -1    0    0  501    0 -0.00000000000E+00 -0.00000000000E+00 -0.19301298842E+04  0.19301298842E+04  0.00000000000E+00 0. -1.
         25    2    1    2    0    0 -0.64113686479E+02  0.17579007879E+03 -0.24879125411E+03  0.33546485035E+03  0.12500744418E+03 0.  0.
          2    1    1    2  501    0  0.12723969190E+03 -0.65381563078E+02 -0.15861563097E+04  0.15925942757E+04  0.00000000000E+00 0. -1.
          1    1    1    2  502    0 -0.63126005417E+02 -0.11040851572E+03  0.34532436884E+02  0.13178551552E+03  0.00000000000E+00 0. -1.
         22    1    3    3    0    0  0.16164285632E+01  0.52910295383E+02 -0.31266127536E+01  0.53027237398E+02  0.00000000000E+00 0.  1.
         22    1    3    3    0    0 -0.65730115042E+02  0.12287978341E+03 -0.24566464136E+03  0.28243761295E+03  0.00000000000E+00 0.  1.
</event>
<event>
 7    1  0.6407374E-006  0.9143245E+02  0.7818608E-02  0.1385006E+00
          2   -1    0    0  502    0  0.00000000000E+00  0.00000000000E+00  0.93628625405E+03  0.93628625405E+03  0.00000000000E+00 0. -1.
          1   -1    0    0  501    0 -0.00000000000E+00 -0.00000000000E+00 -0.21852335930E+04  0.21852335930E+04  0.00000000000E+00 0. -1.
         25    2    1    2    0    0  0.60097185825E+02  0.71694161890E+01 -0.26004497050E+03  0.29480625250E+03  0.12499707018E+03 0.  0.
          2    1    1    2  501    0 -0.82433470643E+02 -0.44657988627E+02 -0.19061371333E+04  0.19084413493E+04  0.00000000000E+00 0. -1.
          1    1    1    2  502    0  0.22336284817E+02  0.37488572438E+02  0.91723476478E+03  0.91827224525E+03  0.00000000000E+00 0. -1.
         22    1    3    3    0    0  0.39308534692E+00  0.12512385144E+02 -0.22504626066E+03  0.22539417414E+03  0.00000000000E+00 0.  1.
         22    1    3    3    0    0  0.59704100478E+02 -0.53429689554E+01 -0.34998709840E+02  0.69412078356E+02  0.00000000000E+00 0.  1.
</event>
<event>
 7    1  0.5537228E-006  0.6054444E+02  0.7818608E-02  0.1463920E+00
          2   -1    0    0  502    0  0.00000000000E+00  0.00000000000E+00  0.24526162587E+04  0.24526162587E+04  0.00000000000E+00 0. -1.
          1   -1    0    0  501    0 -0.00000000000E+00 -0.00000000000E+00 -0.15770466973E+04  0.15770466973E+04  0.00000000000E+00 0. -1.
         25    2    1    2    0    0  0.64515612133E+02 -0.61454660406E+02  0.33105968971E+03  0.36491829990E+03  0.12500363177E+03 0.  0.
          2    1    1    2  501    0 -0.11113780757E+02  0.34285862810E+02 -0.15594827005E+04  0.15598991409E+04  0.00000000000E+00 0. -1.
          1    1    1    2  502    0 -0.53401831376E+02  0.27168797596E+02  0.21039925722E+04  0.21048455153E+04  0.00000000000E+00 0. -1.
         22    1    3    3    0    0 -0.16108074419E+02 -0.59596384848E+02  0.78931728912E+02  0.10020687091E+03  0.00000000000E+00 0. -1.
         22    1    3    3    0    0  0.80623686552E+02 -0.18582755583E+01  0.25212796080E+03  0.26471142899E+03  0.00000000000E+00 0. -1.
</event>
<event>
 7    1  0.5537228E-006  0.1052034E+03  0.7818608E-02  0.1365452E+00
          2   -1    0    0  502    0  0.00000000000E+00  0.00000000000E+00  0.15678434706E+04  0.15678434706E+04  0.00000000000E+00 0. -1.
          1   -1    0    0  501    0 -0.00000000000E+00 -0.00000000000E+00 -0.18582147452E+04  0.18582147452E+04  0.00000000000E+00 0. -1.
         25    2    1    2    0    0 -0.11116111793E+03 -0.40675649465E+02 -0.64833339295E+02  0.18395686614E+03  0.12500185646E+03 0.  0.
          2    1    1    2  501    0  0.60833245369E+01  0.44116498433E+02 -0.17317009416E+04  0.17322734840E+04  0.00000000000E+00 0. -1.
          1    1    1    2  502    0  0.10507779339E+03 -0.34408489683E+01  0.15061630063E+04  0.15098278656E+04  0.00000000000E+00 0. -1.
         22    1    3    3    0    0 -0.62898028598E+01  0.23138280449E+02 -0.55954191332E+02  0.60875390510E+02  0.00000000000E+00 0. -1.
         22    1    3    3    0    0 -0.10487131507E+03 -0.63813929914E+02 -0.88791479628E+01  0.12308147563E+03  0.00000000000E+00 0. -1.
</event>
<event>
 7    1  0.5537228E-006  0.1877437E+03  0.7818608E-02  0.1232655E+00
          2   -1    0    0  502    0  0.00000000000E+00  0.00000000000E+00  0.64697839547E+03  0.64697839547E+03  0.00000000000E+00 0. -1.
          1   -1    0    0  501    0 -0.00000000000E+00 -0.00000000000E+00 -0.77684691291E+03  0.77684691291E+03  0.00000000000E+00 0. -1.
         25    2    1    2    0    0  0.15393993949E+03 -0.20082468904E+03 -0.41789661382E+03  0.50427243767E+03  0.12500020341E+03 0.  0.
          2    1    1    2  501    0 -0.79728290834E+02  0.30357055645E+02 -0.29526662276E+03  0.30734431783E+03  0.00000000000E+00 0. -1.
          1    1    1    2  502    0 -0.74211648656E+02  0.17046763340E+03  0.58329471915E+03  0.61220855288E+03  0.00000000000E+00 0. -1.
         22    1    3    3    0    0  0.13220864417E+03 -0.13813426673E+03 -0.20084709886E+03  0.27730805679E+03  0.00000000000E+00 0. -1.
         22    1    3    3    0    0  0.21731295322E+02 -0.62690422309E+02 -0.21704951496E+03  0.22696438088E+03  0.00000000000E+00 0. -1.
</event>
<event>
 7    1  0.5537228E-006  0.9863250E+02  0.7818608E-02  0.1392069E+00
          2   -1    0    0  502    0  0.00000000000E+00  0.00000000000E+00  0.52909313510E+03  0.52909313510E+03  0.00000000000E+00 0. -1.
          1   -1    0    0  501    0 -0.00000000000E+00 -0.00000000000E+00 -0.11880805517E+03  0.11880805517E+03  0.00000000000E+00 0. -1.
         25    2    1    2    0    0 -0.74687496683E+02  0.49911020247E+01  0.17257081145E+03  0.22584963270E+03  0.12499695343E+03 0.  0.
          2    1    1    2  501    0  0.99701439436E+02  0.23901511524E+02 -0.62063296057E+02  0.11984787022E+03  0.00000000000E+00 0. -1.
          1    1    1    2  502    0 -0.25013942754E+02 -0.28892613549E+02  0.29977756453E+03  0.30220368735E+03  0.00000000000E+00 0. -1.
         22    1    3    3    0    0 -0.39368446361E+02  0.15382960744E+02  0.18281286262E+03  0.18763542519E+03  0.00000000000E+00 0.  1.
         22    1    3    3    0    0 -0.35319050322E+02 -0.10391858719E+02 -0.10242051166E+02  0.38214207507E+02  0.00000000000E+00 0.  1.
</event>
<event>
 7    1  0.5537228E-006  0.4475810E+02  0.7818608E-02  0.1482205E+00
          2   -1    0    0  502    0  0.00000000000E+00  0.00000000000E+00  0.50223065320E+03  0.50223065320E+03  0.00000000000E+00 0. -1.
          1   -1    0    0  501    0 -0.00000000000E+00 -0.00000000000E+00 -0.65613774316E+03  0.65613774316E+03  0.00000000000E+00 0. -1.
         25    2    1    2    0    0 -0.17123368640E+02  0.26264025616E+01  0.28982575420E+03  0.31610783808E+03  0.12500035902E+03 0.  0.
          2    1    1    2  501    0 -0.15303683716E+02  0.39962997913E+02 -0.63867277806E+03  0.64010480499E+03  0.00000000000E+00 0. -1.
          1    1    1    2  502    0  0.32427052357E+02 -0.42589400475E+02  0.19493993391E+03  0.20215575329E+03  0.00000000000E+00 0. -1.
         22    1    3    3    0    0  0.41481661509E+02 -0.13239248949E+02  0.21684627398E+03  0.22117484598E+03  0.00000000000E+00 0. -1.
         22    1    3    3    0    0 -0.58605030149E+02  0.15865651510E+02  0.72979480214E+02  0.94932992099E+02  0.00000000000E+00 0. -1.
</event>
<event>
 7    1  0.5537228E-006  0.4678344E+02  0.7818608E-02  0.1554267E+00
          2   -1    0    0  502    0  0.00000000000E+00  0.00000000000E+00  0.72304639986E+02  0.72304639986E+02  0.00000000000E+00 0. -1.
          1   -1    0    0  501    0 -0.00000000000E+00 -0.00000000000E+00 -0.15649896535E+04  0.15649896535E+04  0.00000000000E+00 0. -1.
         25    2    1    2    0    0 -0.56789633621E+02  0.31028178130E+01 -0.60000843617E+03  0.61552509805E+03  0.12500533146E+03 0.  0.
          2    1    1    2  501    0  0.13715881418E+02 -0.21200427518E+02 -0.94857814305E+03  0.94891415681E+03  0.00000000000E+00 0. -1.
          1    1    1    2  502    0  0.43073752202E+02  0.18097609705E+02  0.55901565698E+02  0.72855038626E+02  0.00000000000E+00 0. -1.
         22    1    3    3    0    0  0.11769875152E+02 -0.37139838157E+02 -0.37240773935E+03  0.37444014457E+03  0.00000000000E+00 0.  1.
         22    1    3    3    0    0 -0.68559508772E+02  0.40242655970E+02 -0.22760069682E+03  0.24108495348E+03  0.00000000000E+00 0.  1.
</event>
<event>
 7    1  0.5537228E-006  0.4184864E+02  0.7818608E-02  0.1512152E+00
          2   -1    0    0  502    0  0.00000000000E+00  0.00000000000E+00  0.68616760199E+03  0.68616760199E+03  0.00000000000E+00 0. -1.
          1   -1    0    0  501    0 -0.00000000000E+00 -0.00000000000E+00 -0.58446781658E+02  0.58446781658E+02  0.00000000000E+00 0. -1.
         25    2    1    2    0    0  0.54545062109E+02  0.52304584228E+02  0.22726507739E+03  0.27015521752E+03  0.12499397115E+03 0.  0.
          2    1    1    2  501    0 -0.22317958882E+02 -0.33672306629E+02 -0.24915216585E+02  0.47462443466E+02  0.00000000000E+00 0. -1.
          1    1    1    2  502    0 -0.32227103228E+02 -0.18632277600E+02  0.42537095953E+03  0.42699672266E+03  0.00000000000E+00 0. -1.
         22    1    3    3    0    0 -0.15424100587E+02  0.15890822666E+02 -0.67928118643E+01  0.23163838563E+02  0.00000000000E+00 0. -1.
         22    1    3    3    0    0  0.69969162697E+02  0.36413761562E+02  0.23405788925E+03  0.24699137896E+03  0.00000000000E+00 0. -1.
</event>
<event>
 7    1  0.5537228E-006  0.6608122E+02  0.7818608E-02  0.1388172E+00
          2   -1    0    0  502    0  0.00000000000E+00  0.00000000000E+00  0.10953271085E+04  0.10953271085E+04  0.00000000000E+00 0. -1.
          1   -1    0    0  501    0 -0.00000000000E+00 -0.00000000000E+00 -0.25892578484E+02  0.25892578484E+02  0.00000000000E+00 0. -1.
         25    2    1    2    0    0  0.28850550995E+02 -0.25344526440E+01  0.24675621506E+03  0.27812309551E+03  0.12500019539E+03 0.  0.
          2    1    1    2  501    0  0.18840536090E+02  0.55758015327E+02  0.93883418743E+02  0.11080621999E+03  0.00000000000E+00 0. -1.
          1    1    1    2  502    0 -0.47691087085E+02 -0.53223562683E+02  0.72879489624E+03  0.73229037151E+03  0.00000000000E+00 0. -1.
         22    1    3    3    0    0 -0.31141327217E+02 -0.40918458615E+02  0.64788531495E+02  0.82714305471E+02  0.00000000000E+00 0.  1.
         22    1    3    3    0    0  0.59991878212E+02  0.38384005971E+02  0.18196768356E+03  0.19540879004E+03  0.00000000000E+00 0.  1.
</event>
<event>
 7    1  0.5537228E-006  0.5406201E+02  0.7818608E-02  0.1427851E+00
          2   -1    0    0  502    0  0.00000000000E+00  0.00000000000E+00  0.17503602741E+04  0.17503602741E+04  0.00000000000E+00 0. -1.
          1   -1    0    0  501    0 -0.00000000000E+00 -0.00000000000E+00 -0.78093363779E+02  0.78093363779E+02  0.00000000000E+00 0. -1.
         25    2    1    2    0    0 -0.49302482386E+02  0.13325470452E+02  0.83787301388E+03  0.84868525060E+03  0.12500865676E+03 0.  0.
          2    1    1    2  501    0  0.14064233070E+02 -0.52557212328E+02 -0.61621446799E+02  0.82202590745E+02  0.00000000000E+00 0. -1.
          1    1    1    2  502    0  0.35238249316E+02  0.39231741876E+02  0.89601534326E+03  0.89756579656E+03  0.00000000000E+00 0. -1.
         22    1    3    3    0    0  0.37868162216E+02  0.43618839123E+01  0.41980042608E+03  0.42152748603E+03  0.00000000000E+00 0.  1.
         22    1    3    3    0    0 -0.87170644602E+02  0.89635865397E+01  0.41807258780E+03  0.42715776457E+03  0.00000000000E+00 0.  1.
</event>
<event>
 7    1  0.5537228E-006  0.1566295E+03  0.7818608E-02  0.1282494E+00
          2   -1    0    0  502    0  0.00000000000E+00  0.00000000000E+00  0.28830130701E+04  0.28830130701E+04  0.00000000000E+00 0. -1.
          1   -1    0    0  501    0 -0.00000000000E+00 -0.00000000000E+00 -0.20822976924E+03  0.20822976924E+03  0.00000000000E+00 0. -1.
         25    2    1    2    0    0 -0.14488289202E+03  0.15247930027E+03  0.10871704785E+04  0.11143630310E+04  0.12499730512E+03 0.  0.
          2    1    1    2  501    0  0.12376915199E+03 -0.93625331306E+02 -0.16305069054E+03  0.22510005182E+03  0.00000000000E+00 0. -1.
          1    1    1    2  502    0  0.21113740027E+02 -0.58853968967E+02  0.17506635130E+04  0.17517797565E+04  0.00000000000E+00 0. -1.
         22    1    3    3    0    0 -0.13149334871E+02  0.67590588520E+02  0.16220431279E+03  0.17621473194E+03  0.00000000000E+00 0. -1.
         22    1    3    3    0    0 -0.13173355715E+03  0.84888711753E+02  0.92496616567E+03  0.93814829910E+03  0.00000000000E+00 0. -1.
</event>
<event>
 7    1  0.5537228E-006  0.1069078E+03  0.7818608E-02  0.1345304E+00
          2   -1    0    0  502    0  0.00000000000E+00  0.00000000000E+00  0.17497154478E+04  0.17497154478E+04  0.00000000000E+00 0. -1.
          1   -1    0    0  501    0 -0.00000000000E+00 -0.00000000000E+00 -0.11261488111E+04  0.11261488111E+04  0.00000000000E+00 0. -1.
         25    2    1    2    0    0  0.14892765478E+02  0.65420715227E+02  0.73104368177E+02  0.15959120534E+03  0.12499375877E+03 0.  0.
          2    1    1    2  501    0 -0.30274440438E+02  0.42242598859E+02 -0.10804697384E+04  0.10817189259E+04  0.00000000000E+00 0. -1.
          1    1    1    2  502    0  0.15381674961E+02 -0.10766331409E+03  0.16309320069E+04  0.16345541277E+04  0.00000000000E+00 0. -1.
         22    1    3    3    0    0  0.33608338947E+02  0.83150821119E+02  0.91342467667E+02  0.12801181937E+03  0.00000000000E+00 0.  1.
         22    1    3    3    0    0 -0.18715573469E+02 -0.17730105893E+02 -0.18238099490E+02  0.31579385970E+02  0.00000000000E+00 0.  1.
</event>
<event>
 7    1  0.5537228E-006  0.1283802E+03  0.7818608E-02  0.1239192E+00
          2   -1    0    0  502    0  0.00000000000E+00  0.00000000000E+00  0.95590085816E+03  0.95590085816E+03  0.00000000000E+00 0. -1.
          1   -1    0    0  501    0 -0.00000000000E+00 -0.00000000000E+00 -0.11607422516E+04  0.11607422516E+04  0.00000000000E+00 0. -1.
         25    2    1    2    0    0 -0.22312949394E+03  0.29288506806E+02 -0.19773964994E+03  0.32460829199E+03  0.12499994549E+03 0.  0.
          2    1    1    2  501    0  0.10943215123E+03 -0.55572307698E+02 -0.89153126180E+03  0.89993981347E+03  0.00000000000E+00 0. -1.
          1    1    1    2  502    0  0.11369734271E+03  0.26283800892E+02  0.88442951828E+03  0.89209500432E+03  0.00000000000E+00 0. -1.
         22    1    3    3    0    0 -0.12447402406E+03 -0.42784854989E+02 -0.12958337314E+03  0.18470564982E+03  0.00000000000E+00 0.  1.
         22    1    3    3    0    0 -0.98655469878E+02  0.72073361795E+02 -0.68156276797E+02  0.13990264216E+03  0.00000000000E+00 0.  1.
</event>
<event>
 7    1  0.5537228E-006  0.1252383E+03  0.7818608E-02  0.1254980E+00
          2   -1    0    0  502    0  0.00000000000E+00  0.00000000000E+00  0.34629634073E+04  0.34629634073E+04  0.00000000000E+00 0. -1.
          1   -1    0    0  501    0 -0.00000000000E+00 -0.00000000000E+00 -0.45451424131E+02  0.45451424131E+02  0.00000000000E+00 0. -1.
         25    2    1    2    0    0 -0.12347513651E+03 -0.10638459264E+03  0.12356375792E+04  0.12525976240E+04  0.12504714903E+03 0.  0.
          2    1    1    2  501    0  0.12471056771E+03  0.42995275757E+01  0.73194579911E+02  0.14466740533E+03  0.00000000000E+00 0. -1.
          1    1    1    2  502    0 -0.12354311991E+01  0.10208506507E+03  0.21086798241E+04  0.21111498022E+04  0.00000000000E+00 0. -1.
         22    1    3    3    0    0 -0.44724368209E+02  0.87682980998E+01  0.12162095293E+03  0.12987997673E+03  0.00000000000E+00 0. -1.
         22    1    3    3    0    0 -0.78750768301E+02 -0.11515289074E+03  0.11140166263E+04  0.11227176473E+04  0.00000000000E+00 0. -1.
</event>
<event>
 7    1  0.5537228E-006  0.8927201E+02  0.7818608E-02  0.1354718E+00
          2   -1    0    0  502    0  0.00000000000E+00  0.00000000000E+00  0.14192180248E+04  0.14192180248E+04  0.00000000000E+00 0. -1.
          1   -1    0    0  501    0 -0.00000000000E+00 -0.00000000000E+00 -0.21008711839E+02  0.21008711839E+02  0.00000000000E+00 0. -1.
         25    2    1    2    0    0  0.73220513880E+02 -0.38057505591E+02  0.37122300122E+03  0.40030153222E+03  0.12500073070E+03 0.  0.
          2    1    1    2  501    0 -0.33806549164E+02 -0.46431184765E+02  0.21265769450E+03  0.22027717248E+03  0.00000000000E+00 0. -1.
          1    1    1    2  502    0 -0.39413964716E+02  0.84488690357E+02  0.81432861725E+03  0.81964803195E+03  0.00000000000E+00 0. -1.
         22    1    3    3    0    0 -0.71332057062E+01  0.15854134588E+02  0.22054276798E+03  0.22122691680E+03  0.00000000000E+00 0. -1.
         22    1    3    3    0    0  0.80353719586E+02 -0.53911640180E+02  0.15068023324E+03  0.17907461542E+03  0.00000000000E+00 0. -1.
</event>
<event>
 7    1  0.5537228E-006  0.6774214E+02  0.7818608E-02  0.1401626E+00
          2   -1    0    0  502    0  0.00000000000E+00  0.00000000000E+00  0.15855351314E+04  0.15855351314E+04  0.00000000000E+00 0. -1.
          1   -1    0    0  501    0 -0.00000000000E+00 -0.00000000000E+00 -0.16276597728E+03  0.16276597728E+03  0.00000000000E+00 0. -1.
         25    2    1    2    0    0 -0.14432454368E+02 -0.11396855473E+02  0.79881272387E+03  0.80874282993E+03  0.12500005235E+03 0.  0.
          2    1    1    2  501    0  0.34130952005E+02  0.59055624557E+02 -0.14953118886E+03  0.16435347614E+03  0.00000000000E+00 0. -1.
          1    1    1    2  502    0 -0.19698497637E+02 -0.47658769084E+02  0.77348761914E+03  0.77520480265E+03  0.00000000000E+00 0. -1.
         22    1    3    3    0    0  0.11759104159E+02 -0.62623898127E+02  0.30465277449E+03  0.31124482670E+03  0.00000000000E+00 0.  1.
         22    1    3    3    0    0 -0.26191558528E+02  0.51227042654E+02  0.49415994938E+03  0.49749800322E+03  0.00000000000E+00 0.  1.
</event>
<event>
 7    1  0.5537228E-006  0.1398307E+03  0.7818608E-02  0.1275269E+00
          2   -1    0    0  502    0  0.00000000000E+00  0.00000000000E+00  0.13066467308E+04  0.13066467308E+04  0.00000000000E+00 0. -1.
          1   -1    0    0  501    0 -0.00000000000E+00 -0.00000000000E+00 -0.19723417359E+04  0.19723417359E+04  0.00000000000E+00 0. -1.
         25    2    1    2    0    0 -0.14051408513E+02 -0.14092854727E+03 -0.21490820299E+03  0.28613085288E+03  0.12500812669E+03 0.  0.
          2    1    1    2  501    0  0.83910672520E+02  0.11355152846E+03 -0.17178160275E+04  0.17236086722E+04  0.00000000000E+00 0. -1.
          1    1    1    2  502    0 -0.69859264007E+02  0.27377018815E+02  0.12670292254E+04  0.12692489417E+04  0.00000000000E+00 0. -1.
         22    1    3    3    0    0 -0.60909445643E+02 -0.60397009798E+02 -0.14926739875E+03  0.17215840290E+03  0.00000000000E+00 0.  1.
         22    1    3    3    0    0  0.46858037130E+02 -0.80531537473E+02 -0.65640804243E+02  0.11397244997E+03  0.00000000000E+00 0.  1.
</event>
<event>
 7    1  0.5537228E-006  0.5773185E+02  0.7818608E-02  0.1416394E+00
          2   -1    0    0  502    0  0.00000000000E+00  0.00000000000E+00  0.89347267465E+03  0.89347267465E+03  0.00000000000E+00 0. -1.
          1   -1    0    0  501    0 -0.00000000000E+00 -0.00000000000E+00 -0.69283456347E+03  0.69283456347E+03  0.00000000000E+00 0. -1.
         25    2    1    2    0    0 -0.66882967499E+02  0.84271379922E+02 -0.22221416180E+02  0.16641544790E+03  0.12500125258E+03 0.  0.
          2    1    1    2  501    0  0.43308112428E+02 -0.32114094921E+02 -0.59630125372E+03  0.59873374123E+03  0.00000000000E+00 0. -1.
          1    1    1    2  502    0  0.23574855070E+02 -0.52157285001E+02  0.81916078108E+03  0.82115804899E+03  0.00000000000E+00 0. -1.
         22    1    3    3    0    0 -0.26969515052E+02  0.69186081575E+01 -0.64052505452E+02  0.69842289021E+02  0.00000000000E+00 0.  1.
         22    1    3    3    0    0 -0.39913452447E+02  0.77352771765E+02  0.41831089272E+02  0.96573158877E+02  0.00000000000E+00 0.  1.
</event>
<event>
 7    1  0.5537228E-006  0.8813172E+02  0.7818608E-02  0.1463201E+00
          2   -1    0    0  502    0  0.00000000000E+00  0.00000000000E+00  0.89083165452E+03  0.89083165452E+03  0.00000000000E+00 0. -1.
          1   -1    0    0  501    0 -0.00000000000E+00 -0.00000000000E+00 -0.48698478980E+03  0.48698478980E+03  0.00000000000E+00 0. -1.
         25    2    1    2    0    0  0.35844762727E+02 -0.10457935993E+03  0.26711636029E+03  0.31495624973E+03  0.12499839906E+03 0.  0.
          2    1    1    2  501    0 -0.19791108374E+02  0.85559868694E+02 -0.45863884285E+03  0.46697084200E+03  0.00000000000E+00 0. -1.
          1    1    1    2  502    0 -0.16053654353E+02  0.19019491233E+02  0.59536934728E+03  0.59588935260E+03  0.00000000000E+00 0. -1.
         22    1    3    3    0    0 -0.18379199159E+02  0.20385651621E+02  0.24886070372E+02  0.37049780732E+02  0.00000000000E+00 0.  1.
         22    1    3    3    0    0  0.54223961886E+02 -0.12496501155E+03  0.24223028992E+03  0.27790646899E+03  0.00000000000E+00 0.  1.
</event>
<event>
 7    1  0.5537228E-006  0.5695328E+02  0.7818608E-02  0.1437303E+00
          2   -1    0    0  502    0  0.00000000000E+00  0.00000000000E+00  0.64118099030E+03  0.64118099030E+03  0.00000000000E+00 0. -1.
          1   -1    0    0  501    0 -0.00000000000E+00 -0.00000000000E+00 -0.28402822060E+03  0.28402822060E+03  0.00000000000E+00 0. -1.
         25    2    1    2    0    0  0.80143183640E+02 -0.63460296234E+02 -0.10768680431E+03  0.19408231907E+03  0.12498543784E+03 0.  0.
          2    1    1    2  501    0 -0.40424287833E+02  0.23198791279E+02 -0.12767659400E+03  0.13591769429E+03  0.00000000000E+00 0. -1.
          1    1    1    2  502    0 -0.39718895808E+02  0.40261504955E+02  0.59251616802E+03  0.59520919754E+03  0.00000000000E+00 0. -1.
         22    1    3    3    0    0  0.10075489597E+03 -0.16653199885E+02 -0.41008306100E+02  0.11004798634E+03  0.00000000000E+00 0. -1.
         22    1    3    3    0    0 -0.20611712332E+02 -0.46807096349E+02 -0.66678498214E+02  0.84034332733E+02  0.00000000000E+00 0. -1.
</event>
<event>
 7    1  0.5537228E-006  0.6739138E+02  0.7818608E-02  0.1406807E+00
          2   -1    0    0  502    0  0.00000000000E+00  0.00000000000E+00  0.41005258889E+03  0.41005258889E+03  0.00000000000E+00 0. -1.
          1   -1    0    0  501    0 -0.00000000000E+00 -0.00000000000E+00 -0.14897781138E+03  0.14897781138E+03  0.00000000000E+00 0. -1.
         25    2    1    2    0    0  0.98711894429E+02  0.59854045935E+02  0.28568582011E+03  0.33251785316E+03  0.12500075976E+03 0.  0.
          2    1    1    2  501    0 -0.58442217387E+02 -0.30611939199E+02 -0.10965806897E+03  0.12797451186E+03  0.00000000000E+00 0. -1.
          1    1    1    2  502    0 -0.40269677042E+02 -0.29242106736E+02  0.85047026376E+02  0.98538035250E+02  0.00000000000E+00 0. -1.
         22    1    3    3    0    0  0.28516816140E+02  0.40285793494E+02  0.24321585081E+03  0.24817353615E+03  0.00000000000E+00 0.  1.
         22    1    3    3    0    0  0.70195078289E+02  0.19568252441E+02  0.42469969304E+02  0.84344317013E+02  0.00000000000E+00 0.  1.
</event>
<event>
 7    1  0.5537228E-006  0.1568049E+03  0.7818608E-02  0.1270106E+00
          2   -1    0    0  502    0  0.00000000000E+00  0.00000000000E+00  0.11953339292E+04  0.11953339292E+04  0.00000000000E+00 0. -1.
          1   -1    0    0  501    0 -0.00000000000E+00 -0.00000000000E+00 -0.49830218973E+03  0.49830218973E+03  0.00000000000E+00 0. -1.
         25    2    1    2    0    0  0.18628333366E+03  0.21680301124E+01  0.16319009575E+03  0.27741999814E+03  0.12499866903E+03 0.  0.
          2    1    1    2  501    0 -0.42719840854E+02  0.55855913762E+02 -0.43217969827E+03  0.43786317441E+03  0.00000000000E+00 0. -1.
          1    1    1    2  502    0 -0.14356349281E+03 -0.58023943875E+02  0.96602134199E+03  0.97835294639E+03  0.00000000000E+00 0. -1.
         22    1    3    3    0    0  0.43729619867E+02 -0.54625936395E+02  0.39702500334E+02  0.80452228767E+02  0.00000000000E+00 0. -1.
         22    1    3    3    0    0  0.14255371380E+03  0.56793966508E+02  0.12348759542E+03  0.19696776937E+03  0.00000000000E+00 0. -1.
</event>
<event>
 7    1  0.5537228E-006  0.1438261E+03  0.7818608E-02  0.1221776E+00
          2   -1    0    0  502    0  0.00000000000E+00  0.00000000000E+00  0.11853628921E+04  0.11853628921E+04  0.00000000000E+00 0. -1.
          1   -1    0    0  501    0 -0.00000000000E+00 -0.00000000000E+00 -0.68792664320E+03  0.68792664320E+03  0.00000000000E+00 0. -1.
         25    2    1    2    0    0 -0.39654802019E+02 -0.57509297334E+02  0.39656762279E+03  0.42162370336E+03  0.12498337964E+03 0.  0.
          2    1    1    2  501    0 -0.59325170018E+02  0.13330075082E+03 -0.66240227304E+03  0.67828116390E+03  0.00000000000E+00 0. -1.
          1    1    1    2  502    0  0.98979972037E+02 -0.75791453484E+02  0.76327089917E+03  0.77338466807E+03  0.00000000000E+00 0. -1.
         22    1    3    3    0    0  0.16950773544E+02  0.18127716660E+02  0.21977855748E+03  0.22117539909E+03  0.00000000000E+00 0.  1.
         22    1    3    3    0    0 -0.56605575563E+02 -0.75637013994E+02  0.17678906531E+03  0.20044830426E+03  0.00000000000E+00 0.  1.
</event>
<event>
 7    1  0.5537228E-006  0.4943738E+02  0.7818608E-02  0.1555011E+00
          2   -1    0    0  502    0  0.00000000000E+00  0.00000000000E+00  0.23199351843E+04  0.23199351843E+04  0.00000000000E+00 0. -1.
          1   -1    0    0  501    0 -0.00000000000E+00 -0.00000000000E+00 -0.11343723184E+03  0.11343723184E+03  0.00000000000E+00 0. -1.
         25    2    1    2    0    0  0.63520667330E+02 -0.36130674997E+02  0.10686168605E+04  0.10783818610E+04  0.12500057087E+03 0.  0.
          2    1    1    2  501    0 -0.43237941383E+02  0.23713860788E+02 -0.10283434279E+03  0.11404722191E+03  0.00000000000E+00 0. -1.
          1    1    1    2  502    0 -0.20282725947E+02  0.12416814209E+02  0.12407154347E+04  0.12409433332E+04  0.00000000000E+00 0. -1.
         22    1    3    3    0    0  0.39076590360E+02  0.42433392975E+02  0.31047994509E+03  0.31579323782E+03  0.00000000000E+00 0.  1.
         22    1    3    3    0    0  0.24444076970E+02 -0.78564067972E+02  0.75813691540E+03  0.76258862316E+03  0.00000000000E+00 0.  1.
</event>
<event>
 7    1  0.5537228E-006  0.7543387E+02  0.7818608E-02  0.1392192E+00
          2   -1    0    0  502    0  0.00000000000E+00  0.00000000000E+00  0.18243725773E+04  0.18243725773E+04  0.00000000000E+00 0. -1.
          1   -1    0    0  501    0 -0.00000000000E+00 -0.00000000000E+00 -0.11729721419E+03  0.11729721419E+03  0.00000000000E+00 0. -1.
         25    2    1    2    0    0 -0.30090019766E+02  0.13517643238E+02  0.21224318197E+03  0.24851706509E+03  0.12500170952E+03 0.  0.
          2    1    1    2  501    0  0.78474072291E+02 -0.12306465741E+01 -0.83173866654E+02  0.11435727614E+03  0.00000000000E+00 0. -1.
          1    1    1    2  502    0 -0.48384052525E+02 -0.12286996664E+02  0.15780060478E+04  0.15787954502E+04  0.00000000000E+00 0. -1.
         22    1    3    3    0    0  0.47953266609E+02  0.93059555958E+01  0.10509670973E+03  0.11589406794E+03  0.00000000000E+00 0. -1.
         22    1    3    3    0    0 -0.78043286375E+02  0.42116876427E+01  0.10714647224E+03  0.13262299715E+03  0.00000000000E+00 0. -1.
</event>
<event>
 7    1  0.5537228E-006  0.1141092E+03  0.7818608E-02  0.1259103E+00
          2   -1    0    0  502    0  0.00000000000E+00  0.00000000000E+00  0.26314048735E+04  0.26314048735E+04  0.00000000000E+00 0. -1.
          1   -1    0    0  501    0 -0.00000000000E+00 -0.00000000000E+00 -0.37116781811E+03  0.37116781811E+03  0.00000000000E+00 0. -1.
         25    2    1    2    0    0  0.10345230072E+03 -0.22430725831E+02 -0.23771941495E+02  0.16551585863E+03  0.12499951308E+03 0.  0.
          2    1    1    2  501    0 -0.75937565084E+02 -0.88311586465E+02 -0.26292527654E+03  0.28756764619E+03  0.00000000000E+00 0. -1.
          1    1    1    2  502    0 -0.27514735634E+02  0.11074231230E+03  0.25469342735E+04  0.25494891868E+04  0.00000000000E+00 0. -1.
         22    1    3    3    0    0  0.97907899994E+02 -0.50502688874E+02  0.21224681659E+02  0.11219164664E+03  0.00000000000E+00 0. -1.
         22    1    3    3    0    0  0.55444007243E+01  0.28071963042E+02 -0.44996623155E+02  0.53324211984E+02  0.00000000000E+00 0. -1.
</event>
<event>
 7    1  0.5537228E-006  0.3950935E+02  0.7818608E-02  0.1521933E+00
          2   -1    0    0  502    0  0.00000000000E+00  0.00000000000E+00  0.13752959495E+04  0.13752959495E+04  0.00000000000E+00 0. -1.
          1   -1    0    0  501    0 -0.00000000000E+00 -0.00000000000E+00 -0.80001072060E+03  0.80001072060E+03  0.00000000000E+00 0. -1.
         25    2    1    2    0    0 -0.55683081873E+02  0.14959760940E+02  0.63115249478E+02  0.15143772734E+03  0.12500180195E+03 0.  0.
          2    1    1    2  501    0  0.19714510131E+02 -0.31220171915E+02 -0.75509105287E+03  0.75599329307E+03  0.00000000000E+00 0. -1.
          1    1    1    2  502    0  0.35968571741E+02  0.16260410974E+02  0.12672610323E+04  0.12678756497E+04  0.00000000000E+00 0. -1.
         22    1    3    3    0    0 -0.30384129295E+02  0.59149574595E+02 -0.46665596938E+01  0.66660665067E+02  0.00000000000E+00 0. -1.
         22    1    3    3    0    0 -0.25298952578E+02 -0.44189813655E+02  0.67781809172E+02  0.84777062269E+02  0.00000000000E+00 0. -1.
</event>
<event>
 7    1  0.5537228E-006  0.9140889E+02  0.7818608E-02  0.1300885E+00
          2   -1    0    0  502    0  0.00000000000E+00  0.00000000000E+00  0.77601373872E+03  0.77601373872E+03  0.00000000000E+00 0. -1.
          1   -1    0    0  501    0 -0.00000000000E+00 -0.00000000000E+00 -0.66506209516E+03  0.66506209516E+03  0.00000000000E+00 0. -1.
         25    2    1    2    0    0 -0.21617885479E+02  0.15273313097E+03  0.42125742456E+03  0.46570127821E+03  0.12500048208E+03 0.  0.
          2    1    1    2  501    0 -0.36317568767E+02 -0.83561592059E+02 -0.63339919823E+03  0.63991878374E+03  0.00000000000E+00 0. -1.
          1    1    1    2  502    0  0.57935454246E+02 -0.69171538908E+02  0.32309341723E+03  0.33545577192E+03  0.00000000000E+00 0. -1.
         22    1    3    3    0    0  0.25577335509E+02  0.14297170135E+03  0.26514902290E+03  0.30232286024E+03  0.00000000000E+00 0.  1.
         22    1    3    3    0    0 -0.47195220988E+02  0.97614296172E+01  0.15610840166E+03  0.16337841798E+03  0.00000000000E+00 0.  1.
</event>
<event>
 7    1  0.5537228E-006  0.6890336E+02  0.7818608E-02  0.1521323E+00
          2   -1    0    0  502    0  0.00000000000E+00  0.00000000000E+00  0.59290103101E+03  0.59290103101E+03  0.00000000000E+00 0. -1.
          1   -1    0    0  501    0 -0.00000000000E+00 -0.00000000000E+00 -0.13464305338E+03  0.13464305338E+03  0.00000000000E+00 0. -1.
         25    2    1    2    0    0 -0.19826376695E+02 -0.85663147984E+02  0.34789943404E+02  0.15673507355E+03  0.12499713190E+03 0.  0.
          2    1    1    2  501    0  0.11292995321E+02  0.18010986586E+02 -0.69740769273E+02  0.72908862835E+02  0.00000000000E+00 0. -1.
          1    1    1    2  502    0  0.85333813741E+01  0.67652161399E+02  0.49320880350E+03  0.49790014801E+03  0.00000000000E+00 0. -1.
         22    1    3    3    0    0  0.22814477254E+02  0.23272535424E+02 -0.54115878867E+01  0.33036291573E+02  0.00000000000E+00 0. -1.
         22    1    3    3    0    0 -0.42640853949E+02 -0.10893568341E+03  0.40201531291E+02  0.12369878198E+03  0.00000000000E+00 0. -1.
</event>
<event>
 7    1  0.5537228E-006  0.9318662E+02  0.7818608E-02  0.1343283E+00
          2   -1    0    0  502    0  0.00000000000E+00  0.00000000000E+00  0.43909382626E+03  0.43909382626E+03  0.00000000000E+00 0. -1.
          1   -1    0    0  501    0 -0.00000000000E+00 -0.00000000000E+00 -0.14848326608E+03  0.14848326608E+03  0.00000000000E+00 0. -1.
         25    2    1    2    0    0  0.60205155302E+02 -0.74089508600E+02  0.94325641020E+02  0.18339207142E+03  0.12498563636E+03 0.  0.
          2    1    1    2  501    0 -0.34356733033E+01  0.95490804193E+02 -0.77952867933E+02  0.12331645128E+03  0.00000000000E+00 0. -1.
          1    1    1    2  502    0 -0.56769481998E+02 -0.21401295593E+02  0.27423778710E+03  0.28086856964E+03  0.00000000000E+00 0. -1.
         22    1    3    3    0    0 -0.33247733378E+02 -0.33767765045E+02  0.44281151075E+01  0.47594978037E+02  0.00000000000E+00 0.  1.
         22    1    3    3    0    0  0.93452888680E+02 -0.40321743555E+02  0.89897525913E+02  0.13579709338E+03  0.00000000000E+00 0.  1.
</event>
<event>
 7    1  0.5537228E-006  0.4020794E+03  0.7818608E-02  0.1261606E+00
          2   -1    0    0  502    0  0.00000000000E+00  0.00000000000E+00  0.12403230663E+04  0.12403230663E+04  0.00000000000E+00 0. -1.
          1   -1    0    0  501    0 -0.00000000000E+00 -0.00000000000E+00 -0.21086901072E+03  0.21086901072E+03  0.00000000000E+00 0. -1.
         25    2    1    2    0    0 -0.13314280977E+03 -0.39110332643E+03  0.30185594995E+03  0.52671622173E+03  0.12499657583E+03 0.  0.
          2    1    1    2  501    0  0.10689897728E+03  0.37700864663E+03  0.29410360737E+03  0.48995902160E+03  0.00000000000E+00 0. -1.
          1    1    1    2  502    0  0.26243832496E+02  0.14094679800E+02  0.43349449831E+03  0.43451683374E+03  0.00000000000E+00 0. -1.
         22    1    3    3    0    0 -0.60648744991E+01 -0.84487779410E+02  0.12397210412E+03  0.15014676211E+03  0.00000000000E+00 0. -1.
         22    1    3    3    0    0 -0.12707793527E+03 -0.30661554702E+03  0.17788384584E+03  0.37656945962E+03  0.00000000000E+00 0. -1.
</event>
<event>
 7    1  0.5537228E-006  0.1052396E+03  0.7818608E-02  0.1271683E+00
          2   -1    0    0  502    0  0.00000000000E+00  0.00000000000E+00  0.16380948459E+03  0.16380948459E+03  0.00000000000E+00 0. -1.
          1   -1    0    0  501    0 -0.00000000000E+00 -0.00000000000E+00 -0.11435426977E+04  0.11435426977E+04  0.00000000000E+00 0. -1.
         25    2    1    2    0    0  0.17548719550E+02  0.17879685461E+02  0.58276103323E+02  0.14017358299E+03  0.12499955376E+03 0.  0.
          2    1    1    2  501    0 -0.96254896389E+02  0.48856393549E+02 -0.10567933813E+04  0.10622919575E+04  0.00000000000E+00 0. -1.
          1    1    1    2  502    0  0.78706176839E+02 -0.66736079010E+02  0.18784064935E+02  0.10488664171E+03  0.00000000000E+00 0. -1.
         22    1    3    3    0    0 -0.30314866938E+02  0.46325461892E+02  0.63506183960E+02  0.84250074054E+02  0.00000000000E+00 0. -1.
         22    1    3    3    0    0  0.47863586488E+02 -0.28445776431E+02 -0.52300806363E+01  0.55923508936E+02  0.00000000000E+00 0. -1.
</event>
<event>
 7    1  0.5537228E-006  0.1168893E+03  0.7818608E-02  0.1293678E+00
          2   -1    0    0  502    0  0.00000000000E+00  0.00000000000E+00  0.29370281412E+04  0.29370281412E+04  0.00000000000E+00 0. -1.
          1   -1    0    0  501    0 -0.00000000000E+00 -0.00000000000E+00 -0.37629633370E+03  0.37629633370E+03  0.00000000000E+00 0. -1.
         25    2    1    2    0    0 -0.13894501531E+03  0.18091416044E+02  0.30876383951E+03  0.36137666217E+03  0.12499986703E+03 0.  0.
          2    1    1    2  501    0  0.89522793718E+02 -0.75072720940E+02 -0.33967544883E+03  0.35920698012E+03  0.00000000000E+00 0. -1.
          1    1    1    2  502    0  0.49422221592E+02  0.56981304896E+02  0.25916434169E+04  0.25927408327E+04  0.00000000000E+00 0. -1.
         22    1    3    3    0    0 -0.56436997760E+02  0.37873891359E+02  0.24766120531E+03  0.25681829954E+03  0.00000000000E+00 0. -1.
         22    1    3    3    0    0 -0.82508017550E+02 -0.19782475315E+02  0.61102634198E+02  0.10455836263E+03  0.00000000000E+00 0. -1.
</event>
<event>
 7    1  0.5537228E-006  0.7899057E+02  0.7818608E-02  0.1413131E+00
          2   -1    0    0  502    0  0.00000000000E+00  0.00000000000E+00  0.82817268351E+03  0.82817268351E+03  0.00000000000E+00 0. -1.
          1   -1    0    0  501    0 -0.00000000000E+00 -0.00000000000E+00 -0.10504138503E+04  0.10504138503E+04  0.00000000000E+00 0. -1.
         25    2    1    2    0    0 -0.54759028534E+02 -0.89090468798E+02  0.95596847892E+01  0.16329077329E+03  0.12504729598E+03 0.  0.
          2    1    1    2  501    0  0.16214368907E+02  0.76940011076E+02 -0.97140806132E+03  0.97458519005E+03  0.00000000000E+00 0. -1.
          1    1    1    2  502    0  0.38544659627E+02  0.12150457722E+02  0.73960720977E+03  0.74071057043E+03  0.00000000000E+00 0. -1.
         22    1    3    3    0    0 -0.87973756805E+02 -0.29454102184E+02 -0.70370899656E+01  0.93040027177E+02  0.00000000000E+00 0.  1.
         22    1    3    3    0    0  0.33214728271E+02 -0.59636366614E+02  0.16596774755E+02  0.70250746112E+02  0.00000000000E+00 0.  1.
</event>
<event>
 7    1  0.5537228E-006  0.9958059E+02  0.7818608E-02  0.1300698E+00
          2   -1    0    0  502    0  0.00000000000E+00  0.00000000000E+00  0.35896195635E+04  0.35896195635E+04  0.00000000000E+00 0. -1.
          1   -1    0    0  501    0 -0.00000000000E+00 -0.00000000000E+00 -0.23046714764E+04  0.23046714764E+04  0.00000000000E+00 0. -1.
         25    2    1    2    0    0 -0.18167511028E+03  0.76178892354E+01 -0.15306469148E+03  0.26854645431E+03  0.12499808163E+03 0.  0.
          2    1    1    2  501    0  0.82389251357E+02 -0.97777983245E+01 -0.20923454956E+04  0.20939897963E+04  0.00000000000E+00 0. -1.
          1    1    1    2  502    0  0.99285858925E+02  0.21599090891E+01  0.35303582742E+04  0.35317547892E+04  0.00000000000E+00 0. -1.
         22    1    3    3    0    0 -0.62819956162E+01  0.32097874545E+02 -0.60370279503E+02  0.68660816092E+02  0.00000000000E+00 0.  1.
         22    1    3    3    0    0 -0.17539311467E+03 -0.24479985310E+02 -0.92694411980E+02  0.19988563822E+03  0.00000000000E+00 0.  1.
</event>
<event>
 7    1  0.5537228E-006  0.4649662E+02  0.7818608E-02  0.1581532E+00
          2   -1    0    0  502    0  0.00000000000E+00  0.00000000000E+00  0.27682516905E+04  0.27682516905E+04  0.00000000000E+00 0. -1.
          1   -1    0    0  501    0 -0.00000000000E+00 -0.00000000000E+00 -0.19183943067E+03  0.19183943067E+03  0.00000000000E+00 0. -1.
         25    2    1    2    0    0 -0.13898280881E+01 -0.50722769595E+01  0.24873983971E+04  0.24905417040E+04  0.12497813277E+03 0.  0.
          2    1    1    2  501    0  0.43898448822E+02 -0.15325194425E+02 -0.18538615875E+03  0.19112813307E+03  0.00000000000E+00 0. -1.
          1    1    1    2  502    0 -0.42508620734E+02  0.20397471385E+02  0.27440002144E+03  0.27842128411E+03  0.00000000000E+00 0. -1.
         22    1    3    3    0    0 -0.19960210983E+02 -0.37449016139E+02  0.22345878074E+04  0.22349907176E+04  0.00000000000E+00 0.  1.
         22    1    3    3    0    0  0.18570382895E+02  0.32376739180E+02  0.25281058973E+03  0.25555098638E+03  0.00000000000E+00 0.  1.
</event>
<event>
 7    1  0.5537228E-006  0.2283600E+03  0.7818608E-02  0.1138260E+00
          2   -1    0    0  502    0  0.00000000000E+00  0.00000000000E+00  0.15204411346E+04  0.15204411346E+04  0.00000000000E+00 0. -1.
          1   -1    0    0  501    0 -0.00000000000E+00 -0.00000000000E+00 -0.15976746289E+03  0.15976746289E+03  0.00000000000E+00 0. -1.
         25    2    1    2    0    0 -0.12653658306E+03  0.77075091511E+02  0.19042148243E+02  0.19478642332E+03  0.12500828260E+03 0.  0.
          2    1    1    2  501    0 -0.10169006057E+03 -0.17334586345E+03  0.10995376505E+03  0.22908401787E+03  0.00000000000E+00 0. -1.
          1    1    1    2  502    0  0.22822664363E+03  0.96270771936E+02  0.12316777585E+04  0.12563381563E+04  0.00000000000E+00 0. -1.
         22    1    3    3    0    0 -0.10840804683E+03  0.22641503705E+02 -0.34820044300E+02  0.11609210909E+03  0.00000000000E+00 0.  1.
         22    1    3    3    0    0 -0.18128536228E+02  0.54433587806E+02  0.53862192543E+02  0.78694314235E+02  0.00000000000E+00 0.  1.
</event>
<event>
 7    1  0.5537228E-006  0.5761114E+02  0.7818608E-02  0.1491210E+00
          2   -1    0    0  502    0  0.00000000000E+00  0.00000000000E+00  0.35020844193E+03  0.35020844193E+03  0.00000000000E+00 0. -1.
          1   -1    0    0  501    0 -0.00000000000E+00 -0.00000000000E+00 -0.11324496482E+04  0.11324496482E+04  0.00000000000E+00 0. -1.
         25    2    1    2    0    0  0.40666895299E+02 -0.22201858196E+02 -0.17921299203E+01  0.13332462089E+03  0.12500209569E+03 0.  0.
          2    1    1    2  501    0 -0.27869879943E+02  0.50673721712E+02 -0.10632466568E+04  0.10648182988E+04  0.00000000000E+00 0. -1.
          1    1    1    2  502    0 -0.12797015356E+02 -0.28471863516E+02  0.28279758052E+03  0.28451517035E+03  0.00000000000E+00 0. -1.
         22    1    3    3    0    0  0.88638654140E+01  0.51366599711E+02  0.74098356518E+01  0.52649799054E+02  0.00000000000E+00 0.  1.
         22    1    3    3    0    0  0.31803029885E+02 -0.73568457908E+02 -0.92019655721E+01  0.80674821841E+02  0.00000000000E+00 0.  1.
</event>
<event>
 7    1  0.5537228E-006  0.3416244E+02  0.7818608E-02  0.1591834E+00
          2   -1    0    0  502    0  0.00000000000E+00  0.00000000000E+00  0.23913633798E+03  0.23913633798E+03  0.00000000000E+00 0. -1.
          1   -1    0    0  501    0 -0.00000000000E+00 -0.00000000000E+00 -0.19819028855E+04  0.19819028855E+04  0.00000000000E+00 0. -1.
         25    2    1    2    0    0 -0.28325544408E+02 -0.68250288661E+01 -0.16277713768E+02  0.12937800714E+03  0.12499914912E+03 0.  0.
          2    1    1    2  501    0  0.27365973855E+02 -0.20519800204E+02 -0.19078957930E+04  0.19082023781E+04  0.00000000000E+00 0. -1.
          1    1    1    2  502    0  0.95957055254E+00  0.27344829070E+02  0.18140695928E+03  0.18345883824E+03  0.00000000000E+00 0. -1.
         22    1    3    3    0    0  0.19024667630E+02  0.36051071073E+02  0.29903037859E+02  0.50555013373E+02  0.00000000000E+00 0.  1.
         22    1    3    3    0    0 -0.47350212038E+02 -0.42876099939E+02 -0.46180751627E+02  0.78822993770E+02  0.00000000000E+00 0.  1.
</event>
<event>
 7    1  0.5537228E-006  0.1191142E+03  0.7818608E-02  0.1319597E+00
          2   -1    0    0  502    0  0.00000000000E+00  0.00000000000E+00  0.58916812408E+03  0.58916812408E+03  0.00000000000E+00 0. -1.
          1   -1    0    0  501    0 -0.00000000000E+00 -0.00000000000E+00 -0.50852595576E+03  0.50852595576E+03  0.00000000000E+00 0. -1.
         25    2    1    2    0    0 -0.22105724208E+02  0.16667058676E+03 -0.33640399946E+02  0.21218913036E+03  0.12499921200E+03 0.  0.
          2    1    1    2  501    0  0.33996354498E+02 -0.10946090684E+03 -0.37531809541E+03  0.39242975803E+03  0.00000000000E+00 0. -1.
          1    1    1    2  502    0 -0.11890630290E+02 -0.57209679923E+02  0.48960066367E+03  0.49307519146E+03  0.00000000000E+00 0. -1.
         22    1    3    3    0    0  0.50284960505E+02  0.91822812426E+02 -0.82764243870E+01  0.10501669075E+03  0.00000000000E+00 0. -1.
         22    1    3    3    0    0 -0.72390684713E+02  0.74847774337E+02 -0.25363975559E+02  0.10717243961E+03  0.00000000000E+00 0. -1.
</event>
<event>
 7    1  0.6849772E-006  0.1466276E+03  0.7818608E-02  0.1376781E+00
          2   -1    0    0  502    0  0.00000000000E+00  0.00000000000E+00  0.12980489194E+04  0.12980489194E+04  0.00000000000E+00 0. -1.
          1   -1    0    0  501    0 -0.00000000000E+00 -0.00000000000E+00 -0.92262451189E+03  0.92262451189E+03  0.00000000000E+00 0. -1.
         25    2    1    2    0    0  0.37137716062E+02  0.12404482717E+03 -0.85761241333E+02  0.19936729527E+03  0.12500399516E+03 0.  0.
          2    1    1    2  501    0 -0.18996874474E+02  0.22039548459E+02 -0.77542191146E+03  0.77596763058E+03  0.00000000000E+00 0. -1.
          1    1    1    2  502    0 -0.18140841588E+02 -0.14608437563E+03  0.12366075603E+04  0.12453385055E+04  0.00000000000E+00 0. -1.
         22    1    3    3    0    0 -0.32831676317E+02  0.43906213638E+02  0.10587316417E+02  0.55836957606E+02  0.00000000000E+00 0.  1.
         22    1    3    3    0    0  0.69969392380E+02  0.80138613530E+02 -0.96348557750E+02  0.14353033766E+03  0.00000000000E+00 0.  1.
</event>
<event>
 7    1  0.5537228E-006  0.6306628E+02  0.7818608E-02  0.1471109E+00
          2   -1    0    0  502    0  0.00000000000E+00  0.00000000000E+00  0.22239068991E+03  0.22239068991E+03  0.00000000000E+00 0. -1.
          1   -1    0    0  501    0 -0.00000000000E+00 -0.00000000000E+00 -0.14054779495E+04  0.14054779495E+04  0.00000000000E+00 0. -1.
         25    2    1    2    0    0 -0.22421500259E+02  0.25545407264E+02 -0.42696158608E+03  0.44618020189E+03  0.12500114026E+03 0.  0.
          2    1    1    2  501    0  0.39027584077E+02 -0.53898685940E+02 -0.96648758993E+03  0.96877576464E+03  0.00000000000E+00 0. -1.
          1    1    1    2  502    0 -0.16606083818E+02  0.28353278676E+02  0.21036191638E+03  0.21291267293E+03  0.00000000000E+00 0. -1.
         22    1    3    3    0    0  0.14489909057E+02  0.69905154925E+02 -0.21767307821E+03  0.22908133300E+03  0.00000000000E+00 0.  1.
         22    1    3    3    0    0 -0.36911409316E+02 -0.44359747661E+02 -0.20928850787E+03  0.21709886889E+03  0.00000000000E+00 0.  1.
</event>
<event>
 7    1  0.5537228E-006  0.6545431E+02  0.7818608E-02  0.1380817E+00
          2   -1    0    0  502    0  0.00000000000E+00  0.00000000000E+00  0.88225753425E+03  0.88225753425E+03  0.00000000000E+00 0. -1.
          1   -1    0    0  501    0 -0.00000000000E+00 -0.00000000000E+00 -0.22946862260E+02  0.22946862260E+02  0.00000000000E+00 0. -1.
         25    2    1    2    0    0 -0.12677330067E+01  0.53351321811E+02  0.46254178634E+03  0.48209552062E+03  0.12499286462E+03 0.  0.
          2    1    1    2  501    0  0.64127401464E+02 -0.35104972528E+02  0.13775128784E+03  0.15594903019E+03  0.00000000000E+00 0. -1.
          1    1    1    2  502    0 -0.62859668457E+02 -0.18246349283E+02  0.25901759781E+03  0.26715984571E+03  0.00000000000E+00 0. -1.
         22    1    3    3    0    0  0.57059489207E+02  0.34389205005E+02  0.15854688959E+03  0.17197534395E+03  0.00000000000E+00 0.  1.
         22    1    3    3    0    0 -0.58327222214E+02  0.18962116806E+02  0.30399489675E+03  0.31012017667E+03  0.00000000000E+00 0.  1.
</event>
<event>
 7    1  0.5537228E-006  0.7558837E+02  0.7818608E-02  0.1390154E+00
          2   -1    0    0  502    0  0.00000000000E+00  0.00000000000E+00  0.41026403550E+03  0.41026403550E+03  0.00000000000E+00 0. -1.
          1   -1    0    0  501    0 -0.00000000000E+00 -0.00000000000E+00 -0.32412439397E+03  0.32412439397E+03  0.00000000000E+00 0. -1.
         25    2    1    2    0    0  0.54277605714E+02  0.19834159757E+02  0.18631182087E+03  0.23168737550E+03  0.12500997159E+03 0.  0.
          2    1    1    2  501    0 -0.42933881768E+01  0.50456285929E+02 -0.28989947126E+03  0.29428892845E+03  0.00000000000E+00 0. -1.
          1    1    1    2  502    0 -0.49984217537E+02 -0.70290445686E+02  0.18972729193E+03  0.20841212551E+03  0.00000000000E+00 0. -1.
         22    1    3    3    0    0 -0.75231252636E+01  0.46508015635E+02  0.18033432877E+02  0.50445987287E+02  0.00000000000E+00 0. -1.
         22    1    3    3    0    0  0.61800730977E+02 -0.26673855878E+02  0.16827838799E+03  0.18124138821E+03  0.00000000000E+00 0. -1.
</event>
<event>
 7    1  0.5537228E-006  0.6727353E+02  0.7818608E-02  0.1371704E+00
          2   -1    0    0  502    0  0.00000000000E+00  0.00000000000E+00  0.24919847935E+03  0.24919847935E+03  0.00000000000E+00 0. -1.
          1   -1    0    0  501    0 -0.00000000000E+00 -0.00000000000E+00 -0.17461574052E+04  0.17461574052E+04  0.00000000000E+00 0. -1.
         25    2    1    2    0    0  0.30530575803E+02 -0.33701817257E+00 -0.11661048338E+03  0.17365188294E+03  0.12499896789E+03 0.  0.
          2    1    1    2  501    0 -0.13845238056E+02 -0.65833409620E+02 -0.15950244730E+04  0.15964425445E+04  0.00000000000E+00 0. -1.
          1    1    1    2  502    0 -0.16685337747E+02  0.66170427793E+02  0.21467603049E+03  0.22526145715E+03  0.00000000000E+00 0. -1.
         22    1    3    3    0    0  0.66192790246E+02 -0.38123119977E+02 -0.63243399793E+02  0.99169478040E+02  0.00000000000E+00 0.  1.
         22    1    3    3    0    0 -0.35662214443E+02  0.37786101805E+02 -0.53367083590E+02  0.74482404898E+02  0.00000000000E+00 0.  1.
</event>
<event>
 7    1  0.5537228E-006  0.1555464E+03  0.7818608E-02  0.1212451E+00
          2   -1    0    0  502    0  0.00000000000E+00  0.00000000000E+00  0.22977596245E+03  0.22977596245E+03  0.00000000000E+00 0. -1.
          1   -1    0    0  501    0 -0.00000000000E+00 -0.00000000000E+00 -0.16892014310E+04  0.16892014310E+04  0.00000000000E+00 0. -1.
         25    2    1    2    0    0 -0.24004010593E+02  0.15232987822E+03  0.37110604681E+02  0.20194784802E+03  0.12500060807E+03 0.  0.
          2    1    1    2  501    0 -0.99462893771E+02 -0.12178547536E+03 -0.15647992400E+04  0.15726796339E+04  0.00000000000E+00 0. -1.
          1    1    1    2  502    0  0.12346690436E+03 -0.30544402868E+02  0.68263166793E+02  0.14434991154E+03  0.00000000000E+00 0. -1.
         22    1    3    3    0    0  0.47345525570E+02  0.35670886918E+02  0.26058244955E+02  0.64753711053E+02  0.00000000000E+00 0.  1.
         22    1    3    3    0    0 -0.71349536163E+02  0.11665899131E+03  0.11052359726E+02  0.13719413697E+03  0.00000000000E+00 0.  1.
</event>
<event>
 7    1  0.5537228E-006  0.8136071E+02  0.7818608E-02  0.1426691E+00
          2   -1    0    0  502    0  0.00000000000E+00  0.00000000000E+00  0.51172940773E+03  0.51172940773E+03  0.00000000000E+00 0. -1.
          1   -1    0    0  501    0 -0.00000000000E+00 -0.00000000000E+00 -0.30071722612E+03  0.30071722612E+03  0.00000000000E+00 0. -1.
         25    2    1    2    0    0  0.22020760886E+02 -0.98738913182E+02  0.19697990321E+02  0.16199628845E+03  0.12498199775E+03 0.  0.
          2    1    1    2  501    0  0.78304419887E+01  0.79802426189E+02 -0.22178807461E+03  0.23583827740E+03  0.00000000000E+00 0. -1.
          1    1    1    2  502    0 -0.29851202874E+02  0.18936486993E+02  0.41310226589E+03  0.41461206801E+03  0.00000000000E+00 0. -1.
         22    1    3    3    0    0  0.47945736351E+02 -0.10648607824E+03  0.44807115662E+02  0.12508299687E+03  0.00000000000E+00 0. -1.
         22    1    3    3    0    0 -0.25924975465E+02  0.77471650565E+01 -0.25109125342E+02  0.36913291573E+02  0.00000000000E+00 0. -1.
</event>
<event>
 7    1  0.5537228E-006  0.7680075E+02  0.7818608E-02  0.1502173E+00
          2   -1    0    0  502    0  0.00000000000E+00  0.00000000000E+00  0.21056506060E+03  0.21056506060E+03  0.00000000000E+00 0. -1.
          1   -1    0    0  501    0 -0.00000000000E+00 -0.00000000000E+00 -0.70149276091E+03  0.70149276091E+03  0.00000000000E+00 0. -1.
         25    2    1    2    0    0 -0.24999971900E+02  0.60183542078E+02 -0.15171687829E+03  0.20710150769E+03  0.12500386392E+03 0.  0.
          2    1    1    2  501    0  0.14137803461E+02  0.16474797427E+02 -0.51364910690E+03  0.51410767497E+03  0.00000000000E+00 0. -1.
          1    1    1    2  502    0  0.10862168439E+02 -0.76658339505E+02  0.17443828489E+03  0.19084863885E+03  0.00000000000E+00 0. -1.
         22    1    3    3    0    0  0.43331683942E+02  0.23961476695E+02 -0.18106637147E+02  0.52722267662E+02  0.00000000000E+00 0. -1.
         22    1    3    3    0    0 -0.68331655842E+02  0.36222065383E+02 -0.13361024115E+03  0.15437924002E+03  0.00000000000E+00 0. -1.
</event>
<event>
 7    1  0.5537228E-006  0.1573478E+03  0.7818608E-02  0.1279192E+00
          2   -1    0    0  502    0  0.00000000000E+00  0.00000000000E+00  0.81484837951E+03  0.81484837951E+03  0.00000000000E+00 0. -1.
          1   -1    0    0  501    0 -0.00000000000E+00 -0.00000000000E+00 -0.59372646594E+03  0.59372646594E+03  0.00000000000E+00 0. -1.
         25    2    1    2    0    0 -0.25629709158E+01 -0.15337399228E+03 -0.21942119732E+03  0.29546966130E+03  0.12500603420E+03 0.  0.
          2    1    1    2  501    0 -0.61641165505E+02  0.15175140625E+03 -0.31489259119E+03  0.35494431475E+03  0.00000000000E+00 0. -1.
          1    1    1    2  502    0  0.64204136420E+02  0.16225860304E+01  0.75543570208E+03  0.75816086940E+03  0.00000000000E+00 0. -1.
         22    1    3    3    0    0 -0.59826379635E+02 -0.10719595534E+03 -0.15468720199E+03  0.19747986986E+03  0.00000000000E+00 0. -1.
         22    1    3    3    0    0  0.57263408720E+02 -0.46178036944E+02 -0.64733995325E+02  0.97989791432E+02  0.00000000000E+00 0. -1.
</event>
<event>
 7    1  0.5537228E-006  0.8016379E+02  0.7818608E-02  0.1342660E+00
          2   -1    0    0  502    0  0.00000000000E+00  0.00000000000E+00  0.19892621656E+04  0.19892621656E+04  0.00000000000E+00 0. -1.
          1   -1    0    0  501    0 -0.00000000000E+00 -0.00000000000E+00 -0.36963610888E+03  0.36963610888E+03  0.00000000000E+00 0. -1.
         25    2    1    2    0    0 -0.37607989114E+02 -0.53891023366E+02  0.10410317163E+04  0.10505670452E+04  0.12500191603E+03 0.  0.
          2    1    1    2  501    0 -0.30254596506E+02  0.74438532558E+02 -0.35908984455E+03  0.36797004253E+03  0.00000000000E+00 0. -1.
          1    1    1    2  502    0  0.67862585620E+02 -0.20547509192E+02  0.93768418505E+03  0.94036118676E+03  0.00000000000E+00 0. -1.
         22    1    3    3    0    0  0.22114923021E+02  0.91501721673E+01  0.46936682762E+02  0.52686313779E+02  0.00000000000E+00 0. -1.
         22    1    3    3    0    0 -0.59722912136E+02 -0.63041195533E+02  0.99409503351E+03  0.99788073146E+03  0.00000000000E+00 0. -1.
</event>
<event>
 7    1  0.5537228E-006  0.1323656E+03  0.7818608E-02  0.1292170E+00
          2   -1    0    0  502    0  0.00000000000E+00  0.00000000000E+00  0.14595918563E+04  0.14595918563E+04  0.00000000000E+00 0. -1.
          1   -1    0    0  501    0 -0.00000000000E+00 -0.00000000000E+00 -0.33653471761E+02  0.33653471761E+02  0.00000000000E+00 0. -1.
         25    2    1    2    0    0  0.12927882349E+03 -0.10793142887E+03  0.76567435969E+03  0.79387959918E+03  0.12500154145E+03 0.  0.
          2    1    1    2  501    0 -0.67304611734E+02  0.57813761733E+01  0.70575028599E+02  0.97694266633E+02  0.00000000000E+00 0. -1.
          1    1    1    2  502    0 -0.61974211751E+02  0.10215005270E+03  0.58968899624E+03  0.60167146224E+03  0.00000000000E+00 0. -1.
         22    1    3    3    0    0  0.99820014030E+01  0.60474955223E+01  0.11199278385E+01  0.11724623340E+02  0.00000000000E+00 0.  1.
         22    1    3    3    0    0  0.11929682208E+03 -0.11397892439E+03  0.76455443185E+03  0.78215497584E+03  0.00000000000E+00 0.  1.
</event>
<event>
 7    1  0.5537228E-006  0.6940012E+02  0.7818608E-02  0.1371649E+00
          2   -1    0    0  502    0  0.00000000000E+00  0.00000000000E+00  0.13592975246E+03  0.13592975246E+03  0.00000000000E+00 0. -1.
          1   -1    0    0  501    0 -0.00000000000E+00 -0.00000000000E+00 -0.55366485855E+03  0.55366485855E+03  0.00000000000E+00 0. -1.
         25    2    1    2    0    0 -0.39123242245E+02  0.25796811227E+02 -0.64925968359E+02  0.14845035313E+03  0.12500408963E+03 0.  0.
          2    1    1    2  501    0  0.64793550061E+02  0.32967042901E+02 -0.43266378825E+03  0.43872882708E+03  0.00000000000E+00 0. -1.
          1    1    1    2  502    0 -0.25670307816E+02 -0.58763854128E+02  0.79854650515E+02  0.10241543079E+03  0.00000000000E+00 0. -1.
         22    1    3    3    0    0 -0.27013850206E+02 -0.48873361066E+02 -0.15025178190E+02  0.57828275994E+02  0.00000000000E+00 0.  1.
         22    1    3    3    0    0 -0.12109392039E+02  0.74670172292E+02 -0.49900790169E+02  0.90622077140E+02  0.00000000000E+00 0.  1.
</event>
<event>
 7    1  0.5537228E-006  0.4301767E+02  0.7818608E-02  0.1564615E+00
          2   -1    0    0  502    0  0.00000000000E+00  0.00000000000E+00  0.18535943882E+03  0.18535943882E+03  0.00000000000E+00 0. -1.
          1   -1    0    0  501    0 -0.00000000000E+00 -0.00000000000E+00 -0.43568184326E+03  0.43568184326E+03  0.00000000000E+00 0. -1.
         25    2    1    2    0    0  0.55034379968E+02 -0.38204331435E+02 -0.72435337015E+02  0.15924804526E+03  0.12499883180E+03 0.  0.
          2    1    1    2  501    0 -0.31230726754E+02  0.28472627016E+02 -0.31726265932E+03  0.32006506180E+03  0.00000000000E+00 0. -1.
          1    1    1    2  502    0 -0.23803653214E+02  0.97317044195E+01  0.13937559190E+03  0.14172817502E+03  0.00000000000E+00 0. -1.
         22    1    3    3    0    0  0.69496635758E+02  0.23308688219E+02 -0.60269631374E+02  0.94897343452E+02  0.00000000000E+00 0.  1.
         22    1    3    3    0    0 -0.14462255790E+02 -0.61513019654E+02 -0.12165705640E+02  0.64350701809E+02  0.00000000000E+00 0.  1.
</event>
<event>
 7    1  0.5537228E-006  0.8501393E+02  0.7818608E-02  0.1356066E+00
          2   -1    0    0  502    0  0.00000000000E+00  0.00000000000E+00  0.50624257956E+03  0.50624257956E+03  0.00000000000E+00 0. -1.
          1   -1    0    0  501    0 -0.00000000000E+00 -0.00000000000E+00 -0.54537658313E+03  0.54537658313E+03  0.00000000000E+00 0. -1.
         25    2    1    2    0    0 -0.73454066006E+02 -0.46354862513E+02  0.20373622342E+03  0.25431755716E+03  0.12499879222E+03 0.  0.
          2    1    1    2  501    0  0.45748073427E+02 -0.38242922619E+02 -0.51116152097E+03  0.51462754286E+03  0.00000000000E+00 0. -1.
          1    1    1    2  502    0  0.27705992579E+02  0.84597785131E+02  0.26829129399E+03  0.28267406266E+03  0.00000000000E+00 0. -1.
         22    1    3    3    0    0 -0.14391609081E+02  0.35157641523E+02  0.15845614282E+02  0.41161409857E+02  0.00000000000E+00 0. -1.
         22    1    3    3    0    0 -0.59062456925E+02 -0.81512504035E+02  0.18789060914E+03  0.21315614731E+03  0.00000000000E+00 0. -1.
</event>
<event>
 7    1  0.5537228E-006  0.1092661E+03  0.7818608E-02  0.1317340E+00
          2   -1    0    0  502    0  0.00000000000E+00  0.00000000000E+00  0.19799751075E+04  0.19799751075E+04  0.00000000000E+00 0. -1.
          1   -1    0    0  501    0 -0.00000000000E+00 -0.00000000000E+00 -0.10599713983E+03  0.10599713983E+03  0.00000000000E+00 0. -1.
         25    2    1    2    0    0 -0.32426275394E+02 -0.35440944085E+02  0.12044796035E+03  0.18011603079E+03  0.12500619801E+03 0.  0.
          2    1    1    2  501    0 -0.38401065930E+02 -0.52442899390E+02 -0.60213852974E+02  0.88603654839E+02  0.00000000000E+00 0. -1.
          1    1    1    2  502    0  0.70827341324E+02  0.87883843475E+02  0.18137438603E+04  0.18172525617E+04  0.00000000000E+00 0. -1.
         22    1    3    3    0    0  0.34228988245E+02 -0.44361243940E+02  0.20529051771E+02  0.59673994058E+02  0.00000000000E+00 0. -1.
         22    1    3    3    0    0 -0.66655263639E+02  0.89202998545E+01  0.99918908575E+02  0.12044203673E+03  0.00000000000E+00 0. -1.
</event>
<event>
 7    1  0.5537228E-006  0.9652279E+02  0.7818608E-02  0.1394129E+00
          2   -1    0    0  502    0  0.00000000000E+00  0.00000000000E+00  0.15528631265E+04  0.15528631265E+04  0.00000000000E+00 0. -1.
          1   -1    0    0  501    0 -0.00000000000E+00 -0.00000000000E+00 -0.21157769882E+03  0.21157769882E+03  0.00000000000E+00 0. -1.
         25    2    1    2    0    0 -0.51150842506E+02 -0.33552538282E+02  0.10470611682E+04  0.10562690194E+04  0.12499987927E+03 0.  0.
          2    1    1    2  501    0  0.70011224408E+02  0.67016718374E+02 -0.19483379606E+03  0.21760749107E+03  0.00000000000E+00 0. -1.
          1    1    1    2  502    0 -0.18860381902E+02 -0.33464180091E+02  0.48905805549E+03  0.49056431484E+03  0.00000000000E+00 0. -1.
         22    1    3    3    0    0  0.88403010052E+01 -0.65272868984E+02  0.37017519765E+03  0.37598986063E+03  0.00000000000E+00 0.  1.
         22    1    3    3    0    0 -0.59991143511E+02  0.31720330702E+02  0.67688597058E+03  0.68027915877E+03  0.00000000000E+00 0.  1.
</event>
<event>
 7    1  0.5537228E-006  0.8343032E+02  0.7818608E-02  0.1410578E+00
          2   -1    0    0  502    0  0.00000000000E+00  0.00000000000E+00  0.14398009289E+04  0.14398009289E+04  0.00000000000E+00 0. -1.
          1   -1    0    0  501    0 -0.00000000000E+00 -0.00000000000E+00 -0.96078401811E+03  0.96078401811E+03  0.00000000000E+00 0. -1.
         25    2    1    2    0    0  0.24919530905E+02  0.38291899722E+02  0.18632447151E+03  0.22896517577E+03  0.12498396068E+03 0.  0.
          2    1    1    2  501    0 -0.54921173874E+02 -0.63259096577E+02 -0.93728590872E+03  0.94102227568E+03  0.00000000000E+00 0. -1.
          1    1    1    2  502    0  0.30001642968E+02  0.24967196855E+02  0.12299783480E+04  0.12305974956E+04  0.00000000000E+00 0. -1.
         22    1    3    3    0    0 -0.38325282235E+02 -0.17980964141E+02  0.97329195547E+02  0.10613724434E+03  0.00000000000E+00 0.  1.
         22    1    3    3    0    0  0.63244813140E+02  0.56272863863E+02  0.88995275961E+02  0.12282793143E+03  0.00000000000E+00 0.  1.
</event>
<event>
 7    1  0.5537228E-006  0.9053509E+02  0.7818608E-02  0.1456971E+00
          2   -1    0    0  502    0  0.00000000000E+00  0.00000000000E+00  0.88222660644E+03  0.88222660644E+03  0.00000000000E+00 0. -1.
          1   -1    0    0  501    0 -0.00000000000E+00 -0.00000000000E+00 -0.48531419203E+02  0.48531419203E+02  0.00000000000E+00 0. -1.
         25    2    1    2    0    0  0.11965629673E+02 -0.76681318061E+02  0.26228025707E+03  0.30073042323E+03  0.12499861349E+03 0.  0.
          2    1    1    2  501    0 -0.19352584453E+02 -0.16373513035E+02 -0.19376421100E+02  0.31907054844E+02  0.00000000000E+00 0. -1.
          1    1    1    2  502    0  0.73869547807E+01  0.93054831096E+02  0.59079135127E+03  0.59812054757E+03  0.00000000000E+00 0. -1.
         22    1    3    3    0    0 -0.43640074979E+01 -0.23649852554E+02 -0.75870527571E+01  0.25217522813E+02  0.00000000000E+00 0. -1.
         22    1    3    3    0    0  0.16329637171E+02 -0.53031465507E+02  0.26986730982E+03  0.27551290041E+03  0.00000000000E+00 0. -1.
</event>
<event>
 7    1  0.5537228E-006  0.1269847E+03  0.7818608E-02  0.1342395E+00
          2   -1    0    0  502    0  0.00000000000E+00  0.00000000000E+00  0.15012572442E+04  0.15012572442E+04  0.00000000000E+00 0. -1.
          1   -1    0    0  501    0 -0.00000000000E+00 -0.00000000000E+00 -0.10758300325E+03  0.10758300325E+03  0.00000000000E+00 0. -1.
         25    2    1    2    0    0 -0.11659658310E+03  0.96548251582E+02  0.28357403922E+03  0.34490018251E+03  0.12500228840E+03 0.  0.
          2    1    1    2  501    0  0.29838302306E+01 -0.44764622782E+02 -0.66782374528E+02  0.80452844842E+02  0.00000000000E+00 0. -1.
          1    1    1    2  502    0  0.11361275287E+03 -0.51783628800E+02  0.11768825763E+04  0.11834872201E+04  0.00000000000E+00 0. -1.
         22    1    3    3    0    0 -0.60416873873E+02  0.27044371679E+02  0.24062945011E+02  0.70431683287E+02  0.00000000000E+00 0.  1.
         22    1    3    3    0    0 -0.56179709223E+02  0.69503879903E+02  0.25951109420E+03  0.27446849922E+03  0.00000000000E+00 0.  1.
</event>
<event>
 7    1  0.5537228E-006  0.4658563E+02  0.7818608E-02  0.1583068E+00
          2   -1    0    0  502    0  0.00000000000E+00  0.00000000000E+00  0.10989716279E+04  0.10989716279E+04  0.00000000000E+00 0. -1.
          1   -1    0    0  501    0 -0.00000000000E+00 -0.00000000000E+00 -0.55684502067E+02  0.55684502067E+02  0.00000000000E+00 0. -1.
         25    2    1    2    0    0 -0.22578829964E+02 -0.51416605542E+02  0.11248821989E+03  0.17729108279E+03  0.12500023014E+03 0.  0.
          2    1    1    2  501    0  0.20576714903E+02  0.49765541892E+01 -0.17781229416E+02  0.27646688904E+02  0.00000000000E+00 0. -1.
          1    1    1    2  502    0  0.20021150615E+01  0.46440051353E+02  0.94858013533E+03  0.94971835824E+03  0.00000000000E+00 0. -1.
         22    1    3    3    0    0 -0.73292818372E+02 -0.30877867799E+02  0.83718549563E+02  0.11547326741E+03  0.00000000000E+00 0. -1.
         22    1    3    3    0    0  0.50713988408E+02 -0.20538737743E+02  0.28769670325E+02  0.61817815385E+02  0.00000000000E+00 0. -1.
</event>
<event>
 7    1  0.5537228E-006  0.6100019E+02  0.7818608E-02  0.1418203E+00
          2   -1    0    0  502    0  0.00000000000E+00  0.00000000000E+00  0.24346751038E+04  0.24346751038E+04  0.00000000000E+00 0. -1.
          1   -1    0    0  501    0 -0.00000000000E+00 -0.00000000000E+00 -0.79066943836E+03  0.79066943836E+03  0.00000000000E+00 0. -1.
         25    2    1    2    0    0  0.40847636160E+02  0.14210854779E+02  0.53948155817E+02  0.14285059319E+03  0.12500164273E+03 0.  0.
          2    1    1    2  501    0  0.93431592378E+01 -0.49444211458E+02 -0.74496692613E+03  0.74666441304E+03  0.00000000000E+00 0. -1.
          1    1    1    2  502    0 -0.50190795398E+02  0.35233356680E+02  0.23350244357E+04  0.23358295359E+04  0.00000000000E+00 0. -1.
         22    1    3    3    0    0 -0.23127149293E+02 -0.41454084060E+02  0.19645920432E+02  0.51373809566E+02  0.00000000000E+00 0. -1.
         22    1    3    3    0    0  0.63974785453E+02  0.55664938839E+02  0.34302235386E+02  0.91476783624E+02  0.00000000000E+00 0. -1.
</event>
<event>
 7    1  0.5537228E-006  0.1201501E+03  0.7818608E-02  0.1289192E+00
          2   -1    0    0  502    0  0.00000000000E+00  0.00000000000E+00  0.21589934606E+04  0.21589934606E+04  0.00000000000E+00 0. -1.
          1   -1    0    0  501    0 -0.00000000000E+00 -0.00000000000E+00 -0.10782828746E+03  0.10782828746E+03  0.00000000000E+00 0. -1.
         25    2    1    2    0    0 -0.15638262201E+03  0.10499758145E+03  0.61560292224E+03  0.65579889843E+03  0.12500088296E+03 0.  0.
          2    1    1    2  501    0  0.68732301283E+02 -0.33638469601E+02 -0.68510064054E+02  0.10270980846E+03  0.00000000000E+00 0. -1.
          1    1    1    2  502    0  0.87650320731E+02 -0.71359111850E+02  0.15040723150E+04  0.15083130412E+04  0.00000000000E+00 0. -1.
         22    1    3    3    0    0 -0.13144588302E+03  0.13282182454E+03  0.47845189752E+03  0.51364956486E+03  0.00000000000E+00 0. -1.
         22    1    3    3    0    0 -0.24936738992E+02 -0.27824243089E+02  0.13715102471E+03  0.14214933357E+03  0.00000000000E+00 0. -1.
</event>
<event>
 7    1  0.5537228E-006  0.9068394E+02  0.7818608E-02  0.1359649E+00
          2   -1    0    0  502    0  0.00000000000E+00  0.00000000000E+00  0.31234763658E+04  0.31234763658E+04  0.00000000000E+00 0. -1.
          1   -1    0    0  501    0 -0.00000000000E+00 -0.00000000000E+00 -0.19729375843E+02  0.19729375843E+02  0.00000000000E+00 0. -1.
         25    2    1    2    0    0 -0.10532102257E+03 -0.74543135532E+02  0.60481317144E+03  0.63093220938E+03  0.12500913422E+03 0.  0.
          2    1    1    2  501    0  0.55728541948E+02  0.52586540121E+02  0.22492253456E+03  0.23761557428E+03  0.00000000000E+00 0. -1.
          1    1    1    2  502    0  0.49592480621E+02  0.21956595411E+02  0.22740112840E+04  0.22746579580E+04  0.00000000000E+00 0. -1.
         22    1    3    3    0    0 -0.98405100945E+02 -0.98448191404E+02  0.57725704320E+03  0.59380241176E+03  0.00000000000E+00 0.  1.
         22    1    3    3    0    0 -0.69159216242E+01  0.23905055872E+02  0.27556128234E+02  0.37129797621E+02  0.00000000000E+00 0.  1.
</event>
<event>
 7    1  0.5537228E-006  0.1107999E+03  0.7818608E-02  0.1273132E+00
          2   -1    0    0  502    0  0.00000000000E+00  0.00000000000E+00  0.31462124500E+04  0.31462124500E+04  0.00000000000E+00 0. -1.
          1   -1    0    0  501    0 -0.00000000000E+00 -0.00000000000E+00 -0.43068791746E+03  0.43068791746E+03  0.00000000000E+00 0. -1.
         25    2    1    2    0    0 -0.11276095143E+03  0.28346584774E+01  0.11987000488E+04  0.12104664801E+04  0.12499690027E+03 0.  0.
          2    1    1    2  501    0  0.71794084384E+02  0.84709045857E+02 -0.41632033074E+03  0.43087426332E+03  0.00000000000E+00 0. -1.
          1    1    1    2  502    0  0.40966867047E+02 -0.87543704335E+02  0.19331448145E+04  0.19355596240E+04  0.00000000000E+00 0. -1.
         22    1    3    3    0    0 -0.82785507547E+02  0.51493927920E+02  0.96360496291E+03  0.96852443925E+03  0.00000000000E+00 0.  1.
         22    1    3    3    0    0 -0.29975443883E+02 -0.48659269443E+02  0.23509508585E+03  0.24194204085E+03  0.00000000000E+00 0.  1.
</event>
<event>
 7    1  0.5537228E-006  0.1132470E+03  0.7818608E-02  0.1307760E+00
          2   -1    0    0  502    0  0.00000000000E+00  0.00000000000E+00  0.30938144030E+04  0.30938144030E+04  0.00000000000E+00 0. -1.
          1   -1    0    0  501    0 -0.00000000000E+00 -0.00000000000E+00 -0.30753547854E+03  0.30753547854E+03  0.00000000000E+00 0. -1.
         25    2    1    2    0    0 -0.81588048107E+02 -0.30460041263E+02  0.12455852910E+03  0.19678608817E+03  0.12500205445E+03 0.  0.
          2    1    1    2  501    0  0.64860675332E+02  0.96769511134E+02 -0.25850276610E+03  0.28353998937E+03  0.00000000000E+00 0. -1.
          1    1    1    2  502    0  0.16727372775E+02 -0.66309469871E+02  0.29202231615E+04  0.29210238040E+04  0.00000000000E+00 0. -1.
         22    1    3    3    0    0  0.24566003346E+02 -0.17098130909E+02 -0.32495377033E+01  0.30106379661E+02  0.00000000000E+00 0.  1.
         22    1    3    3    0    0 -0.10615405145E+03 -0.13361910354E+02  0.12780806680E+03  0.16667970851E+03  0.00000000000E+00 0.  1.
</event>
<event>
 7    1  0.5537228E-006  0.7543336E+02  0.7818608E-02  0.1353988E+00
          2   -1    0    0  502    0  0.00000000000E+00  0.00000000000E+00  0.92243489403E+03  0.92243489403E+03  0.00000000000E+00 0. -1.
          1   -1    0    0  501    0 -0.00000000000E+00 -0.00000000000E+00 -0.12781723956E+04  0.12781723956E+04  0.00000000000E+00 0. -1.
         25    2    1    2    0    0 -0.30840300261E+02  0.12682636467E+03 -0.64049479582E+02  0.19173701875E+03  0.12499879052E+03 0.  0.
          2    1    1    2  501    0  0.43231157885E+02 -0.52997357588E+02 -0.11476273116E+04  0.11496634722E+04  0.00000000000E+00 0. -1.
          1    1    1    2  502    0 -0.12390857623E+02 -0.73829007081E+02  0.85593928955E+03  0.85920679876E+03  0.00000000000E+00 0. -1.
         22    1    3    3    0    0  0.12289112947E+02  0.48524916623E+02  0.32871467030E+02  0.59885083076E+02  0.00000000000E+00 0. -1.
         22    1    3    3    0    0 -0.43129413209E+02  0.78301448046E+02 -0.96920946612E+02  0.13185193568E+03  0.00000000000E+00 0. -1.
</event>
<event>
 7    1  0.5537228E-006  0.4992264E+02  0.7818608E-02  0.1459780E+00
          2   -1    0    0  502    0  0.00000000000E+00  0.00000000000E+00  0.15656802383E+04  0.15656802383E+04  0.00000000000E+00 0. -1.
          1   -1    0    0  501    0 -0.00000000000E+00 -0.00000000000E+00 -0.95975800321E+02  0.95975800321E+02  0.00000000000E+00 0. -1.
         25    2    1    2    0    0  0.63098874967E+02  0.41326353495E+02  0.43227710203E+03  0.45626467107E+03  0.12499848643E+03 0.  0.
          2    1    1    2  501    0 -0.44815345768E+02  0.45080719489E+01 -0.77357484569E+02  0.89514905730E+02  0.00000000000E+00 0. -1.
          1    1    1    2  502    0 -0.18283529199E+02 -0.45834425444E+02  0.11147848205E+04  0.11158764618E+04  0.00000000000E+00 0. -1.
         22    1    3    3    0    0 -0.12853617181E+02 -0.24081587904E+02  0.21800142940E+03  0.21970380418E+03  0.00000000000E+00 0. -1.
         22    1    3    3    0    0  0.75952492148E+02  0.65407941399E+02  0.21427567263E+03  0.23656086688E+03  0.00000000000E+00 0. -1.
</event>
<event>
 7    1  0.5537228E-006  0.1800880E+03  0.7818608E-02  0.1249730E+00
          2   -1    0    0  502    0  0.00000000000E+00  0.00000000000E+00  0.13484634712E+04  0.13484634712E+04  0.00000000000E+00 0. -1.
          1   -1    0    0  501    0 -0.00000000000E+00 -0.00000000000E+00 -0.40203786629E+03  0.40203786629E+03  0.00000000000E+00 0. -1.
         25    2    1    2    0    0 -0.82822547027E+02 -0.23291211490E+03 -0.10430466972E+03  0.29601036356E+03  0.12504016813E+03 0.  0.
          2    1    1    2  501    0  0.46439447283E+02  0.58645353997E+02 -0.18836349615E+03  0.20267389198E+03  0.00000000000E+00 0. -1.
          1    1    1    2  502    0  0.36383099744E+02  0.17426676091E+03  0.12390937708E+04  0.12518170820E+04  0.00000000000E+00 0. -1.
         22    1    3    3    0    0 -0.83626271113E+01  0.92203877324E+01  0.11976999516E+02  0.17274188825E+02  0.00000000000E+00 0. -1.
         22    1    3    3    0    0 -0.74459919916E+02 -0.24213250264E+03 -0.11628166923E+03  0.27873617474E+03  0.00000000000E+00 0. -1.
</event>
<event>
 7    1  0.5537228E-006  0.1661217E+03  0.7818608E-02  0.1294711E+00
          2   -1    0    0  502    0  0.00000000000E+00  0.00000000000E+00  0.19037550236E+04  0.19037550236E+04  0.00000000000E+00 0. -1.
          1   -1    0    0  501    0 -0.00000000000E+00 -0.00000000000E+00 -0.86047920437E+03  0.86047920437E+03  0.00000000000E+00 0. -1.
         25    2    1    2    0    0 -0.16049855771E+03 -0.39222390942E+02 -0.41981933490E+03  0.46815848279E+03  0.12500363224E+03 0.  0.
          2    1    1    2  501    0  0.14482966834E+03  0.89399766083E+02 -0.39871568917E+03  0.43352295417E+03  0.00000000000E+00 0. -1.
          1    1    1    2  502    0  0.15668889376E+02 -0.50177375140E+02  0.18618108433E+04  0.18625527910E+04  0.00000000000E+00 0. -1.
         22    1    3    3    0    0 -0.21627510446E+02  0.41305182319E+02 -0.97653706141E+02  0.10821327838E+03  0.00000000000E+00 0.  1.
         22    1    3    3    0    0 -0.13887104727E+03 -0.80527573261E+02 -0.32216562876E+03  0.35994520441E+03  0.00000000000E+00 0.  1.
</event>
<event>
 7    1  0.5537228E-006  0.5486616E+02  0.7818608E-02  0.1483678E+00
          2   -1    0    0  502    0  0.00000000000E+00  0.00000000000E+00  0.10904676701E+04  0.10904676701E+04  0.00000000000E+00 0. -1.
          1   -1    0    0  501    0 -0.00000000000E+00 -0.00000000000E+00 -0.18443214888E+04  0.18443214888E+04  0.00000000000E+00 0. -1.
         25    2    1    2    0    0  0.54095965740E+01  0.22457084750E+02  0.30175459400E+03  0.32743558057E+03  0.12499856013E+03 0.  0.
          2    1    1    2  501    0  0.32646123221E+01  0.34394882938E+02 -0.18302520399E+04  0.18305781041E+04  0.00000000000E+00 0. -1.
          1    1    1    2  502    0 -0.86742088961E+01 -0.56851967688E+02  0.77464362725E+03  0.77677547424E+03  0.00000000000E+00 0. -1.
         22    1    3    3    0    0 -0.37408725529E+02  0.41812697360E+02  0.25518003123E+03  0.26127487967E+03  0.00000000000E+00 0. -1.
         22    1    3    3    0    0  0.42818322103E+02 -0.19355612610E+02  0.46574562769E+02  0.66160700905E+02  0.00000000000E+00 0. -1.
</event>
<event>
 7    1  0.5537228E-006  0.2037662E+03  0.7818608E-02  0.1377042E+00
          2   -1    0    0  502    0  0.00000000000E+00  0.00000000000E+00  0.60148446979E+03  0.60148446979E+03  0.00000000000E+00 0. -1.
          1   -1    0    0  501    0 -0.00000000000E+00 -0.00000000000E+00 -0.63683489171E+03  0.63683489171E+03  0.00000000000E+00 0. -1.
         25    2    1    2    0    0  0.17662860247E+03 -0.81736577503E+02 -0.26635267228E+03  0.35277054804E+03  0.12499912889E+03 0.  0.
          2    1    1    2  501    0 -0.18566181827E+03  0.10057576803E+03 -0.29298488333E+03  0.36114531388E+03  0.00000000000E+00 0. -1.
          1    1    1    2  502    0  0.90332158017E+01 -0.18839190523E+02  0.52398713370E+03  0.52440349958E+03  0.00000000000E+00 0. -1.
         22    1    3    3    0    0  0.11588074237E+03  0.15236224279E+02 -0.13498937623E+03  0.17855705160E+03  0.00000000000E+00 0.  1.
         22    1    3    3    0    0  0.60747860092E+02 -0.96972801782E+02 -0.13136329605E+03  0.17421349643E+03  0.00000000000E+00 0.  1.
</event>
<event>
 7    1  0.5537228E-006  0.4175903E+02  0.7818608E-02  0.1521881E+00
          2   -1    0    0  502    0  0.00000000000E+00  0.00000000000E+00  0.42990395841E+03  0.42990395841E+03  0.00000000000E+00 0. -1.
          1   -1    0    0  501    0 -0.00000000000E+00 -0.00000000000E+00 -0.43231160973E+02  0.43231160973E+02  0.00000000000E+00 0. -1.
         25    2    1    2    0    0 -0.75073874357E+01 -0.11853725540E+02  0.15010128600E+03  0.19583835720E+03  0.12500157765E+03 0.  0.
          2    1    1    2  501    0  0.13296920550E+02 -0.32318187976E+02 -0.16109386970E+01  0.34983831889E+02  0.00000000000E+00 0. -1.
          1    1    1    2  502    0 -0.57895331145E+01  0.44171913516E+02  0.23818245013E+03  0.24231293029E+03  0.00000000000E+00 0. -1.
         22    1    3    3    0    0 -0.10648645741E+02 -0.43144149710E+02  0.15740152962E+03  0.16355443387E+03  0.00000000000E+00 0.  1.
         22    1    3    3    0    0  0.31412583054E+01  0.31290424170E+02 -0.73002436224E+01  0.32283923328E+02  0.00000000000E+00 0.  1.
</event>
<event>
 7    1  0.1155727E-005  0.8819933E+02  0.7818608E-02  0.1457701E+00
          2   -1    0    0  502    0  0.00000000000E+00  0.00000000000E+00  0.79027645515E+03  0.79027645515E+03  0.00000000000E+00 0. -1.
          1   -1    0    0  501    0 -0.00000000000E+00 -0.00000000000E+00 -0.17500455511E+04  0.17500455511E+04  0.00000000000E+00 0. -1.
         25    2    1    2    0    0 -0.97546520952E+02 -0.53088207266E+02 -0.12261857266E+04  0.12375327888E+04  0.12498914240E+03 0.  0.
          2    1    1    2  501    0  0.15564640467E+02  0.20680193921E+02 -0.51538431583E+03  0.51603383751E+03  0.00000000000E+00 0. -1.
          1    1    1    2  502    0  0.81981880485E+02  0.32408013345E+02  0.78180094645E+03  0.78675537998E+03  0.00000000000E+00 0. -1.
         22    1    3    3    0    0 -0.11623790292E+03 -0.19078329232E+02 -0.69326819874E+03  0.70320411554E+03  0.00000000000E+00 0. -1.
         22    1    3    3    0    0  0.18691381968E+02 -0.34009878034E+02 -0.53291752787E+03  0.53432867327E+03  0.00000000000E+00 0. -1.
</event>
<event>
 7    1  0.5537228E-006  0.8024033E+02  0.7818608E-02  0.1341141E+00
          2   -1    0    0  502    0  0.00000000000E+00  0.00000000000E+00  0.16387874431E+04  0.16387874431E+04  0.00000000000E+00 0. -1.
          1   -1    0    0  501    0 -0.00000000000E+00 -0.00000000000E+00 -0.28321102132E+04  0.28321102132E+04  0.00000000000E+00 0. -1.
         25    2    1    2    0    0  0.59534259613E+02 -0.83700052186E+02  0.13043714280E+03  0.20781978725E+03  0.12500075580E+03 0.  0.
          2    1    1    2  501    0  0.19522091527E+02  0.69067269125E+02 -0.27918577551E+04  0.27927801784E+04  0.00000000000E+00 0. -1.
          1    1    1    2  502    0 -0.79056351140E+02  0.14632783061E+02  0.14680978422E+04  0.14702976907E+04  0.00000000000E+00 0. -1.
         22    1    3    3    0    0 -0.22626692715E+02 -0.28526033661E+02  0.96589357141E+02  0.10322405598E+03  0.00000000000E+00 0.  1.
         22    1    3    3    0    0  0.82160952328E+02 -0.55174018525E+02  0.33847785655E+02  0.10459573128E+03  0.00000000000E+00 0.  1.
</event>
<event>
 7    1  0.5537228E-006  0.7669691E+02  0.7818608E-02  0.1385501E+00
          2   -1    0    0  502    0  0.00000000000E+00  0.00000000000E+00  0.55656904591E+03  0.55656904591E+03  0.00000000000E+00 0. -1.
          1   -1    0    0  501    0 -0.00000000000E+00 -0.00000000000E+00 -0.14207782359E+04  0.14207782359E+04  0.00000000000E+00 0. -1.
         25    2    1    2    0    0 -0.34410352597E+02 -0.10165665824E+02  0.22159444603E+03  0.25693852200E+03  0.12500356974E+03 0.  0.
          2    1    1    2  501    0  0.72885961749E+02 -0.24537956292E+02 -0.13999284608E+04  0.14020392898E+04  0.00000000000E+00 0. -1.
          1    1    1    2  502    0 -0.38475609152E+02  0.34703622116E+02  0.31412482479E+03  0.31836947002E+03  0.00000000000E+00 0. -1.
         22    1    3    3    0    0  0.17881768300E+02  0.14169101406E+02  0.18962763153E+03  0.19099518243E+03  0.00000000000E+00 0. -1.
         22    1    3    3    0    0 -0.52292120898E+02 -0.24334767230E+02  0.31966814499E+02  0.65943339568E+02  0.00000000000E+00 0. -1.
</event>
<event>
 7    1  0.5537228E-006  0.1258742E+03  0.7818608E-02  0.1305401E+00
          2   -1    0    0  502    0  0.00000000000E+00  0.00000000000E+00  0.50050126236E+03  0.50050126236E+03  0.00000000000E+00 0. -1.
          1   -1    0    0  501    0 -0.00000000000E+00 -0.00000000000E+00 -0.15182962584E+04  0.15182962584E+04  0.00000000000E+00 0. -1.
         25    2    1    2    0    0  0.90516741113E+02  0.59601219990E+02 -0.36357103949E+03  0.39944327762E+03  0.12500178171E+03 0.  0.
          2    1    1    2  501    0  0.35796895752E+02 -0.51677559734E+02 -0.11276001826E+04  0.11293512118E+04  0.00000000000E+00 0. -1.
          1    1    1    2  502    0 -0.12631363686E+03 -0.79236602560E+01  0.47337622606E+03  0.49000303127E+03  0.00000000000E+00 0. -1.
         22    1    3    3    0    0  0.50247871981E+02  0.59808025715E+02 -0.75724632487E+02  0.10879369717E+03  0.00000000000E+00 0. -1.
         22    1    3    3    0    0  0.40268869132E+02 -0.20680572522E+00 -0.28784640700E+03  0.29064958045E+03  0.00000000000E+00 0. -1.
</event>
<event>
 7    1  0.5537228E-006  0.7952215E+02  0.7818608E-02  0.1427631E+00
          2   -1    0    0  502    0  0.00000000000E+00  0.00000000000E+00  0.23842606148E+04  0.23842606148E+04  0.00000000000E+00 0. -1.
          1   -1    0    0  501    0 -0.00000000000E+00 -0.00000000000E+00 -0.73680898488E+03  0.73680898488E+03  0.00000000000E+00 0. -1.
         25    2    1    2    0    0 -0.85367197561E+02  0.76175461081E+02  0.21979578809E+03  0.27753195598E+03  0.12499415520E+03 0.  0.
          2    1    1    2  501    0  0.62877386801E+02 -0.48179763151E+02 -0.70557342947E+03  0.71000614062E+03  0.00000000000E+00 0. -1.
          1    1    1    2  502    0  0.22489810760E+02 -0.27995697930E+02  0.21332292713E+04  0.21335315030E+04  0.00000000000E+00 0. -1.
         22    1    3    3    0    0 -0.44141678750E+02 -0.25433656840E+02  0.11533581338E+03  0.12608611561E+03  0.00000000000E+00 0.  1.
         22    1    3    3    0    0 -0.41225518811E+02  0.10160911792E+03  0.10445997472E+03  0.15144584037E+03  0.00000000000E+00 0.  1.
</event>
<event>
 7    1  0.5537228E-006  0.6001873E+02  0.7818608E-02  0.1441215E+00
          2   -1    0    0  502    0  0.00000000000E+00  0.00000000000E+00  0.79810884378E+03  0.79810884378E+03  0.00000000000E+00 0. -1.
          1   -1    0    0  501    0 -0.00000000000E+00 -0.00000000000E+00 -0.38504309517E+03  0.38504309517E+03  0.00000000000E+00 0. -1.
         25    2    1    2    0    0  0.90713099369E+02 -0.18282454875E+02  0.14977470634E+03  0.21591991724E+03  0.12500333375E+03 0.  0.
          2    1    1    2  501    0 -0.50127264573E+02  0.32341740458E+02 -0.34868462381E+03  0.35375089782E+03  0.00000000000E+00 0. -1.
          1    1    1    2  502    0 -0.40585834796E+02 -0.14059285584E+02  0.61197566608E+03  0.61348112389E+03  0.00000000000E+00 0. -1.
         22    1    3    3    0    0 -0.16466941320E+02  0.17920315014E+02 -0.43598072424E+01  0.24724598396E+02  0.00000000000E+00 0.  1.
         22    1    3    3    0    0  0.10718004069E+03 -0.36202769889E+02  0.15413451359E+03  0.19119531885E+03  0.00000000000E+00 0.  1.
</event>
<event>
 7    1  0.5537228E-006  0.1062361E+03  0.7818608E-02  0.1398275E+00
          2   -1    0    0  502    0  0.00000000000E+00  0.00000000000E+00  0.18075146145E+03  0.18075146145E+03  0.00000000000E+00 0. -1.
          1   -1    0    0  501    0 -0.00000000000E+00 -0.00000000000E+00 -0.47619572213E+03  0.47619572213E+03  0.00000000000E+00 0. -1.
         25    2    1    2    0    0 -0.10227892914E+03 -0.67782798540E+02 -0.27987098293E+03  0.33016545344E+03  0.12500388969E+03 0.  0.
          2    1    1    2  501    0  0.31975690652E+02 -0.10854472129E+02 -0.15122277727E+03  0.15494706426E+03  0.00000000000E+00 0. -1.
          1    1    1    2  502    0  0.70303238486E+02  0.78637270669E+02  0.13564949951E+03  0.17183466588E+03  0.00000000000E+00 0. -1.
         22    1    3    3    0    0 -0.12103571225E+03 -0.68240342176E+02 -0.17412915773E+03  0.22277197201E+03  0.00000000000E+00 0.  1.
         22    1    3    3    0    0  0.18756783111E+02  0.45754363598E+00 -0.10574182520E+03  0.10739348143E+03  0.00000000000E+00 0.  1.
</event>
<event>
 7    1  0.5537228E-006  0.2999003E+02  0.7818608E-02  0.1622183E+00
          2   -1    0    0  502    0  0.00000000000E+00  0.00000000000E+00  0.67261946896E+03  0.67261946896E+03  0.00000000000E+00 0. -1.
          1   -1    0    0  501    0 -0.00000000000E+00 -0.00000000000E+00 -0.24329759778E+03  0.24329759778E+03  0.00000000000E+00 0. -1.
         25    2    1    2    0    0 -0.33919884586E+02 -0.71099918938E+01 -0.13841334450E+02  0.13044935981E+03  0.12499736950E+03 0.  0.
          2    1    1    2  501    0  0.24721275618E+02 -0.17217775848E+02 -0.16954851553E+03  0.17220421712E+03  0.00000000000E+00 0. -1.
          1    1    1    2  502    0  0.91986089670E+01  0.24327767741E+02  0.61271172116E+03  0.61326348981E+03  0.00000000000E+00 0. -1.
         22    1    3    3    0    0 -0.31466359369E+02 -0.34034418435E+02  0.45678535284E+02  0.65076892948E+02  0.00000000000E+00 0. -1.
         22    1    3    3    0    0 -0.24535252170E+01  0.26924426541E+02 -0.59519869734E+02  0.65372466863E+02  0.00000000000E+00 0. -1.
</event>
<event>
 7    1  0.5537228E-006  0.1350692E+03  0.7818608E-02  0.1237008E+00
          2   -1    0    0  502    0  0.00000000000E+00  0.00000000000E+00  0.25525681217E+03  0.25525681217E+03  0.00000000000E+00 0. -1.
          1   -1    0    0  501    0 -0.00000000000E+00 -0.00000000000E+00 -0.50096614180E+03  0.50096614180E+03  0.00000000000E+00 0. -1.
         25    2    1    2    0    0  0.94486635375E+01  0.20693678674E+03  0.68059103784E+02  0.25133552048E+03  0.12500156517E+03 0.  0.
          2    1    1    2  501    0  0.59878381236E+02 -0.11718180064E+03 -0.35932831113E+03  0.38266673506E+03  0.00000000000E+00 0. -1.
          1    1    1    2  502    0 -0.69327044774E+02 -0.89754986103E+02  0.45559877712E+02  0.12222069843E+03  0.00000000000E+00 0. -1.
         22    1    3    3    0    0  0.13527590405E+02  0.19145400512E+03  0.99398692749E+02  0.21614285067E+03  0.00000000000E+00 0. -1.
         22    1    3    3    0    0 -0.40789268676E+01  0.15482781628E+02 -0.31339588966E+02  0.35192669803E+02  0.00000000000E+00 0. -1.
</event>
<event>
 7    1  0.5537228E-006  0.4927662E+02  0.7818608E-02  0.1454627E+00
          2   -1    0    0  502    0  0.00000000000E+00  0.00000000000E+00  0.38119150536E+04  0.38119150536E+04  0.00000000000E+00 0. -1.
          1   -1    0    0  501    0 -0.00000000000E+00 -0.00000000000E+00 -0.92698175544E+03  0.92698175544E+03  0.00000000000E+00 0. -1.
         25    2    1    2    0    0  0.55864285617E+01  0.26797976731E+02  0.73589452429E+03  0.74693843805E+03  0.12500775824E+03 0.  0.
          2    1    1    2  501    0 -0.48768482882E+02 -0.73014431360E+01 -0.92061712166E+03  0.92193685288E+03  0.00000000000E+00 0. -1.
          1    1    1    2  502    0  0.43182054321E+02 -0.19496533595E+02  0.30696558955E+04  0.30700215181E+04  0.00000000000E+00 0. -1.
         22    1    3    3    0    0  0.33298882919E+02  0.17322291611E+02  0.62483108097E+02  0.72890439618E+02  0.00000000000E+00 0. -1.
         22    1    3    3    0    0 -0.27712454358E+02  0.94756851198E+01  0.67341141619E+03  0.67404799843E+03  0.00000000000E+00 0. -1.
</event>
<event>
 7    1  0.5537228E-006  0.4755401E+02  0.7818608E-02  0.1487852E+00
          2   -1    0    0  502    0  0.00000000000E+00  0.00000000000E+00  0.74564436616E+03  0.74564436616E+03  0.00000000000E+00 0. -1.
          1   -1    0    0  501    0 -0.00000000000E+00 -0.00000000000E+00 -0.30724560586E+03  0.30724560586E+03  0.00000000000E+00 0. -1.
         25    2    1    2    0    0  0.32642440745E+02 -0.13603157314E+02  0.10256125396E+03  0.16550878887E+03  0.12499509412E+03 0.  0.
          2    1    1    2  501    0 -0.41471036212E+02 -0.24089543996E+02 -0.27306728553E+03  0.27724699349E+03  0.00000000000E+00 0. -1.
          1    1    1    2  502    0  0.88285954673E+01  0.37692701310E+02  0.60890479187E+03  0.61013418966E+03  0.00000000000E+00 0. -1.
         22    1    3    3    0    0  0.79209335585E+02  0.13628909745E+00  0.48646080704E+02  0.92954712556E+02  0.00000000000E+00 0. -1.
         22    1    3    3    0    0 -0.46566894840E+02 -0.13739446411E+02  0.53915173252E+02  0.72554076312E+02  0.00000000000E+00 0. -1.
</event>
<event>
 7    1  0.6183384E-006  0.8356276E+02  0.7818608E-02  0.1440114E+00
          2   -1    0    0  502    0  0.00000000000E+00  0.00000000000E+00  0.11986608511E+04  0.11986608511E+04  0.00000000000E+00 0. -1.
          1   -1    0    0  501    0 -0.00000000000E+00 -0.00000000000E+00 -0.15562565227E+04  0.15562565227E+04  0.00000000000E+00 0. -1.
         25    2    1    2    0    0  0.15466105989E+02  0.55951913639E+02 -0.49694022341E+03  0.51569815696E+03  0.12500074550E+03 0.  0.
          2    1    1    2  501    0 -0.17162828473E+02 -0.87010427326E+02 -0.10478604465E+04  0.10516068145E+04  0.00000000000E+00 0. -1.
          1    1    1    2  502    0  0.16967224842E+01  0.31058513687E+02  0.11872049982E+04  0.11876124022E+04  0.00000000000E+00 0. -1.
         22    1    3    3    0    0  0.24229282216E+02  0.59042369545E+02 -0.50136192496E+03  0.50540759721E+03  0.00000000000E+00 0.  1.
         22    1    3    3    0    0 -0.87631762268E+01 -0.30904559056E+01  0.44217015541E+01  0.10290559748E+02  0.00000000000E+00 0.  1.
</event>
<event>
 7    1  0.5537228E-006  0.7266890E+02  0.7818608E-02  0.1404790E+00
          2   -1    0    0  502    0  0.00000000000E+00  0.00000000000E+00  0.12750217374E+04  0.12750217374E+04  0.00000000000E+00 0. -1.
          1   -1    0    0  501    0 -0.00000000000E+00 -0.00000000000E+00 -0.31473340621E+03  0.31473340621E+03  0.00000000000E+00 0. -1.
         25    2    1    2    0    0  0.63026717965E+02  0.28740575918E+02  0.36789781116E+01  0.14295978086E+03  0.12500230471E+03 0.  0.
          2    1    1    2  501    0 -0.29791799140E+02  0.36208418324E+02 -0.24173073514E+03  0.24623636848E+03  0.00000000000E+00 0. -1.
          1    1    1    2  502    0 -0.33234918825E+02 -0.64948994242E+02  0.11983400882E+04  0.12005589942E+04  0.00000000000E+00 0. -1.
         22    1    3    3    0    0  0.64216773083E+02  0.89809018337E+01 -0.52477354175E+02  0.83416564567E+02  0.00000000000E+00 0.  1.
         22    1    3    3    0    0 -0.11900551182E+01  0.19759674084E+02  0.56156332286E+02  0.59543216297E+02  0.00000000000E+00 0.  1.
</event>
<event>
 7    1  0.5537228E-006  0.5180804E+02  0.7818608E-02  0.1445566E+00
          2   -1    0    0  502    0  0.00000000000E+00  0.00000000000E+00  0.53611875680E+03  0.53611875680E+03  0.00000000000E+00 0. -1.
          1   -1    0    0  501    0 -0.00000000000E+00 -0.00000000000E+00 -0.49937779349E+03  0.49937779349E+03  0.00000000000E+00 0. -1.
         25    2    1    2    0    0  0.27266053007E+02 -0.33643947127E+02 -0.72756020328E+02  0.15098228633E+03  0.12500743764E+03 0.  0.
          2    1    1    2  501    0 -0.52652054351E+02 -0.72996050075E+01 -0.38450852054E+03  0.38816533259E+03  0.00000000000E+00 0. -1.
          1    1    1    2  502    0  0.25386001344E+02  0.40943552135E+02  0.49400550417E+03  0.49634893138E+03  0.00000000000E+00 0. -1.
         22    1    3    3    0    0  0.51682949504E+02 -0.10348894560E+02  0.16765687247E+02  0.55311076259E+02  0.00000000000E+00 0. -1.
         22    1    3    3    0    0 -0.24416896497E+02 -0.23295052567E+02 -0.89521707575E+02  0.95671210067E+02  0.00000000000E+00 0. -1.
</event>
<event>
 7    1  0.5537228E-006  0.3547924E+02  0.7818608E-02  0.1573170E+00
          2   -1    0    0  502    0  0.00000000000E+00  0.00000000000E+00  0.75853713537E+03  0.75853713537E+03  0.00000000000E+00 0. -1.
          1   -1    0    0  501    0 -0.00000000000E+00 -0.00000000000E+00 -0.17158846055E+04  0.17158846055E+04  0.00000000000E+00 0. -1.
         25    2    1    2    0    0 -0.21551651762E+02  0.52051237811E+02  0.21739436622E+03  0.25701743735E+03  0.12499539028E+03 0.  0.
          2    1    1    2  501    0  0.24093662313E+02 -0.17113871213E+02 -0.16953557064E+04  0.16956132697E+04  0.00000000000E+00 0. -1.
          1    1    1    2  502    0 -0.25420105518E+01 -0.34937366598E+02  0.52061387000E+03  0.52179103388E+03  0.00000000000E+00 0. -1.
         22    1    3    3    0    0 -0.36979102895E+02  0.17108134620E+02  0.48089473467E+01  0.41027652817E+02  0.00000000000E+00 0. -1.
         22    1    3    3    0    0  0.15427451134E+02  0.34943103191E+02  0.21258541887E+03  0.21598978454E+03  0.00000000000E+00 0. -1.
</event>
<event>
 7    1  0.5537228E-006  0.7655626E+02  0.7818608E-02  0.1353823E+00
          2   -1    0    0  502    0  0.00000000000E+00  0.00000000000E+00  0.36393034394E+04  0.36393034394E+04  0.00000000000E+00 0. -1.
          1   -1    0    0  501    0 -0.00000000000E+00 -0.00000000000E+00 -0.16343697824E+04  0.16343697824E+04  0.00000000000E+00 0. -1.
         25    2    1    2    0    0 -0.10100813476E+03  0.10200500013E+03  0.88825061118E+03  0.90841726657E+03  0.12500047437E+03 0.  0.
          2    1    1    2  501    0  0.57579210929E+02 -0.50351480873E+02 -0.16229702159E+04  0.16247716636E+04  0.00000000000E+00 0. -1.
          1    1    1    2  502    0  0.43428923832E+02 -0.51653519253E+02  0.27396532618E+04  0.27404842915E+04  0.00000000000E+00 0. -1.
         22    1    3    3    0    0 -0.10611105861E+02 -0.23465406979E+02  0.52457277512E+02  0.58437888876E+02  0.00000000000E+00 0. -1.
         22    1    3    3    0    0 -0.90397028900E+02  0.12547040710E+03  0.83579333367E+03  0.84997937769E+03  0.00000000000E+00 0. -1.
</event>
<event>
 7    1  0.5537228E-006  0.4089156E+02  0.7818608E-02  0.1517978E+00
          2   -1    0    0  502    0  0.00000000000E+00  0.00000000000E+00  0.28820346489E+03  0.28820346489E+03  0.00000000000E+00 0. -1.
          1   -1    0    0  501    0 -0.00000000000E+00 -0.00000000000E+00 -0.39892888754E+03  0.39892888754E+03  0.00000000000E+00 0. -1.
         25    2    1    2    0    0 -0.30644988562E+02 -0.63345847331E+02 -0.93389171634E+02  0.17117183974E+03  0.12500579844E+03 0.  0.
          2    1    1    2  501    0  0.29681102758E+02  0.26726709815E+02 -0.26379131188E+03  0.26679794059E+03  0.00000000000E+00 0. -1.
          1    1    1    2  502    0  0.96388580392E+00  0.36619137515E+02  0.24645506086E+03  0.24916257210E+03  0.00000000000E+00 0. -1.
         22    1    3    3    0    0  0.18060184987E+02 -0.87286633376E+02 -0.60111670441E+02  0.10751064864E+03  0.00000000000E+00 0. -1.
         22    1    3    3    0    0 -0.48705173548E+02  0.23940786046E+02 -0.33277501193E+02  0.63661191102E+02  0.00000000000E+00 0. -1.
</event>
<event>
 7    1  0.5537228E-006  0.3504553E+02  0.7818608E-02  0.1565053E+00
          2   -1    0    0  502    0  0.00000000000E+00  0.00000000000E+00  0.12340553263E+04  0.12340553263E+04  0.00000000000E+00 0. -1.
          1   -1    0    0  501    0 -0.00000000000E+00 -0.00000000000E+00 -0.47145895504E+02  0.47145895504E+02  0.00000000000E+00 0. -1.
         25    2    1    2    0    0  0.24385426332E+02  0.61567871187E+02  0.77195774553E+03  0.78481176703E+03  0.12500198802E+03 0.  0.
          2    1    1    2  501    0 -0.12529438195E+02 -0.32406806057E+02 -0.32652379614E+02  0.47679825867E+02  0.00000000000E+00 0. -1.
          1    1    1    2  502    0 -0.11855988138E+02 -0.29161065130E+02  0.44760406491E+03  0.44870962893E+03  0.00000000000E+00 0. -1.
         22    1    3    3    0    0 -0.42225682022E+02 -0.79637110541E+01  0.30660418321E+03  0.30960063643E+03  0.00000000000E+00 0. -1.
         22    1    3    3    0    0  0.66611108355E+02  0.69531582241E+02  0.46535356232E+03  0.47521113061E+03  0.00000000000E+00 0. -1.
</event>
<event>
 7    1  0.5537228E-006  0.5675074E+02  0.7818608E-02  0.1516211E+00
          2   -1    0    0  502    0  0.00000000000E+00  0.00000000000E+00  0.37802992339E+03  0.37802992339E+03  0.00000000000E+00 0. -1.
          1   -1    0    0  501    0 -0.00000000000E+00 -0.00000000000E+00 -0.11289657176E+03  0.11289657176E+03  0.00000000000E+00 0. -1.
         25    2    1    2    0    0 -0.46501874012E+02  0.62562896813E+02  0.13909595524E+03  0.20260531207E+03  0.12499874948E+03 0.  0.
          2    1    1    2  501    0  0.42283395447E+02 -0.36188199826E+02 -0.70588189120E+02  0.89889731229E+02  0.00000000000E+00 0. -1.
          1    1    1    2  502    0  0.42184785642E+01 -0.26374696987E+02  0.19662558551E+03  0.19843145184E+03  0.00000000000E+00 0. -1.
         22    1    3    3    0    0  0.62211038631E+01  0.21523711253E+02  0.13371204068E+03  0.13557611184E+03  0.00000000000E+00 0.  1.
         22    1    3    3    0    0 -0.52722977875E+02  0.41039185560E+02  0.53839145585E+01  0.67029200229E+02  0.00000000000E+00 0.  1.
</event>
<event>
 7    1  0.5537228E-006  0.6209584E+02  0.7818608E-02  0.1490345E+00
          2   -1    0    0  502    0  0.00000000000E+00  0.00000000000E+00  0.15974409447E+04  0.15974409447E+04  0.00000000000E+00 0. -1.
          1   -1    0    0  501    0 -0.00000000000E+00 -0.00000000000E+00 -0.55728193821E+03  0.55728193821E+03  0.00000000000E+00 0. -1.
         25    2    1    2    0    0 -0.14615204212E+02 -0.89190644132E+02  0.65645541004E+02  0.16763807461E+03  0.12499844723E+03 0.  0.
          2    1    1    2  501    0  0.28778010143E+00  0.29134341984E+02 -0.50522220129E+03  0.50606162211E+03  0.00000000000E+00 0. -1.
          1    1    1    2  502    0  0.14327424110E+02  0.60056302148E+02  0.14797356668E+04  0.14810231862E+04  0.00000000000E+00 0. -1.
         22    1    3    3    0    0  0.16114165480E+02 -0.16399965788E+01  0.72795839229E+02  0.74576069398E+02  0.00000000000E+00 0.  1.
         22    1    3    3    0    0 -0.30729369692E+02 -0.87550647553E+02 -0.71502982246E+01  0.93062005208E+02  0.00000000000E+00 0.  1.
</event>
<event>
 7    1  0.5537228E-006  0.1431907E+03  0.7818608E-02  0.1261143E+00
          2   -1    0    0  502    0  0.00000000000E+00  0.00000000000E+00  0.18194104364E+03  0.18194104364E+03  0.00000000000E+00 0. -1.
          1   -1    0    0  501    0 -0.00000000000E+00 -0.00000000000E+00 -0.76657623767E+03  0.76657623767E+03  0.00000000000E+00 0. -1.
         25    2    1    2    0    0 -0.73445368949E+02  0.20743490359E+02 -0.18158342213E+03  0.23328432218E+03  0.12499808467E+03 0.  0.
          2    1    1    2  501    0 -0.82876799614E+02 -0.13864802635E+02 -0.51565386005E+03  0.52245545270E+03  0.00000000000E+00 0. -1.
          1    1    1    2  502    0  0.15632216856E+03 -0.68786877238E+01  0.11260208815E+03  0.19277750643E+03  0.00000000000E+00 0. -1.
         22    1    3    3    0    0 -0.54309596675E+01 -0.31993009982E+02 -0.12558306105E+00  0.32450944234E+02  0.00000000000E+00 0. -1.
         22    1    3    3    0    0 -0.68014409282E+02  0.52736500341E+02 -0.18145783907E+03  0.20083337795E+03  0.00000000000E+00 0. -1.
</event>
<event>
 7    1  0.5537228E-006  0.6773669E+02  0.7818608E-02  0.1402778E+00
          2   -1    0    0  502    0  0.00000000000E+00  0.00000000000E+00  0.32108933683E+03  0.32108933683E+03  0.00000000000E+00 0. -1.
          1   -1    0    0  501    0 -0.00000000000E+00 -0.00000000000E+00 -0.15988510810E+03  0.15988510810E+03  0.00000000000E+00 0. -1.
         25    2    1    2    0    0 -0.21470701932E+01 -0.35331534104E+02  0.10124965664E+03  0.16470442980E+03  0.12499251583E+03 0.  0.
          2    1    1    2  501    0  0.51457047273E+02  0.48762899729E+02 -0.11439727266E+03  0.13458225773E+03  0.00000000000E+00 0. -1.
          1    1    1    2  502    0 -0.49309977079E+02 -0.13431365625E+02  0.17435184475E+03  0.18168775740E+03  0.00000000000E+00 0. -1.
         22    1    3    3    0    0  0.23917580886E+02 -0.73042594461E+02  0.35775156446E+02  0.84776960902E+02  0.00000000000E+00 0. -1.
         22    1    3    3    0    0 -0.26064651079E+02  0.37711060357E+02  0.65474500190E+02  0.79927468897E+02  0.00000000000E+00 0. -1.
</event>
<event>
 7    1  0.5537228E-006  0.1064525E+03  0.7818608E-02  0.1280557E+00
          2   -1    0    0  502    0  0.00000000000E+00  0.00000000000E+00  0.45494728570E+03  0.45494728570E+03  0.00000000000E+00 0. -1.
          1   -1    0    0  501    0 -0.00000000000E+00 -0.00000000000E+00 -0.17041371618E+03  0.17041371618E+03  0.00000000000E+00 0. -1.
         25    2    1    2    0    0  0.11416369867E+03  0.30353633345E+02  0.69508506715E+02  0.18550542495E+03  0.12500454804E+03 0.  0.
          2    1    1    2  501    0 -0.64385973817E+02  0.68081897194E+02 -0.81053681339E+02  0.12389672154E+03  0.00000000000E+00 0. -1.
          1    1    1    2  502    0 -0.49777724855E+02 -0.98435530539E+02  0.29607874415E+03  0.31595885539E+03  0.00000000000E+00 0. -1.
         22    1    3    3    0    0  0.12789156424E+03 -0.10936985873E+02  0.54894843736E+02  0.13960413222E+03  0.00000000000E+00 0.  1.
         22    1    3    3    0    0 -0.13727865573E+02  0.41290619218E+02  0.14613662979E+02  0.45901292730E+02  0.00000000000E+00 0.  1.
</event>
<event>
 7    1  0.5537228E-006  0.1535135E+03  0.7818608E-02  0.1266833E+00
          2   -1    0    0  502    0  0.00000000000E+00  0.00000000000E+00  0.40988144010E+03  0.40988144010E+03  0.00000000000E+00 0. -1.
          1   -1    0    0  501    0 -0.00000000000E+00 -0.00000000000E+00 -0.36426998004E+04  0.36426998004E+04  0.00000000000E+00 0. -1.
         25    2    1    2    0    0 -0.16062877982E+03 -0.13818300574E+03 -0.16274802907E+04  0.16459687922E+04  0.12500008105E+03 0.  0.
          2    1    1    2  501    0  0.99330195770E+02  0.96474908033E+02 -0.20001307135E+04  0.20049181446E+04  0.00000000000E+00 0. -1.
          1    1    1    2  502    0  0.61298584046E+02  0.41708097704E+02  0.39479264396E+03  0.40169430360E+03  0.00000000000E+00 0. -1.
         22    1    3    3    0    0 -0.12373679943E+03 -0.12855046395E+03 -0.15430075806E+04  0.15532895452E+04  0.00000000000E+00 0. -1.
         22    1    3    3    0    0 -0.36891980384E+02 -0.96325417832E+01 -0.84472710087E+02  0.92679247015E+02  0.00000000000E+00 0. -1.
</event>
<event>
 7    1  0.5537228E-006  0.1213797E+03  0.7818608E-02  0.1256654E+00
          2   -1    0    0  502    0  0.00000000000E+00  0.00000000000E+00  0.13494068012E+04  0.13494068012E+04  0.00000000000E+00 0. -1.
          1   -1    0    0  501    0 -0.00000000000E+00 -0.00000000000E+00 -0.96992730155E+03  0.96992730155E+03  0.00000000000E+00 0. -1.
         25    2    1    2    0    0 -0.26900332464E+02 -0.18071907082E+02  0.28996210933E+03  0.31741458188E+03  0.12499508082E+03 0.  0.
          2    1    1    2  501    0  0.18207452997E+02  0.12131334968E+03 -0.94968002045E+03  0.95757014438E+03  0.00000000000E+00 0. -1.
          1    1    1    2  502    0  0.86928794670E+01 -0.10324144260E+03  0.10391974108E+04  0.10443493765E+04  0.00000000000E+00 0. -1.
         22    1    3    3    0    0  0.47055338436E+02 -0.22815236901E+02  0.89037990043E+02  0.10325939948E+03  0.00000000000E+00 0.  1.
         22    1    3    3    0    0 -0.73955670900E+02  0.47433298194E+01  0.20092411929E+03  0.21415518240E+03  0.00000000000E+00 0.  1.
</event>
<event>
 7    1  0.5537228E-006  0.5888193E+02  0.7818608E-02  0.1494987E+00
          2   -1    0    0  502    0  0.00000000000E+00  0.00000000000E+00  0.48241560490E+03  0.48241560490E+03  0.00000000000E+00 0. -1.
          1   -1    0    0  501    0 -0.00000000000E+00 -0.00000000000E+00 -0.11084203538E+04  0.11084203538E+04  0.00000000000E+00 0. -1.
         25    2    1    2    0    0  0.21650238989E+02  0.24240274255E+02 -0.35631603876E+03  0.37900042983E+03  0.12499553028E+03 0.  0.
          2    1    1    2  501    0 -0.45663346901E+02 -0.41805837526E+02 -0.73899667934E+03  0.74158543768E+03  0.00000000000E+00 0. -1.
          1    1    1    2  502    0  0.24013107912E+02  0.17565563271E+02  0.46930796917E+03  0.47025009122E+03  0.00000000000E+00 0. -1.
         22    1    3    3    0    0 -0.34063587189E+02  0.12565516605E+02 -0.28708578062E+03  0.28937253777E+03  0.00000000000E+00 0. -1.
         22    1    3    3    0    0  0.55713826178E+02  0.11674757651E+02 -0.69230258134E+02  0.89627892059E+02  0.00000000000E+00 0. -1.
</event>
<event>
 7    1  0.5537228E-006  0.5531994E+02  0.7818608E-02  0.1537666E+00
          2   -1    0    0  502    0  0.00000000000E+00  0.00000000000E+00  0.34579256837E+02  0.34579256837E+02  0.00000000000E+00 0. -1.
          1   -1    0    0  501    0 -0.00000000000E+00 -0.00000000000E+00 -0.20055778610E+04  0.20055778610E+04  0.00000000000E+00 0. -1.
         25    2    1    2    0    0 -0.13324471206E+02  0.41067165932E+02 -0.42242782248E+03  0.44264470589E+03  0.12500006720E+03 0.  0.
          2    1    1    2  501    0 -0.52960280495E+01 -0.55842432161E+02 -0.15666462756E+04  0.15676501453E+04  0.00000000000E+00 0. -1.
          1    1    1    2  502    0  0.18620499255E+02  0.14775266229E+02  0.18075493973E+02  0.29862266609E+02  0.00000000000E+00 0. -1.
         22    1    3    3    0    0  0.55392003300E+02  0.11983093924E+02 -0.15645719907E+03  0.16640529953E+03  0.00000000000E+00 0.  1.
         22    1    3    3    0    0 -0.68716474506E+02  0.29084072009E+02 -0.26597062341E+03  0.27623940637E+03  0.00000000000E+00 0.  1.
</event>
<event>
 7    1  0.5537228E-006  0.5591949E+02  0.7818608E-02  0.1546946E+00
          2   -1    0    0  502    0  0.00000000000E+00  0.00000000000E+00  0.18599294668E+04  0.18599294668E+04  0.00000000000E+00 0. -1.
          1   -1    0    0  501    0 -0.00000000000E+00 -0.00000000000E+00 -0.42202952397E+03  0.42202952397E+03  0.00000000000E+00 0. -1.
         25    2    1    2    0    0 -0.63759915392E+02  0.34734983680E+02 -0.14083298525E+03  0.20181760042E+03  0.12499827280E+03 0.  0.
          2    1    1    2  501    0  0.22009677767E+02  0.24104200947E+01 -0.24978767219E+03  0.25076705768E+03  0.00000000000E+00 0. -1.
          1    1    1    2  502    0  0.41750237625E+02 -0.37145403775E+02  0.18285206003E+04  0.18293743326E+04  0.00000000000E+00 0. -1.
         22    1    3    3    0    0 -0.54670708801E+02 -0.40401585864E+02 -0.77865491734E+02  0.10336444913E+03  0.00000000000E+00 0.  1.
         22    1    3    3    0    0 -0.90892065904E+01  0.75136569544E+02 -0.62967493519E+02  0.98453151292E+02  0.00000000000E+00 0.  1.
</event>
<event>
 7    1  0.5537228E-006  0.3975353E+02  0.7818608E-02  0.1511641E+00
          2   -1    0    0  502    0  0.00000000000E+00  0.00000000000E+00  0.70704769605E+03  0.70704769605E+03  0.00000000000E+00 0. -1.
          1   -1    0    0  501    0 -0.00000000000E+00 -0.00000000000E+00 -0.29755836318E+03  0.29755836318E+03  0.00000000000E+00 0. -1.
         25    2    1    2    0    0 -0.45548995319E+02  0.17465965914E+02  0.66851560419E+02  0.14992213786E+03  0.12501098092E+03 0.  0.
          2    1    1    2  501    0  0.12029659027E+02 -0.38026918252E+02 -0.25381838430E+03  0.25693293174E+03  0.00000000000E+00 0. -1.
          1    1    1    2  502    0  0.33519336292E+02  0.20560952338E+02  0.59645615676E+03  0.59775098963E+03  0.00000000000E+00 0. -1.
         22    1    3    3    0    0  0.29595332330E+02 -0.54199540166E+01 -0.17380073256E+02  0.34746604779E+02  0.00000000000E+00 0. -1.
         22    1    3    3    0    0 -0.75144327649E+02  0.22885919931E+02  0.84231633675E+02  0.11517553308E+03  0.00000000000E+00 0. -1.
</event>
<event>
 7    1  0.5537228E-006  0.6083966E+02  0.7818608E-02  0.1397994E+00
          2   -1    0    0  502    0  0.00000000000E+00  0.00000000000E+00  0.85984475634E+03  0.85984475634E+03  0.00000000000E+00 0. -1.
          1   -1    0    0  501    0 -0.00000000000E+00 -0.00000000000E+00 -0.11851130061E+03  0.11851130061E+03  0.00000000000E+00 0. -1.
         25    2    1    2    0    0 -0.41661514329E+02 -0.42636526925E+02  0.12237671791E+03  0.18481053313E+03  0.12500126746E+03 0.  0.
          2    1    1    2  501    0 -0.14438300573E+02  0.61214523463E+02 -0.74543684064E+02  0.97531755034E+02  0.00000000000E+00 0. -1.
          1    1    1    2  502    0  0.56099814902E+02 -0.18577996538E+02  0.69350042188E+03  0.69601376879E+03  0.00000000000E+00 0. -1.
         22    1    3    3    0    0 -0.41940889479E+02 -0.13517870975E+02  0.14266794795E+03  0.14931816506E+03  0.00000000000E+00 0. -1.
         22    1    3    3    0    0  0.27937515031E+00 -0.29118655950E+02 -0.20291230037E+02  0.35492368070E+02  0.00000000000E+00 0. -1.
</event>
<event>
 7    1  0.5537228E-006  0.1439343E+03  0.7818608E-02  0.1296974E+00
          2   -1    0    0  502    0  0.00000000000E+00  0.00000000000E+00  0.90332486716E+03  0.90332486716E+03  0.00000000000E+00 0. -1.
          1   -1    0    0  501    0 -0.00000000000E+00 -0.00000000000E+00 -0.48511680707E+03  0.48511680707E+03  0.00000000000E+00 0. -1.
         25    2    1    2    0    0  0.14926426555E+03 -0.93712159372E+02  0.60680479787E+02  0.22440274591E+03  0.12495071814E+03 0.  0.
          2    1    1    2  501    0 -0.11849066792E+02  0.58215648015E+02 -0.39439238719E+03  0.39884184476E+03  0.00000000000E+00 0. -1.
          1    1    1    2  502    0 -0.13741519876E+03  0.35496511357E+02  0.75191996749E+03  0.76519708356E+03  0.00000000000E+00 0. -1.
         22    1    3    3    0    0  0.15175955987E+03 -0.35617660470E+02  0.30315300513E+02  0.15880364982E+03  0.00000000000E+00 0. -1.
         22    1    3    3    0    0 -0.24952943233E+01 -0.58094498902E+02  0.30365179274E+02  0.65599096098E+02  0.00000000000E+00 0. -1.
</event>
<event>
 7    1  0.5537228E-006  0.1072016E+03  0.7818608E-02  0.1458813E+00
          2   -1    0    0  502    0  0.00000000000E+00  0.00000000000E+00  0.21958581927E+04  0.21958581927E+04  0.00000000000E+00 0. -1.
          1   -1    0    0  501    0 -0.00000000000E+00 -0.00000000000E+00 -0.48036044800E+03  0.48036044800E+03  0.00000000000E+00 0. -1.
         25    2    1    2    0    0  0.17275488010E+02  0.12005934433E+03  0.12823468967E+04  0.12941222406E+04  0.12500448608E+03 0.  0.
          2    1    1    2  501    0 -0.29665962980E+02 -0.10295175814E+03 -0.46829910940E+03  0.48039899015E+03  0.00000000000E+00 0. -1.
          1    1    1    2  502    0  0.12390474970E+02 -0.17107586190E+02  0.90144995746E+03  0.90169740999E+03  0.00000000000E+00 0. -1.
         22    1    3    3    0    0 -0.31993465540E+02  0.11035303272E+03  0.67556104014E+03  0.68526206127E+03  0.00000000000E+00 0.  1.
         22    1    3    3    0    0  0.49268953550E+02  0.97063116124E+01  0.60678585653E+03  0.60886017931E+03  0.00000000000E+00 0.  1.
</event>
<event>
 7    1  0.5537228E-006  0.8123840E+02  0.7818608E-02  0.1337833E+00
          2   -1    0    0  502    0  0.00000000000E+00  0.00000000000E+00  0.25255869154E+03  0.25255869154E+03  0.00000000000E+00 0. -1.
          1   -1    0    0  501    0 -0.00000000000E+00 -0.00000000000E+00 -0.25174558818E+03  0.25174558818E+03  0.00000000000E+00 0. -1.
         25    2    1    2    0    0 -0.10077517036E+03 -0.33706021714E+02 -0.18447288796E+02  0.16509764618E+03  0.12500079780E+03 0.  0.
          2    1    1    2  501    0  0.38395829342E+02  0.71535287490E+02 -0.14123558817E+03  0.16290803674E+03  0.00000000000E+00 0. -1.
          1    1    1    2  502    0  0.62379341015E+02 -0.37829265775E+02  0.16049598033E+03  0.17629859681E+03  0.00000000000E+00 0. -1.
         22    1    3    3    0    0 -0.10709604294E+03 -0.58167100326E+02 -0.43609763620E+02  0.12944027757E+03  0.00000000000E+00 0.  1.
         22    1    3    3    0    0  0.63208725847E+01  0.24461078612E+02  0.25162474824E+02  0.35657368613E+02  0.00000000000E+00 0.  1.
</event>
<event>
 7    1  0.5537228E-006  0.1112679E+03  0.7818608E-02  0.1264483E+00
          2   -1    0    0  502    0  0.00000000000E+00  0.00000000000E+00  0.18376900471E+04  0.18376900471E+04  0.00000000000E+00 0. -1.
          1   -1    0    0  501    0 -0.00000000000E+00 -0.00000000000E+00 -0.51851167364E+02  0.51851167364E+02  0.00000000000E+00 0. -1.
         25    2    1    2    0    0  0.13137814391E+02  0.34730389444E+02  0.29145780522E+03  0.31929870785E+03  0.12500084197E+03 0.  0.
          2    1    1    2  501    0  0.10258243992E+03  0.20751261129E+02  0.42919777459E+02  0.11311887162E+03  0.00000000000E+00 0. -1.
          1    1    1    2  502    0 -0.11572025431E+03 -0.55481650572E+02  0.14514612971E+04  0.14571236350E+04  0.00000000000E+00 0. -1.
         22    1    3    3    0    0  0.82644997978E+01 -0.47301524228E+02  0.11624686595E+03  0.12577388439E+03  0.00000000000E+00 0.  1.
         22    1    3    3    0    0  0.48733145936E+01  0.82031913672E+02  0.17521093927E+03  0.19352482346E+03  0.00000000000E+00 0.  1.
</event>
<event>
 7    1  0.5537228E-006  0.2688919E+02  0.7818608E-02  0.1660321E+00
          2   -1    0    0  502    0  0.00000000000E+00  0.00000000000E+00  0.81620029225E+02  0.81620029225E+02  0.00000000000E+00 0. -1.
          1   -1    0    0  501    0 -0.00000000000E+00 -0.00000000000E+00 -0.24419503729E+04  0.24419503729E+04  0.00000000000E+00 0. -1.
         25    2    1    2    0    0  0.16164415268E+02 -0.11750876063E+02 -0.59367659177E+03  0.60702257172E+03  0.12500054218E+03 0.  0.
          2    1    1    2  501    0  0.14157671062E+01  0.27090812001E+02 -0.18396824941E+04  0.18398824951E+04  0.00000000000E+00 0. -1.
          1    1    1    2  502    0 -0.17580182374E+02 -0.15339935937E+02  0.73028742238E+02  0.76665335320E+02  0.00000000000E+00 0. -1.
         22    1    3    3    0    0  0.19394498566E+02  0.63405045537E+00 -0.76533699989E+01  0.20859594123E+02  0.00000000000E+00 0. -1.
         22    1    3    3    0    0 -0.32300832989E+01 -0.12384926519E+02 -0.58602322178E+03  0.58616297760E+03  0.00000000000E+00 0. -1.
</event>
<event>
 7    1  0.5537228E-006  0.2834778E+02  0.7818608E-02  0.1647591E+00
          2   -1    0    0  502    0  0.00000000000E+00  0.00000000000E+00  0.13656651555E+03  0.13656651555E+03  0.00000000000E+00 0. -1.
          1   -1    0    0  501    0 -0.00000000000E+00 -0.00000000000E+00 -0.10372388399E+03  0.10372388399E+03  0.00000000000E+00 0. -1.
         25    2    1    2    0    0 -0.42038188628E+02 -0.29056278598E+02 -0.45097710927E+01  0.13511241644E+03  0.12499420151E+03 0.  0.
          2    1    1    2  501    0  0.18595349249E+02  0.14810222664E+02 -0.26549323004E+02  0.35637006903E+02  0.00000000000E+00 0. -1.
          1    1    1    2  502    0  0.23442839379E+02  0.14246055934E+02  0.63901725661E+02  0.69540976196E+02  0.00000000000E+00 0. -1.
         22    1    3    3    0    0  0.90559642692E+01 -0.65090793044E+02 -0.23462031419E+02  0.69780289096E+02  0.00000000000E+00 0.  1.
         22    1    3    3    0    0 -0.51094152897E+02  0.36034514446E+02  0.18952260326E+02  0.65332127343E+02  0.00000000000E+00 0.  1.
</event>
<event>
 7    1  0.5537228E-006  0.3267118E+02  0.7818608E-02  0.1603358E+00
          2   -1    0    0  502    0  0.00000000000E+00  0.00000000000E+00  0.26554169388E+02  0.26554169388E+02  0.00000000000E+00 0. -1.
          1   -1    0    0  501    0 -0.00000000000E+00 -0.00000000000E+00 -0.17324296247E+04  0.17324296247E+04  0.00000000000E+00 0. -1.
         25    2    1    2    0    0 -0.50148327276E+02  0.25268224342E+02 -0.36914919313E+03  0.39376318838E+03  0.12499993536E+03 0.  0.
          2    1    1    2  501    0  0.26317745164E+02 -0.44326928931E+01 -0.13330907625E+04  0.13333578865E+04  0.00000000000E+00 0. -1.
          1    1    1    2  502    0  0.23830582112E+02 -0.20835531449E+02 -0.36354996478E+01  0.31862719159E+02  0.00000000000E+00 0. -1.
         22    1    3    3    0    0 -0.53932961041E+02  0.43336085940E+02 -0.36886869443E+03  0.37530107162E+03  0.00000000000E+00 0. -1.
         22    1    3    3    0    0  0.37846337650E+01 -0.18067861598E+02 -0.28049870052E+00  0.18462116753E+02  0.00000000000E+00 0. -1.
</event>
<event>
 7    1  0.5537228E-006  0.7763716E+02  0.7818608E-02  0.1458796E+00
          2   -1    0    0  502    0  0.00000000000E+00  0.00000000000E+00  0.29394567936E+03  0.29394567936E+03  0.00000000000E+00 0. -1.
          1   -1    0    0  501    0 -0.00000000000E+00 -0.00000000000E+00 -0.12391310076E+04  0.12391310076E+04  0.00000000000E+00 0. -1.
         25    2    1    2    0    0 -0.70026994588E+02  0.39477739376E+02 -0.17117745434E+03  0.22668838341E+03  0.12499452157E+03 0.  0.
          2    1    1    2  501    0  0.20691671284E+02  0.20561875748E+02 -0.10343166270E+04  0.10347278971E+04  0.00000000000E+00 0. -1.
          1    1    1    2  502    0  0.49335323304E+02 -0.60039615124E+02  0.26030875312E+03  0.27166040650E+03  0.00000000000E+00 0. -1.
         22    1    3    3    0    0 -0.15251244156E+02  0.24464847874E+02  0.14676330008E+02  0.32350021519E+02  0.00000000000E+00 0. -1.
         22    1    3    3    0    0 -0.54775750432E+02  0.15012891502E+02 -0.18585378435E+03  0.19433836189E+03  0.00000000000E+00 0. -1.
</event>
<event>
 7    1  0.5537228E-006  0.1028913E+03  0.7818608E-02  0.1352778E+00
          2   -1    0    0  502    0  0.00000000000E+00  0.00000000000E+00  0.77613671332E+03  0.77613671332E+03  0.00000000000E+00 0. -1.
          1   -1    0    0  501    0 -0.00000000000E+00 -0.00000000000E+00 -0.42378969392E+03  0.42378969392E+03  0.00000000000E+00 0. -1.
         25    2    1    2    0    0  0.92700998679E+02 -0.29040177645E+02  0.12686053271E+03  0.20286613922E+03  0.12499707441E+03 0.  0.
          2    1    1    2  501    0 -0.10151317604E+03 -0.20846807077E+02 -0.37774647895E+03  0.39170386344E+03  0.00000000000E+00 0. -1.
          1    1    1    2  502    0  0.88121773662E+01  0.49886984722E+02  0.60323296564E+03  0.60535640457E+03  0.00000000000E+00 0. -1.
         22    1    3    3    0    0  0.15929633639E+01 -0.38103516680E+02  0.10064651835E+03  0.10762962962E+03  0.00000000000E+00 0.  1.
         22    1    3    3    0    0  0.91108035315E+02  0.90633390353E+01  0.26214014365E+02  0.95236509609E+02  0.00000000000E+00 0.  1.
</event>
<event>
 7    1  0.5537228E-006  0.4729671E+02  0.7818608E-02  0.1521730E+00
          2   -1    0    0  502    0  0.00000000000E+00  0.00000000000E+00  0.58647089363E+03  0.58647089363E+03  0.00000000000E+00 0. -1.
          1   -1    0    0  501    0 -0.00000000000E+00 -0.00000000000E+00 -0.21062096030E+03  0.21062096030E+03  0.00000000000E+00 0. -1.
         25    2    1    2    0    0  0.40718075286E+02 -0.64007542088E+02 -0.31057989530E+02  0.14948127749E+03  0.12500050603E+03 0.  0.
          2    1    1    2  501    0 -0.23161554649E+02  0.20432508061E+02 -0.11730185627E+03  0.12129991956E+03  0.00000000000E+00 0. -1.
          1    1    1    2  502    0 -0.17556520638E+02  0.43575034027E+02  0.52420977913E+03  0.52631065688E+03  0.00000000000E+00 0. -1.
         22    1    3    3    0    0 -0.20770180784E+01 -0.92781089274E+02 -0.84944099528E+01  0.93192271844E+02  0.00000000000E+00 0.  1.
         22    1    3    3    0    0  0.42795093365E+02  0.28773547186E+02 -0.22563579577E+02  0.56289005650E+02  0.00000000000E+00 0.  1.
</event>
<event>
 7    1  0.5537228E-006  0.5750937E+02  0.7818608E-02  0.1427653E+00
          2   -1    0    0  502    0  0.00000000000E+00  0.00000000000E+00  0.38137297822E+02  0.38137297822E+02  0.00000000000E+00 0. -1.
          1   -1    0    0  501    0 -0.00000000000E+00 -0.00000000000E+00 -0.12375224559E+04  0.12375224559E+04  0.00000000000E+00 0. -1.
         25    2    1    2    0    0  0.85297341908E+02 -0.32881377088E+02 -0.32277966128E+03  0.35800628417E+03  0.12499987309E+03 0.  0.
          2    1    1    2  501    0 -0.30914107327E+02  0.38848436689E+02 -0.85863339142E+03  0.86006754614E+03  0.00000000000E+00 0. -1.
          1    1    1    2  502    0 -0.54383234581E+02 -0.59670596008E+01 -0.17972105382E+02  0.57585923416E+02  0.00000000000E+00 0. -1.
         22    1    3    3    0    0  0.92459364034E+02 -0.50067573540E+02 -0.14422475563E+03  0.17848326547E+03  0.00000000000E+00 0. -1.
         22    1    3    3    0    0 -0.71620221260E+01  0.17186196452E+02 -0.17855490565E+03  0.17952301870E+03  0.00000000000E+00 0. -1.
</event>
<event>
 7    1  0.6263892E-006  0.1183411E+03  0.7818608E-02  0.1318603E+00
          2   -1    0    0  502    0  0.00000000000E+00  0.00000000000E+00  0.49202301697E+03  0.49202301697E+03  0.00000000000E+00 0. -1.
          1   -1    0    0  501    0 -0.00000000000E+00 -0.00000000000E+00 -0.23297386984E+04  0.23297386984E+04  0.00000000000E+00 0. -1.
         25    2    1    2    0    0 -0.82502907802E+02 -0.11262013290E+02 -0.37971626349E+03  0.40834135801E+03  0.12499864464E+03 0.  0.
          2    1    1    2  501    0  0.10510451475E+03  0.66128341669E+02 -0.19318660338E+04  0.19358528583E+04  0.00000000000E+00 0. -1.
          1    1    1    2  502    0 -0.22601606953E+02 -0.54866328379E+02  0.47386661579E+03  0.47756749909E+03  0.00000000000E+00 0. -1.
         22    1    3    3    0    0 -0.83314806831E+02  0.32808439295E+02 -0.15212686898E+03  0.17652290217E+03  0.00000000000E+00 0. -1.
         22    1    3    3    0    0  0.81189902974E+00 -0.44070452585E+02 -0.22758939451E+03  0.23181845583E+03  0.00000000000E+00 0. -1.
</event>
<event>
 7    1  0.5537228E-006  0.9086241E+02  0.7818608E-02  0.1400629E+00
          2   -1    0    0  502    0  0.00000000000E+00  0.00000000000E+00  0.89704445211E+03  0.89704445211E+03  0.00000000000E+00 0. -1.
          1   -1    0    0  501    0 -0.00000000000E+00 -0.00000000000E+00 -0.62545472245E+03  0.62545472245E+03  0.00000000000E+00 0. -1.
         25    2    1    2    0    0  0.54206678798E+02  0.36206309839E+02 -0.77445417683E+02  0.16085769233E+03  0.12501257362E+03 0.  0.
          2    1    1    2  501    0 -0.56652747462E+02 -0.74880510578E+02 -0.50150477879E+03  0.51021923504E+03  0.00000000000E+00 0. -1.
          1    1    1    2  502    0  0.24460686635E+01  0.38674200738E+02  0.85053992613E+03  0.85142224718E+03  0.00000000000E+00 0. -1.
         22    1    3    3    0    0  0.65382398878E+02  0.69398372407E+02 -0.26366865398E+02  0.98925243324E+02  0.00000000000E+00 0. -1.
         22    1    3    3    0    0 -0.11175720080E+02 -0.33192062568E+02 -0.51078552285E+02  0.61932449010E+02  0.00000000000E+00 0. -1.
</event>
<event>
 7    1  0.5537228E-006  0.9352004E+02  0.7818608E-02  0.1296737E+00
          2   -1    0    0  502    0  0.00000000000E+00  0.00000000000E+00  0.10532970095E+03  0.10532970095E+03  0.00000000000E+00 0. -1.
          1   -1    0    0  501    0 -0.00000000000E+00 -0.00000000000E+00 -0.11305447483E+04  0.11305447483E+04  0.00000000000E+00 0. -1.
         25    2    1    2    0    0 -0.18839684819E+02 -0.69086400072E+02 -0.94263203660E+02  0.17215821248E+03  0.12500013665E+03 0.  0.
          2    1    1    2  501    0 -0.72691984202E+02  0.64714024066E+02 -0.96203999258E+03  0.96695034868E+03  0.00000000000E+00 0. -1.
          1    1    1    2  502    0  0.91531669021E+02  0.43723760065E+01  0.31088148865E+02  0.96765888130E+02  0.00000000000E+00 0. -1.
         22    1    3    3    0    0 -0.72143740825E+02 -0.35233388349E+02 -0.44759594910E+02  0.91921337736E+02  0.00000000000E+00 0. -1.
         22    1    3    3    0    0  0.53304056006E+02 -0.33853011723E+02 -0.49503608750E+02  0.80236874744E+02  0.00000000000E+00 0. -1.
</event>
<event>
 7    1  0.5537228E-006  0.9359197E+02  0.7818608E-02  0.1316895E+00
          2   -1    0    0  502    0  0.00000000000E+00  0.00000000000E+00  0.27584385380E+03  0.27584385380E+03  0.00000000000E+00 0. -1.
          1   -1    0    0  501    0 -0.00000000000E+00 -0.00000000000E+00 -0.12423399699E+04  0.12423399699E+04  0.00000000000E+00 0. -1.
         25    2    1    2    0    0  0.12695123501E+03 -0.10288497598E+03 -0.38572206863E+03  0.43715907508E+03  0.12499843337E+03 0.  0.
          2    1    1    2  501    0 -0.65941366030E+02  0.57250684541E+02 -0.82273275708E+03  0.82735427370E+03  0.00000000000E+00 0. -1.
          1    1    1    2  502    0 -0.61009868976E+02  0.45634291441E+02  0.24195870964E+03  0.25367047490E+03  0.00000000000E+00 0. -1.
         22    1    3    3    0    0 -0.16799659626E+02 -0.22812416975E+02 -0.16150167061E+02  0.32610777787E+02  0.00000000000E+00 0. -1.
         22    1    3    3    0    0  0.14375089463E+03 -0.80072559006E+02 -0.36957190157E+03  0.40454829729E+03  0.00000000000E+00 0. -1.
</event>
<event>
 7    1  0.5537228E-006  0.1215982E+03  0.7818608E-02  0.1313142E+00
          2   -1    0    0  502    0  0.00000000000E+00  0.00000000000E+00  0.45076061809E+03  0.45076061809E+03  0.00000000000E+00 0. -1.
          1   -1    0    0  501    0 -0.00000000000E+00 -0.00000000000E+00 -0.11806534551E+04  0.11806534551E+04  0.00000000000E+00 0. -1.
         25    2    1    2    0    0 -0.14317473380E+03 -0.10957145590E+03 -0.23658554657E+03  0.32264937306E+03  0.12499995496E+03 0.  0.
          2    1    1    2  501    0  0.49959012789E+02  0.34399515572E+02 -0.89119018271E+03  0.89325202009E+03  0.00000000000E+00 0. -1.
          1    1    1    2  502    0  0.93215721007E+02  0.75171940330E+02  0.39788289231E+03  0.41551268001E+03  0.00000000000E+00 0. -1.
         22    1    3    3    0    0 -0.66980392871E+02 -0.12379154416E+03 -0.16783992083E+03  0.21904556252E+03  0.00000000000E+00 0. -1.
         22    1    3    3    0    0 -0.76194340925E+02  0.14220088259E+02 -0.68745625748E+02  0.10360381054E+03  0.00000000000E+00 0. -1.
</event>
<event>
 7    1  0.5537228E-006  0.1156110E+03  0.7818608E-02  0.1292165E+00
          2   -1    0    0  502    0  0.00000000000E+00  0.00000000000E+00  0.68170180005E+03  0.68170180005E+03  0.00000000000E+00 0. -1.
          1   -1    0    0  501    0 -0.00000000000E+00 -0.00000000000E+00 -0.14908607457E+03  0.14908607457E+03  0.00000000000E+00 0. -1.
         25    2    1    2    0    0  0.38971611714E+02 -0.16032854266E+03  0.12807521507E+02  0.20739628236E+03  0.12500062888E+03 0.  0.
          2    1    1    2  501    0  0.39361481031E+01  0.95975340065E+02 -0.18070463426E+01  0.96073016914E+02  0.00000000000E+00 0. -1.
          1    1    1    2  502    0 -0.42907759818E+02  0.64353202591E+02  0.52161525032E+03  0.52731857534E+03  0.00000000000E+00 0. -1.
         22    1    3    3    0    0 -0.40628702760E+02 -0.87544912847E+02  0.22503033268E+02  0.99101916024E+02  0.00000000000E+00 0.  1.
         22    1    3    3    0    0  0.79600314475E+02 -0.72783629809E+02 -0.96955117603E+01  0.10829436634E+03  0.00000000000E+00 0.  1.
</event>
<event>
 7    1  0.5537228E-006  0.1498449E+03  0.7818608E-02  0.1296359E+00
          2   -1    0    0  502    0  0.00000000000E+00  0.00000000000E+00  0.18894246004E+03  0.18894246004E+03  0.00000000000E+00 0. -1.
          1   -1    0    0  501    0 -0.00000000000E+00 -0.00000000000E+00 -0.88702035788E+03  0.88702035788E+03  0.00000000000E+00 0. -1.
         25    2    1    2    0    0 -0.13850988262E+03 -0.44650753700E+01 -0.89225607310E+02  0.20685957683E+03  0.12499900418E+03 0.  0.
          2    1    1    2  501    0  0.13949743574E+03  0.61848564512E+02 -0.72428792551E+03  0.74018766442E+03  0.00000000000E+00 0. -1.
          1    1    1    2  502    0 -0.98755312081E+00 -0.57383489142E+02  0.11543563498E+03  0.12891557668E+03  0.00000000000E+00 0. -1.
         22    1    3    3    0    0  0.18118012861E+02 -0.22457441852E+02 -0.11221498158E+02  0.30959992014E+02  0.00000000000E+00 0. -1.
         22    1    3    3    0    0 -0.15662789548E+03  0.17992366482E+02 -0.78004109152E+02  0.17589958481E+03  0.00000000000E+00 0. -1.
</event>
<event>
 7    1  0.5537228E-006  0.1397355E+03  0.7818608E-02  0.1325992E+00
          2   -1    0    0  502    0  0.00000000000E+00  0.00000000000E+00  0.21085927008E+04  0.21085927008E+04  0.00000000000E+00 0. -1.
          1   -1    0    0  501    0 -0.00000000000E+00 -0.00000000000E+00 -0.96277800142E+02  0.96277800142E+02  0.00000000000E+00 0. -1.
         25    2    1    2    0    0  0.85080171612E+02  0.14505444683E+03  0.41085829100E+03  0.46120536259E+03  0.12500569209E+03 0.  0.
          2    1    1    2  501    0  0.96239181557E+01 -0.46060191404E+02 -0.60178916144E+02  0.76391511185E+02  0.00000000000E+00 0. -1.
          1    1    1    2  502    0 -0.94704089768E+02 -0.98994255426E+02  0.16616355258E+04  0.16672736272E+04  0.00000000000E+00 0. -1.
         22    1    3    3    0    0 -0.24824992433E+02  0.46505232937E+02  0.56213529198E+02  0.77064763704E+02  0.00000000000E+00 0.  1.
         22    1    3    3    0    0  0.10990516404E+03  0.98549213893E+02  0.35464476180E+03  0.38414059889E+03  0.00000000000E+00 0.  1.
</event>
<event>
 7    1  0.5537228E-006  0.1014736E+03  0.7818608E-02  0.1308579E+00
          2   -1    0    0  502    0  0.00000000000E+00  0.00000000000E+00  0.50613190429E+03  0.50613190429E+03  0.00000000000E+00 0. -1.
          1   -1    0    0  501    0 -0.00000000000E+00 -0.00000000000E+00 -0.19125881923E+04  0.19125881923E+04  0.00000000000E+00 0. -1.
         25    2    1    2    0    0 -0.14245543386E+03  0.41896332310E+02  0.87225705112E+02  0.21279719464E+03  0.12500187646E+03 0.  0.
          2    1    1    2  501    0  0.46215202969E+02 -0.60024270965E+02 -0.18422764308E+04  0.18438332911E+04  0.00000000000E+00 0. -1.
          1    1    1    2  502    0  0.96240230888E+02  0.18127938655E+02  0.34859443772E+03  0.36208961075E+03  0.00000000000E+00 0. -1.
         22    1    3    3    0    0 -0.14159335004E+03  0.44792604238E+02  0.25121123755E+02  0.15061913899E+03  0.00000000000E+00 0.  1.
         22    1    3    3    0    0 -0.86208381786E+00 -0.28962719286E+01  0.62104581357E+02  0.62178055656E+02  0.00000000000E+00 0.  1.
</event>
<event>
 7    1  0.5537228E-006  0.6239537E+02  0.7818608E-02  0.1388213E+00
          2   -1    0    0  502    0  0.00000000000E+00  0.00000000000E+00  0.17120104144E+04  0.17120104144E+04  0.00000000000E+00 0. -1.
          1   -1    0    0  501    0 -0.00000000000E+00 -0.00000000000E+00 -0.35686376024E+02  0.35686376024E+02  0.00000000000E+00 0. -1.
         25    2    1    2    0    0  0.30412503266E+01 -0.97157970920E+01  0.60502452440E+03  0.61788629717E+03  0.12500062076E+03 0.  0.
          2    1    1    2  501    0  0.27398389959E+02 -0.55964303198E+02  0.66076849916E+01  0.62660485999E+02  0.00000000000E+00 0. -1.
          1    1    1    2  502    0 -0.30439640285E+02  0.65680100290E+02  0.10646918290E+04  0.10671500072E+04  0.00000000000E+00 0. -1.
         22    1    3    3    0    0 -0.58537937825E+02  0.53241013039E+01  0.22189733850E+03  0.22955057188E+03  0.00000000000E+00 0.  1.
         22    1    3    3    0    0  0.61579188152E+02 -0.15039898396E+02  0.38312718590E+03  0.38833572529E+03  0.00000000000E+00 0.  1.
</event>
<event>
 7    1  0.5537228E-006  0.5218129E+02  0.7818608E-02  0.1441417E+00
          2   -1    0    0  502    0  0.00000000000E+00  0.00000000000E+00  0.40898436901E+03  0.40898436901E+03  0.00000000000E+00 0. -1.
          1   -1    0    0  501    0 -0.00000000000E+00 -0.00000000000E+00 -0.35203665724E+03  0.35203665724E+03  0.00000000000E+00 0. -1.
         25    2    1    2    0    0  0.83524951284E+02 -0.27024936981E+02 -0.70868724440E+02  0.16838541880E+03  0.12499803381E+03 0.  0.
          2    1    1    2  501    0 -0.48134706473E+02 -0.10788374840E+02 -0.22789549403E+03  0.23317310136E+03  0.00000000000E+00 0. -1.
          1    1    1    2  502    0 -0.35390244811E+02  0.37813311821E+02  0.35571193023E+03  0.35946250609E+03  0.00000000000E+00 0. -1.
         22    1    3    3    0    0 -0.91199446913E+01 -0.33784637150E+02 -0.66793117994E+02  0.75404878555E+02  0.00000000000E+00 0. -1.
         22    1    3    3    0    0  0.92644895975E+02  0.67597001693E+01 -0.40756064462E+01  0.92980540247E+02  0.00000000000E+00 0. -1.
</event>
<event>
 7    1  0.5537228E-006  0.5321766E+02  0.7818608E-02  0.1527470E+00
          2   -1    0    0  502    0  0.00000000000E+00  0.00000000000E+00  0.24456484824E+03  0.24456484824E+03  0.00000000000E+00 0. -1.
          1   -1    0    0  501    0 -0.00000000000E+00 -0.00000000000E+00 -0.25757298545E+03  0.25757298545E+03  0.00000000000E+00 0. -1.
         25    2    1    2    0    0 -0.35777601596E+01  0.59013826986E+02 -0.20924090946E+03  0.25080144225E+03  0.12499669235E+03 0.  0.
          2    1    1    2  501    0  0.24436240077E+02 -0.10050585177E+02 -0.17094791475E+02  0.31470239705E+02  0.00000000000E+00 0. -1.
          1    1    1    2  502    0 -0.20858479918E+02 -0.48963241809E+02  0.21332756373E+03  0.21986615174E+03  0.00000000000E+00 0. -1.
         22    1    3    3    0    0  0.34709071466E+02  0.82818188572E+02 -0.11149689594E+03  0.14316120217E+03  0.00000000000E+00 0.  1.
         22    1    3    3    0    0 -0.38286831625E+02 -0.23804361586E+02 -0.97744013516E+02  0.10764024008E+03  0.00000000000E+00 0.  1.
</event>
<event>
 7    1  0.5537228E-006  0.5268564E+02  0.7818608E-02  0.1519902E+00
          2   -1    0    0  502    0  0.00000000000E+00  0.00000000000E+00  0.90212633616E+03  0.90212633616E+03  0.00000000000E+00 0. -1.
          1   -1    0    0  501    0 -0.00000000000E+00 -0.00000000000E+00 -0.20052747898E+04  0.20052747898E+04  0.00000000000E+00 0. -1.
         25    2    1    2    0    0 -0.11846558023E+02 -0.63898739849E+02 -0.50091503103E+02  0.14951980099E+03  0.12499448914E+03 0.  0.
          2    1    1    2  501    0  0.24920058361E+02  0.12914076499E+02 -0.19045531332E+04  0.19047599376E+04  0.00000000000E+00 0. -1.
          1    1    1    2  502    0 -0.13073500338E+02  0.50984663350E+02  0.85149618272E+03  0.85312138731E+03  0.00000000000E+00 0. -1.
         22    1    3    3    0    0 -0.53205155629E-01 -0.22613422380E+00  0.39210145371E+02  0.39210833548E+02  0.00000000000E+00 0. -1.
         22    1    3    3    0    0 -0.11793352867E+02 -0.63672605625E+02 -0.89301648474E+02  0.11030896745E+03  0.00000000000E+00 0. -1.
</event>
<event>
 7    1  0.5537228E-006  0.4800982E+02  0.7818608E-02  0.1577791E+00
          2   -1    0    0  502    0  0.00000000000E+00  0.00000000000E+00  0.33815370163E+03  0.33815370163E+03  0.00000000000E+00 0. -1.
          1   -1    0    0  501    0 -0.00000000000E+00 -0.00000000000E+00 -0.15080093246E+04  0.15080093246E+04  0.00000000000E+00 0. -1.
         25    2    1    2    0    0  0.20617639049E+02 -0.22129997055E+02  0.29389144404E+03  0.32079986645E+03  0.12500219846E+03 0.  0.
          2    1    1    2  501    0 -0.20685274288E+02  0.43351793069E+02 -0.14904670914E+04  0.14912408958E+04  0.00000000000E+00 0. -1.
          1    1    1    2  502    0  0.67635238460E-01 -0.21221796014E+02  0.26720024393E+02  0.34122264053E+02  0.00000000000E+00 0. -1.
         22    1    3    3    0    0  0.55316611992E+02  0.18958926265E+01  0.26231277348E+03  0.26808862919E+03  0.00000000000E+00 0.  1.
         22    1    3    3    0    0 -0.34698972943E+02 -0.24025889682E+02  0.31578670560E+02  0.52711237252E+02  0.00000000000E+00 0.  1.
</event>
<event>
 7    1  0.5537228E-006  0.5497595E+02  0.7818608E-02  0.1488666E+00
          2   -1    0    0  502    0  0.00000000000E+00  0.00000000000E+00  0.44456919148E+03  0.44456919148E+03  0.00000000000E+00 0. -1.
          1   -1    0    0  501    0 -0.00000000000E+00 -0.00000000000E+00 -0.12509238084E+03  0.12509238084E+03  0.00000000000E+00 0. -1.
         25    2    1    2    0    0 -0.37084628820E+02 -0.62563758354E+02  0.30017296002E+02  0.14770381237E+03  0.12500353825E+03 0.  0.
          2    1    1    2  501    0  0.51087034409E+01  0.53278700833E+02 -0.54501992106E+02  0.76388388887E+02  0.00000000000E+00 0. -1.
          1    1    1    2  502    0  0.31975925380E+02  0.92850575212E+01  0.34396150674E+03  0.34556937106E+03  0.00000000000E+00 0. -1.
         22    1    3    3    0    0 -0.48977793735E+02 -0.62713801176E+02  0.70005601267E+02  0.10598409950E+03  0.00000000000E+00 0. -1.
         22    1    3    3    0    0  0.11893164915E+02  0.15004282224E+00 -0.39988305264E+02  0.41719712876E+02  0.00000000000E+00 0. -1.
</event>
<event>
 7    1  0.5537228E-006  0.1469073E+03  0.7818608E-02  0.1276705E+00
          2   -1    0    0  502    0  0.00000000000E+00  0.00000000000E+00  0.45331553570E+03  0.45331553570E+03  0.00000000000E+00 0. -1.
          1   -1    0    0  501    0 -0.00000000000E+00 -0.00000000000E+00 -0.23464603089E+04  0.23464603089E+04  0.00000000000E+00 0. -1.
         25    2    1    2    0    0  0.70326082525E+02  0.10208986932E+03  0.10246791187E+03  0.20369820322E+03  0.12500074292E+03 0.  0.
          2    1    1    2  501    0 -0.42953022466E+02  0.55831498660E+02 -0.22738703453E+04  0.22749612009E+04  0.00000000000E+00 0. -1.
          1    1    1    2  502    0 -0.27373060059E+02 -0.15792136798E+03  0.27825766022E+03  0.32111644049E+03  0.00000000000E+00 0. -1.
         22    1    3    3    0    0 -0.21712154190E+02 -0.14357106447E+02  0.25755625368E+02  0.36618252050E+02  0.00000000000E+00 0.  1.
         22    1    3    3    0    0  0.92038236715E+02  0.11644697577E+03  0.76712286500E+02  0.16707995117E+03  0.00000000000E+00 0.  1.
</event>
<event>
 7    1  0.5537228E-006  0.1970760E+03  0.7818608E-02  0.1225939E+00
          2   -1    0    0  502    0  0.00000000000E+00  0.00000000000E+00  0.22137196472E+04  0.22137196472E+04  0.00000000000E+00 0. -1.
          1   -1    0    0  501    0 -0.00000000000E+00 -0.00000000000E+00 -0.27472625484E+03  0.27472625484E+03  0.00000000000E+00 0. -1.
         25    2    1    2    0    0 -0.12013536575E+03 -0.66141619669E+01  0.10589753098E+04  0.10730936220E+04  0.12499984630E+03 0.  0.
          2    1    1    2  501    0  0.19686557238E+03 -0.34633918657E+02 -0.22839993683E+03  0.30351621547E+03  0.00000000000E+00 0. -1.
          1    1    1    2  502    0 -0.76730206624E+02  0.41248080623E+02  0.11084180194E+04  0.11118360646E+04  0.00000000000E+00 0. -1.
         22    1    3    3    0    0 -0.35879577434E+02 -0.11630981744E+02  0.62139071392E+02  0.72690357040E+02  0.00000000000E+00 0. -1.
         22    1    3    3    0    0 -0.84255788319E+02  0.50168197775E+01  0.99683623842E+03  0.10004032650E+04  0.00000000000E+00 0. -1.
</event>
<event>
 7    1  0.5537228E-006  0.1196449E+03  0.7818608E-02  0.1383831E+00
          2   -1    0    0  502    0  0.00000000000E+00  0.00000000000E+00  0.71810375757E+03  0.71810375757E+03  0.00000000000E+00 0. -1.
          1   -1    0    0  501    0 -0.00000000000E+00 -0.00000000000E+00 -0.54628159306E+03  0.54628159306E+03  0.00000000000E+00 0. -1.
         25    2    1    2    0    0 -0.70060418341E+02  0.70853008897E+02  0.20764527810E+03  0.26204584974E+03  0.12499141876E+03 0.  0.
          2    1    1    2  501    0 -0.33654880075E+02  0.91091891245E+00 -0.51028814076E+03  0.51139756289E+03  0.00000000000E+00 0. -1.
          1    1    1    2  502    0  0.10371529842E+03 -0.71763927809E+02  0.47446502719E+03  0.49094193800E+03  0.00000000000E+00 0. -1.
         22    1    3    3    0    0 -0.20565895383E+01 -0.13641590261E+02  0.12481075331E+03  0.12557088312E+03  0.00000000000E+00 0. -1.
         22    1    3    3    0    0 -0.68003828803E+02  0.84494599158E+02  0.82834524785E+02  0.13647496662E+03  0.00000000000E+00 0. -1.
</event>
<event>
 7    1  0.5537228E-006  0.7706141E+02  0.7818608E-02  0.1354640E+00
          2   -1    0    0  502    0  0.00000000000E+00  0.00000000000E+00  0.37321146551E+03  0.37321146551E+03  0.00000000000E+00 0. -1.
          1   -1    0    0  501    0 -0.00000000000E+00 -0.00000000000E+00 -0.31898196042E+03  0.31898196042E+03  0.00000000000E+00 0. -1.
         25    2    1    2    0    0 -0.68734680458E+02 -0.33898249847E+02 -0.10188480738E+03  0.17854694925E+03  0.12499980589E+03 0.  0.
          2    1    1    2  501    0  0.20829756865E+02  0.80136023633E+02 -0.16558349947E+03  0.18513118687E+03  0.00000000000E+00 0. -1.
          1    1    1    2  502    0  0.47904923592E+02 -0.46237773785E+02  0.32169781194E+03  0.32851528980E+03  0.00000000000E+00 0. -1.
         22    1    3    3    0    0 -0.65890313826E+02 -0.21162350170E+02  0.63797345915E+01  0.69498773617E+02  0.00000000000E+00 0. -1.
         22    1    3    3    0    0 -0.28443666317E+01 -0.12735899677E+02 -0.10826454197E+03  0.10904817564E+03  0.00000000000E+00 0. -1.
</event>
<event>
 7    1  0.5537228E-006  0.1403018E+03  0.7818608E-02  0.1339009E+00
          2   -1    0    0  502    0  0.00000000000E+00  0.00000000000E+00  0.11792914905E+04  0.11792914905E+04  0.00000000000E+00 0. -1.
          1   -1    0    0  501    0 -0.00000000000E+00 -0.00000000000E+00 -0.53153907938E+02  0.53153907938E+02  0.00000000000E+00 0. -1.
         25    2    1    2    0    0 -0.12977281779E+03 -0.97446788469E+02  0.71681895277E+03  0.74551440445E+03  0.12500182145E+03 0.  0.
          2    1    1    2  501    0  0.12520359019E+03  0.55884195405E+02  0.88037519588E+02  0.16294044049E+03  0.00000000000E+00 0. -1.
          1    1    1    2  502    0  0.45692276062E+01  0.41562593064E+02  0.32128111020E+03  0.32399055349E+03  0.00000000000E+00 0. -1.
         22    1    3    3    0    0  0.38426091698E+01 -0.35563550703E+02  0.43678404829E+02  0.56456486184E+02  0.00000000000E+00 0. -1.
         22    1    3    3    0    0 -0.13361542696E+03 -0.61883237766E+02  0.67314054794E+03  0.68905791826E+03  0.00000000000E+00 0. -1.
</event>
<event>
 7    1  0.5537228E-006  0.4870054E+02  0.7818608E-02  0.1453351E+00
          2   -1    0    0  502    0  0.00000000000E+00  0.00000000000E+00  0.90041526618E+01  0.90041526618E+01  0.00000000000E+00 0. -1.
          1   -1    0    0  501    0 -0.00000000000E+00 -0.00000000000E+00 -0.21855228909E+04  0.21855228909E+04  0.00000000000E+00 0. -1.
         25    2    1    2    0    0  0.12290043485E+02 -0.92440230796E+01 -0.14786018118E+04  0.14839559421E+04  0.12500169278E+03 0.  0.
          2    1    1    2  501    0  0.33268694899E+02  0.35139385059E+02 -0.57390608248E+03  0.57594250924E+03  0.00000000000E+00 0. -1.
          1    1    1    2  502    0 -0.45558738384E+02 -0.25895361979E+02 -0.12401084392E+03  0.13462859216E+03  0.00000000000E+00 0. -1.
         22    1    3    3    0    0  0.61378661817E+02  0.15434994333E+02 -0.10403748282E+04  0.10422981159E+04  0.00000000000E+00 0.  1.
         22    1    3    3    0    0 -0.49088618332E+02 -0.24679017412E+02 -0.43822698361E+03  0.44165782628E+03  0.00000000000E+00 0.  1.
</event>
<event>
 7    1  0.5537228E-006  0.1776080E+03  0.7818608E-02  0.1328080E+00
          2   -1    0    0  502    0  0.00000000000E+00  0.00000000000E+00  0.15522077842E+04  0.15522077842E+04  0.00000000000E+00 0. -1.
          1   -1    0    0  501    0 -0.00000000000E+00 -0.00000000000E+00 -0.68472688977E+02  0.68472688977E+02  0.00000000000E+00 0. -1.
         25    2    1    2    0    0 -0.18125203794E+02  0.16408050866E+03  0.40340270745E+03  0.45343481416E+03  0.12497379717E+03 0.  0.
          2    1    1    2  501    0 -0.12410461756E+02 -0.18379070117E+03  0.15372523321E+03  0.23992600676E+03  0.00000000000E+00 0. -1.
          1    1    1    2  502    0  0.30535665550E+02  0.19710192509E+02  0.92660715452E+03  0.92731965220E+03  0.00000000000E+00 0. -1.
         22    1    3    3    0    0  0.38808256975E+02  0.13667120200E+03  0.25040446564E+03  0.28790188377E+03  0.00000000000E+00 0. -1.
         22    1    3    3    0    0 -0.56933460769E+02  0.27409306664E+02  0.15299824182E+03  0.16553293040E+03  0.00000000000E+00 0. -1.
</event>
<event>
 7    1  0.5537228E-006  0.4949479E+02  0.7818608E-02  0.1466233E+00
          2   -1    0    0  502    0  0.00000000000E+00  0.00000000000E+00  0.38707131512E+03  0.38707131512E+03  0.00000000000E+00 0. -1.
          1   -1    0    0  501    0 -0.00000000000E+00 -0.00000000000E+00 -0.10456390985E+04  0.10456390985E+04  0.00000000000E+00 0. -1.
         25    2    1    2    0    0  0.17640263330E+02 -0.18920251109E+02 -0.42771932537E+03  0.44636049451E+03  0.12499885987E+03 0.  0.
          2    1    1    2  501    0 -0.53475252102E+02 -0.54898492540E+01 -0.60616156649E+03  0.60854053746E+03  0.00000000000E+00 0. -1.
          1    1    1    2  502    0  0.35834988772E+02  0.24410100363E+02  0.37531310852E+03  0.37780938163E+03  0.00000000000E+00 0. -1.
         22    1    3    3    0    0  0.64367541572E+02 -0.39578167905E+02 -0.28184237975E+03  0.29179571417E+03  0.00000000000E+00 0.  1.
         22    1    3    3    0    0 -0.46727278242E+02  0.20657916796E+02 -0.14587694562E+03  0.15456478034E+03  0.00000000000E+00 0.  1.
</event>
<event>
 7    1  0.5537228E-006  0.1331876E+03  0.7818608E-02  0.1284910E+00
          2   -1    0    0  502    0  0.00000000000E+00  0.00000000000E+00  0.79590432171E+03  0.79590432171E+03  0.00000000000E+00 0. -1.
          1   -1    0    0  501    0 -0.00000000000E+00 -0.00000000000E+00 -0.21960235284E+03  0.21960235284E+03  0.00000000000E+00 0. -1.
         25    2    1    2    0    0  0.17876584437E+02  0.12699778832E+03 -0.73489463678E+02  0.19358158948E+03  0.12500048001E+03 0.  0.
          2    1    1    2  501    0 -0.89149795630E+02 -0.11775333404E+03 -0.19331165258E+02  0.14895377702E+03  0.00000000000E+00 0. -1.
          1    1    1    2  502    0  0.71273211193E+02 -0.92444542796E+01  0.66912259781E+03  0.67297130805E+03  0.00000000000E+00 0. -1.
         22    1    3    3    0    0 -0.21765613218E+02  0.19429422892E+02 -0.73351409343E+02  0.78940950370E+02  0.00000000000E+00 0.  1.
         22    1    3    3    0    0  0.39642197655E+02  0.10756836543E+03 -0.13805433490E+00  0.11464063911E+03  0.00000000000E+00 0.  1.
</event>
<event>
 7    1  0.5537228E-006  0.8411298E+02  0.7818608E-02  0.1366784E+00
          2   -1    0    0  502    0  0.00000000000E+00  0.00000000000E+00  0.85861269520E+02  0.85861269520E+02  0.00000000000E+00 0. -1.
          1   -1    0    0  501    0 -0.00000000000E+00 -0.00000000000E+00 -0.19754160493E+04  0.19754160493E+04  0.00000000000E+00 0. -1.
         25    2    1    2    0    0  0.30134937635E+02  0.44207808439E+02 -0.25218270529E+03  0.28650844452E+03  0.12501410778E+03 0.  0.
          2    1    1    2  501    0 -0.32949249258E+02  0.44145330280E+02 -0.16769931831E+04  0.16778976725E+04  0.00000000000E+00 0. -1.
          1    1    1    2  502    0  0.28143116228E+01 -0.88353138719E+02  0.39621108677E+02  0.96871201728E+02  0.00000000000E+00 0. -1.
         22    1    3    3    0    0 -0.31311701400E+02  0.24591942142E+02 -0.18161804448E+02  0.43761140338E+02  0.00000000000E+00 0.  1.
         22    1    3    3    0    0  0.61446639035E+02  0.19615866297E+02 -0.23402090084E+03  0.24274730419E+03  0.00000000000E+00 0.  1.
</event>
<event>
 7    1  0.5537228E-006  0.4229584E+02  0.7818608E-02  0.1547681E+00
          2   -1    0    0  502    0  0.00000000000E+00  0.00000000000E+00  0.81418328943E+03  0.81418328943E+03  0.00000000000E+00 0. -1.
          1   -1    0    0  501    0 -0.00000000000E+00 -0.00000000000E+00 -0.10290546294E+04  0.10290546294E+04  0.00000000000E+00 0. -1.
         25    2    1    2    0    0 -0.14656492164E+01  0.70066858760E+02 -0.14668867827E+03  0.20507009114E+03  0.12499864448E+03 0.  0.
          2    1    1    2  501    0  0.63148230323E+01 -0.41338562545E+02 -0.85239214996E+03  0.85341732526E+03  0.00000000000E+00 0. -1.
          1    1    1    2  502    0 -0.48491738159E+01 -0.28728296216E+02  0.78420948829E+03  0.78475050240E+03  0.00000000000E+00 0. -1.
         22    1    3    3    0    0  0.29320199252E+01  0.10484872525E+03 -0.88983491744E+02  0.13754967732E+03  0.00000000000E+00 0.  1.
         22    1    3    3    0    0 -0.43976691416E+01 -0.34781866487E+02 -0.57705186530E+02  0.67520413822E+02  0.00000000000E+00 0.  1.
</event>
<event>
 7    1  0.5537228E-006  0.4073495E+02  0.7818608E-02  0.1507177E+00
          2   -1    0    0  502    0  0.00000000000E+00  0.00000000000E+00  0.59014991883E+03  0.59014991883E+03  0.00000000000E+00 0. -1.
          1   -1    0    0  501    0 -0.00000000000E+00 -0.00000000000E+00 -0.71215183198E+02  0.71215183198E+02  0.00000000000E+00 0. -1.
         25    2    1    2    0    0 -0.12720918301E+02 -0.27659399487E+02  0.83429516096E+02  0.15333519663E+03  0.12499733688E+03 0.  0.
          2    1    1    2  501    0 -0.26168940426E+02  0.34885419652E+02 -0.21981466969E+02  0.48836367980E+02  0.00000000000E+00 0. -1.
          1    1    1    2  502    0  0.38889858727E+02 -0.72260201654E+01  0.45748668650E+03  0.45919353742E+03  0.00000000000E+00 0. -1.
         22    1    3    3    0    0 -0.31060497564E+02  0.44418109928E+02  0.32565152212E+02  0.63231417326E+02  0.00000000000E+00 0. -1.
         22    1    3    3    0    0  0.18339579263E+02 -0.72077509415E+02  0.50864363884E+02  0.90103779301E+02  0.00000000000E+00 0. -1.
</event>
<event>
 7    1  0.5537228E-006  0.9554501E+02  0.7818608E-02  0.1358986E+00
          2   -1    0    0  502    0  0.00000000000E+00  0.00000000000E+00  0.16850738656E+04  0.16850738656E+04  0.00000000000E+00 0. -1.
          1   -1    0    0  501    0 -0.00000000000E+00 -0.00000000000E+00 -0.25834629884E+04  0.25834629884E+04  0.00000000000E+00 0. -1.
         25    2    1    2    0    0 -0.12653179711E+03 -0.40612977027E+02  0.19693971790E+03  0.26845715471E+03  0.12499712734E+03 0.  0.
          2    1    1    2  501    0  0.32329226766E+02  0.40427509865E+02 -0.25459133716E+04  0.25464395650E+04  0.00000000000E+00 0. -1.
          1    1    1    2  502    0  0.94202570348E+02  0.18546716270E+00  0.14505845309E+04  0.14536401343E+04  0.00000000000E+00 0. -1.
         22    1    3    3    0    0  0.22745148150E+02  0.95935437610E+01  0.31797670529E+02  0.40255058034E+02  0.00000000000E+00 0.  1.
         22    1    3    3    0    0 -0.14927694526E+03 -0.50206520788E+02  0.16514204737E+03  0.22820209667E+03  0.00000000000E+00 0.  1.
</event>
<event>
 7    1  0.5537228E-006  0.1283232E+03  0.7818608E-02  0.1347097E+00
          2   -1    0    0  502    0  0.00000000000E+00  0.00000000000E+00  0.13904752215E+04  0.13904752215E+04  0.00000000000E+00 0. -1.
          1   -1    0    0  501    0 -0.00000000000E+00 -0.00000000000E+00 -0.11131090355E+04  0.11131090355E+04  0.00000000000E+00 0. -1.
         25    2    1    2    0    0 -0.31034746782E+02 -0.13482622190E+03 -0.83067426957E+02  0.20412432620E+03  0.12500111001E+03 0.  0.
          2    1    1    2  501    0 -0.10982338580E+02  0.12758555792E+03 -0.96494026783E+03  0.97340043499E+03  0.00000000000E+00 0. -1.
          1    1    1    2  502    0  0.42017085362E+02  0.72406639865E+01  0.13253738808E+04  0.13260594959E+04  0.00000000000E+00 0. -1.
         22    1    3    3    0    0 -0.15992626624E+02 -0.15752180982E+03 -0.77712386233E+02  0.17637488384E+03  0.00000000000E+00 0.  1.
         22    1    3    3    0    0 -0.15042120158E+02  0.22695587919E+02 -0.53550407243E+01  0.27749442355E+02  0.00000000000E+00 0.  1.
</event>
<event>
 7    1  0.5537228E-006  0.4927725E+02  0.7818608E-02  0.1463792E+00
          2   -1    0    0  502    0  0.00000000000E+00  0.00000000000E+00  0.92310252444E+03  0.92310252444E+03  0.00000000000E+00 0. -1.
          1   -1    0    0  501    0 -0.00000000000E+00 -0.00000000000E+00 -0.48012201018E+02  0.48012201018E+02  0.00000000000E+00 0. -1.
         25    2    1    2    0    0  0.61726284099E+02 -0.47152845829E+01  0.27489824087E+03  0.30826365724E+03  0.12500028592E+03 0.  0.
          2    1    1    2  501    0 -0.29590744939E+02 -0.32999957393E+02 -0.14139460746E+02  0.46524549693E+02  0.00000000000E+00 0. -1.
          1    1    1    2  502    0 -0.32135539160E+02  0.37715241976E+02  0.61433154330E+03  0.61632651853E+03  0.00000000000E+00 0. -1.
         22    1    3    3    0    0 -0.37011922810E+01  0.39071652016E+02  0.25668835452E+02  0.46895436121E+02  0.00000000000E+00 0. -1.
         22    1    3    3    0    0  0.65427476380E+02 -0.43786936598E+02  0.24922940542E+03  0.26136822112E+03  0.00000000000E+00 0. -1.
</event>
<event>
 7    1  0.5537228E-006  0.8251687E+02  0.7818608E-02  0.1411110E+00
          2   -1    0    0  502    0  0.00000000000E+00  0.00000000000E+00  0.15275331577E+04  0.15275331577E+04  0.00000000000E+00 0. -1.
          1   -1    0    0  501    0 -0.00000000000E+00 -0.00000000000E+00 -0.16971475610E+03  0.16971475610E+03  0.00000000000E+00 0. -1.
         25    2    1    2    0    0  0.52717475441E+02 -0.34010915580E+02  0.40309497472E+03  0.42666849873E+03  0.12499829826E+03 0.  0.
          2    1    1    2  501    0 -0.67087850257E+01 -0.38723547527E+02 -0.15378892359E+03  0.15873107430E+03  0.00000000000E+00 0. -1.
          1    1    1    2  502    0 -0.46008690416E+02  0.72734463107E+02  0.11085123504E+04  0.11118483407E+04  0.00000000000E+00 0. -1.
         22    1    3    3    0    0 -0.21010331808E+02  0.24300131389E+02  0.38453425077E+02  0.50105851239E+02  0.00000000000E+00 0. -1.
         22    1    3    3    0    0  0.73727807249E+02 -0.58311046969E+02  0.36464154964E+03  0.37656264749E+03  0.00000000000E+00 0. -1.
</event>
<event>
 7    1  0.5611422E-006  0.1402079E+03  0.7818608E-02  0.1301709E+00
          2   -1    0    0  502    0  0.00000000000E+00  0.00000000000E+00  0.75026820566E+03  0.75026820566E+03  0.00000000000E+00 0. -1.
          1   -1    0    0  501    0 -0.00000000000E+00 -0.00000000000E+00 -0.16628401072E+04  0.16628401072E+04  0.00000000000E+00 0. -1.
         25    2    1    2    0    0 -0.11171682746E+03 -0.13642171820E+03 -0.36703351266E+03  0.42594475495E+03  0.12499520039E+03 0.  0.
          2    1    1    2  501    0 -0.40738607903E+01  0.58238334250E+02 -0.12588979547E+04  0.12602509117E+04  0.00000000000E+00 0. -1.
          1    1    1    2  502    0  0.11579068825E+03  0.78183383947E+02  0.71335956587E+03  0.72691264622E+03  0.00000000000E+00 0. -1.
         22    1    3    3    0    0 -0.23908994423E+02 -0.69526818266E+02 -0.26712818577E+03  0.27706152043E+03  0.00000000000E+00 0. -1.
         22    1    3    3    0    0 -0.87807833038E+02 -0.66894899931E+02 -0.99905326891E+02  0.14888323452E+03  0.00000000000E+00 0. -1.
</event>
<event>
 7    1  0.5537228E-006  0.7050214E+02  0.7818608E-02  0.1471434E+00
          2   -1    0    0  502    0  0.00000000000E+00  0.00000000000E+00  0.86109869254E+03  0.86109869254E+03  0.00000000000E+00 0. -1.
          1   -1    0    0  501    0 -0.00000000000E+00 -0.00000000000E+00 -0.21133992726E+03  0.21133992726E+03  0.00000000000E+00 0. -1.
         25    2    1    2    0    0 -0.52305689915E+02  0.15818051098E+02 -0.53438975763E+02  0.14652570373E+03  0.12501184658E+03 0.  0.
          2    1    1    2  501    0  0.61658653207E+02 -0.43611129449E+02 -0.98253560358E+02  0.12392530916E+03  0.00000000000E+00 0. -1.
          1    1    1    2  502    0 -0.93529632918E+01  0.27793078351E+02  0.80145130140E+03  0.80198760691E+03  0.00000000000E+00 0. -1.
         22    1    3    3    0    0 -0.41058420659E+02 -0.49432491992E+02 -0.47769680754E+02  0.80070641130E+02  0.00000000000E+00 0. -1.
         22    1    3    3    0    0 -0.11247269256E+02  0.65250543089E+02 -0.56692950084E+01  0.66455062599E+02  0.00000000000E+00 0. -1.
</event>
<event>
 7    1  0.5537228E-006  0.8965459E+02  0.7818608E-02  0.1428695E+00
          2   -1    0    0  502    0  0.00000000000E+00  0.00000000000E+00  0.16587501881E+04  0.16587501881E+04  0.00000000000E+00 0. -1.
          1   -1    0    0  501    0 -0.00000000000E+00 -0.00000000000E+00 -0.16543557209E+03  0.16543557209E+03  0.00000000000E+00 0. -1.
         25    2    1    2    0    0 -0.78506464744E+02 -0.11834663457E+02 -0.43088105675E+02  0.15422235683E+03  0.12499850491E+03 0.  0.
          2    1    1    2  501    0 -0.14849056251E+00 -0.31595027081E+02 -0.61709373862E+02  0.69327589084E+02  0.00000000000E+00 0. -1.
          1    1    1    2  502    0  0.78654955306E+02  0.43429690538E+02  0.15981120956E+04  0.16006358143E+04  0.00000000000E+00 0. -1.
         22    1    3    3    0    0 -0.81365220950E+02 -0.45758659901E+02 -0.64987097487E+02  0.11374303045E+03  0.00000000000E+00 0. -1.
         22    1    3    3    0    0  0.28587562059E+01  0.33923996444E+02  0.21898991811E+02  0.40479326380E+02  0.00000000000E+00 0. -1.
</event>
<event>
 7    1  0.5537228E-006  0.8478611E+02  0.7818608E-02  0.1340469E+00
          2   -1    0    0  502    0  0.00000000000E+00  0.00000000000E+00  0.13553506884E+03  0.13553506884E+03  0.00000000000E+00 0. -1.
          1   -1    0    0  501    0 -0.00000000000E+00 -0.00000000000E+00 -0.54134161013E+03  0.54134161013E+03  0.00000000000E+00 0. -1.
         25    2    1    2    0    0 -0.25604232921E+01  0.22996097555E+02 -0.44100122443E+02  0.13455544271E+03  0.12499988037E+03 0.  0.
          2    1    1    2  501    0  0.19880533409E+02 -0.89085000775E+02 -0.43362316083E+03  0.44312573677E+03  0.00000000000E+00 0. -1.
          1    1    1    2  502    0 -0.17320110117E+02  0.66088903220E+02  0.71916741981E+02  0.99195499497E+02  0.00000000000E+00 0. -1.
         22    1    3    3    0    0 -0.46270744515E+02 -0.32452956706E+02 -0.19432186342E+02  0.59764421380E+02  0.00000000000E+00 0. -1.
         22    1    3    3    0    0  0.43710321223E+02  0.55449054261E+02 -0.24667936101E+02  0.74791021328E+02  0.00000000000E+00 0. -1.
</event>
<event>
 7    1  0.5537228E-006  0.1127664E+03  0.7818608E-02  0.1307754E+00
          2   -1    0    0  502    0  0.00000000000E+00  0.00000000000E+00  0.13604051558E+04  0.13604051558E+04  0.00000000000E+00 0. -1.
          1   -1    0    0  501    0 -0.00000000000E+00 -0.00000000000E+00 -0.55443133613E+03  0.55443133613E+03  0.00000000000E+00 0. -1.
         25    2    1    2    0    0  0.30923723754E+02  0.17074015421E+03  0.14965410544E+02  0.21437596787E+03  0.12499846054E+03 0.  0.
          2    1    1    2  501    0 -0.38385676786E+02 -0.10246443986E+03 -0.44717831518E+03  0.46037035872E+03  0.00000000000E+00 0. -1.
          1    1    1    2  502    0  0.74619530317E+01 -0.68275714349E+02  0.12381867243E+04  0.12400901653E+04  0.00000000000E+00 0. -1.
         22    1    3    3    0    0  0.51008917948E+02  0.14901221174E+02 -0.13170897366E+02  0.54748777522E+02  0.00000000000E+00 0.  1.
         22    1    3    3    0    0 -0.20085194194E+02  0.15583893304E+03  0.28136307910E+02  0.15962719035E+03  0.00000000000E+00 0.  1.
</event>
<event>
 7    1  0.5537228E-006  0.2177093E+03  0.7818608E-02  0.1340205E+00
          2   -1    0    0  502    0  0.00000000000E+00  0.00000000000E+00  0.79032474460E+02  0.79032474460E+02  0.00000000000E+00 0. -1.
          1   -1    0    0  501    0 -0.00000000000E+00 -0.00000000000E+00 -0.27466958171E+04  0.27466958171E+04  0.00000000000E+00 0. -1.
         25    2    1    2    0    0  0.96000626140E+02  0.17632308845E+03 -0.74636589445E+03  0.78294152057E+03  0.12501769672E+03 0.  0.
          2    1    1    2  501    0 -0.94092120189E+02 -0.20292296709E+03 -0.19724542062E+04  0.19850961320E+04  0.00000000000E+00 0. -1.
          1    1    1    2  502    0 -0.19085059519E+01  0.26599878642E+02  0.51156758012E+02  0.57690639007E+02  0.00000000000E+00 0. -1.
         22    1    3    3    0    0  0.58407215685E+02  0.25458915995E+01 -0.16964208411E+03  0.17943333333E+03  0.00000000000E+00 0.  1.
         22    1    3    3    0    0  0.37593410456E+02  0.17377719685E+03 -0.57672381034E+03  0.60350818724E+03  0.00000000000E+00 0.  1.
</event>
<event>
 7    1  0.5537228E-006  0.1437777E+03  0.7818608E-02  0.1369403E+00
          2   -1    0    0  502    0  0.00000000000E+00  0.00000000000E+00  0.18601313539E+04  0.18601313539E+04  0.00000000000E+00 0. -1.
          1   -1    0    0  501    0 -0.00000000000E+00 -0.00000000000E+00 -0.94948012179E+03  0.94948012179E+03  0.00000000000E+00 0. -1.
         25    2    1    2    0    0 -0.46922385966E+02  0.13950539666E+03 -0.41458815556E+02  0.19750125220E+03  0.12499778090E+03 0.  0.
          2    1    1    2  501    0  0.15573617238E+02 -0.14291202924E+03 -0.82363424400E+03  0.83608597258E+03  0.00000000000E+00 0. -1.
          1    1    1    2  502    0  0.31348768727E+02  0.34066325806E+01  0.17757442916E+04  0.17760242509E+04  0.00000000000E+00 0. -1.
         22    1    3    3    0    0  0.19396281560E+02  0.11562722139E+03 -0.31675118475E+01  0.11728556261E+03  0.00000000000E+00 0. -1.
         22    1    3    3    0    0 -0.66318667526E+02  0.23878175273E+02 -0.38291303709E+02  0.80215689591E+02  0.00000000000E+00 0. -1.
</event>
<event>
 7    1  0.5537228E-006  0.8260629E+02  0.7818608E-02  0.1381770E+00
          2   -1    0    0  502    0  0.00000000000E+00  0.00000000000E+00  0.10118760558E+04  0.10118760558E+04  0.00000000000E+00 0. -1.
          1   -1    0    0  501    0 -0.00000000000E+00 -0.00000000000E+00 -0.29748180795E+03  0.29748180795E+03  0.00000000000E+00 0. -1.
         25    2    1    2    0    0 -0.49961123486E+02  0.11580976064E+03  0.36740419945E+03  0.40806682077E+03  0.12499867969E+03 0.  0.
          2    1    1    2  501    0  0.48267966768E+02 -0.66253035657E+02 -0.27007310563E+03  0.28223880622E+03  0.00000000000E+00 0. -1.
          1    1    1    2  502    0  0.16931567177E+01 -0.49556724986E+02  0.61706315402E+03  0.61905223675E+03  0.00000000000E+00 0. -1.
         22    1    3    3    0    0  0.38206723931E+02  0.28053860176E+02  0.15315457306E+03  0.16032185151E+03  0.00000000000E+00 0.  1.
         22    1    3    3    0    0 -0.88167847417E+02  0.87755900467E+02  0.21424962639E+03  0.24774496926E+03  0.00000000000E+00 0.  1.
</event>
<event>
 7    1  0.5537228E-006  0.8810003E+02  0.7818608E-02  0.1330839E+00
          2   -1    0    0  502    0  0.00000000000E+00  0.00000000000E+00  0.30039579087E+04  0.30039579087E+04  0.00000000000E+00 0. -1.
          1   -1    0    0  501    0 -0.00000000000E+00 -0.00000000000E+00 -0.13237688288E+03  0.13237688288E+03  0.00000000000E+00 0. -1.
         25    2    1    2    0    0  0.17405808920E+02 -0.77594557606E+02  0.15170332643E+03  0.21204472993E+03  0.12500076274E+03 0.  0.
          2    1    1    2  501    0 -0.71192012797E+02  0.67509338497E+01 -0.88906668131E+02  0.11409764867E+03  0.00000000000E+00 0. -1.
          1    1    1    2  502    0  0.53786203876E+02  0.70843623757E+02  0.28087843675E+04  0.28101924130E+04  0.00000000000E+00 0. -1.
         22    1    3    3    0    0 -0.20492220887E+01  0.33837767435E+02  0.46670130909E+02  0.57682709153E+02  0.00000000000E+00 0.  1.
         22    1    3    3    0    0  0.19455031009E+02 -0.11143232504E+03  0.10503319552E+03  0.15436202078E+03  0.00000000000E+00 0.  1.
</event>
<event>
 7    1  0.5537228E-006  0.3986261E+02  0.7818608E-02  0.1594921E+00
          2   -1    0    0  502    0  0.00000000000E+00  0.00000000000E+00  0.95448310131E+03  0.95448310131E+03  0.00000000000E+00 0. -1.
          1   -1    0    0  501    0 -0.00000000000E+00 -0.00000000000E+00 -0.65138856670E+03  0.65138856670E+03  0.00000000000E+00 0. -1.
         25    2    1    2    0    0  0.14273431308E+02 -0.57749678950E+02  0.96810040177E+02  0.16892657318E+03  0.12500098795E+03 0.  0.
          2    1    1    2  501    0 -0.14181841523E+02  0.18125105440E+02 -0.61463706796E+03  0.61506777625E+03  0.00000000000E+00 0. -1.
          1    1    1    2  502    0 -0.91589784341E-01  0.39624573510E+02  0.82092156239E+03  0.82187731858E+03  0.00000000000E+00 0. -1.
         22    1    3    3    0    0 -0.47517915116E+02 -0.47579912214E+02  0.20685446374E+02  0.70354019040E+02  0.00000000000E+00 0.  1.
         22    1    3    3    0    0  0.61791346424E+02 -0.10169766735E+02  0.76124593803E+02  0.98572554142E+02  0.00000000000E+00 0.  1.
</event>
<event>
 7    1  0.5537228E-006  0.1381038E+03  0.7818608E-02  0.1350610E+00
          2   -1    0    0  502    0  0.00000000000E+00  0.00000000000E+00  0.16919777848E+03  0.16919777848E+03  0.00000000000E+00 0. -1.
          1   -1    0    0  501    0 -0.00000000000E+00 -0.00000000000E+00 -0.78999475851E+03  0.78999475851E+03  0.00000000000E+00 0. -1.
         25    2    1    2    0    0 -0.11308552659E+03 -0.24867976956E+02 -0.33432601474E+03  0.37524066894E+03  0.12499969157E+03 0.  0.
          2    1    1    2  501    0  0.14665281568E+03  0.43610301581E+02 -0.41894670154E+03  0.44601036477E+03  0.00000000000E+00 0. -1.
          1    1    1    2  502    0 -0.33567289095E+02 -0.18742324625E+02  0.13247573625E+03  0.13794150327E+03  0.00000000000E+00 0. -1.
         22    1    3    3    0    0 -0.10809155358E+03 -0.51727096398E+01 -0.33772583352E+03  0.35463964740E+03  0.00000000000E+00 0. -1.
         22    1    3    3    0    0 -0.49939730042E+01 -0.19695267316E+02  0.33998187735E+01  0.20601021545E+02  0.00000000000E+00 0. -1.
</event>
<event>
 7    1  0.5537228E-006  0.6122766E+02  0.7818608E-02  0.1541468E+00
          2   -1    0    0  502    0  0.00000000000E+00  0.00000000000E+00  0.17787587446E+03  0.17787587446E+03  0.00000000000E+00 0. -1.
          1   -1    0    0  501    0 -0.00000000000E+00 -0.00000000000E+00 -0.37633659487E+03  0.37633659487E+03  0.00000000000E+00 0. -1.
         25    2    1    2    0    0 -0.16657389224E+02 -0.38180104433E+02 -0.32269387767E+03  0.34855618269E+03  0.12499953926E+03 0.  0.
          2    1    1    2  501    0 -0.14985301174E+02 -0.14642674539E+02 -0.31704403682E+02  0.38001794455E+02  0.00000000000E+00 0. -1.
          1    1    1    2  502    0  0.31642690398E+02  0.52822778972E+02  0.15593756095E+03  0.16765449218E+03  0.00000000000E+00 0. -1.
         22    1    3    3    0    0 -0.25370996139E+02  0.17960501927E+02 -0.12999003679E+02  0.33693340161E+02  0.00000000000E+00 0. -1.
         22    1    3    3    0    0  0.87136069158E+01 -0.56140606360E+02 -0.30969487399E+03  0.31486284253E+03  0.00000000000E+00 0. -1.
</event>
<event>
 7    1  0.5537228E-006  0.1106033E+03  0.7818608E-02  0.1370105E+00
          2   -1    0    0  502    0  0.00000000000E+00  0.00000000000E+00  0.29556736305E+04  0.29556736305E+04  0.00000000000E+00 0. -1.
          1   -1    0    0  501    0 -0.00000000000E+00 -0.00000000000E+00 -0.12200592164E+03  0.12200592164E+03  0.00000000000E+00 0. -1.
         25    2    1    2    0    0 -0.84614046754E+02  0.11542905334E+03  0.78259276798E+03  0.80533285988E+03  0.12500468572E+03 0.  0.
          2    1    1    2  501    0  0.79930355094E+02 -0.74945271527E+02 -0.83264811220E+02  0.13761789192E+03  0.00000000000E+00 0. -1.
          1    1    1    2  502    0  0.46836916592E+01 -0.40483781810E+02  0.21343397521E+04  0.21347288003E+04  0.00000000000E+00 0. -1.
         22    1    3    3    0    0 -0.62537634868E+02  0.25480859326E+02  0.56260641264E+03  0.56664469072E+03  0.00000000000E+00 0.  1.
         22    1    3    3    0    0 -0.22076411886E+02  0.89948194012E+02  0.21998635534E+03  0.23868816917E+03  0.00000000000E+00 0.  1.
</event>
<event>
 7    1  0.5537228E-006  0.1280106E+03  0.7818608E-02  0.1363336E+00
          2   -1    0    0  502    0  0.00000000000E+00  0.00000000000E+00  0.23672689815E+04  0.23672689815E+04  0.00000000000E+00 0. -1.
          1   -1    0    0  501    0 -0.00000000000E+00 -0.00000000000E+00 -0.41381278040E+03  0.41381278040E+03  0.00000000000E+00 0. -1.
         25    2    1    2    0    0  0.24874269729E+02 -0.10793819645E+03 -0.24394076071E+02  0.16878345235E+03  0.12499359702E+03 0.  0.
          2    1    1    2  501    0 -0.31226320438E+02 -0.20312726634E+02 -0.31432721409E+03  0.31652691429E+03  0.00000000000E+00 0. -1.
          1    1    1    2  502    0  0.63520507090E+01  0.12825092308E+03  0.22921774912E+04  0.22957713952E+04  0.00000000000E+00 0. -1.
         22    1    3    3    0    0  0.32074267123E+02 -0.47572825802E+01  0.36448156592E+02  0.48783793088E+02  0.00000000000E+00 0. -1.
         22    1    3    3    0    0 -0.71999973947E+01 -0.10318091387E+03 -0.60842232663E+02  0.11999965927E+03  0.00000000000E+00 0. -1.
</event>
<event>
 7    1  0.5537228E-006  0.6188499E+02  0.7818608E-02  0.1451659E+00
          2   -1    0    0  502    0  0.00000000000E+00  0.00000000000E+00  0.25244448599E+04  0.25244448599E+04  0.00000000000E+00 0. -1.
          1   -1    0    0  501    0 -0.00000000000E+00 -0.00000000000E+00 -0.50126440663E+03  0.50126440663E+03  0.00000000000E+00 0. -1.
         25    2    1    2    0    0 -0.23144917057E+02  0.65805940598E+01  0.15136888985E+03  0.19778315373E+03  0.12500657455E+03 0.  0.
          2    1    1    2  501    0 -0.37852995940E+02  0.73324811739E+01 -0.47686259362E+03  0.47841879956E+03  0.00000000000E+00 0. -1.
          1    1    1    2  502    0  0.60997912998E+02 -0.13913075234E+02  0.23486741571E+04  0.23495073133E+04  0.00000000000E+00 0. -1.
         22    1    3    3    0    0  0.46856206398E+02  0.27041226238E+02  0.58122724740E+02  0.79403923868E+02  0.00000000000E+00 0.  1.
         22    1    3    3    0    0 -0.70001123455E+02 -0.20460632178E+02  0.93246165111E+02  0.11837922986E+03  0.00000000000E+00 0.  1.
</event>
<event>
 7    1  0.5537228E-006  0.2511763E+03  0.7818608E-02  0.1211328E+00
          2   -1    0    0  502    0  0.00000000000E+00  0.00000000000E+00  0.14179879024E+04  0.14179879024E+04  0.00000000000E+00 0. -1.
          1   -1    0    0  501    0 -0.00000000000E+00 -0.00000000000E+00 -0.21713908257E+04  0.21713908257E+04  0.00000000000E+00 0. -1.
         25    2    1    2    0    0 -0.17703882735E+03 -0.25990870327E+03  0.58737468028E+02  0.34346774768E+03  0.12499889247E+03 0.  0.
          2    1    1    2  501    0  0.17152869298E+03  0.18038790657E+03 -0.20200726895E+04  0.20353514586E+04  0.00000000000E+00 0. -1.
          1    1    1    2  502    0  0.55101343628E+01  0.79520796705E+02  0.12079322982E+04  0.12105595218E+04  0.00000000000E+00 0. -1.
         22    1    3    3    0    0 -0.58153401989E+02 -0.18914151408E+03  0.15366211650E+02  0.19847531577E+03  0.00000000000E+00 0.  1.
         22    1    3    3    0    0 -0.11888542536E+03 -0.70767189193E+02  0.43371256379E+02  0.14499243190E+03  0.00000000000E+00 0.  1.
</event>
<event>
 7    1  0.5537228E-006  0.1443521E+03  0.7818608E-02  0.1288379E+00
          2   -1    0    0  502    0  0.00000000000E+00  0.00000000000E+00  0.14836051798E+03  0.14836051798E+03  0.00000000000E+00 0. -1.
          1   -1    0    0  501    0 -0.00000000000E+00 -0.00000000000E+00 -0.12676672074E+04  0.12676672074E+04  0.00000000000E+00 0. -1.
         25    2    1    2    0    0  0.94143235849E+02 -0.13367356255E+03 -0.50701223752E+03  0.54719132707E+03  0.12500147695E+03 0.  0.
          2    1    1    2  501    0 -0.11957674970E+03  0.74747615133E+02 -0.72529768585E+03  0.73887924462E+03  0.00000000000E+00 0. -1.
          1    1    1    2  502    0  0.25433513850E+02  0.58925947421E+02  0.11300323396E+03  0.12995715368E+03  0.00000000000E+00 0. -1.
         22    1    3    3    0    0  0.25931872667E+02 -0.11827245525E+03 -0.41065626333E+03  0.42813479455E+03  0.00000000000E+00 0. -1.
         22    1    3    3    0    0  0.68211363182E+02 -0.15401107308E+02 -0.96355974187E+02  0.11905653252E+03  0.00000000000E+00 0. -1.
</event>
<event>
 7    1  0.5537228E-006  0.9821640E+02  0.7818608E-02  0.1359570E+00
          2   -1    0    0  502    0  0.00000000000E+00  0.00000000000E+00  0.32774403654E+03  0.32774403654E+03  0.00000000000E+00 0. -1.
          1   -1    0    0  501    0 -0.00000000000E+00 -0.00000000000E+00 -0.77411967103E+03  0.77411967103E+03  0.00000000000E+00 0. -1.
         25    2    1    2    0    0  0.98023617665E+02 -0.82770473333E+02  0.13712655062E+03  0.22558536095E+03  0.12500193324E+03 0.  0.
          2    1    1    2  501    0 -0.49637365248E+02  0.68635517801E+01 -0.71509173607E+03  0.71684528831E+03  0.00000000000E+00 0. -1.
          1    1    1    2  502    0 -0.48386252417E+02  0.75906921553E+02  0.13158955096E+03  0.15943305832E+03  0.00000000000E+00 0. -1.
         22    1    3    3    0    0  0.71924291602E+02 -0.11529678219E+03  0.11681610712E+03  0.17919948267E+03  0.00000000000E+00 0. -1.
         22    1    3    3    0    0  0.26099326063E+02  0.32526308857E+02  0.20310443496E+02  0.46385878280E+02  0.00000000000E+00 0. -1.
</event>
<event>
 7    1  0.5537228E-006  0.1185811E+03  0.7818608E-02  0.1365767E+00
          2   -1    0    0  502    0  0.00000000000E+00  0.00000000000E+00  0.12702832289E+04  0.12702832289E+04  0.00000000000E+00 0. -1.
          1   -1    0    0  501    0 -0.00000000000E+00 -0.00000000000E+00 -0.23774119226E+04  0.23774119226E+04  0.00000000000E+00 0. -1.
         25    2    1    2    0    0  0.71876917971E+02 -0.48009998654E+02  0.29039920754E+03  0.32776164791E+03  0.12499898718E+03 0.  0.
          2    1    1    2  501    0  0.35086110367E+02 -0.17939561514E+02 -0.23544581774E+04  0.23547879251E+04  0.00000000000E+00 0. -1.
          1    1    1    2  502    0 -0.10696302834E+03  0.65949560167E+02  0.95693027626E+03  0.96514557841E+03  0.00000000000E+00 0. -1.
         22    1    3    3    0    0 -0.32401272960E+02  0.26760535524E+01  0.38029282681E+02  0.50032290506E+02  0.00000000000E+00 0.  1.
         22    1    3    3    0    0  0.10427819093E+03 -0.50686052206E+02  0.25236992486E+03  0.27772935741E+03  0.00000000000E+00 0.  1.
</event>
<event>
 7    1  0.5537228E-006  0.6630550E+02  0.7818608E-02  0.1483861E+00
          2   -1    0    0  502    0  0.00000000000E+00  0.00000000000E+00  0.24227514767E+04  0.24227514767E+04  0.00000000000E+00 0. -1.
          1   -1    0    0  501    0 -0.00000000000E+00 -0.00000000000E+00 -0.26970575165E+02  0.26970575165E+02  0.00000000000E+00 0. -1.
         25    2    1    2    0    0 -0.39245099730E+02 -0.67967443039E+02  0.37753633664E+03  0.40536261760E+03  0.12500166037E+03 0.  0.
          2    1    1    2  501    0 -0.11739200150E+02  0.26027172233E+02  0.37660028430E+01  0.28799397425E+02  0.00000000000E+00 0. -1.
          1    1    1    2  502    0  0.50984299880E+02  0.41940270805E+02  0.20144785620E+04  0.20155600368E+04  0.00000000000E+00 0. -1.
         22    1    3    3    0    0  0.30467250217E+02 -0.62706653651E+02  0.12282792171E+03  0.14123411804E+03  0.00000000000E+00 0. -1.
         22    1    3    3    0    0 -0.69712349947E+02 -0.52607893875E+01  0.25470841493E+03  0.26412849956E+03  0.00000000000E+00 0. -1.
</event>
<event>
 7    1  0.5537228E-006  0.6990560E+02  0.7818608E-02  0.1477620E+00
          2   -1    0    0  502    0  0.00000000000E+00  0.00000000000E+00  0.10211689343E+04  0.10211689343E+04  0.00000000000E+00 0. -1.
          1   -1    0    0  501    0 -0.00000000000E+00 -0.00000000000E+00 -0.16096449511E+04  0.16096449511E+04  0.00000000000E+00 0. -1.
         25    2    1    2    0    0 -0.83802765722E+02  0.46334067555E+02  0.59310878637E+02  0.16826345298E+03  0.12500023970E+03 0.  0.
          2    1    1    2  501    0  0.65043125729E+02 -0.25144027198E+02 -0.15541659680E+04  0.15557296315E+04  0.00000000000E+00 0. -1.
          1    1    1    2  502    0  0.18759639993E+02 -0.21190040356E+02  0.90637907251E+03  0.90682080092E+03  0.00000000000E+00 0. -1.
         22    1    3    3    0    0 -0.10186753496E+03  0.71052738785E+02  0.59340457731E+02  0.13764728944E+03  0.00000000000E+00 0. -1.
         22    1    3    3    0    0  0.18064769234E+02 -0.24718671231E+02 -0.29579094272E-01  0.30616163538E+02  0.00000000000E+00 0. -1.
</event>
<event>
 7    1  0.5537228E-006  0.3963822E+02  0.7818608E-02  0.1568325E+00
          2   -1    0    0  502    0  0.00000000000E+00  0.00000000000E+00  0.12007698691E+03  0.12007698691E+03  0.00000000000E+00 0. -1.
          1   -1    0    0  501    0 -0.00000000000E+00 -0.00000000000E+00 -0.26737212959E+03  0.26737212959E+03  0.00000000000E+00 0. -1.
         25    2    1    2    0    0 -0.22145168471E+02 -0.11094495289E+02 -0.10776375726E+03  0.16688634925E+03  0.12499811948E+03 0.  0.
          2    1    1    2  501    0 -0.16840606702E+02  0.21443032957E+02 -0.12399752527E+03  0.12695982030E+03  0.00000000000E+00 0. -1.
          1    1    1    2  502    0  0.38985775173E+02 -0.10348537668E+02  0.84466139854E+02  0.93602946959E+02  0.00000000000E+00 0. -1.
         22    1    3    3    0    0 -0.47410288492E+02  0.37361140311E+02 -0.20167559268E+02  0.63642129970E+02  0.00000000000E+00 0. -1.
         22    1    3    3    0    0  0.25265120021E+02 -0.48455635600E+02 -0.87596197997E+02  0.10324421928E+03  0.00000000000E+00 0. -1.
</event>
<event>
 7    1  0.5537228E-006  0.1022528E+03  0.7818608E-02  0.1448764E+00
          2   -1    0    0  502    0  0.00000000000E+00  0.00000000000E+00  0.18774110828E+04  0.18774110828E+04  0.00000000000E+00 0. -1.
          1   -1    0    0  501    0 -0.00000000000E+00 -0.00000000000E+00 -0.39390968104E+02  0.39390968104E+02  0.00000000000E+00 0. -1.
         25    2    1    2    0    0 -0.80396562111E+02 -0.16611968974E+02  0.52453438325E+03  0.54543810940E+03  0.12500738885E+03 0.  0.
          2    1    1    2  501    0  0.10390774936E+03  0.20545728879E+02  0.68477189312E+02  0.12612720883E+03  0.00000000000E+00 0. -1.
          1    1    1    2  502    0 -0.23511187248E+02 -0.39337599050E+01  0.12450085421E+04  0.12452367326E+04  0.00000000000E+00 0. -1.
         22    1    3    3    0    0 -0.94202522597E+02  0.80143288348E+01  0.49731330486E+03  0.50622017731E+03  0.00000000000E+00 0.  1.
         22    1    3    3    0    0  0.13805960486E+02 -0.24626297809E+02  0.27221078390E+02  0.39217932090E+02  0.00000000000E+00 0.  1.
</event>
<event>
 7    1  0.5537228E-006  0.1539975E+03  0.7818608E-02  0.1357491E+00
          2   -1    0    0  502    0  0.00000000000E+00  0.00000000000E+00  0.99212541763E+03  0.99212541763E+03  0.00000000000E+00 0. -1.
          1   -1    0    0  501    0 -0.00000000000E+00 -0.00000000000E+00 -0.23592126314E+03  0.23592126314E+03  0.00000000000E+00 0. -1.
         25    2    1    2    0    0  0.10241610134E+03 -0.90581085427E+02 -0.44030240536E+02  0.19041513450E+03  0.12500108205E+03 0.  0.
          2    1    1    2  501    0 -0.11976029933E+03  0.11809365185E+03 -0.58655076331E+02  0.17812652212E+03  0.00000000000E+00 0. -1.
          1    1    1    2  502    0  0.17344197992E+02 -0.27512566424E+02  0.85888947136E+03  0.85950502414E+03  0.00000000000E+00 0. -1.
         22    1    3    3    0    0 -0.17320477847E+01 -0.70128422101E+01  0.34672108308E+02  0.35416592720E+02  0.00000000000E+00 0. -1.
         22    1    3    3    0    0  0.10414814913E+03 -0.83568243217E+02 -0.78702348843E+02  0.15499854178E+03  0.00000000000E+00 0. -1.
</event>
<event>
 7    1  0.5537228E-006  0.5170184E+02  0.7818608E-02  0.1538811E+00
          2   -1    0    0  502    0  0.00000000000E+00  0.00000000000E+00  0.37571228228E+03  0.37571228228E+03  0.00000000000E+00 0. -1.
          1   -1    0    0  501    0 -0.00000000000E+00 -0.00000000000E+00 -0.72199668611E+03  0.72199668611E+03  0.00000000000E+00 0. -1.
         25    2    1    2    0    0 -0.49995883461E+02  0.10754795235E+02 -0.67430593915E+03  0.68769794694E+03  0.12499885069E+03 0.  0.
          2    1    1    2  501    0  0.34645922129E+00 -0.25242069161E+02 -0.35094118520E+02  0.43230536016E+02  0.00000000000E+00 0. -1.
          1    1    1    2  502    0  0.49649424240E+02  0.14487273925E+02  0.36311565384E+03  0.36678048544E+03  0.00000000000E+00 0. -1.
         22    1    3    3    0    0 -0.29574152863E+02 -0.37872434203E+02 -0.99687300067E+02  0.11066394889E+03  0.00000000000E+00 0. -1.
         22    1    3    3    0    0 -0.20421730598E+02  0.48627229438E+02 -0.57461863908E+03  0.57703399805E+03  0.00000000000E+00 0. -1.
</event>
<event>
 7    1  0.5537228E-006  0.1018509E+03  0.7818608E-02  0.1375561E+00
          2   -1    0    0  502    0  0.00000000000E+00  0.00000000000E+00  0.19977818243E+03  0.19977818243E+03  0.00000000000E+00 0. -1.
          1   -1    0    0  501    0 -0.00000000000E+00 -0.00000000000E+00 -0.95094718673E+03  0.95094718673E+03  0.00000000000E+00 0. -1.
         25    2    1    2    0    0  0.79423807096E+02  0.79391324072E+02 -0.36148932194E+02  0.17190980460E+03  0.12504044204E+03 0.  0.
          2    1    1    2  501    0  0.13773050287E+02 -0.40005038767E+02 -0.82689390533E+03  0.82797562205E+03  0.00000000000E+00 0. -1.
          1    1    1    2  502    0 -0.93196857382E+02 -0.39386285305E+02  0.11187383322E+03  0.15083994251E+03  0.00000000000E+00 0. -1.
         22    1    3    3    0    0 -0.16840992024E+02  0.67185176705E+02 -0.28592279271E+01  0.69322739167E+02  0.00000000000E+00 0. -1.
         22    1    3    3    0    0  0.96264799120E+02  0.12206147367E+02 -0.33289704267E+02  0.10258706543E+03  0.00000000000E+00 0. -1.
</event>
<event>
 7    1  0.5537228E-006  0.3330784E+02  0.7818608E-02  0.1566252E+00
          2   -1    0    0  502    0  0.00000000000E+00  0.00000000000E+00  0.22468619502E+03  0.22468619502E+03  0.00000000000E+00 0. -1.
          1   -1    0    0  501    0 -0.00000000000E+00 -0.00000000000E+00 -0.41060666568E+03  0.41060666568E+03  0.00000000000E+00 0. -1.
         25    2    1    2    0    0 -0.38752602630E+01  0.10223080923E+02 -0.83768097700E+02  0.15087372762E+03  0.12500503377E+03 0.  0.
          2    1    1    2  501    0  0.34103995341E+02  0.26932207151E+01 -0.29086241655E+03  0.29286734420E+03  0.00000000000E+00 0. -1.
          1    1    1    2  502    0 -0.30228735078E+02 -0.12916301638E+02  0.18871004359E+03  0.19155178889E+03  0.00000000000E+00 0. -1.
         22    1    3    3    0    0  0.12017502443E+02 -0.92699122198E+01  0.30394686447E+02  0.33973351347E+02  0.00000000000E+00 0. -1.
         22    1    3    3    0    0 -0.15892762706E+02  0.19492993143E+02 -0.11416278415E+03  0.11690037627E+03  0.00000000000E+00 0. -1.
</event>
<event>
 7    1  0.5537228E-006  0.4667477E+02  0.7818608E-02  0.1514541E+00
          2   -1    0    0  502    0  0.00000000000E+00  0.00000000000E+00  0.10097406225E+03  0.10097406225E+03  0.00000000000E+00 0. -1.
          1   -1    0    0  501    0 -0.00000000000E+00 -0.00000000000E+00 -0.10998591738E+04  0.10998591738E+04  0.00000000000E+00 0. -1.
         25    2    1    2    0    0  0.18108761343E+02 -0.73302324981E+02 -0.54817561341E+03  0.56729447636E+03  0.12500144674E+03 0.  0.
          2    1    1    2  501    0 -0.18823825423E+02  0.26913041833E+02 -0.53570208026E+03  0.53670789730E+03  0.00000000000E+00 0. -1.
          1    1    1    2  502    0  0.71506408050E+00  0.46389283149E+02  0.84992582095E+02  0.96830862430E+02  0.00000000000E+00 0. -1.
         22    1    3    3    0    0 -0.52485777009E+02 -0.15834956185E+02 -0.22007192217E+03  0.22679760482E+03  0.00000000000E+00 0. -1.
         22    1    3    3    0    0  0.70594538352E+02 -0.57467368796E+02 -0.32810369124E+03  0.34049687154E+03  0.00000000000E+00 0. -1.
</event>
<event>
 7    1  0.5537228E-006  0.1216539E+03  0.7818608E-02  0.1284670E+00
          2   -1    0    0  502    0  0.00000000000E+00  0.00000000000E+00  0.34115979784E+03  0.34115979784E+03  0.00000000000E+00 0. -1.
          1   -1    0    0  501    0 -0.00000000000E+00 -0.00000000000E+00 -0.13921880389E+04  0.13921880389E+04  0.00000000000E+00 0. -1.
         25    2    1    2    0    0 -0.47643434343E+02  0.12917208476E+03 -0.69793149813E+02  0.19861984738E+03  0.12499374262E+03 0.  0.
          2    1    1    2  501    0  0.78124570498E+02 -0.10759903507E+02 -0.12431652289E+04  0.12456640841E+04  0.00000000000E+00 0. -1.
          1    1    1    2  502    0 -0.30481136155E+02 -0.11841218125E+03  0.26193013765E+03  0.28906390528E+03  0.00000000000E+00 0. -1.
         22    1    3    3    0    0 -0.49424349973E+02  0.89113204696E+02 -0.10422800825E+03  0.14576490430E+03  0.00000000000E+00 0. -1.
         22    1    3    3    0    0  0.17809156302E+01  0.40058880062E+02  0.34434858436E+02  0.52854943078E+02  0.00000000000E+00 0. -1.
</event>
<event>
 7    1  0.5537228E-006  0.2330915E+02  0.7818608E-02  0.1700416E+00
          2   -1    0    0  502    0  0.00000000000E+00  0.00000000000E+00  0.34691165566E+03  0.34691165566E+03  0.00000000000E+00 0. -1.
          1   -1    0    0  501    0 -0.00000000000E+00 -0.00000000000E+00 -0.24804767825E+03  0.24804767825E+03  0.00000000000E+00 0. -1.
         25    2    1    2    0    0 -0.79630968398E+01  0.29397407261E+02 -0.33987636652E+02  0.13308285930E+03  0.12501307743E+03 0.  0.
          2    1    1    2  501    0  0.20256997811E+02 -0.11586579122E+02 -0.16328798392E+03  0.16494714447E+03  0.00000000000E+00 0. -1.
          1    1    1    2  502    0 -0.12293900971E+02 -0.17810828139E+02  0.29613959799E+03  0.29692933014E+03  0.00000000000E+00 0. -1.
         22    1    3    3    0    0  0.11717068317E+02  0.36343120655E+02  0.40537775935E+02  0.55690424551E+02  0.00000000000E+00 0.  1.
         22    1    3    3    0    0 -0.19680165157E+02 -0.69457133942E+01 -0.74525412587E+02  0.77392434749E+02  0.00000000000E+00 0.  1.
</event>
<event>
 7    1  0.5537228E-006  0.4976353E+02  0.7818608E-02  0.1536444E+00
          2   -1    0    0  502    0  0.00000000000E+00  0.00000000000E+00  0.22310369777E+03  0.22310369777E+03  0.00000000000E+00 0. -1.
          1   -1    0    0  501    0 -0.00000000000E+00 -0.00000000000E+00 -0.47131154597E+03  0.47131154597E+03  0.00000000000E+00 0. -1.
         25    2    1    2    0    0 -0.74817779234E+02 -0.45000604255E+01 -0.22203467246E+02  0.14743307273E+03  0.12500226536E+03 0.  0.
          2    1    1    2  501    0  0.26568400604E+02 -0.19024192767E+01 -0.38232894202E+03  0.38325568360E+03  0.00000000000E+00 0. -1.
          1    1    1    2  502    0  0.48249378631E+02  0.64024797021E+01  0.15632456106E+03  0.16372648740E+03  0.00000000000E+00 0. -1.
         22    1    3    3    0    0 -0.41201765499E+02 -0.47662353869E+02 -0.55013136264E+02  0.83640484326E+02  0.00000000000E+00 0. -1.
         22    1    3    3    0    0 -0.33616013735E+02  0.43162293443E+02  0.32809669019E+02  0.63792588408E+02  0.00000000000E+00 0. -1.
</event>
<event>
 7    1  0.5537228E-006  0.1098355E+03  0.7818608E-02  0.1365304E+00
          2   -1    0    0  502    0  0.00000000000E+00  0.00000000000E+00  0.44120444686E+03  0.44120444686E+03  0.00000000000E+00 0. -1.
          1   -1    0    0  501    0 -0.00000000000E+00 -0.00000000000E+00 -0.16508223733E+03  0.16508223733E+03  0.00000000000E+00 0. -1.
         25    2    1    2    0    0 -0.35821290162E+02 -0.10360101656E+03  0.11952497550E+02  0.16668639803E+03  0.12500063052E+03 0.  0.
          2    1    1    2  501    0 -0.37421439259E+02  0.20582484448E+02 -0.73079749129E+02  0.84644270420E+02  0.00000000000E+00 0. -1.
          1    1    1    2  502    0  0.73242729421E+02  0.83018532114E+02  0.33724946111E+03  0.35495601573E+03  0.00000000000E+00 0. -1.
         22    1    3    3    0    0  0.18527270849E+02 -0.87181718270E+02 -0.32197244500E+02  0.94765892171E+02  0.00000000000E+00 0.  1.
         22    1    3    3    0    0 -0.54348561011E+02 -0.16419298293E+02  0.44149742050E+02  0.71920505862E+02  0.00000000000E+00 0.  1.
</event>
<event>
 7    1  0.5537228E-006  0.9576750E+02  0.7818608E-02  0.1325603E+00
          2   -1    0    0  502    0  0.00000000000E+00  0.00000000000E+00  0.85928256267E+03  0.85928256267E+03  0.00000000000E+00 0. -1.
          1   -1    0    0  501    0 -0.00000000000E+00 -0.00000000000E+00 -0.25340062512E+03  0.25340062512E+03  0.00000000000E+00 0. -1.
         25    2    1    2    0    0  0.10496091013E+03 -0.67413907144E+02  0.17183035218E+03  0.24639750964E+03  0.12499854118E+03 0.  0.
          2    1    1    2  501    0 -0.95267844676E+02 -0.79635940386E+00 -0.20367113407E+03  0.22485223431E+03  0.00000000000E+00 0. -1.
          1    1    1    2  502    0 -0.96930654509E+01  0.68210266548E+02  0.63772271944E+03  0.64143344384E+03  0.00000000000E+00 0. -1.
         22    1    3    3    0    0  0.82136789754E+02  0.12398415181E+02  0.44060473711E+02  0.94029241588E+02  0.00000000000E+00 0. -1.
         22    1    3    3    0    0  0.22824120373E+02 -0.79812322325E+02  0.12776987847E+03  0.15236826806E+03  0.00000000000E+00 0. -1.
</event>
<event>
 7    1  0.5537228E-006  0.1055318E+03  0.7818608E-02  0.1344867E+00
          2   -1    0    0  502    0  0.00000000000E+00  0.00000000000E+00  0.30336670883E+03  0.30336670883E+03  0.00000000000E+00 0. -1.
          1   -1    0    0  501    0 -0.00000000000E+00 -0.00000000000E+00 -0.37762770349E+03  0.37762770349E+03  0.00000000000E+00 0. -1.
         25    2    1    2    0    0  0.84242203569E+02 -0.22197552804E+02 -0.15548907487E+03  0.21769834841E+03  0.12500495303E+03 0.  0.
          2    1    1    2  501    0 -0.72079295552E+01 -0.52352553408E+02 -0.17645771090E+03  0.18420116132E+03  0.00000000000E+00 0. -1.
          1    1    1    2  502    0 -0.77034274014E+02  0.74550106212E+02  0.25768579111E+03  0.27909490258E+03  0.00000000000E+00 0. -1.
         22    1    3    3    0    0  0.14341216894E+02  0.27945985719E+02  0.84774061204E+01  0.32534828021E+02  0.00000000000E+00 0.  1.
         22    1    3    3    0    0  0.69900986675E+02 -0.50143538523E+02 -0.16396648099E+03  0.18516352039E+03  0.00000000000E+00 0.  1.
</event>
<event>
 7    1  0.5537228E-006  0.9031570E+02  0.7818608E-02  0.1420455E+00
          2   -1    0    0  502    0  0.00000000000E+00  0.00000000000E+00  0.16953806874E+04  0.16953806874E+04  0.00000000000E+00 0. -1.
          1   -1    0    0  501    0 -0.00000000000E+00 -0.00000000000E+00 -0.90295328982E+03  0.90295328982E+03  0.00000000000E+00 0. -1.
         25    2    1    2    0    0 -0.33006609336E+02 -0.46678773521E+02  0.63651064861E+03  0.65118263501E+03  0.12499869678E+03 0.  0.
          2    1    1    2  501    0  0.55279233642E+02  0.71571035362E+02 -0.89306794676E+03  0.89763498389E+03  0.00000000000E+00 0. -1.
          1    1    1    2  502    0 -0.22272624306E+02 -0.24892261841E+02  0.10489846958E+04  0.10495163583E+04  0.00000000000E+00 0. -1.
         22    1    3    3    0    0  0.32135633689E+02 -0.27151077015E+02  0.46165248300E+03  0.46356541609E+03  0.00000000000E+00 0.  1.
         22    1    3    3    0    0 -0.65142243025E+02 -0.19527696506E+02  0.17485816560E+03  0.18761721892E+03  0.00000000000E+00 0.  1.
</event>
<event>
 7    1  0.5537228E-006  0.5896646E+02  0.7818608E-02  0.1486109E+00
          2   -1    0    0  502    0  0.00000000000E+00  0.00000000000E+00  0.79032635452E+03  0.79032635452E+03  0.00000000000E+00 0. -1.
          1   -1    0    0  501    0 -0.00000000000E+00 -0.00000000000E+00 -0.45932907737E+03  0.45932907737E+03  0.00000000000E+00 0. -1.
         25    2    1    2    0    0  0.65616449702E+02 -0.57078353887E+01  0.17939487216E+03  0.22835256589E+03  0.12499710529E+03 0.  0.
          2    1    1    2  501    0 -0.54011091402E+02 -0.23687597104E+02 -0.43242132406E+03  0.43642468050E+03  0.00000000000E+00 0. -1.
          1    1    1    2  502    0 -0.11605358300E+02  0.29395432493E+02  0.58402372904E+03  0.58487818550E+03  0.00000000000E+00 0. -1.
         22    1    3    3    0    0  0.45557391696E+02  0.44301284909E+02  0.31453068756E+02  0.70903986608E+02  0.00000000000E+00 0.  1.
         22    1    3    3    0    0  0.20059058006E+02 -0.50009120298E+02  0.14794180341E+03  0.15744857928E+03  0.00000000000E+00 0.  1.
</event>
<event>
 7    1  0.5537228E-006  0.8689464E+02  0.7818608E-02  0.1360747E+00
          2   -1    0    0  502    0  0.00000000000E+00  0.00000000000E+00  0.39310609726E+02  0.39310609726E+02  0.00000000000E+00 0. -1.
          1   -1    0    0  501    0 -0.00000000000E+00 -0.00000000000E+00 -0.22318905063E+04  0.22318905063E+04  0.00000000000E+00 0. -1.
         25    2    1    2    0    0  0.11237257437E+02 -0.51615777886E+02 -0.13686986523E+04  0.13754102985E+04  0.12500809542E+03 0.  0.
          2    1    1    2  501    0  0.55690242471E+02 -0.66114020894E+01 -0.80260741327E+03  0.80456433775E+03  0.00000000000E+00 0. -1.
          1    1    1    2  502    0 -0.66927499909E+02  0.58227179976E+02 -0.21273831036E+02  0.91226479812E+02  0.00000000000E+00 0. -1.
         22    1    3    3    0    0 -0.77448753599E+01  0.40485822152E+02 -0.47065561909E+03  0.47245719031E+03  0.00000000000E+00 0. -1.
         22    1    3    3    0    0  0.18982132797E+02 -0.92101600038E+02 -0.89804303320E+03  0.90295310818E+03  0.00000000000E+00 0. -1.
</event>
<event>
 7    1  0.5537228E-006  0.7506000E+02  0.7818608E-02  0.1373584E+00
          2   -1    0    0  502    0  0.00000000000E+00  0.00000000000E+00  0.35406289920E+03  0.35406289920E+03  0.00000000000E+00 0. -1.
          1   -1    0    0  501    0 -0.00000000000E+00 -0.00000000000E+00 -0.29495941521E+03  0.29495941521E+03  0.00000000000E+00 0. -1.
         25    2    1    2    0    0 -0.92016222112E+02  0.75455621112E+02  0.72374446895E+02  0.18714532520E+03  0.12499910517E+03 0.  0.
          2    1    1    2  501    0  0.70332172133E+02 -0.21282052120E+02 -0.22790192090E+03  0.23945526875E+03  0.00000000000E+00 0. -1.
          1    1    1    2  502    0  0.21684049979E+02 -0.54173568991E+02  0.21463095800E+03  0.22242172046E+03  0.00000000000E+00 0. -1.
         22    1    3    3    0    0 -0.84548350910E+02  0.93437514566E+02  0.94620450392E+02  0.15758179591E+03  0.00000000000E+00 0.  1.
         22    1    3    3    0    0 -0.74678712015E+01 -0.17981893454E+02 -0.22246003497E+02  0.29563529290E+02  0.00000000000E+00 0.  1.
</event>
<event>
 7    1  0.5537228E-006  0.5340889E+02  0.7818608E-02  0.1429195E+00
          2   -1    0    0  502    0  0.00000000000E+00  0.00000000000E+00  0.70557223769E+03  0.70557223769E+03  0.00000000000E+00 0. -1.
          1   -1    0    0  501    0 -0.00000000000E+00 -0.00000000000E+00 -0.98397306312E+03  0.98397306312E+03  0.00000000000E+00 0. -1.
         25    2    1    2    0    0 -0.43596693084E+02  0.32084315894E+02  0.25981671573E+03  0.29335802668E+03  0.12499652425E+03 0.  0.
          2    1    1    2  501    0 -0.48108577491E+01 -0.53259841756E+02 -0.96483224630E+03  0.96631310589E+03  0.00000000000E+00 0. -1.
          1    1    1    2  502    0  0.48407550834E+02  0.21175525861E+02  0.42661470515E+03  0.42987416824E+03  0.00000000000E+00 0. -1.
         22    1    3    3    0    0 -0.63534635158E+02 -0.17461011457E+02  0.69837020322E+02  0.96014302024E+02  0.00000000000E+00 0.  1.
         22    1    3    3    0    0  0.19937942073E+02  0.49545327351E+02  0.18997969540E+03  0.19734372466E+03  0.00000000000E+00 0.  1.
</event>
<event>
 7    1  0.5537228E-006  0.1377259E+03  0.7818608E-02  0.1346817E+00
          2   -1    0    0  502    0  0.00000000000E+00  0.00000000000E+00  0.97466868265E+03  0.97466868265E+03  0.00000000000E+00 0. -1.
          1   -1    0    0  501    0 -0.00000000000E+00 -0.00000000000E+00 -0.55362899320E+03  0.55362899320E+03  0.00000000000E+00 0. -1.
         25    2    1    2    0    0 -0.85500850128E+02 -0.10927133116E+03 -0.23917678975E+03  0.30344600015E+03  0.12499327610E+03 0.  0.
          2    1    1    2  501    0 -0.26826157154E+02  0.29429123807E+02 -0.27584268027E+03  0.27870217131E+03  0.00000000000E+00 0. -1.
          1    1    1    2  502    0  0.11232700728E+03  0.79842207354E+02  0.93605915947E+03  0.94614950439E+03  0.00000000000E+00 0. -1.
         22    1    3    3    0    0 -0.75237402419E+02 -0.13614385778E+03 -0.21763386310E+03  0.26750759821E+03  0.00000000000E+00 0. -1.
         22    1    3    3    0    0 -0.10263447709E+02  0.26872526617E+02 -0.21542926646E+02  0.35938401942E+02  0.00000000000E+00 0. -1.
</event>
<event>
 7    1  0.5537228E-006  0.1149555E+03  0.7818608E-02  0.1268675E+00
          2   -1    0    0  502    0  0.00000000000E+00  0.00000000000E+00  0.12281644555E+03  0.12281644555E+03  0.00000000000E+00 0. -1.
          1   -1    0    0  501    0 -0.00000000000E+00 -0.00000000000E+00 -0.28072084613E+04  0.28072084613E+04  0.00000000000E+00 0. -1.
         25    2    1    2    0    0  0.96283268016E+02 -0.16212111192E+03 -0.76459580439E+03  0.79736034987E+03  0.12499224307E+03 0.  0.
          2    1    1    2  501    0 -0.15253532681E+02  0.10833284071E+03 -0.20022029458E+04  0.20051895947E+04  0.00000000000E+00 0. -1.
          1    1    1    2  502    0 -0.81029735335E+02  0.53788271209E+02  0.82406734417E+02  0.12747496227E+03  0.00000000000E+00 0. -1.
         22    1    3    3    0    0  0.76548343279E+02 -0.35464963086E+02 -0.17880202071E+03  0.19770577906E+03  0.00000000000E+00 0. -1.
         22    1    3    3    0    0  0.19734924737E+02 -0.12665614883E+03 -0.58579378369E+03  0.59965457081E+03  0.00000000000E+00 0. -1.
</event>
<event>
 7    1  0.5537228E-006  0.1164934E+03  0.7818608E-02  0.1351382E+00
          2   -1    0    0  502    0  0.00000000000E+00  0.00000000000E+00  0.10445062085E+04  0.10445062085E+04  0.00000000000E+00 0. -1.
          1   -1    0    0  501    0 -0.00000000000E+00 -0.00000000000E+00 -0.88271618559E+02  0.88271618559E+02  0.00000000000E+00 0. -1.
         25    2    1    2    0    0  0.46290474123E+02  0.93706833900E+02  0.23102064830E+03  0.28270020967E+03  0.12500035958E+03 0.  0.
          2    1    1    2  501    0 -0.37240375497E+02  0.25754608522E+02 -0.48960664127E+02  0.66688020357E+02  0.00000000000E+00 0. -1.
          1    1    1    2  502    0 -0.90500986252E+01 -0.11946144242E+03  0.77417460572E+03  0.78338959698E+03  0.00000000000E+00 0. -1.
         22    1    3    3    0    0 -0.86308189105E+01 -0.26523644612E+02  0.63155159571E+02  0.69040342837E+02  0.00000000000E+00 0. -1.
         22    1    3    3    0    0  0.54921293033E+02  0.12023047851E+03  0.16786548873E+03  0.21365986684E+03  0.00000000000E+00 0. -1.
</event>
<event>
 7    1  0.5537228E-006  0.6022286E+02  0.7818608E-02  0.1522532E+00
          2   -1    0    0  502    0  0.00000000000E+00  0.00000000000E+00  0.11412184600E+04  0.11412184600E+04  0.00000000000E+00 0. -1.
          1   -1    0    0  501    0 -0.00000000000E+00 -0.00000000000E+00 -0.35744224526E+04  0.35744224526E+04  0.00000000000E+00 0. -1.
         25    2    1    2    0    0 -0.67626481701E+02  0.35778809585E+02 -0.27690342082E+03  0.31329599041E+03  0.12500163561E+03 0.  0.
          2    1    1    2  501    0  0.58489136939E+02 -0.13448604118E+02 -0.32789185271E+04  0.32794677238E+04  0.00000000000E+00 0. -1.
          1    1    1    2  502    0  0.91373447617E+01 -0.22330205467E+02  0.11226179553E+04  0.11228771984E+04  0.00000000000E+00 0. -1.
         22    1    3    3    0    0  0.23364200638E+02  0.31172240152E+02 -0.16219985841E+03  0.16681243508E+03  0.00000000000E+00 0. -1.
         22    1    3    3    0    0 -0.90990682339E+02  0.46065694325E+01 -0.11470356241E+03  0.14648355534E+03  0.00000000000E+00 0. -1.
</event>
<event>
 7    1  0.5537228E-006  0.2314243E+03  0.7818608E-02  0.1316391E+00
          2   -1    0    0  502    0  0.00000000000E+00  0.00000000000E+00  0.11448394858E+04  0.11448394858E+04  0.00000000000E+00 0. -1.
          1   -1    0    0  501    0 -0.00000000000E+00 -0.00000000000E+00 -0.13467681531E+04  0.13467681531E+04  0.00000000000E+00 0. -1.
         25    2    1    2    0    0 -0.79305580957E+02 -0.22386980236E+03 -0.10539276422E+03  0.28834005430E+03  0.12500115433E+03 0.  0.
          2    1    1    2  501    0 -0.25346475993E+02  0.17764166679E+02 -0.11370074483E+04  0.11374286557E+04  0.00000000000E+00 0. -1.
          1    1    1    2  502    0  0.10465205695E+03  0.20610563568E+03  0.10404715451E+04  0.10658389289E+04  0.00000000000E+00 0. -1.
         22    1    3    3    0    0 -0.30993281716E+02 -0.21257546562E+03 -0.65233777439E+02  0.22450914862E+03  0.00000000000E+00 0.  1.
         22    1    3    3    0    0 -0.48312299241E+02 -0.11294336735E+02 -0.40158986778E+02  0.63830905675E+02  0.00000000000E+00 0.  1.
</event>
<event>
 7    1  0.5537228E-006  0.4998384E+02  0.7818608E-02  0.1459312E+00
          2   -1    0    0  502    0  0.00000000000E+00  0.00000000000E+00  0.11318893589E+03  0.11318893589E+03  0.00000000000E+00 0. -1.
          1   -1    0    0  501    0 -0.00000000000E+00 -0.00000000000E+00 -0.39422226643E+03  0.39422226643E+03  0.00000000000E+00 0. -1.
         25    2    1    2    0    0 -0.38877770202E+01  0.56372498773E+02 -0.18840511814E+03  0.23305336652E+03  0.12499763868E+03 0.  0.
          2    1    1    2  501    0  0.41308052854E+02 -0.31127678409E+02 -0.17387968539E+03  0.18140957137E+03  0.00000000000E+00 0. -1.
          1    1    1    2  502    0 -0.37420275833E+02 -0.25244820364E+02  0.81251472990E+02  0.92948264436E+02  0.00000000000E+00 0. -1.
         22    1    3    3    0    0  0.40455630323E+02  0.50166848081E+02 -0.35187002252E+02  0.73426805723E+02  0.00000000000E+00 0.  1.
         22    1    3    3    0    0 -0.44343407343E+02  0.62056506919E+01 -0.15321811588E+03  0.15962656079E+03  0.00000000000E+00 0.  1.
</event>
<event>
 7    1  0.5537228E-006  0.3063078E+02  0.7818608E-02  0.1614745E+00
          2   -1    0    0  502    0  0.00000000000E+00  0.00000000000E+00  0.16227246616E+04  0.16227246616E+04  0.00000000000E+00 0. -1.
          1   -1    0    0  501    0 -0.00000000000E+00 -0.00000000000E+00 -0.26336608622E+03  0.26336608622E+03  0.00000000000E+00 0. -1.
         25    2    1    2    0    0 -0.30526738818E+02  0.47941538458E+02  0.49561241943E+02  0.14598358625E+03  0.12499847143E+03 0.  0.
          2    1    1    2  501    0  0.16720140088E+02 -0.20691128210E+02 -0.21417895841E+03  0.21582472541E+03  0.00000000000E+00 0. -1.
          1    1    1    2  502    0  0.13806598730E+02 -0.27250410248E+02  0.15239762918E+04  0.15242824361E+04  0.00000000000E+00 0. -1.
         22    1    3    3    0    0 -0.41893106818E+02 -0.12824607149E+02 -0.23951992451E+02  0.49931962607E+02  0.00000000000E+00 0.  1.
         22    1    3    3    0    0  0.11366367999E+02  0.60766145607E+02  0.73513234394E+02  0.96051623644E+02  0.00000000000E+00 0.  1.
</event>
<event>
 7    1  0.5537228E-006  0.1061242E+03  0.7818608E-02  0.1289299E+00
          2   -1    0    0  502    0  0.00000000000E+00  0.00000000000E+00  0.43289838818E+03  0.43289838818E+03  0.00000000000E+00 0. -1.
          1   -1    0    0  501    0 -0.00000000000E+00 -0.00000000000E+00 -0.53768202807E+03  0.53768202807E+03  0.00000000000E+00 0. -1.
         25    2    1    2    0    0  0.15501461484E+03 -0.84835604114E+02 -0.57863028969E+02  0.22405364507E+03  0.12500118082E+03 0.  0.
          2    1    1    2  501    0 -0.69165392513E+02  0.73848197978E+02 -0.38472690891E+03  0.39780925367E+03  0.00000000000E+00 0. -1.
          1    1    1    2  502    0 -0.85849222330E+02  0.10987406136E+02  0.33780629798E+03  0.34871751752E+03  0.00000000000E+00 0. -1.
         22    1    3    3    0    0  0.21885350883E+02 -0.80073122769E+02 -0.17222281414E+02  0.84777830536E+02  0.00000000000E+00 0. -1.
         22    1    3    3    0    0  0.13312926396E+03 -0.47624813444E+01 -0.40640747555E+02  0.13927581453E+03  0.00000000000E+00 0. -1.
</event>
<event>
 7    1  0.5537228E-006  0.5485134E+02  0.7818608E-02  0.1446015E+00
          2   -1    0    0  502    0  0.00000000000E+00  0.00000000000E+00  0.29670801259E+04  0.29670801259E+04  0.00000000000E+00 0. -1.
          1   -1    0    0  501    0 -0.00000000000E+00 -0.00000000000E+00 -0.52806821331E+02  0.52806821331E+02  0.00000000000E+00 0. -1.
         25    2    1    2    0    0 -0.59165783009E+02 -0.78530691285E+02  0.13221708783E+04  0.13317017818E+04  0.12500457948E+03 0.  0.
          2    1    1    2  501    0  0.38913794766E+02  0.37952950958E+02 -0.32247065047E+02  0.63202714448E+02  0.00000000000E+00 0. -1.
          1    1    1    2  502    0  0.20251988243E+02  0.40577740328E+02  0.16243494914E+04  0.16249824510E+04  0.00000000000E+00 0. -1.
         22    1    3    3    0    0  0.97813472440E+01 -0.76697171568E+02  0.95386538244E+03  0.95699388645E+03  0.00000000000E+00 0. -1.
         22    1    3    3    0    0 -0.68947130253E+02 -0.18335197174E+01  0.36830549587E+03  0.37470789537E+03  0.00000000000E+00 0. -1.
</event>
<event>
 7    1  0.5537228E-006  0.1262431E+03  0.7818608E-02  0.1371443E+00
          2   -1    0    0  502    0  0.00000000000E+00  0.00000000000E+00  0.62116047411E+03  0.62116047411E+03  0.00000000000E+00 0. -1.
          1   -1    0    0  501    0 -0.00000000000E+00 -0.00000000000E+00 -0.66310920924E+03  0.66310920924E+03  0.00000000000E+00 0. -1.
         25    2    1    2    0    0  0.27634953072E+02  0.11141864639E+03  0.19815860170E+03  0.26089707753E+03  0.12499059261E+03 0.  0.
          2    1    1    2  501    0  0.42439478252E+01 -0.12660709416E+03 -0.62457222935E+03  0.63728944528E+03  0.00000000000E+00 0. -1.
          1    1    1    2  502    0 -0.31878900897E+02  0.15188447770E+02  0.38446489253E+03  0.38608316054E+03  0.00000000000E+00 0. -1.
         22    1    3    3    0    0 -0.48383244068E+02  0.37794182984E+02  0.52051966916E+02  0.80490656811E+02  0.00000000000E+00 0. -1.
         22    1    3    3    0    0  0.76018197141E+02  0.73624463403E+02  0.14610663479E+03  0.18040642072E+03  0.00000000000E+00 0. -1.
</event>
<event>
 7    1  0.5537228E-006  0.5965147E+02  0.7818608E-02  0.1467105E+00
          2   -1    0    0  502    0  0.00000000000E+00  0.00000000000E+00  0.26332686021E+03  0.26332686021E+03  0.00000000000E+00 0. -1.
          1   -1    0    0  501    0 -0.00000000000E+00 -0.00000000000E+00 -0.60353005006E+03  0.60353005006E+03  0.00000000000E+00 0. -1.
         25    2    1    2    0    0  0.70587796192E+02 -0.10907820698E+01 -0.29446276749E+03  0.32759471251E+03  0.12500458972E+03 0.  0.
          2    1    1    2  501    0 -0.50538343151E+02  0.30691187619E+02 -0.28818888720E+03  0.29419195746E+03  0.00000000000E+00 0. -1.
          1    1    1    2  502    0 -0.20049453041E+02 -0.29600405549E+02  0.24244846484E+03  0.24507024030E+03  0.00000000000E+00 0. -1.
         22    1    3    3    0    0  0.40352490099E+02  0.57304686867E+02 -0.20438499392E+03  0.21606799007E+03  0.00000000000E+00 0. -1.
         22    1    3    3    0    0  0.30235306093E+02 -0.58395468937E+02 -0.90077773573E+02  0.11152672244E+03  0.00000000000E+00 0. -1.
</event>
<event>
 7    1  0.5537228E-006  0.6003987E+02  0.7818608E-02  0.1499932E+00
          2   -1    0    0  502    0  0.00000000000E+00  0.00000000000E+00  0.71390156510E+03  0.71390156510E+03  0.00000000000E+00 0. -1.
          1   -1    0    0  501    0 -0.00000000000E+00 -0.00000000000E+00 -0.17057326298E+03  0.17057326298E+03  0.00000000000E+00 0. -1.
         25    2    1    2    0    0 -0.66137441877E+02 -0.49304152409E+02 -0.29180561903E+02  0.15259250433E+03  0.12501162555E+03 0.  0.
          2    1    1    2  501    0  0.39311548086E+02  0.40608786212E+02 -0.69316064661E+02  0.89438180609E+02  0.00000000000E+00 0. -1.
          1    1    1    2  502    0  0.26825893791E+02  0.86953661972E+01  0.64182492869E+03  0.64244414314E+03  0.00000000000E+00 0. -1.
         22    1    3    3    0    0 -0.85535275070E+02 -0.70795415745E+02  0.63405532251E+00  0.11103457208E+03  0.00000000000E+00 0.  1.
         22    1    3    3    0    0  0.19397833192E+02  0.21491263336E+02 -0.29814617225E+02  0.41557932247E+02  0.00000000000E+00 0.  1.
</event>
<event>
 7    1  0.5537228E-006  0.4501175E+02  0.7818608E-02  0.1483297E+00
          2   -1    0    0  502    0  0.00000000000E+00  0.00000000000E+00  0.31711068926E+03  0.31711068926E+03  0.00000000000E+00 0. -1.
          1   -1    0    0  501    0 -0.00000000000E+00 -0.00000000000E+00 -0.22803363118E+03  0.22803363118E+03  0.00000000000E+00 0. -1.
         25    2    1    2    0    0 -0.49716324069E+02  0.46703814264E+00 -0.15984021460E+03  0.20891737179E+03  0.12500257209E+03 0.  0.
          2    1    1    2  501    0  0.26131452052E+02  0.37871078267E+02 -0.29197183967E+02  0.54493549224E+02  0.00000000000E+00 0. -1.
          1    1    1    2  502    0  0.23584872017E+02 -0.38338116410E+02  0.27811445664E+03  0.28173339943E+03  0.00000000000E+00 0. -1.
         22    1    3    3    0    0 -0.47405504583E+02  0.58531018762E+02 -0.76858405644E+02  0.10761215796E+03  0.00000000000E+00 0. -1.
         22    1    3    3    0    0 -0.23108194859E+01 -0.58063980619E+02 -0.82981808954E+02  0.10130521383E+03  0.00000000000E+00 0. -1.
</event>
<event>
 7    1  0.5537228E-006  0.7165028E+02  0.7818608E-02  0.1364031E+00
          2   -1    0    0  502    0  0.00000000000E+00  0.00000000000E+00  0.10819529008E+03  0.10819529008E+03  0.00000000000E+00 0. -1.
          1   -1    0    0  501    0 -0.00000000000E+00 -0.00000000000E+00 -0.11199397212E+04  0.11199397212E+04  0.00000000000E+00 0. -1.
         25    2    1    2    0    0  0.61874643371E+02 -0.10820899610E+02 -0.40119846649E+03  0.42488957719E+03  0.12500151974E+03 0.  0.
          2    1    1    2  501    0 -0.12941862584E+02  0.64890478057E+02 -0.69128739803E+03  0.69444692571E+03  0.00000000000E+00 0. -1.
          1    1    1    2  502    0 -0.48932780786E+02 -0.54069578447E+02  0.80741433427E+02  0.10879850836E+03  0.00000000000E+00 0. -1.
         22    1    3    3    0    0  0.62130736408E+02 -0.62008457978E+02 -0.27630254911E+03  0.28991097929E+03  0.00000000000E+00 0.  1.
         22    1    3    3    0    0 -0.25609303682E+00  0.51187558367E+02 -0.12489591737E+03  0.13497859790E+03  0.00000000000E+00 0.  1.
</event>
<event>
 7    1  0.5537228E-006  0.1201959E+03  0.7818608E-02  0.1299789E+00
          2   -1    0    0  502    0  0.00000000000E+00  0.00000000000E+00  0.74855877795E+03  0.74855877795E+03  0.00000000000E+00 0. -1.
          1   -1    0    0  501    0 -0.00000000000E+00 -0.00000000000E+00 -0.38104963966E+03  0.38104963966E+03  0.00000000000E+00 0. -1.
         25    2    1    2    0    0  0.13862518343E+03 -0.69579146368E+02  0.22371952297E+03  0.29955508097E+03  0.12499848994E+03 0.  0.
          2    1    1    2  501    0 -0.11932533138E+03  0.30050072021E+01 -0.33015353282E+03  0.35106825548E+03  0.00000000000E+00 0. -1.
          1    1    1    2  502    0 -0.19299852052E+02  0.66574139166E+02  0.47394314815E+03  0.47898508115E+03  0.00000000000E+00 0. -1.
         22    1    3    3    0    0  0.12578148841E+03 -0.69059210099E+02  0.99365389474E+02  0.17453835668E+03  0.00000000000E+00 0. -1.
         22    1    3    3    0    0  0.12843695019E+02 -0.51993626895E+00  0.12435413349E+03  0.12501672429E+03  0.00000000000E+00 0. -1.
</event>
<event>
 7    1  0.5537228E-006  0.2121981E+03  0.7818608E-02  0.1248932E+00
          2   -1    0    0  502    0  0.00000000000E+00  0.00000000000E+00  0.62211565695E+03  0.62211565695E+03  0.00000000000E+00 0. -1.
          1   -1    0    0  501    0 -0.00000000000E+00 -0.00000000000E+00 -0.39854188868E+03  0.39854188868E+03  0.00000000000E+00 0. -1.
         25    2    1    2    0    0 -0.10307418439E+03  0.20832550154E+03 -0.25323771161E+03  0.36575653577E+03  0.12499881117E+03 0.  0.
          2    1    1    2  501    0  0.10817174538E+03 -0.14453458587E+03  0.69110856464E+01  0.18066304579E+03  0.00000000000E+00 0. -1.
          1    1    1    2  502    0 -0.50975609844E+01 -0.63790915676E+02  0.46990039424E+03  0.47423796406E+03  0.00000000000E+00 0. -1.
         22    1    3    3    0    0 -0.56190010582E+02  0.20048481663E+03 -0.16551537992E+03  0.26598274376E+03  0.00000000000E+00 0. -1.
         22    1    3    3    0    0 -0.46884173813E+02  0.78406849100E+01 -0.87722331696E+02  0.99773792010E+02  0.00000000000E+00 0. -1.
</event>
<event>
 7    1  0.5537228E-006  0.6880996E+02  0.7818608E-02  0.1497826E+00
          2   -1    0    0  502    0  0.00000000000E+00  0.00000000000E+00  0.12342565395E+04  0.12342565395E+04  0.00000000000E+00 0. -1.
          1   -1    0    0  501    0 -0.00000000000E+00 -0.00000000000E+00 -0.41561385641E+03  0.41561385641E+03  0.00000000000E+00 0. -1.
         25    2    1    2    0    0 -0.20850192077E+02  0.89741994336E+02  0.46807568675E+03  0.49316016581E+03  0.12499497811E+03 0.  0.
          2    1    1    2  501    0  0.82849820675E+01 -0.68169543185E+02 -0.39993768587E+03  0.40579043868E+03  0.00000000000E+00 0. -1.
          1    1    1    2  502    0  0.12565210010E+02 -0.21572451150E+02  0.75050468222E+03  0.75091979144E+03  0.00000000000E+00 0. -1.
         22    1    3    3    0    0  0.13407555646E+02  0.49545481049E+02  0.49640784367E+02  0.71405354935E+02  0.00000000000E+00 0. -1.
         22    1    3    3    0    0 -0.34257747723E+02  0.40196513287E+02  0.41843490238E+03  0.42175481087E+03  0.00000000000E+00 0. -1.
</event>
<event>
 7    1  0.5537228E-006  0.4396687E+02  0.7818608E-02  0.1487338E+00
          2   -1    0    0  502    0  0.00000000000E+00  0.00000000000E+00  0.53209736943E+03  0.53209736943E+03  0.00000000000E+00 0. -1.
          1   -1    0    0  501    0 -0.00000000000E+00 -0.00000000000E+00 -0.14872968475E+04  0.14872968475E+04  0.00000000000E+00 0. -1.
         25    2    1    2    0    0  0.16236686147E+02  0.32356445660E+00  0.36542861164E+03  0.38655755857E+03  0.12499976484E+03 0.  0.
          2    1    1    2  501    0  0.42011296269E+02  0.94989619152E+00 -0.14709856641E+04  0.14715857689E+04  0.00000000000E+00 0. -1.
          1    1    1    2  502    0 -0.58247982416E+02 -0.12734606481E+01  0.15035757440E+03  0.16125088942E+03  0.00000000000E+00 0. -1.
         22    1    3    3    0    0  0.27624597562E+02 -0.18979889467E+02  0.17318009121E+02  0.37726224759E+02  0.00000000000E+00 0. -1.
         22    1    3    3    0    0 -0.11387911415E+02  0.19303453924E+02  0.34811060252E+03  0.34883133381E+03  0.00000000000E+00 0. -1.
</event>
<event>
 7    1  0.5537228E-006  0.1926173E+03  0.7818608E-02  0.1299170E+00
          2   -1    0    0  502    0  0.00000000000E+00  0.00000000000E+00  0.37964884869E+03  0.37964884869E+03  0.00000000000E+00 0. -1.
          1   -1    0    0  501    0 -0.00000000000E+00 -0.00000000000E+00 -0.45274491586E+03  0.45274491586E+03  0.00000000000E+00 0. -1.
         25    2    1    2    0    0 -0.14101179245E+03  0.17827877367E+03 -0.20726541362E+03  0.33203985862E+03  0.12499547703E+03 0.  0.
          2    1    1    2  501    0  0.94939864590E+01 -0.42452843698E+02 -0.15159161823E+03  0.15770985522E+03  0.00000000000E+00 0. -1.
          1    1    1    2  502    0  0.13151780599E+03 -0.13582592997E+03  0.28576096468E+03  0.34264405070E+03  0.00000000000E+00 0. -1.
         22    1    3    3    0    0 -0.62126666524E+02  0.47982747042E+01 -0.85832127128E+02  0.10606554662E+03  0.00000000000E+00 0. -1.
         22    1    3    3    0    0 -0.78885125922E+02  0.17348049897E+03 -0.12143328650E+03  0.22597431200E+03  0.00000000000E+00 0. -1.
</event>
<event>
 7    1  0.5537228E-006  0.9853416E+02  0.7818608E-02  0.1423918E+00
          2   -1    0    0  502    0  0.00000000000E+00  0.00000000000E+00  0.20572663837E+04  0.20572663837E+04  0.00000000000E+00 0. -1.
          1   -1    0    0  501    0 -0.00000000000E+00 -0.00000000000E+00 -0.14562739034E+02  0.14562739034E+02  0.00000000000E+00 0. -1.
         25    2    1    2    0    0 -0.11320955203E+03  0.32690771313E+02  0.88876214568E+03  0.90521099377E+03  0.12499480971E+03 0.  0.
          2    1    1    2  501    0  0.90390601808E+02 -0.13503010722E+02  0.33818033518E+03  0.35031233391E+03  0.00000000000E+00 0. -1.
          1    1    1    2  502    0  0.22818950218E+02 -0.19187760590E+02  0.81576116385E+03  0.81630579509E+03  0.00000000000E+00 0. -1.
         22    1    3    3    0    0  0.29367828393E+01 -0.54728897195E+01  0.44142385404E+03  0.44146754822E+03  0.00000000000E+00 0. -1.
         22    1    3    3    0    0 -0.11614633487E+03  0.38163661032E+02  0.44733829164E+03  0.46374344555E+03  0.00000000000E+00 0. -1.
</event>
<event>
 7    1  0.5537228E-006  0.7220294E+02  0.7818608E-02  0.1369380E+00
          2   -1    0    0  502    0  0.00000000000E+00  0.00000000000E+00  0.86549973020E+03  0.86549973020E+03  0.00000000000E+00 0. -1.
          1   -1    0    0  501    0 -0.00000000000E+00 -0.00000000000E+00 -0.97696243073E+03  0.97696243073E+03  0.00000000000E+00 0. -1.
         25    2    1    2    0    0 -0.44370490734E+01 -0.70953793554E+02  0.47580681400E+02  0.15146863057E+03  0.12499878631E+03 0.  0.
          2    1    1    2  501    0 -0.54159921476E+02  0.48352772942E+02 -0.92230203845E+03  0.92515530473E+03  0.00000000000E+00 0. -1.
          1    1    1    2  502    0  0.58596970550E+02  0.22601020613E+02  0.76325865652E+03  0.76583822563E+03  0.00000000000E+00 0. -1.
         22    1    3    3    0    0 -0.16127736856E+02 -0.23001379131E+02 -0.41214474767E+02  0.49877853485E+02  0.00000000000E+00 0.  1.
         22    1    3    3    0    0  0.11690687782E+02 -0.47952414424E+02  0.88795156167E+02  0.10159077708E+03  0.00000000000E+00 0.  1.
</event>
<event>
 7    1  0.5537228E-006  0.8214557E+02  0.7818608E-02  0.1336032E+00
          2   -1    0    0  502    0  0.00000000000E+00  0.00000000000E+00  0.21765481776E+04  0.21765481776E+04  0.00000000000E+00 0. -1.
          1   -1    0    0  501    0 -0.00000000000E+00 -0.00000000000E+00 -0.10151997983E+03  0.10151997983E+03  0.00000000000E+00 0. -1.
         25    2    1    2    0    0  0.80541673151E+01 -0.32373519122E+02  0.65345908772E+03  0.66614349241E+03  0.12500183519E+03 0.  0.
          2    1    1    2  501    0  0.60508894214E+02  0.58261975117E+02 -0.75572050234E+02  0.11299079078E+03  0.00000000000E+00 0. -1.
          1    1    1    2  502    0 -0.68563061529E+02 -0.25888455994E+02  0.14971411602E+04  0.14989338742E+04  0.00000000000E+00 0. -1.
         22    1    3    3    0    0 -0.55176060423E+02 -0.33739822171E+02  0.38015007622E+03  0.38561231009E+03  0.00000000000E+00 0. -1.
         22    1    3    3    0    0  0.63230227738E+02  0.13663030492E+01  0.27330901150E+03  0.28053118232E+03  0.00000000000E+00 0. -1.
</event>
<event>
 7    1  0.5537228E-006  0.8854219E+02  0.7818608E-02  0.1434030E+00
          2   -1    0    0  502    0  0.00000000000E+00  0.00000000000E+00  0.66728781403E+03  0.66728781403E+03  0.00000000000E+00 0. -1.
          1   -1    0    0  501    0 -0.00000000000E+00 -0.00000000000E+00 -0.11007465260E+04  0.11007465260E+04  0.00000000000E+00 0. -1.
         25    2    1    2    0    0  0.56933705425E+02 -0.45503606222E+02  0.51082012780E+03  0.53092421213E+03  0.12502516170E+03 0.  0.
          2    1    1    2  501    0 -0.47559108019E+02  0.74765317528E+02 -0.10872599145E+04  0.10908647226E+04  0.00000000000E+00 0. -1.
          1    1    1    2  502    0 -0.93745974068E+01 -0.29261711306E+02  0.14298107473E+03  0.14624540525E+03  0.00000000000E+00 0. -1.
         22    1    3    3    0    0  0.54457623031E+02 -0.50689362713E+02  0.51709263908E+03  0.52241730598E+03  0.00000000000E+00 0. -1.
         22    1    3    3    0    0  0.24760823939E+01  0.51857564909E+01 -0.62725112769E+01  0.85069061429E+01  0.00000000000E+00 0. -1.
</event>
<event>
 7    1  0.5537228E-006  0.5155905E+02  0.7818608E-02  0.1484637E+00
          2   -1    0    0  502    0  0.00000000000E+00  0.00000000000E+00  0.61411191461E+03  0.61411191461E+03  0.00000000000E+00 0. -1.
          1   -1    0    0  501    0 -0.00000000000E+00 -0.00000000000E+00 -0.84360341950E+03  0.84360341950E+03  0.00000000000E+00 0. -1.
         25    2    1    2    0    0 -0.88016461127E+01  0.50514536046E+02 -0.11452323615E+03  0.17712001732E+03  0.12500696617E+03 0.  0.
          2    1    1    2  501    0 -0.27180341246E+02 -0.44277196109E+02 -0.69624091120E+03  0.69817665922E+03  0.00000000000E+00 0. -1.
          1    1    1    2  502    0  0.35981987359E+02 -0.62373399370E+01  0.58127264246E+03  0.58241865758E+03  0.00000000000E+00 0. -1.
         22    1    3    3    0    0  0.70442278477E+01  0.66078678072E+02 -0.13270661002E+03  0.14841515147E+03  0.00000000000E+00 0. -1.
         22    1    3    3    0    0 -0.15845873960E+02 -0.15564142026E+02  0.18183373867E+02  0.28704865855E+02  0.00000000000E+00 0. -1.
</event>
<event>
 7    1  0.5537228E-006  0.1102296E+03  0.7818608E-02  0.1401736E+00
          2   -1    0    0  502    0  0.00000000000E+00  0.00000000000E+00  0.14915425933E+04  0.14915425933E+04  0.00000000000E+00 0. -1.
          1   -1    0    0  501    0 -0.00000000000E+00 -0.00000000000E+00 -0.23822094327E+03  0.23822094327E+03  0.00000000000E+00 0. -1.
         25    2    1    2    0    0 -0.93515818112E+02  0.57526593105E+02  0.47243205596E+03  0.50087081343E+03  0.12500002840E+03 0.  0.
          2    1    1    2  501    0  0.10657388896E+03 -0.28679866699E+02 -0.21013908993E+03  0.23735830653E+03  0.00000000000E+00 0. -1.
          1    1    1    2  502    0 -0.13058070849E+02 -0.28846726406E+02  0.99102868403E+03  0.99153441666E+03  0.00000000000E+00 0. -1.
         22    1    3    3    0    0  0.19261612608E+02  0.22991618395E+02  0.22242602971E+03  0.22443921879E+03  0.00000000000E+00 0.  1.
         22    1    3    3    0    0 -0.11277743072E+03  0.34534974710E+02  0.25000602625E+03  0.27643159465E+03  0.00000000000E+00 0.  1.
</event>
<event>
 7    1  0.5537228E-006  0.4817988E+02  0.7818608E-02  0.1585116E+00
          2   -1    0    0  502    0  0.00000000000E+00  0.00000000000E+00  0.53846936686E+03  0.53846936686E+03  0.00000000000E+00 0. -1.
          1   -1    0    0  501    0 -0.00000000000E+00 -0.00000000000E+00 -0.13083534004E+04  0.13083534004E+04  0.00000000000E+00 0. -1.
         25    2    1    2    0    0 -0.11837026183E+02  0.60700098944E+02 -0.49813983841E+03  0.51729034233E+03  0.12498552902E+03 0.  0.
          2    1    1    2  501    0  0.15724150115E+02 -0.12701922886E+02 -0.79941416408E+03  0.79966967773E+03  0.00000000000E+00 0. -1.
          1    1    1    2  502    0 -0.38871239325E+01 -0.47998176058E+02  0.52766996900E+03  0.52986274715E+03  0.00000000000E+00 0. -1.
         22    1    3    3    0    0 -0.26335455205E+00 -0.31927020534E+02 -0.48520218365E+02  0.58082833832E+02  0.00000000000E+00 0. -1.
         22    1    3    3    0    0 -0.11573671631E+02  0.92627119478E+02 -0.44961962004E+03  0.45920750850E+03  0.00000000000E+00 0. -1.
</event>
<event>
 7    1  0.5537228E-006  0.1069171E+03  0.7818608E-02  0.1375894E+00
          2   -1    0    0  502    0  0.00000000000E+00  0.00000000000E+00  0.68645111771E+03  0.68645111771E+03  0.00000000000E+00 0. -1.
          1   -1    0    0  501    0 -0.00000000000E+00 -0.00000000000E+00 -0.28294321330E+04  0.28294321330E+04  0.00000000000E+00 0. -1.
         25    2    1    2    0    0  0.59530437032E+02 -0.61216699973E+02  0.12016774032E+03  0.19327950153E+03  0.12500129043E+03 0.  0.
          2    1    1    2  501    0  0.38919787317E+02  0.10044354792E+02 -0.27869196505E+04  0.27872094964E+04  0.00000000000E+00 0. -1.
          1    1    1    2  502    0 -0.98450224349E+02  0.51172345181E+02  0.52377089485E+03  0.53539425275E+03  0.00000000000E+00 0. -1.
         22    1    3    3    0    0 -0.30245478507E+02  0.17940829319E+01 -0.38062159873E+00  0.30301032598E+02  0.00000000000E+00 0.  1.
         22    1    3    3    0    0  0.89775915540E+02 -0.63010782904E+02  0.12054836192E+03  0.16297846893E+03  0.00000000000E+00 0.  1.
</event>
<event>
 7    1  0.5537228E-006  0.4758110E+02  0.7818608E-02  0.1491205E+00
          2   -1    0    0  502    0  0.00000000000E+00  0.00000000000E+00  0.28530035972E+03  0.28530035972E+03  0.00000000000E+00 0. -1.
          1   -1    0    0  501    0 -0.00000000000E+00 -0.00000000000E+00 -0.10829192938E+04  0.10829192938E+04  0.00000000000E+00 0. -1.
         25    2    1    2    0    0  0.76189494495E+02  0.11945062448E+02 -0.31750438474E+03  0.34984187784E+03  0.12503112243E+03 0.  0.
          2    1    1    2  501    0 -0.45398266250E+02  0.99755923544E+01 -0.74719335340E+03  0.74863771104E+03  0.00000000000E+00 0. -1.
          1    1    1    2  502    0 -0.30791228245E+02 -0.21920654802E+02  0.26707880411E+03  0.26974006460E+03  0.00000000000E+00 0. -1.
         22    1    3    3    0    0 -0.17016915465E+02  0.19924942237E+02 -0.93818234384E+01  0.27831588997E+02  0.00000000000E+00 0.  1.
         22    1    3    3    0    0  0.93206409960E+02 -0.79798797892E+01 -0.30812256130E+03  0.32201028884E+03  0.00000000000E+00 0.  1.
</event>
<event>
 7    1  0.5537228E-006  0.7916748E+02  0.7818608E-02  0.1502106E+00
          2   -1    0    0  502    0  0.00000000000E+00  0.00000000000E+00  0.85018272402E+03  0.85018272402E+03  0.00000000000E+00 0. -1.
          1   -1    0    0  501    0 -0.00000000000E+00 -0.00000000000E+00 -0.50273733878E+03  0.50273733878E+03  0.00000000000E+00 0. -1.
         25    2    1    2    0    0  0.68860832052E+01 -0.95338029308E+02  0.14005803657E+02  0.15797944598E+03  0.12499833936E+03 0.  0.
          2    1    1    2  501    0  0.10141263891E+02  0.18468850367E+02 -0.42846305523E+03  0.42898080769E+03  0.00000000000E+00 0. -1.
          1    1    1    2  502    0 -0.17027347096E+02  0.76869178941E+02  0.76190263681E+03  0.76595980913E+03  0.00000000000E+00 0. -1.
         22    1    3    3    0    0 -0.58529833255E+02 -0.56060804377E+02  0.80629094575E+01  0.81446704520E+02  0.00000000000E+00 0.  1.
         22    1    3    3    0    0  0.65415916460E+02 -0.39277224931E+02  0.59428941998E+01  0.76532741464E+02  0.00000000000E+00 0.  1.
</event>
<event>
 7    1  0.5537228E-006  0.6937422E+02  0.7818608E-02  0.1378003E+00
          2   -1    0    0  502    0  0.00000000000E+00  0.00000000000E+00  0.11161533971E+04  0.11161533971E+04  0.00000000000E+00 0. -1.
          1   -1    0    0  501    0 -0.00000000000E+00 -0.00000000000E+00 -0.29770708834E+02  0.29770708834E+02  0.00000000000E+00 0. -1.
         25    2    1    2    0    0 -0.27482125255E+02 -0.20414386959E+02  0.25179789069E+03  0.28319655147E+03  0.12500437833E+03 0.  0.
          2    1    1    2  501    0  0.52548404693E+02  0.75901033207E+02  0.15491208496E+03  0.18033317982E+03  0.00000000000E+00 0. -1.
          1    1    1    2  502    0 -0.25066279438E+02 -0.55486646247E+02  0.67967271257E+03  0.68239437460E+03  0.00000000000E+00 0. -1.
         22    1    3    3    0    0 -0.48375217321E+02 -0.60530599215E+02  0.19968673909E+03  0.21419362469E+03  0.00000000000E+00 0. -1.
         22    1    3    3    0    0  0.20893092067E+02  0.40116212255E+02  0.52111151608E+02  0.69002926776E+02  0.00000000000E+00 0. -1.
</event>
<event>
 7    1  0.5537228E-006  0.5798321E+02  0.7818608E-02  0.1453848E+00
          2   -1    0    0  502    0  0.00000000000E+00  0.00000000000E+00  0.44035567781E+02  0.44035567781E+02  0.00000000000E+00 0. -1.
          1   -1    0    0  501    0 -0.00000000000E+00 -0.00000000000E+00 -0.96730952256E+03  0.96730952256E+03  0.00000000000E+00 0. -1.
         25    2    1    2    0    0 -0.26190986833E+02 -0.84922571959E+02 -0.61074213337E+03  0.62970916572E+03  0.12501947405E+03 0.  0.
          2    1    1    2  501    0  0.26717064032E+02  0.44430538426E+02 -0.33247714563E+03  0.33649506181E+03  0.00000000000E+00 0. -1.
          1    1    1    2  502    0 -0.52607719958E+00  0.40492033533E+02  0.19945324227E+02  0.45140862812E+02  0.00000000000E+00 0. -1.
         22    1    3    3    0    0 -0.37531021071E+02  0.61317705664E+01 -0.37203879165E+03  0.37397732371E+03  0.00000000000E+00 0. -1.
         22    1    3    3    0    0  0.11340034239E+02 -0.91054342526E+02 -0.23870334172E+03  0.25573184201E+03  0.00000000000E+00 0. -1.
</event>
<event>
 7    1  0.5537228E-006  0.5664198E+02  0.7818608E-02  0.1468411E+00
          2   -1    0    0  502    0  0.00000000000E+00  0.00000000000E+00  0.23440173019E+03  0.23440173019E+03  0.00000000000E+00 0. -1.
          1   -1    0    0  501    0 -0.00000000000E+00 -0.00000000000E+00 -0.83576354420E+02  0.83576354420E+02  0.00000000000E+00 0. -1.
         25    2    1    2    0    0 -0.53362417124E+02 -0.32757022418E+02  0.61082063200E+02  0.15259510478E+03  0.12503470509E+03 0.  0.
          2    1    1    2  501    0  0.31376551568E+02 -0.20167690240E+02 -0.19448674594E+02  0.42065124050E+02  0.00000000000E+00 0. -1.
          1    1    1    2  502    0  0.21985865556E+02  0.52924712659E+02  0.10919198717E+03  0.12331785578E+03  0.00000000000E+00 0. -1.
         22    1    3    3    0    0 -0.35971885095E+02 -0.70638312547E+02  0.76126661263E+00  0.79273748767E+02  0.00000000000E+00 0. -1.
         22    1    3    3    0    0 -0.17390532029E+02  0.37881290129E+02  0.60320796588E+02  0.73321356009E+02  0.00000000000E+00 0. -1.
</event>
<event>
 7    1  0.5537228E-006  0.8720961E+02  0.7818608E-02  0.1432603E+00
          2   -1    0    0  502    0  0.00000000000E+00  0.00000000000E+00  0.66625635357E+03  0.66625635357E+03  0.00000000000E+00 0. -1.
          1   -1    0    0  501    0 -0.00000000000E+00 -0.00000000000E+00 -0.41098841856E+02  0.41098841856E+02  0.00000000000E+00 0. -1.
         25    2    1    2    0    0  0.53694238333E+02 -0.87640971419E+02  0.41127229751E+03  0.44196533487E+03  0.12499777369E+03 0.  0.
          2    1    1    2  501    0  0.42052237259E+01  0.31252258490E+02 -0.51206147153E+01  0.31946960143E+02  0.00000000000E+00 0. -1.
          1    1    1    2  502    0 -0.57899462059E+02  0.56388712929E+02  0.21900582892E+03  0.23344290042E+03  0.00000000000E+00 0. -1.
         22    1    3    3    0    0  0.89977757252E+02 -0.78270699635E+02  0.25880330846E+03  0.28495868419E+03  0.00000000000E+00 0.  1.
         22    1    3    3    0    0 -0.36283518919E+02 -0.93702717842E+01  0.15246898904E+03  0.15700665068E+03  0.00000000000E+00 0.  1.
</event>
<event>
 7    1  0.5537228E-006  0.3882504E+02  0.7818608E-02  0.1537222E+00
          2   -1    0    0  502    0  0.00000000000E+00  0.00000000000E+00  0.20055746521E+04  0.20055746521E+04  0.00000000000E+00 0. -1.
          1   -1    0    0  501    0 -0.00000000000E+00 -0.00000000000E+00 -0.11055526599E+04  0.11055526599E+04  0.00000000000E+00 0. -1.
         25    2    1    2    0    0  0.66211369179E+02 -0.55448412418E+00  0.27007771147E+03  0.30487839340E+03  0.12499844666E+03 0.  0.
          2    1    1    2  501    0 -0.35885952041E+02 -0.14748131381E+02 -0.10876385018E+04  0.10883302897E+04  0.00000000000E+00 0. -1.
          1    1    1    2  502    0 -0.30325417138E+02  0.15302615505E+02  0.17175827825E+04  0.17179186289E+04  0.00000000000E+00 0. -1.
         22    1    3    3    0    0  0.36576048032E+02  0.28196646542E+02  0.25765306226E+03  0.26175935257E+03  0.00000000000E+00 0.  1.
         22    1    3    3    0    0  0.29635321147E+02 -0.28751130666E+02  0.12424649210E+02  0.43119040829E+02  0.00000000000E+00 0.  1.
</event>
<event>
 7    1  0.5537228E-006  0.3131899E+02  0.7818608E-02  0.1635341E+00
          2   -1    0    0  502    0  0.00000000000E+00  0.00000000000E+00  0.71243217174E+02  0.71243217174E+02  0.00000000000E+00 0. -1.
          1   -1    0    0  501    0 -0.00000000000E+00 -0.00000000000E+00 -0.35857635009E+03  0.35857635009E+03  0.00000000000E+00 0. -1.
         25    2    1    2    0    0 -0.25172757557E+01  0.96381757079E+01 -0.99523018664E+02  0.16009146072E+03  0.12500085378E+03 0.  0.
          2    1    1    2  501    0 -0.32184225686E+01 -0.31989288333E+02 -0.22427915100E+03  0.22657186583E+03  0.00000000000E+00 0. -1.
          1    1    1    2  502    0  0.57356983244E+01  0.22351112625E+02  0.36469036749E+02  0.43156240710E+02  0.00000000000E+00 0. -1.
         22    1    3    3    0    0  0.16649359380E+02 -0.16467518527E+02 -0.11967685196E+03  0.12194641950E+03  0.00000000000E+00 0. -1.
         22    1    3    3    0    0 -0.19166635136E+02  0.26105694235E+02  0.20153833291E+02  0.38145041227E+02  0.00000000000E+00 0. -1.
</event>
<event>
 7    1  0.5537228E-006  0.7562065E+02  0.7818608E-02  0.1399151E+00
          2   -1    0    0  502    0  0.00000000000E+00  0.00000000000E+00  0.21722366842E+04  0.21722366842E+04  0.00000000000E+00 0. -1.
          1   -1    0    0  501    0 -0.00000000000E+00 -0.00000000000E+00 -0.17709741482E+04  0.17709741482E+04  0.00000000000E+00 0. -1.
         25    2    1    2    0    0  0.96759865864E+02 -0.53712810459E+02  0.86059096803E+03  0.87663541697E+03  0.12500120952E+03 0.  0.
          2    1    1    2  501    0 -0.47073389851E+02  0.18642713360E+01 -0.17616478058E+04  0.17622776090E+04  0.00000000000E+00 0. -1.
          1    1    1    2  502    0 -0.49686476013E+02  0.51848539123E+02  0.13023193737E+04  0.13042978065E+04  0.00000000000E+00 0. -1.
         22    1    3    3    0    0  0.10025087376E+03 -0.23131150734E+02  0.81595311447E+03  0.82241399115E+03  0.00000000000E+00 0.  1.
         22    1    3    3    0    0 -0.34910078922E+01 -0.30581659726E+02  0.44637853561E+02  0.54221425822E+02  0.00000000000E+00 0.  1.
</event>
<event>
 7    1  0.5537228E-006  0.7649265E+02  0.7818608E-02  0.1478689E+00
          2   -1    0    0  502    0  0.00000000000E+00  0.00000000000E+00  0.73858190381E+02  0.73858190381E+02  0.00000000000E+00 0. -1.
          1   -1    0    0  501    0 -0.00000000000E+00 -0.00000000000E+00 -0.26153384152E+04  0.26153384152E+04  0.00000000000E+00 0. -1.
         25    2    1    2    0    0  0.83295296884E+02 -0.58582305135E+02 -0.32539117616E+02  0.16447983632E+03  0.12499931769E+03 0.  0.
          2    1    1    2  501    0 -0.61211586242E+02  0.45498375591E+02 -0.24936963719E+04  0.24948624322E+04  0.00000000000E+00 0. -1.
          1    1    1    2  502    0 -0.22083710642E+02  0.13083929544E+02 -0.15244735380E+02  0.29854337119E+02  0.00000000000E+00 0. -1.
         22    1    3    3    0    0  0.18371198783E+01  0.35641174927E+02 -0.14939978952E+02  0.38689421432E+02  0.00000000000E+00 0. -1.
         22    1    3    3    0    0  0.81458177006E+02 -0.94223480062E+02 -0.17599138664E+02  0.12579041489E+03  0.00000000000E+00 0. -1.
</event>
<event>
 7    1  0.5537228E-006  0.7398191E+02  0.7818608E-02  0.1492726E+00
          2   -1    0    0  502    0  0.00000000000E+00  0.00000000000E+00  0.22385231432E+04  0.22385231432E+04  0.00000000000E+00 0. -1.
          1   -1    0    0  501    0 -0.00000000000E+00 -0.00000000000E+00 -0.92383771801E+02  0.92383771801E+02  0.00000000000E+00 0. -1.
         25    2    1    2    0    0 -0.47062813359E+02 -0.65647942286E+02  0.50965834842E+03  0.53094396877E+03  0.12500122050E+03 0.  0.
          2    1    1    2  501    0  0.23671920034E+02 -0.42666571350E+01 -0.79162513308E+02  0.82736132823E+02  0.00000000000E+00 0. -1.
          1    1    1    2  502    0  0.23390893324E+02  0.69914599421E+02  0.17156435363E+04  0.17172268134E+04  0.00000000000E+00 0. -1.
         22    1    3    3    0    0 -0.42761905871E+01  0.24224698217E+02  0.21283159815E+02  0.32528367640E+02  0.00000000000E+00 0. -1.
         22    1    3    3    0    0 -0.42786622772E+02 -0.89872640503E+02  0.48837518861E+03  0.49841560112E+03  0.00000000000E+00 0. -1.
</event>
<event>
 7    1  0.5537228E-006  0.6566802E+02  0.7818608E-02  0.1398647E+00
          2   -1    0    0  502    0  0.00000000000E+00  0.00000000000E+00  0.28517206401E+04  0.28517206401E+04  0.00000000000E+00 0. -1.
          1   -1    0    0  501    0 -0.00000000000E+00 -0.00000000000E+00 -0.29513534947E+03  0.29513534947E+03  0.00000000000E+00 0. -1.
         25    2    1    2    0    0 -0.79870215865E+02  0.85425092931E+02  0.67378515546E+03  0.69518924136E+03  0.12499979080E+03 0.  0.
          2    1    1    2  501    0  0.53321476322E+02 -0.37866097829E+02 -0.28032670567E+03  0.28785427409E+03  0.00000000000E+00 0. -1.
          1    1    1    2  502    0  0.26548739543E+02 -0.47558995101E+02  0.21631268408E+04  0.21638124741E+04  0.00000000000E+00 0. -1.
         22    1    3    3    0    0 -0.74774329811E+02  0.32846245446E+02  0.59344279059E+03  0.59903624427E+03  0.00000000000E+00 0.  1.
         22    1    3    3    0    0 -0.50958860540E+01  0.52578847484E+02  0.80342364865E+02  0.96152997091E+02  0.00000000000E+00 0.  1.
</event>
<event>
 7    1  0.5537228E-006  0.9347373E+02  0.7818608E-02  0.1294945E+00
          2   -1    0    0  502    0  0.00000000000E+00  0.00000000000E+00  0.32026900993E+03  0.32026900993E+03  0.00000000000E+00 0. -1.
          1   -1    0    0  501    0 -0.00000000000E+00 -0.00000000000E+00 -0.56369034825E+03  0.56369034825E+03  0.00000000000E+00 0. -1.
         25    2    1    2    0    0 -0.11137499943E+03 -0.93922049658E+01  0.20149078291E+03  0.26213720052E+03  0.12499908914E+03 0.  0.
          2    1    1    2  501    0  0.45873574539E+02  0.81149936978E+02 -0.50102606656E+03  0.50962419143E+03  0.00000000000E+00 0. -1.
          1    1    1    2  502    0  0.65501424889E+02 -0.71757732012E+02  0.56113945333E+02  0.11219796623E+03  0.00000000000E+00 0. -1.
         22    1    3    3    0    0 -0.10055010870E+02 -0.80078935230E+01  0.14608472142E+03  0.14664915763E+03  0.00000000000E+00 0. -1.
         22    1    3    3    0    0 -0.10131998856E+03 -0.13843114428E+01  0.55406061487E+02  0.11548804288E+03  0.00000000000E+00 0. -1.
</event>
<event>
 7    1  0.5537228E-006  0.1900866E+03  0.7818608E-02  0.1227526E+00
          2   -1    0    0  502    0  0.00000000000E+00  0.00000000000E+00  0.43031352448E+03  0.43031352448E+03  0.00000000000E+00 0. -1.
          1   -1    0    0  501    0 -0.00000000000E+00 -0.00000000000E+00 -0.29521826672E+03  0.29521826672E+03  0.00000000000E+00 0. -1.
         25    2    1    2    0    0  0.19662828060E+02  0.26248727702E+03 -0.24751524654E+00  0.29139549467E+03  0.12500030257E+03 0.  0.
          2    1    1    2  501    0  0.61288146936E+01 -0.88630330237E+02 -0.10426210332E+03  0.13697986712E+03  0.00000000000E+00 0. -1.
          1    1    1    2  502    0 -0.25791642754E+02 -0.17385694679E+03  0.23960487633E+03  0.29715642941E+03  0.00000000000E+00 0. -1.
         22    1    3    3    0    0 -0.21009014422E+02  0.23821502250E+03 -0.20219560363E+02  0.23999292959E+03  0.00000000000E+00 0.  1.
         22    1    3    3    0    0  0.40671842482E+02  0.24272254524E+02  0.19972045116E+02  0.51402565079E+02  0.00000000000E+00 0.  1.
</event>
<event>
 7    1  0.5537228E-006  0.1755323E+03  0.7818608E-02  0.1344219E+00
          2   -1    0    0  502    0  0.00000000000E+00  0.00000000000E+00  0.38784957749E+04  0.38784957749E+04  0.00000000000E+00 0. -1.
          1   -1    0    0  501    0 -0.00000000000E+00 -0.00000000000E+00 -0.12737699666E+03  0.12737699666E+03  0.00000000000E+00 0. -1.
         25    2    1    2    0    0 -0.69306572628E+02 -0.15261093113E+03  0.26277723101E+04  0.26360778331E+04  0.12500212355E+03 0.  0.
          2    1    1    2  501    0  0.10019236788E+03  0.14443588238E+03 -0.60207727072E+02  0.18580959367E+03  0.00000000000E+00 0. -1.
          1    1    1    2  502    0 -0.30885795254E+02  0.81750487460E+01  0.11835541952E+04  0.11839853448E+04  0.00000000000E+00 0. -1.
         22    1    3    3    0    0  0.88653838492E+01 -0.89722923424E+02  0.71283699027E+03  0.71851609078E+03  0.00000000000E+00 0.  1.
         22    1    3    3    0    0 -0.78171956478E+02 -0.62888007704E+02  0.19149353199E+04  0.19175617423E+04  0.00000000000E+00 0.  1.
</event>
<event>
 7    1  0.5537228E-006  0.5404667E+02  0.7818608E-02  0.1442756E+00
          2   -1    0    0  502    0  0.00000000000E+00  0.00000000000E+00  0.13288398657E+04  0.13288398657E+04  0.00000000000E+00 0. -1.
          1   -1    0    0  501    0 -0.00000000000E+00 -0.00000000000E+00 -0.17985119260E+02  0.17985119260E+02  0.00000000000E+00 0. -1.
         25    2    1    2    0    0  0.41448596665E+02 -0.23225472724E+01  0.55565320107E+03  0.57105241279E+03  0.12500799135E+03 0.  0.
          2    1    1    2  501    0 -0.32505707600E+02  0.48620333886E+02  0.80912640059E+02  0.99836933121E+02  0.00000000000E+00 0. -1.
          1    1    1    2  502    0 -0.89428890652E+01 -0.46297786614E+02  0.67428890527E+03  0.67593563900E+03  0.00000000000E+00 0. -1.
         22    1    3    3    0    0  0.84940487294E+02 -0.79969568649E+00  0.42295014372E+03  0.43139581589E+03  0.00000000000E+00 0. -1.
         22    1    3    3    0    0 -0.43491890629E+02 -0.15228515859E+01  0.13270305735E+03  0.13965659690E+03  0.00000000000E+00 0. -1.
</event>
<event>
 7    1  0.5537228E-006  0.4972804E+02  0.7818608E-02  0.1501923E+00
          2   -1    0    0  502    0  0.00000000000E+00  0.00000000000E+00  0.15974408207E+04  0.15974408207E+04  0.00000000000E+00 0. -1.
          1   -1    0    0  501    0 -0.00000000000E+00 -0.00000000000E+00 -0.46765148740E+03  0.46765148740E+03  0.00000000000E+00 0. -1.
         25    2    1    2    0    0 -0.15304986147E+02 -0.19266845683E+02  0.49344117555E+03  0.50962071237E+03  0.12499449109E+03 0.  0.
          2    1    1    2  501    0  0.48207654138E+02  0.12528269227E+02 -0.45795370506E+03  0.46065445989E+03  0.00000000000E+00 0. -1.
          1    1    1    2  502    0 -0.32902667990E+02  0.67385764561E+01  0.10943018628E+04  0.10948171358E+04  0.00000000000E+00 0. -1.
         22    1    3    3    0    0 -0.96405941382E+01 -0.71736297590E+02  0.33101045195E+03  0.33883175286E+03  0.00000000000E+00 0. -1.
         22    1    3    3    0    0 -0.56643920090E+01  0.52469451907E+02  0.16243072360E+03  0.17078895951E+03  0.00000000000E+00 0. -1.
</event>
<event>
 7    1  0.5537228E-006  0.1023164E+03  0.7818608E-02  0.1426091E+00
          2   -1    0    0  502    0  0.00000000000E+00  0.00000000000E+00  0.53967133958E+03  0.53967133958E+03  0.00000000000E+00 0. -1.
          1   -1    0    0  501    0 -0.00000000000E+00 -0.00000000000E+00 -0.52751887028E+03  0.52751887028E+03  0.00000000000E+00 0. -1.
         25    2    1    2    0    0 -0.63227390267E+02  0.41799323414E+02  0.38040052616E+03  0.40752129675E+03  0.12499664269E+03 0.  0.
          2    1    1    2  501    0  0.90793745809E+02 -0.47927705395E+02 -0.50739887495E+03  0.51768155030E+03  0.00000000000E+00 0. -1.
          1    1    1    2  502    0 -0.27566355542E+02  0.61283819805E+01  0.13915081809E+03  0.14198736281E+03  0.00000000000E+00 0. -1.
         22    1    3    3    0    0 -0.70062166155E+02  0.78238422479E+02  0.31848419919E+03  0.33535375801E+03  0.00000000000E+00 0.  1.
         22    1    3    3    0    0  0.68347758880E+01 -0.36439099065E+02  0.61916326975E+02  0.72167538743E+02  0.00000000000E+00 0.  1.
</event>
<event>
 7    1  0.5537228E-006  0.6676935E+02  0.7818608E-02  0.1384082E+00
          2   -1    0    0  502    0  0.00000000000E+00  0.00000000000E+00  0.19266729969E+03  0.19266729969E+03  0.00000000000E+00 0. -1.
          1   -1    0    0  501    0 -0.00000000000E+00 -0.00000000000E+00 -0.47611585743E+03  0.47611585743E+03  0.00000000000E+00 0. -1.
         25    2    1    2    0    0  0.75809800325E+02  0.50308392401E+02 -0.24894361784E+02  0.15658308070E+03  0.12498188566E+03 0.  0.
          2    1    1    2  501    0 -0.58600451819E+02  0.13812414354E+02 -0.37411371890E+03  0.37892726269E+03  0.00000000000E+00 0. -1.
          1    1    1    2  502    0 -0.17209348505E+02 -0.64120806755E+02  0.11555952294E+03  0.13327281372E+03  0.00000000000E+00 0. -1.
         22    1    3    3    0    0  0.53976438355E+02 -0.25226261332E+02  0.23734019041E+02  0.64133640300E+02  0.00000000000E+00 0.  1.
         22    1    3    3    0    0  0.21833361970E+02  0.75534653733E+02 -0.48628380825E+02  0.92449440405E+02  0.00000000000E+00 0.  1.
</event>
<event>
 7    1  0.5537228E-006  0.5271511E+02  0.7818608E-02  0.1487929E+00
          2   -1    0    0  502    0  0.00000000000E+00  0.00000000000E+00  0.76009592578E+03  0.76009592578E+03  0.00000000000E+00 0. -1.
          1   -1    0    0  501    0 -0.00000000000E+00 -0.00000000000E+00 -0.47198698023E+03  0.47198698023E+03  0.00000000000E+00 0. -1.
         25    2    1    2    0    0 -0.40822405272E+02 -0.19904331119E+02  0.70796484961E+03  0.72034844309E+03  0.12500000002E+03 0.  0.
          2    1    1    2  501    0  0.51002129439E+02 -0.13482088789E+02 -0.45742310887E+03  0.46045508407E+03  0.00000000000E+00 0. -1.
          1    1    1    2  502    0 -0.10179724168E+02  0.33386419908E+02  0.37567204801E+02  0.51279378847E+02  0.00000000000E+00 0. -1.
         22    1    3    3    0    0  0.32057298483E+02  0.20513142893E+02  0.10565620619E+03  0.11230179572E+03  0.00000000000E+00 0. -1.
         22    1    3    3    0    0 -0.72879703754E+02 -0.40417474012E+02  0.60230864342E+03  0.60804664736E+03  0.00000000000E+00 0. -1.
</event>
<event>
 7    1  0.5537228E-006  0.5349902E+02  0.7818608E-02  0.1486829E+00
          2   -1    0    0  502    0  0.00000000000E+00  0.00000000000E+00  0.10233956261E+03  0.10233956261E+03  0.00000000000E+00 0. -1.
          1   -1    0    0  501    0 -0.00000000000E+00 -0.00000000000E+00 -0.11058637352E+04  0.11058637352E+04  0.00000000000E+00 0. -1.
         25    2    1    2    0    0  0.61202364458E+02  0.48738257602E+02 -0.25743116107E+03  0.29667786692E+03  0.12500322739E+03 0.  0.
          2    1    1    2  501    0 -0.50199637938E+02 -0.15873261097E+02 -0.82430174890E+03  0.82598143884E+03  0.00000000000E+00 0. -1.
          1    1    1    2  502    0 -0.11002726520E+02 -0.32864996505E+02  0.78208737348E+02  0.85543992096E+02  0.00000000000E+00 0. -1.
         22    1    3    3    0    0  0.56889867832E+02 -0.32877532672E+02 -0.11166170278E+03  0.12955973558E+03  0.00000000000E+00 0. -1.
         22    1    3    3    0    0  0.43124966255E+01  0.81615790274E+02 -0.14576945830E+03  0.16711813134E+03  0.00000000000E+00 0. -1.
</event>
<event>
 7    1  0.5537228E-006  0.1213283E+03  0.7818608E-02  0.1293080E+00
          2   -1    0    0  502    0  0.00000000000E+00  0.00000000000E+00  0.12266247518E+04  0.12266247518E+04  0.00000000000E+00 0. -1.
          1   -1    0    0  501    0 -0.00000000000E+00 -0.00000000000E+00 -0.41825300658E+03  0.41825300658E+03  0.00000000000E+00 0. -1.
         25    2    1    2    0    0 -0.67966072778E+02  0.17968992166E+03  0.37073821108E+03  0.43586721375E+03  0.12500220748E+03 0.  0.
          2    1    1    2  501    0  0.35024822774E+02 -0.11446130808E+03 -0.37472144570E+03  0.39337550906E+03  0.00000000000E+00 0. -1.
          1    1    1    2  502    0  0.32941250004E+02 -0.65228613587E+02  0.81235497986E+03  0.81563503559E+03  0.00000000000E+00 0. -1.
         22    1    3    3    0    0 -0.53104235191E+02  0.62448835708E+02  0.54946304080E+02  0.98686438828E+02  0.00000000000E+00 0. -1.
         22    1    3    3    0    0 -0.14861837587E+02  0.11724108596E+03  0.31579190700E+03  0.33718077493E+03  0.00000000000E+00 0. -1.
</event>
<event>
 7    1  0.5537228E-006  0.1711244E+03  0.7818608E-02  0.1273453E+00
          2   -1    0    0  502    0  0.00000000000E+00  0.00000000000E+00  0.11091217856E+03  0.11091217856E+03  0.00000000000E+00 0. -1.
          1   -1    0    0  501    0 -0.00000000000E+00 -0.00000000000E+00 -0.86773290354E+03  0.86773290354E+03  0.00000000000E+00 0. -1.
         25    2    1    2    0    0  0.87892014276E+02  0.11381035321E+03 -0.40376467556E+03  0.44646145304E+03  0.12499645254E+03 0.  0.
          2    1    1    2  501    0 -0.29726791782E+02  0.54852026643E+02 -0.34816047657E+03  0.35370629684E+03  0.00000000000E+00 0. -1.
          1    1    1    2  502    0 -0.58165222494E+02 -0.16866237985E+03 -0.48955728487E+01  0.17847733223E+03  0.00000000000E+00 0. -1.
         22    1    3    3    0    0 -0.35311219312E+01  0.88348092210E+02 -0.25606226550E+03  0.27089802146E+03  0.00000000000E+00 0.  1.
         22    1    3    3    0    0  0.91423136207E+02  0.25462260999E+02 -0.14770241006E+03  0.17556343158E+03  0.00000000000E+00 0.  1.
</event>
<event>
 7    1  0.5537228E-006  0.1471792E+03  0.7818608E-02  0.1283209E+00
          2   -1    0    0  502    0  0.00000000000E+00  0.00000000000E+00  0.14523433663E+04  0.14523433663E+04  0.00000000000E+00 0. -1.
          1   -1    0    0  501    0 -0.00000000000E+00 -0.00000000000E+00 -0.64180707193E+03  0.64180707193E+03  0.00000000000E+00 0. -1.
         25    2    1    2    0    0  0.10749772213E+03 -0.28114737944E+02  0.20835396719E+03  0.26717576215E+03  0.12500125393E+03 0.  0.
          2    1    1    2  501    0 -0.11575766668E+03  0.93688750373E+02 -0.60242334335E+03  0.62055725276E+03  0.00000000000E+00 0. -1.
          1    1    1    2  502    0  0.82599445576E+01 -0.65574012429E+02  0.12046056706E+04  0.12064174233E+04  0.00000000000E+00 0. -1.
         22    1    3    3    0    0  0.97520762349E+02 -0.29512497972E+02  0.22540919585E+03  0.24736732242E+03  0.00000000000E+00 0. -1.
         22    1    3    3    0    0  0.99769597767E+01  0.13977600285E+01 -0.17055228668E+02  0.19808439726E+02  0.00000000000E+00 0. -1.
</event>
<event>
 7    1  0.5537228E-006  0.8869414E+02  0.7818608E-02  0.1356976E+00
          2   -1    0    0  502    0  0.00000000000E+00  0.00000000000E+00  0.83849331533E+02  0.83849331533E+02  0.00000000000E+00 0. -1.
          1   -1    0    0  501    0 -0.00000000000E+00 -0.00000000000E+00 -0.81083140571E+03  0.81083140571E+03  0.00000000000E+00 0. -1.
         25    2    1    2    0    0  0.12244813867E+03  0.54322252923E+02 -0.15507018488E+03  0.24003449906E+03  0.12500137868E+03 0.  0.
          2    1    1    2  501    0 -0.45168402992E+02 -0.34299937719E+02 -0.57200993994E+03  0.57481478908E+03  0.00000000000E+00 0. -1.
          1    1    1    2  502    0 -0.77279735679E+02 -0.20022315205E+02  0.98050640960E-01  0.79831449108E+02  0.00000000000E+00 0. -1.
         22    1    3    3    0    0  0.80708378677E+02  0.16973192966E+02 -0.82404566840E+01  0.82884478611E+02  0.00000000000E+00 0.  1.
         22    1    3    3    0    0  0.41739759994E+02  0.37349059957E+02 -0.14682972820E+03  0.15715002045E+03  0.00000000000E+00 0.  1.
</event>
<event>
 7    1  0.5537228E-006  0.9335413E+02  0.7818608E-02  0.1394936E+00
          2   -1    0    0  502    0  0.00000000000E+00  0.00000000000E+00  0.66513426513E+03  0.66513426513E+03  0.00000000000E+00 0. -1.
          1   -1    0    0  501    0 -0.00000000000E+00 -0.00000000000E+00 -0.10648886921E+04  0.10648886921E+04  0.00000000000E+00 0. -1.
         25    2    1    2    0    0  0.10288953373E+03 -0.12781453037E+02 -0.24848041068E+03  0.29684752818E+03  0.12500527508E+03 0.  0.
          2    1    1    2  501    0 -0.81006560747E+02  0.45620422299E+02 -0.78888508375E+03  0.79434435931E+03  0.00000000000E+00 0. -1.
          1    1    1    2  502    0 -0.21882972982E+02 -0.32838969262E+02  0.63761106742E+03  0.63883106977E+03  0.00000000000E+00 0. -1.
         22    1    3    3    0    0  0.76556999155E+02 -0.27582839605E+02 -0.48779251287E+02  0.94874667412E+02  0.00000000000E+00 0. -1.
         22    1    3    3    0    0  0.26332534573E+02  0.14801386568E+02 -0.19970115940E+03  0.20197286076E+03  0.00000000000E+00 0. -1.
</event>
<event>
 7    1  0.5537228E-006  0.4205862E+02  0.7818608E-02  0.1504318E+00
          2   -1    0    0  502    0  0.00000000000E+00  0.00000000000E+00  0.25843350468E+02  0.25843350468E+02  0.00000000000E+00 0. -1.
          1   -1    0    0  501    0 -0.00000000000E+00 -0.00000000000E+00 -0.86414266735E+03  0.86414266735E+03  0.00000000000E+00 0. -1.
         25    2    1    2    0    0 -0.15502339857E+02  0.34088162959E+02 -0.18349802538E+03  0.22516419736E+03  0.12500026025E+03 0.  0.
          2    1    1    2  501    0  0.41544279721E+02  0.65574505063E+01 -0.51890201121E+03  0.52060371164E+03  0.00000000000E+00 0. -1.
          1    1    1    2  502    0 -0.26041939864E+02 -0.40645613466E+02 -0.13589928030E+03  0.14421810882E+03  0.00000000000E+00 0. -1.
         22    1    3    3    0    0 -0.31777972197E+02  0.18420332121E+02 -0.19595370408E+03  0.19936650244E+03  0.00000000000E+00 0.  1.
         22    1    3    3    0    0  0.16275632340E+02  0.15667830838E+02  0.12455678705E+02  0.25797694921E+02  0.00000000000E+00 0.  1.
</event>
<event>
 7    1  0.5537228E-006  0.1083238E+03  0.7818608E-02  0.1302540E+00
          2   -1    0    0  502    0  0.00000000000E+00  0.00000000000E+00  0.18973603940E+03  0.18973603940E+03  0.00000000000E+00 0. -1.
          1   -1    0    0  501    0 -0.00000000000E+00 -0.00000000000E+00 -0.10082944746E+04  0.10082944746E+04  0.00000000000E+00 0. -1.
         25    2    1    2    0    0  0.11293656913E+03 -0.13881380234E+03 -0.10211335795E+03  0.24099080909E+03  0.12500196729E+03 0.  0.
          2    1    1    2  501    0 -0.58745571227E+02  0.86978513931E+02 -0.82138251082E+03  0.82806130999E+03  0.00000000000E+00 0. -1.
          1    1    1    2  502    0 -0.54190997906E+02  0.51835288405E+02  0.10493743360E+03  0.12897839489E+03  0.00000000000E+00 0. -1.
         22    1    3    3    0    0  0.13823743714E+03 -0.97709402365E+02 -0.71029583125E+02  0.18358082149E+03  0.00000000000E+00 0.  1.
         22    1    3    3    0    0 -0.25300868011E+02 -0.41104399972E+02 -0.31083774824E+02  0.57409987602E+02  0.00000000000E+00 0.  1.
</event>
<event>
 7    1  0.5537228E-006  0.8356615E+02  0.7818608E-02  0.1324791E+00
          2   -1    0    0  502    0  0.00000000000E+00  0.00000000000E+00  0.54084670495E+03  0.54084670495E+03  0.00000000000E+00 0. -1.
          1   -1    0    0  501    0 -0.00000000000E+00 -0.00000000000E+00 -0.13429520808E+04  0.13429520808E+04  0.00000000000E+00 0. -1.
         25    2    1    2    0    0 -0.62880956714E+02  0.13614698124E+03 -0.29553049169E+03  0.35419421318E+03  0.12500101565E+03 0.  0.
          2    1    1    2  501    0  0.56878666166E+02 -0.56848704569E+02 -0.10133962705E+04  0.10165819982E+04  0.00000000000E+00 0. -1.
          1    1    1    2  502    0  0.60022905481E+01 -0.79298276666E+02  0.50682138636E+03  0.51302257440E+03  0.00000000000E+00 0. -1.
         22    1    3    3    0    0 -0.39972357884E+02  0.15825587821E+03 -0.24168841672E+03  0.29164362355E+03  0.00000000000E+00 0. -1.
         22    1    3    3    0    0 -0.22908598830E+02 -0.22108896971E+02 -0.53842074969E+02  0.62550589626E+02  0.00000000000E+00 0. -1.
</event>
<event>
 7    1  0.5537228E-006  0.5310063E+02  0.7818608E-02  0.1483076E+00
          2   -1    0    0  502    0  0.00000000000E+00  0.00000000000E+00  0.40265594478E+02  0.40265594478E+02  0.00000000000E+00 0. -1.
          1   -1    0    0  501    0 -0.00000000000E+00 -0.00000000000E+00 -0.28433979230E+04  0.28433979230E+04  0.00000000000E+00 0. -1.
         25    2    1    2    0    0  0.11302090417E+02 -0.69454927007E+02 -0.20970244080E+03  0.25406917025E+03  0.12499722181E+03 0.  0.
          2    1    1    2  501    0  0.20843425892E+02  0.29167362803E+02 -0.25744051099E+04  0.25746547056E+04  0.00000000000E+00 0. -1.
          1    1    1    2  502    0 -0.32145516310E+02  0.40287564204E+02 -0.19024777862E+02  0.54939641617E+02  0.00000000000E+00 0. -1.
         22    1    3    3    0    0  0.36208675093E+02  0.25744386827E+02 -0.54704645978E+02  0.70472972810E+02  0.00000000000E+00 0.  1.
         22    1    3    3    0    0 -0.24906584675E+02 -0.95199313834E+02 -0.15499779483E+03  0.18359619744E+03  0.00000000000E+00 0.  1.
</event>
<event>
 7    1  0.5537228E-006  0.8489440E+02  0.7818608E-02  0.1379732E+00
          2   -1    0    0  502    0  0.00000000000E+00  0.00000000000E+00  0.23253896981E+04  0.23253896981E+04  0.00000000000E+00 0. -1.
          1   -1    0    0  501    0 -0.00000000000E+00 -0.00000000000E+00 -0.22235717206E+03  0.22235717206E+03  0.00000000000E+00 0. -1.
         25    2    1    2    0    0 -0.78578416246E+02  0.72837711121E+02  0.37369948629E+03  0.40835604126E+03  0.12499380273E+03 0.  0.
          2    1    1    2  501    0 -0.22525432318E+01 -0.49005294458E+02 -0.20116199686E+03  0.20705733944E+03  0.00000000000E+00 0. -1.
          1    1    1    2  502    0  0.80830959477E+02 -0.23832416663E+02  0.19304950367E+04  0.19323334895E+04  0.00000000000E+00 0. -1.
         22    1    3    3    0    0 -0.97891946595E+02  0.76149911117E+02  0.21307953715E+03  0.24654519124E+03  0.00000000000E+00 0. -1.
         22    1    3    3    0    0  0.19313530349E+02 -0.33121999963E+01  0.16061994914E+03  0.16181085002E+03  0.00000000000E+00 0. -1.
</event>
<event>
 7    1  0.5537228E-006  0.1315390E+03  0.7818608E-02  0.1280144E+00
          2   -1    0    0  502    0  0.00000000000E+00  0.00000000000E+00  0.21467969164E+04  0.21467969164E+04  0.00000000000E+00 0. -1.
          1   -1    0    0  501    0 -0.00000000000E+00 -0.00000000000E+00 -0.79662658989E+02  0.79662658989E+02  0.00000000000E+00 0. -1.
         25    2    1    2    0    0  0.20332914361E+03 -0.42986110347E+01  0.10746073596E+04  0.11008031927E+04  0.12500189171E+03 0.  0.
          2    1    1    2  501    0 -0.12724062091E+03  0.68946635033E+01 -0.27646518844E+01  0.12745726851E+03  0.00000000000E+00 0. -1.
          1    1    1    2  502    0 -0.76088522694E+02 -0.25960524686E+01  0.99529154961E+03  0.99819911416E+03  0.00000000000E+00 0. -1.
         22    1    3    3    0    0  0.14382600096E+03  0.50838727244E+02  0.58720669676E+03  0.60669778263E+03  0.00000000000E+00 0.  1.
         22    1    3    3    0    0  0.59503142646E+02 -0.55137338279E+02  0.48740066288E+03  0.49410541004E+03  0.00000000000E+00 0.  1.
</event>
<event>
 7    1  0.5537228E-006  0.3173395E+03  0.7818608E-02  0.1236821E+00
          2   -1    0    0  502    0  0.00000000000E+00  0.00000000000E+00  0.36688909036E+04  0.36688909036E+04  0.00000000000E+00 0. -1.
          1   -1    0    0  501    0 -0.00000000000E+00 -0.00000000000E+00 -0.12958499346E+04  0.12958499346E+04  0.00000000000E+00 0. -1.
         25    2    1    2    0    0 -0.25070483965E+03  0.13857934351E+03  0.98881858047E+03  0.10370366873E+04  0.12500301874E+03 0.  0.
          2    1    1    2  501    0 -0.48285373155E+02  0.27464707810E+01 -0.12609809416E+04  0.12619080614E+04  0.00000000000E+00 0. -1.
          1    1    1    2  502    0  0.29899021280E+03 -0.14132581429E+03  0.26452033301E+04  0.26657960895E+04  0.00000000000E+00 0. -1.
         22    1    3    3    0    0 -0.44103914941E+02  0.67716971768E+02  0.42044460543E+03  0.42814064256E+03  0.00000000000E+00 0.  1.
         22    1    3    3    0    0 -0.20660092471E+03  0.70862371745E+02  0.56837397504E+03  0.60889604476E+03  0.00000000000E+00 0.  1.
</event>
<event>
 7    1  0.5537228E-006  0.1740028E+03  0.7818608E-02  0.1252828E+00
          2   -1    0    0  502    0  0.00000000000E+00  0.00000000000E+00  0.39575202945E+03  0.39575202945E+03  0.00000000000E+00 0. -1.
          1   -1    0    0  501    0 -0.00000000000E+00 -0.00000000000E+00 -0.15964723576E+04  0.15964723576E+04  0.00000000000E+00 0. -1.
         25    2    1    2    0    0  0.18071122506E+03  0.10758017415E+03 -0.19600742492E+03  0.31348638736E+03  0.12499905480E+03 0.  0.
          2    1    1    2  501    0 -0.12193821412E+02 -0.74069788728E+02 -0.13186893515E+04  0.13208242232E+04  0.00000000000E+00 0. -1.
          1    1    1    2  502    0 -0.16851740365E+03 -0.33510385420E+02  0.31397644832E+03  0.35791377643E+03  0.00000000000E+00 0. -1.
         22    1    3    3    0    0 -0.88463109797E+01 -0.10555002131E+02  0.32698723405E+01  0.14154764324E+02  0.00000000000E+00 0.  1.
         22    1    3    3    0    0  0.18955753604E+03  0.11813517628E+03 -0.19927729726E+03  0.29933162303E+03  0.00000000000E+00 0.  1.
</event>
<event>
 7    1  0.5537228E-006  0.1001557E+03  0.7818608E-02  0.1446687E+00
          2   -1    0    0  502    0  0.00000000000E+00  0.00000000000E+00  0.25651300768E+03  0.25651300768E+03  0.00000000000E+00 0. -1.
          1   -1    0    0  501    0 -0.00000000000E+00 -0.00000000000E+00 -0.51933710027E+03  0.51933710027E+03  0.00000000000E+00 0. -1.
         25    2    1    2    0    0 -0.51111897514E+02 -0.68692603841E+02 -0.14624806078E+03  0.21058200683E+03  0.12500074572E+03 0.  0.
          2    1    1    2  501    0  0.46605744514E+02  0.92991815048E+02 -0.33226595707E+03  0.34816697045E+03  0.00000000000E+00 0. -1.
          1    1    1    2  502    0  0.45061530003E+01 -0.24299211207E+02  0.21568992526E+03  0.21710113067E+03  0.00000000000E+00 0. -1.
         22    1    3    3    0    0 -0.62593029125E+02  0.17052101021E+02 -0.66993361797E+02  0.93256484864E+02  0.00000000000E+00 0.  1.
         22    1    3    3    0    0  0.11481131611E+02 -0.85744704862E+02 -0.79254698980E+02  0.11732552197E+03  0.00000000000E+00 0.  1.
</event>
<event>
 7    1  0.5537228E-006  0.8518418E+02  0.7818608E-02  0.1436483E+00
          2   -1    0    0  502    0  0.00000000000E+00  0.00000000000E+00  0.12745100886E+04  0.12745100886E+04  0.00000000000E+00 0. -1.
          1   -1    0    0  501    0 -0.00000000000E+00 -0.00000000000E+00 -0.33823940203E+02  0.33823940203E+02  0.00000000000E+00 0. -1.
         25    2    1    2    0    0 -0.42396101137E+02 -0.54675800511E+02  0.39836228558E+03  0.42320484601E+03  0.12499183396E+03 0.  0.
          2    1    1    2  501    0  0.31113166731E+02  0.83929270922E+02  0.73924531035E+02  0.11609043005E+03  0.00000000000E+00 0. -1.
          1    1    1    2  502    0  0.11282934407E+02 -0.29253470411E+02  0.76839933182E+03  0.76903875278E+03  0.00000000000E+00 0. -1.
         22    1    3    3    0    0 -0.43563508371E+02 -0.34769113185E+02  0.51869695781E+02  0.76138924564E+02  0.00000000000E+00 0. -1.
         22    1    3    3    0    0  0.11674072338E+01 -0.19906687325E+02  0.34649258980E+03  0.34706592144E+03  0.00000000000E+00 0. -1.
</event>
<event>
 7    1  0.5537228E-006  0.4858254E+02  0.7818608E-02  0.1556163E+00
          2   -1    0    0  502    0  0.00000000000E+00  0.00000000000E+00  0.34212457133E+03  0.34212457133E+03  0.00000000000E+00 0. -1.
          1   -1    0    0  501    0 -0.00000000000E+00 -0.00000000000E+00 -0.68237745850E+02  0.68237745850E+02  0.00000000000E+00 0. -1.
         25    2    1    2    0    0 -0.38143713244E+02 -0.54486622228E+02  0.24431284768E+03  0.28238013403E+03  0.12500415070E+03 0.  0.
          2    1    1    2  501    0  0.10761689933E+02  0.21477690329E+02 -0.39761075831E+02  0.46454798497E+02  0.00000000000E+00 0. -1.
          1    1    1    2  502    0  0.27382023311E+02  0.33008931899E+02  0.69335053632E+02  0.81527384650E+02  0.00000000000E+00 0. -1.
         22    1    3    3    0    0 -0.54647328499E+02 -0.81708858394E+02  0.22399436152E+03  0.24461427196E+03  0.00000000000E+00 0.  1.
         22    1    3    3    0    0  0.16503615255E+02  0.27222236166E+02  0.20318486152E+02  0.37765862069E+02  0.00000000000E+00 0.  1.
</event>
<event>
 7    1  0.5537228E-006  0.1185004E+03  0.7818608E-02  0.1295063E+00
          2   -1    0    0  502    0  0.00000000000E+00  0.00000000000E+00  0.67275146115E+03  0.67275146115E+03  0.00000000000E+00 0. -1.
          1   -1    0    0  501    0 -0.00000000000E+00 -0.00000000000E+00 -0.75704338271E+03  0.75704338271E+03  0.00000000000E+00 0. -1.
         25    2    1    2    0    0  0.42464000054E+02 -0.14066638412E+03  0.22277376370E+03  0.29469386967E+03  0.12500441635E+03 0.  0.
          2    1    1    2  501    0 -0.85863559606E+02  0.81408515298E+02 -0.71291071933E+03  0.72266284737E+03  0.00000000000E+00 0. -1.
          1    1    1    2  502    0  0.43399559552E+02  0.59257868826E+02  0.40584503406E+03  0.41243812683E+03  0.00000000000E+00 0. -1.
         22    1    3    3    0    0  0.46714206057E+02 -0.30320632540E+02  0.15601075365E+03  0.16565298989E+03  0.00000000000E+00 0.  1.
         22    1    3    3    0    0 -0.42502060032E+01 -0.11034575158E+03  0.66763010045E+02  0.12904087978E+03  0.00000000000E+00 0.  1.
</event>
<event>
 7    1  0.5537228E-006  0.5076782E+02  0.7818608E-02  0.1442237E+00
          2   -1    0    0  502    0  0.00000000000E+00  0.00000000000E+00  0.27873468482E+04  0.27873468482E+04  0.00000000000E+00 0. -1.
          1   -1    0    0  501    0 -0.00000000000E+00 -0.00000000000E+00 -0.98897680973E+03  0.98897680973E+03  0.00000000000E+00 0. -1.
         25    2    1    2    0    0 -0.32641384399E+02  0.17938112050E+02  0.15928222570E+03  0.20587539413E+03  0.12500645840E+03 0.  0.
          2    1    1    2  501    0 -0.73408201768E+01 -0.49855632652E+02 -0.96477135691E+03  0.96608656075E+03  0.00000000000E+00 0. -1.
          1    1    1    2  502    0  0.39982204576E+02  0.31917520602E+02  0.26038591697E+04  0.26043617031E+04  0.00000000000E+00 0. -1.
         22    1    3    3    0    0 -0.17275013467E+02  0.25393927312E+02  0.17794550945E+03  0.18057652662E+03  0.00000000000E+00 0. -1.
         22    1    3    3    0    0 -0.15366370933E+02 -0.74558152615E+01 -0.18663283743E+02  0.25298867503E+02  0.00000000000E+00 0. -1.
</event>
<event>
 7    1  0.5537228E-006  0.4334375E+02  0.7818608E-02  0.1490985E+00
          2   -1    0    0  502    0  0.00000000000E+00  0.00000000000E+00  0.16606383344E+03  0.16606383344E+03  0.00000000000E+00 0. -1.
          1   -1    0    0  501    0 -0.00000000000E+00 -0.00000000000E+00 -0.11377702309E+03  0.11377702309E+03  0.00000000000E+00 0. -1.
         25    2    1    2    0    0  0.22530372808E+02  0.82391035922E+01  0.50024058798E+02  0.13676254199E+03  0.12500434355E+03 0.  0.
          2    1    1    2  501    0 -0.10951534882E+02  0.40086485906E+02 -0.53918001217E+02  0.68073587564E+02  0.00000000000E+00 0. -1.
          1    1    1    2  502    0 -0.11578837926E+02 -0.48325589498E+02  0.56180752769E+02  0.75004726983E+02  0.00000000000E+00 0. -1.
         22    1    3    3    0    0  0.17719798149E+02 -0.55743925441E+02  0.56822403683E+01  0.58767885155E+02  0.00000000000E+00 0. -1.
         22    1    3    3    0    0  0.48105746594E+01  0.63983029033E+02  0.44341818430E+02  0.77994656833E+02  0.00000000000E+00 0. -1.
</event>
<event>
 7    1  0.5537228E-006  0.1195744E+03  0.7818608E-02  0.1280100E+00
          2   -1    0    0  502    0  0.00000000000E+00  0.00000000000E+00  0.80178011097E+03  0.80178011097E+03  0.00000000000E+00 0. -1.
          1   -1    0    0  501    0 -0.00000000000E+00 -0.00000000000E+00 -0.11524355062E+03  0.11524355062E+03  0.00000000000E+00 0. -1.
         25    2    1    2    0    0  0.15442315325E+02 -0.91859562061E+02  0.23689495688E+03  0.28358684770E+03  0.12500254138E+03 0.  0.
          2    1    1    2  501    0 -0.79074972010E+02 -0.27699525234E+02 -0.61962548843E+02  0.10420879212E+03  0.00000000000E+00 0. -1.
          1    1    1    2  502    0  0.63632656685E+02  0.11955908729E+03  0.51160415232E+03  0.52922802177E+03  0.00000000000E+00 0. -1.
         22    1    3    3    0    0 -0.49980403729E+02 -0.37678854867E+02  0.14769670804E+03  0.16041213927E+03  0.00000000000E+00 0.  1.
         22    1    3    3    0    0  0.65422719054E+02 -0.54180707194E+02  0.89198248840E+02  0.12317470843E+03  0.00000000000E+00 0.  1.
</event>
<event>
 7    1  0.5537228E-006  0.2119979E+03  0.7818608E-02  0.1152471E+00
          2   -1    0    0  502    0  0.00000000000E+00  0.00000000000E+00  0.17863428423E+04  0.17863428423E+04  0.00000000000E+00 0. -1.
          1   -1    0    0  501    0 -0.00000000000E+00 -0.00000000000E+00 -0.45196980035E+03  0.45196980035E+03  0.00000000000E+00 0. -1.
         25    2    1    2    0    0  0.26597920074E+02 -0.77278480111E+02  0.10430827896E+03  0.18216547873E+03  0.12499852696E+03 0.  0.
          2    1    1    2  501    0 -0.84647660879E+02 -0.16188954244E+03 -0.38304102644E+03  0.42437469102E+03  0.00000000000E+00 0. -1.
          1    1    1    2  502    0  0.58049740806E+02  0.23916802255E+03  0.16131057894E+04  0.16317724729E+04  0.00000000000E+00 0. -1.
         22    1    3    3    0    0  0.48139416372E+02 -0.27747775591E+02 -0.93323376192E+01  0.56342124422E+02  0.00000000000E+00 0. -1.
         22    1    3    3    0    0 -0.21541496298E+02 -0.49530704519E+02  0.11364061658E+03  0.12582335431E+03  0.00000000000E+00 0. -1.
</event>
<event>
 7    1  0.5883735E-006  0.2015734E+03  0.7818608E-02  0.1162609E+00
          2   -1    0    0  502    0  0.00000000000E+00  0.00000000000E+00  0.25989126734E+04  0.25989126734E+04  0.00000000000E+00 0. -1.
          1   -1    0    0  501    0 -0.00000000000E+00 -0.00000000000E+00 -0.15027253513E+04  0.15027253513E+04  0.00000000000E+00 0. -1.
         25    2    1    2    0    0  0.42663648206E+02  0.86251625736E+00 -0.68464992183E+02  0.14876749081E+03  0.12499352125E+03 0.  0.
          2    1    1    2  501    0  0.14584669828E+03 -0.88616166997E+02 -0.13846374387E+04  0.13951146624E+04  0.00000000000E+00 0. -1.
          1    1    1    2  502    0 -0.18851034648E+03  0.87753650739E+02  0.25492897530E+04  0.25577558716E+04  0.00000000000E+00 0. -1.
         22    1    3    3    0    0  0.13142173792E+02  0.23156397821E+02  0.32046498444E+02  0.41664295920E+02  0.00000000000E+00 0. -1.
         22    1    3    3    0    0  0.29521474415E+02 -0.22293881563E+02 -0.10051149063E+03  0.10710319489E+03  0.00000000000E+00 0. -1.
</event>
<event>
 7    1  0.5537228E-006  0.4765737E+02  0.7818608E-02  0.1471965E+00
          2   -1    0    0  502    0  0.00000000000E+00  0.00000000000E+00  0.32037204967E+04  0.32037204967E+04  0.00000000000E+00 0. -1.
          1   -1    0    0  501    0 -0.00000000000E+00 -0.00000000000E+00 -0.32282023879E+03  0.32282023879E+03  0.00000000000E+00 0. -1.
         25    2    1    2    0    0 -0.84078607100E+00  0.39265628896E+02  0.10773257281E+03  0.16962744215E+03  0.12499866140E+03 0.  0.
          2    1    1    2  501    0  0.41078758273E+02 -0.13425353375E+02 -0.29008540022E+03  0.29328696513E+03  0.00000000000E+00 0. -1.
          1    1    1    2  502    0 -0.40237972202E+02 -0.25840275520E+02  0.30632530853E+04  0.30636263282E+04  0.00000000000E+00 0. -1.
         22    1    3    3    0    0 -0.51328073760E+02 -0.17882352356E+02  0.51535855604E+02  0.74901896468E+02  0.00000000000E+00 0.  1.
         22    1    3    3    0    0  0.50487287689E+02  0.57147981251E+02  0.56196717210E+02  0.94725545680E+02  0.00000000000E+00 0.  1.
</event>
<event>
 7    1  0.5537228E-006  0.1080466E+03  0.7818608E-02  0.1413284E+00
          2   -1    0    0  502    0  0.00000000000E+00  0.00000000000E+00  0.10524880674E+04  0.10524880674E+04  0.00000000000E+00 0. -1.
          1   -1    0    0  501    0 -0.00000000000E+00 -0.00000000000E+00 -0.40792320703E+03  0.40792320703E+03  0.00000000000E+00 0. -1.
         25    2    1    2    0    0  0.98313870871E+02 -0.65076119935E+02  0.23784337816E+02  0.17346603720E+03  0.12499701095E+03 0.  0.
          2    1    1    2  501    0 -0.25673056374E+02 -0.14553073798E+02 -0.32937569480E+03  0.33069509537E+03  0.00000000000E+00 0. -1.
          1    1    1    2  502    0 -0.72640814497E+02  0.79629193733E+02  0.95015621739E+03  0.95625014189E+03  0.00000000000E+00 0. -1.
         22    1    3    3    0    0  0.41823994377E+02 -0.47154564397E+02 -0.48833718486E+02  0.79734130147E+02  0.00000000000E+00 0. -1.
         22    1    3    3    0    0  0.56489876494E+02 -0.17921555538E+02  0.72618056302E+02  0.93731907056E+02  0.00000000000E+00 0. -1.
</event>
<event>
 7    1  0.5537228E-006  0.5256982E+02  0.7818608E-02  0.1512833E+00
          2   -1    0    0  502    0  0.00000000000E+00  0.00000000000E+00  0.27128583882E+03  0.27128583882E+03  0.00000000000E+00 0. -1.
          1   -1    0    0  501    0 -0.00000000000E+00 -0.00000000000E+00 -0.14163458423E+03  0.14163458423E+03  0.00000000000E+00 0. -1.
         25    2    1    2    0    0  0.26161862064E+02 -0.34713139980E+02  0.10087358391E+03  0.16640832649E+03  0.12500722412E+03 0.  0.
          2    1    1    2  501    0  0.25359025805E+02  0.15067762822E+02 -0.10115267506E+03  0.10536594012E+03  0.00000000000E+00 0. -1.
          1    1    1    2  502    0 -0.51520887869E+02  0.19645377158E+02  0.12993034574E+03  0.14114615643E+03  0.00000000000E+00 0. -1.
         22    1    3    3    0    0 -0.50658694230E+02 -0.14589540249E+02  0.35597673937E+02  0.63610945406E+02  0.00000000000E+00 0.  1.
         22    1    3    3    0    0  0.76820556294E+02 -0.20123599731E+02  0.65275909970E+02  0.10279738108E+03  0.00000000000E+00 0.  1.
</event>
<event>
 7    1  0.5537228E-006  0.1070743E+03  0.7818608E-02  0.1437907E+00
          2   -1    0    0  502    0  0.00000000000E+00  0.00000000000E+00  0.44156887917E+03  0.44156887917E+03  0.00000000000E+00 0. -1.
          1   -1    0    0  501    0 -0.00000000000E+00 -0.00000000000E+00 -0.17617074267E+03  0.17617074267E+03  0.00000000000E+00 0. -1.
         25    2    1    2    0    0 -0.10059037225E+03  0.79563170246E+02  0.89695443412E+02  0.20029054419E+03  0.12498923344E+03 0.  0.
          2    1    1    2  501    0  0.19905947399E+02 -0.14587754270E+02 -0.11042294947E+03  0.11314714794E+03  0.00000000000E+00 0. -1.
          1    1    1    2  502    0  0.80684424851E+02 -0.64975415976E+02  0.28612564256E+03  0.30430192971E+03  0.00000000000E+00 0. -1.
         22    1    3    3    0    0 -0.64874561090E+02  0.10975923180E+03  0.85112017093E+02  0.15329661802E+03  0.00000000000E+00 0. -1.
         22    1    3    3    0    0 -0.35715811160E+02 -0.30196061556E+02  0.45834263187E+01  0.46993926173E+02  0.00000000000E+00 0. -1.
</event>
<event>
 7    1  0.5537228E-006  0.3396934E+03  0.7818608E-02  0.1249032E+00
          2   -1    0    0  502    0  0.00000000000E+00  0.00000000000E+00  0.14915622376E+04  0.14915622376E+04  0.00000000000E+00 0. -1.
          1   -1    0    0  501    0 -0.00000000000E+00 -0.00000000000E+00 -0.15952123036E+03  0.15952123036E+03  0.00000000000E+00 0. -1.
         25    2    1    2    0    0 -0.34501961127E+03 -0.96302902718E+02  0.33552597156E+03  0.50647220118E+03  0.12499452685E+03 0.  0.
          2    1    1    2  501    0  0.30635024143E+03  0.10628038634E+03  0.28420512037E+03  0.43118272390E+03  0.00000000000E+00 0. -1.
          1    1    1    2  502    0  0.38669369833E+02 -0.99774836216E+01  0.71230991534E+03  0.71342854291E+03  0.00000000000E+00 0. -1.
         22    1    3    3    0    0 -0.30493553496E+02 -0.24008049665E+02 -0.27941101584E+01  0.38910799338E+02  0.00000000000E+00 0.  1.
         22    1    3    3    0    0 -0.31452605777E+03 -0.72294853053E+02  0.33832008172E+03  0.46756140184E+03  0.00000000000E+00 0.  1.
</event>
<event>
 7    1  0.5537228E-006  0.7715427E+02  0.7818608E-02  0.1473699E+00
          2   -1    0    0  502    0  0.00000000000E+00  0.00000000000E+00  0.30837752718E+03  0.30837752718E+03  0.00000000000E+00 0. -1.
          1   -1    0    0  501    0 -0.00000000000E+00 -0.00000000000E+00 -0.26179371876E+03  0.26179371876E+03  0.00000000000E+00 0. -1.
         25    2    1    2    0    0  0.18555788178E+02 -0.58538212449E+02  0.13864453292E+03  0.19651421829E+03  0.12499796754E+03 0.  0.
          2    1    1    2  501    0 -0.78165772019E+01 -0.25181276219E+02 -0.21934822674E+03  0.22092722812E+03  0.00000000000E+00 0. -1.
          1    1    1    2  502    0 -0.10739210976E+02  0.83719488668E+02  0.12728750224E+03  0.15272979953E+03  0.00000000000E+00 0. -1.
         22    1    3    3    0    0 -0.33412305860E+02  0.70404723436E-01 -0.41272563384E+01  0.33666324191E+02  0.00000000000E+00 0. -1.
         22    1    3    3    0    0  0.51968094037E+02 -0.58608617172E+02  0.14277178926E+03  0.16284789410E+03  0.00000000000E+00 0. -1.
</event>
<event>
 7    1  0.5537228E-006  0.4224333E+02  0.7818608E-02  0.1506348E+00
          2   -1    0    0  502    0  0.00000000000E+00  0.00000000000E+00  0.24991627161E+03  0.24991627161E+03  0.00000000000E+00 0. -1.
          1   -1    0    0  501    0 -0.00000000000E+00 -0.00000000000E+00 -0.16465636258E+04  0.16465636258E+04  0.00000000000E+00 0. -1.
         25    2    1    2    0    0  0.14614732118E+02 -0.56942114822E+02  0.10430854337E+03  0.17309149150E+03  0.12499758947E+03 0.  0.
          2    1    1    2  501    0 -0.33052684450E+02  0.19466202640E+02 -0.16080141467E+04  0.16084716065E+04  0.00000000000E+00 0. -1.
          1    1    1    2  502    0  0.18437952333E+02  0.37475912182E+02  0.10705824913E+03  0.11491679941E+03  0.00000000000E+00 0. -1.
         22    1    3    3    0    0  0.34985746099E+01 -0.96444325025E+02  0.80312096002E+02  0.12555389527E+03  0.00000000000E+00 0.  1.
         22    1    3    3    0    0  0.11116157508E+02  0.39502210203E+02  0.23996447372E+02  0.47537596228E+02  0.00000000000E+00 0.  1.
</event>
<event>
 7    1  0.5537228E-006  0.1373782E+03  0.7818608E-02  0.1250890E+00
          2   -1    0    0  502    0  0.00000000000E+00  0.00000000000E+00  0.17830045522E+04  0.17830045522E+04  0.00000000000E+00 0. -1.
          1   -1    0    0  501    0 -0.00000000000E+00 -0.00000000000E+00 -0.88250801036E+02  0.88250801036E+02  0.00000000000E+00 0. -1.
         25    2    1    2    0    0  0.11473180304E+03  0.18004632474E+03  0.89886331665E+03  0.93228780314E+03  0.12500088070E+03 0.  0.
          2    1    1    2  501    0 -0.39583081122E+02 -0.88482104683E+02 -0.32435115959E+02  0.10221516476E+03  0.00000000000E+00 0. -1.
          1    1    1    2  502    0 -0.75148721919E+02 -0.91564220058E+02  0.82832555047E+03  0.83675238534E+03  0.00000000000E+00 0. -1.
         22    1    3    3    0    0  0.70250781653E+02  0.88801289505E+02  0.23669494952E+03  0.26238395620E+03  0.00000000000E+00 0.  1.
         22    1    3    3    0    0  0.44481021388E+02  0.91245035236E+02  0.66216836713E+03  0.66990384694E+03  0.00000000000E+00 0.  1.
</event>
<event>
 7    1  0.5537228E-006  0.2227912E+03  0.7818608E-02  0.1213752E+00
          2   -1    0    0  502    0  0.00000000000E+00  0.00000000000E+00  0.12485562820E+04  0.12485562820E+04  0.00000000000E+00 0. -1.
          1   -1    0    0  501    0 -0.00000000000E+00 -0.00000000000E+00 -0.18420561382E+03  0.18420561382E+03  0.00000000000E+00 0. -1.
         25    2    1    2    0    0  0.15571722714E+03 -0.21559570203E+02  0.93536953643E+02  0.22155531506E+03  0.12499970415E+03 0.  0.
          2    1    1    2  501    0  0.80621627408E+02  0.34213072712E+02 -0.89249567910E+02  0.12504345854E+03  0.00000000000E+00 0. -1.
          1    1    1    2  502    0 -0.23633885455E+03 -0.12653502509E+02  0.10600632824E+04  0.10861631222E+04  0.00000000000E+00 0. -1.
         22    1    3    3    0    0  0.56032587366E+02  0.52155578366E+02  0.41747317588E+02  0.87193427088E+02  0.00000000000E+00 0.  1.
         22    1    3    3    0    0  0.99684639778E+02 -0.73715148569E+02  0.51789636056E+02  0.13436188797E+03  0.00000000000E+00 0.  1.
</event>
<event>
 7    1  0.5537228E-006  0.3585707E+02  0.7818608E-02  0.1573335E+00
          2   -1    0    0  502    0  0.00000000000E+00  0.00000000000E+00  0.19668744168E+03  0.19668744168E+03  0.00000000000E+00 0. -1.
          1   -1    0    0  501    0 -0.00000000000E+00 -0.00000000000E+00 -0.78034848030E+02  0.78034848030E+02  0.00000000000E+00 0. -1.
         25    2    1    2    0    0 -0.10765639227E+02  0.14532868391E+01  0.56428089340E+02  0.13758902762E+03  0.12501440007E+03 0.  0.
          2    1    1    2  501    0  0.32669262717E+02 -0.20780673549E+02 -0.24366572220E+02  0.45747644326E+02  0.00000000000E+00 0. -1.
          1    1    1    2  502    0 -0.21903623490E+02  0.19327386710E+02  0.86591076533E+02  0.91385617764E+02  0.00000000000E+00 0. -1.
         22    1    3    3    0    0  0.19368142893E+02 -0.59484794932E+01  0.89778282847E+02  0.92036131157E+02  0.00000000000E+00 0.  1.
         22    1    3    3    0    0 -0.30133782119E+02  0.74017663322E+01 -0.33350193506E+02  0.45552896467E+02  0.00000000000E+00 0.  1.
</event>
<event>
 7    1  0.5537228E-006  0.1387197E+03  0.7818608E-02  0.1237852E+00
          2   -1    0    0  502    0  0.00000000000E+00  0.00000000000E+00  0.28996267727E+03  0.28996267727E+03  0.00000000000E+00 0. -1.
          1   -1    0    0  501    0 -0.00000000000E+00 -0.00000000000E+00 -0.15992139270E+04  0.15992139270E+04  0.00000000000E+00 0. -1.
         25    2    1    2    0    0 -0.28227687719E+02  0.20017259904E+02  0.11517208429E+02  0.13020486950E+03  0.12499267540E+03 0.  0.
          2    1    1    2  501    0  0.12698169693E+03 -0.67279738381E+02 -0.15225959678E+04  0.15293624148E+04  0.00000000000E+00 0. -1.
          1    1    1    2  502    0 -0.98754009210E+02  0.47262478477E+02  0.20182750962E+03  0.22960932003E+03  0.00000000000E+00 0. -1.
         22    1    3    3    0    0  0.10593772654E+02  0.26647168615E+02 -0.49719904988E+02  0.57396590197E+02  0.00000000000E+00 0.  1.
         22    1    3    3    0    0 -0.38821460373E+02 -0.66299087111E+01  0.61237113416E+02  0.72808279300E+02  0.00000000000E+00 0.  1.
</event>
<event>
 7    1  0.5537228E-006  0.3647401E+02  0.7818608E-02  0.1538147E+00
          2   -1    0    0  502    0  0.00000000000E+00  0.00000000000E+00  0.18589271289E+04  0.18589271289E+04  0.00000000000E+00 0. -1.
          1   -1    0    0  501    0 -0.00000000000E+00 -0.00000000000E+00 -0.30327455622E+03  0.30327455622E+03  0.00000000000E+00 0. -1.
         25    2    1    2    0    0 -0.38592176426E+02  0.26229433896E+02  0.12194962902E+04  0.12267733651E+04  0.12499739244E+03 0.  0.
          2    1    1    2  501    0  0.34352267935E+02  0.10561911302E+02 -0.29801616801E+03  0.30017539652E+03  0.00000000000E+00 0. -1.
          1    1    1    2  502    0  0.42399084910E+01 -0.36791345198E+02  0.63417245043E+03  0.63525292348E+03  0.00000000000E+00 0. -1.
         22    1    3    3    0    0 -0.43421451743E+01 -0.31842001560E+02  0.88326373022E+03  0.88384816819E+03  0.00000000000E+00 0. -1.
         22    1    3    3    0    0 -0.34250031252E+02  0.58071435456E+02  0.33623256001E+03  0.34292519689E+03  0.00000000000E+00 0. -1.
</event>
<event>
 7    1  0.5537228E-006  0.4634762E+03  0.7818608E-02  0.1189282E+00
          2   -1    0    0  502    0  0.00000000000E+00  0.00000000000E+00  0.32008832595E+04  0.32008832595E+04  0.00000000000E+00 0. -1.
          1   -1    0    0  501    0 -0.00000000000E+00 -0.00000000000E+00 -0.46132911735E+03  0.46132911735E+03  0.00000000000E+00 0. -1.
         25    2    1    2    0    0 -0.11861959490E+02  0.47872376355E+03  0.53493093102E+03  0.72876104660E+03  0.12499765677E+03 0.  0.
          2    1    1    2  501    0  0.51218029361E+02 -0.19706914154E+02 -0.34155192176E+03  0.34593260074E+03  0.00000000000E+00 0. -1.
          1    1    1    2  502    0 -0.39356069872E+02 -0.45901684940E+03  0.25461751329E+04  0.25875187295E+04  0.00000000000E+00 0. -1.
         22    1    3    3    0    0 -0.11081152810E+02  0.78829123449E+00  0.36755263445E+02  0.38397431445E+02  0.00000000000E+00 0. -1.
         22    1    3    3    0    0 -0.78080668022E+00  0.47793547232E+03  0.49817566758E+03  0.69036361515E+03  0.00000000000E+00 0. -1.
</event>
<event>
 7    1  0.5537228E-006  0.1385715E+03  0.7818608E-02  0.1232000E+00
          2   -1    0    0  502    0  0.00000000000E+00  0.00000000000E+00  0.87226020035E+03  0.87226020035E+03  0.00000000000E+00 0. -1.
          1   -1    0    0  501    0 -0.00000000000E+00 -0.00000000000E+00 -0.15488656407E+04  0.15488656407E+04  0.00000000000E+00 0. -1.
         25    2    1    2    0    0  0.14901493938E+02  0.67650854703E+02  0.61040958251E+02  0.15538642209E+03  0.12498099425E+03 0.  0.
          2    1    1    2  501    0 -0.99843607517E+02  0.59770452174E+02 -0.14917307350E+04  0.14962626236E+04  0.00000000000E+00 0. -1.
          1    1    1    2  502    0  0.84942113579E+02 -0.12742130688E+03  0.75408433645E+03  0.76947679535E+03  0.00000000000E+00 0. -1.
         22    1    3    3    0    0  0.20950979707E+02  0.84157908568E+02  0.87772586124E+02  0.12339175013E+03  0.00000000000E+00 0. -1.
         22    1    3    3    0    0 -0.60494857686E+01 -0.16507053865E+02 -0.26731627873E+02  0.31994671964E+02  0.00000000000E+00 0. -1.
</event>
<event>
 7    1  0.5537228E-006  0.8630117E+02  0.7818608E-02  0.1331719E+00
          2   -1    0    0  502    0  0.00000000000E+00  0.00000000000E+00  0.32970041468E+04  0.32970041468E+04  0.00000000000E+00 0. -1.
          1   -1    0    0  501    0 -0.00000000000E+00 -0.00000000000E+00 -0.24337968623E+04  0.24337968623E+04  0.00000000000E+00 0. -1.
         25    2    1    2    0    0 -0.62409279264E+02  0.96238738497E+02  0.19795005050E+03  0.26070189140E+03  0.12499776301E+03 0.  0.
          2    1    1    2  501    0 -0.92732405032E+01 -0.85792072880E+02 -0.24012181784E+04  0.24027681979E+04  0.00000000000E+00 0. -1.
          1    1    1    2  502    0  0.71682519767E+02 -0.10446665617E+02  0.30664754124E+04  0.30673309198E+04  0.00000000000E+00 0. -1.
         22    1    3    3    0    0  0.11623513799E+02  0.72904782283E+02  0.15572289708E+03  0.17233639786E+03  0.00000000000E+00 0.  1.
         22    1    3    3    0    0 -0.74032793063E+02  0.23333956214E+02  0.42227153423E+02  0.88365493534E+02  0.00000000000E+00 0.  1.
</event>
<event>
 7    1  0.5537228E-006  0.1371141E+03  0.7818608E-02  0.1267771E+00
          2   -1    0    0  502    0  0.00000000000E+00  0.00000000000E+00  0.11392790049E+03  0.11392790049E+03  0.00000000000E+00 0. -1.
          1   -1    0    0  501    0 -0.00000000000E+00 -0.00000000000E+00 -0.52395322203E+03  0.52395322203E+03  0.00000000000E+00 0. -1.
         25    2    1    2    0    0 -0.10848366216E+01 -0.91640885272E+02 -0.17865827737E+03  0.23652319970E+03  0.12500086080E+03 0.  0.
          2    1    1    2  501    0  0.63423610628E+02 -0.52381353970E+02 -0.23016090407E+03  0.24441849846E+03  0.00000000000E+00 0. -1.
          1    1    1    2  502    0 -0.62338774007E+02  0.14402223924E+03 -0.12061401006E+01  0.15693942435E+03  0.00000000000E+00 0. -1.
         22    1    3    3    0    0 -0.49127304828E+02 -0.27485763959E+01 -0.32988542406E+02  0.59239266386E+02  0.00000000000E+00 0. -1.
         22    1    3    3    0    0  0.48042468206E+02 -0.88892308876E+02 -0.14566973496E+03  0.17728393332E+03  0.00000000000E+00 0. -1.
</event>
<event>
 7    1  0.5537228E-006  0.3200814E+02  0.7818608E-02  0.1617769E+00
          2   -1    0    0  502    0  0.00000000000E+00  0.00000000000E+00  0.18350216418E+04  0.18350216418E+04  0.00000000000E+00 0. -1.
          1   -1    0    0  501    0 -0.00000000000E+00 -0.00000000000E+00 -0.56168171635E+03  0.56168171635E+03  0.00000000000E+00 0. -1.
         25    2    1    2    0    0  0.18195747958E+02  0.56890583996E+01  0.29462454154E+03  0.32061192152E+03  0.12499973246E+03 0.  0.
          2    1    1    2  501    0 -0.26594517459E+02  0.17866375588E+02 -0.54811784928E+03  0.54905341492E+03  0.00000000000E+00 0. -1.
          1    1    1    2  502    0  0.83987695012E+01 -0.23555433988E+02  0.15268332332E+04  0.15270380217E+04  0.00000000000E+00 0. -1.
         22    1    3    3    0    0 -0.31587511186E+02  0.30251543414E+02  0.37651209071E+02  0.57710833353E+02  0.00000000000E+00 0.  1.
         22    1    3    3    0    0  0.49783259144E+02 -0.24562485014E+02  0.25697333247E+03  0.26290108817E+03  0.00000000000E+00 0.  1.
</event>
<event>
 7    1  0.5537228E-006  0.1315095E+03  0.7818608E-02  0.1365170E+00
          2   -1    0    0  502    0  0.00000000000E+00  0.00000000000E+00  0.22207580052E+03  0.22207580052E+03  0.00000000000E+00 0. -1.
          1   -1    0    0  501    0 -0.00000000000E+00 -0.00000000000E+00 -0.19703908023E+03  0.19703908023E+03  0.00000000000E+00 0. -1.
         25    2    1    2    0    0  0.12792967826E+03 -0.20485360772E+02  0.10272843958E+03  0.20727472273E+03  0.12499610313E+03 0.  0.
          2    1    1    2  501    0 -0.28955209514E+01 -0.35592011150E+02 -0.65072510399E+02  0.74226726379E+02  0.00000000000E+00 0. -1.
          1    1    1    2  502    0 -0.12503415731E+03  0.56077371922E+02 -0.12619208889E+02  0.13761343164E+03  0.00000000000E+00 0. -1.
         22    1    3    3    0    0  0.26745811804E+01 -0.48907880057E+02  0.13254222512E+02  0.50742571186E+02  0.00000000000E+00 0. -1.
         22    1    3    3    0    0  0.12525509708E+03  0.28422519286E+02  0.89474217066E+02  0.15653215154E+03  0.00000000000E+00 0. -1.
</event>
<event>
 7    1  0.5537228E-006  0.9084102E+02  0.7818608E-02  0.1364969E+00
          2   -1    0    0  502    0  0.00000000000E+00  0.00000000000E+00  0.18359198442E+04  0.18359198442E+04  0.00000000000E+00 0. -1.
          1   -1    0    0  501    0 -0.00000000000E+00 -0.00000000000E+00 -0.63888096105E+03  0.63888096105E+03  0.00000000000E+00 0. -1.
         25    2    1    2    0    0 -0.45879701594E+02 -0.22571416745E+02  0.45198212058E+02  0.14242204604E+03  0.12500697962E+03 0.  0.
          2    1    1    2  501    0  0.56645675819E+02  0.73222921718E+02 -0.58625122350E+03  0.59351564925E+03  0.00000000000E+00 0. -1.
          1    1    1    2  502    0 -0.10765974225E+02 -0.50651504973E+02  0.17380918946E+04  0.17388631100E+04  0.00000000000E+00 0. -1.
         22    1    3    3    0    0 -0.11044486186E+02 -0.65020720354E+02  0.55924891861E+02  0.86471199137E+02  0.00000000000E+00 0. -1.
         22    1    3    3    0    0 -0.34835215408E+02  0.42449303610E+02 -0.10726679803E+02  0.55950846902E+02  0.00000000000E+00 0. -1.
</event>
<event>
 7    1  0.5537228E-006  0.1792627E+03  0.7818608E-02  0.1363686E+00
          2   -1    0    0  502    0  0.00000000000E+00  0.00000000000E+00  0.16132602244E+04  0.16132602244E+04  0.00000000000E+00 0. -1.
          1   -1    0    0  501    0 -0.00000000000E+00 -0.00000000000E+00 -0.84257564828E+03  0.84257564828E+03  0.00000000000E+00 0. -1.
         25    2    1    2    0    0 -0.14866799909E+03  0.47961049231E+02  0.14877170422E+03  0.24932001611E+03  0.12500005703E+03 0.  0.
          2    1    1    2  501    0 -0.22265872251E+02  0.14412636543E+02 -0.78622406426E+03  0.78667132424E+03  0.00000000000E+00 0. -1.
          1    1    1    2  502    0  0.17093387135E+03 -0.62373685774E+02  0.14081369361E+04  0.14198445323E+04  0.00000000000E+00 0. -1.
         22    1    3    3    0    0 -0.16995277236E+03  0.50680514623E+02  0.14074427675E+03  0.22640982936E+03  0.00000000000E+00 0.  1.
         22    1    3    3    0    0  0.21284773264E+02 -0.27194653920E+01  0.80274274732E+01  0.22910186747E+02  0.00000000000E+00 0.  1.
</event>
<event>
 7    1  0.5537228E-006  0.8323902E+02  0.7818608E-02  0.1355902E+00
          2   -1    0    0  502    0  0.00000000000E+00  0.00000000000E+00  0.13161678362E+04  0.13161678362E+04  0.00000000000E+00 0. -1.
          1   -1    0    0  501    0 -0.00000000000E+00 -0.00000000000E+00 -0.30564269416E+03  0.30564269416E+03  0.00000000000E+00 0. -1.
         25    2    1    2    0    0 -0.15764432386E+02 -0.11835348540E+03  0.11039430044E+02  0.17321598939E+03  0.12500338047E+03 0.  0.
          2    1    1    2  501    0  0.47316946897E+02  0.66167593627E+02 -0.21639822368E+03  0.23118225521E+03  0.00000000000E+00 0. -1.
          1    1    1    2  502    0 -0.31552514511E+02  0.52185891775E+02  0.12158839357E+04  0.12174122858E+04  0.00000000000E+00 0. -1.
         22    1    3    3    0    0 -0.39775117164E+02 -0.11106044793E+03  0.48976242602E+02  0.12773079261E+03  0.00000000000E+00 0. -1.
         22    1    3    3    0    0  0.24010684778E+02 -0.72930374679E+01 -0.37936812559E+02  0.45485196780E+02  0.00000000000E+00 0. -1.
</event>
<event>
 7    1  0.5537228E-006  0.1484566E+03  0.7818608E-02  0.1273125E+00
          2   -1    0    0  502    0  0.00000000000E+00  0.00000000000E+00  0.69364670075E+03  0.69364670075E+03  0.00000000000E+00 0. -1.
          1   -1    0    0  501    0 -0.00000000000E+00 -0.00000000000E+00 -0.25452919713E+03  0.25452919713E+03  0.00000000000E+00 0. -1.
         25    2    1    2    0    0 -0.24683120026E+02  0.20142945900E+03 -0.43968935047E+02  0.24236598467E+03  0.12499967962E+03 0.  0.
          2    1    1    2  501    0  0.43814160390E+02 -0.57313788634E+02 -0.89557234911E+02  0.11500021454E+03  0.00000000000E+00 0. -1.
          1    1    1    2  502    0 -0.19131040364E+02 -0.14411567037E+03  0.57264367358E+03  0.59080969867E+03  0.00000000000E+00 0. -1.
         22    1    3    3    0    0 -0.47207463218E+02  0.19143091738E+02  0.78051262399E+01  0.51535643397E+02  0.00000000000E+00 0.  1.
         22    1    3    3    0    0  0.22524343191E+02  0.18228636727E+03 -0.51774061287E+02  0.19083034127E+03  0.00000000000E+00 0.  1.
</event>
<event>
 7    1  0.5537228E-006  0.1683935E+03  0.7818608E-02  0.1348946E+00
          2   -1    0    0  502    0  0.00000000000E+00  0.00000000000E+00  0.14638152247E+04  0.14638152247E+04  0.00000000000E+00 0. -1.
          1   -1    0    0  501    0 -0.00000000000E+00 -0.00000000000E+00 -0.37183737389E+03  0.37183737389E+03  0.00000000000E+00 0. -1.
         25    2    1    2    0    0 -0.27993664855E+02 -0.17383204672E+03  0.90934563803E+03  0.93463116310E+03  0.12499878352E+03 0.  0.
          2    1    1    2  501    0 -0.34968164568E+01  0.16825264262E+03 -0.33896635964E+03  0.37844335434E+03  0.00000000000E+00 0. -1.
          1    1    1    2  502    0  0.31490481312E+02  0.55794040992E+01  0.52159857241E+03  0.52257808116E+03  0.00000000000E+00 0. -1.
         22    1    3    3    0    0 -0.41359533408E+02 -0.16616134004E+03  0.90095897604E+03  0.91708629825E+03  0.00000000000E+00 0. -1.
         22    1    3    3    0    0  0.13365868553E+02 -0.76707066825E+01  0.83866619949E+01  0.17544864850E+02  0.00000000000E+00 0. -1.
</event>
<event>
 7    1  0.5537228E-006  0.1906845E+03  0.7818608E-02  0.1370419E+00
          2   -1    0    0  502    0  0.00000000000E+00  0.00000000000E+00  0.13086445687E+04  0.13086445687E+04  0.00000000000E+00 0. -1.
          1   -1    0    0  501    0 -0.00000000000E+00 -0.00000000000E+00 -0.45249749098E+03  0.45249749098E+03  0.00000000000E+00 0. -1.
         25    2    1    2    0    0 -0.13952674493E+03 -0.15368824895E+03  0.50480369895E+02  0.24751019056E+03  0.12500094507E+03 0.  0.
          2    1    1    2  501    0  0.11687283419E+03  0.14715491607E+03 -0.32891110301E+03  0.37880911074E+03  0.00000000000E+00 0. -1.
          1    1    1    2  502    0  0.22653910746E+02  0.65333328778E+01  0.11345778108E+04  0.11348227584E+04  0.00000000000E+00 0. -1.
         22    1    3    3    0    0 -0.13502484118E+03 -0.83549908255E+02  0.71517476884E+02  0.17414661756E+03  0.00000000000E+00 0.  1.
         22    1    3    3    0    0 -0.45019037484E+01 -0.70138340696E+02 -0.21037106988E+02  0.73363573001E+02  0.00000000000E+00 0.  1.
</event>
<event>
 7    1  0.5537228E-006  0.3982877E+02  0.7818608E-02  0.1539411E+00
          2   -1    0    0  502    0  0.00000000000E+00  0.00000000000E+00  0.15365758600E+04  0.15365758600E+04  0.00000000000E+00 0. -1.
          1   -1    0    0  501    0 -0.00000000000E+00 -0.00000000000E+00 -0.19870014019E+04  0.19870014019E+04  0.00000000000E+00 0. -1.
         25    2    1    2    0    0  0.93366178029E+01 -0.61825779467E+01  0.21337568512E+03  0.24755259115E+03  0.12501082226E+03 0.  0.
          2    1    1    2  501    0 -0.39262906251E+02 -0.68530507972E+01 -0.19695073492E+04  0.19699105915E+04  0.00000000000E+00 0. -1.
          1    1    1    2  502    0  0.29926288448E+02  0.13035628744E+02  0.13057061222E+04  0.13061140792E+04  0.00000000000E+00 0. -1.
         22    1    3    3    0    0  0.54482512450E+02 -0.41020571255E+02  0.10781678291E+03  0.12757542908E+03  0.00000000000E+00 0. -1.
         22    1    3    3    0    0 -0.45145894647E+02  0.34837993309E+02  0.10555890222E+03  0.11997716207E+03  0.00000000000E+00 0. -1.
</event>
<event>
 7    1  0.5537228E-006  0.6908468E+02  0.7818608E-02  0.1399784E+00
          2   -1    0    0  502    0  0.00000000000E+00  0.00000000000E+00  0.28310087575E+04  0.28310087575E+04  0.00000000000E+00 0. -1.
          1   -1    0    0  501    0 -0.00000000000E+00 -0.00000000000E+00 -0.84329628668E+03  0.84329628668E+03  0.00000000000E+00 0. -1.
         25    2    1    2    0    0 -0.10528763377E+03  0.45403027380E+01  0.12942856971E+03  0.20852503357E+03  0.12499933918E+03 0.  0.
          2    1    1    2  501    0  0.61407660430E+02 -0.31133474612E+02 -0.80202582027E+03  0.80497553403E+03  0.00000000000E+00 0. -1.
          1    1    1    2  502    0  0.43879973342E+02  0.26593171874E+02  0.26603097214E+04  0.26608044766E+04  0.00000000000E+00 0. -1.
         22    1    3    3    0    0 -0.10439780264E+03 -0.25449704774E+02  0.14020373927E+03  0.17664562597E+03  0.00000000000E+00 0.  1.
         22    1    3    3    0    0 -0.88983113146E+00  0.29990007512E+02 -0.10775169562E+02  0.31879407602E+02  0.00000000000E+00 0.  1.
</event>
<event>
 7    1  0.5537228E-006  0.1022791E+03  0.7818608E-02  0.1339684E+00
          2   -1    0    0  502    0  0.00000000000E+00  0.00000000000E+00  0.28617643506E+03  0.28617643506E+03  0.00000000000E+00 0. -1.
          1   -1    0    0  501    0 -0.00000000000E+00 -0.00000000000E+00 -0.12769840187E+04  0.12769840187E+04  0.00000000000E+00 0. -1.
         25    2    1    2    0    0 -0.35686555666E+02 -0.14504494109E+03 -0.29993222237E+02  0.19706915341E+03  0.12500037062E+03 0.  0.
          2    1    1    2  501    0  0.31572188356E+02  0.47483988881E+02 -0.11509422243E+04  0.11523539109E+04  0.00000000000E+00 0. -1.
          1    1    1    2  502    0  0.41143673098E+01  0.97560952206E+02  0.19012786288E+03  0.21373738947E+03  0.00000000000E+00 0. -1.
         22    1    3    3    0    0  0.78986702932E+01 -0.14980910971E+03 -0.31114922806E+02  0.15320997607E+03  0.00000000000E+00 0. -1.
         22    1    3    3    0    0 -0.43585225959E+02  0.47641686271E+01  0.11217005687E+01  0.43859177338E+02  0.00000000000E+00 0. -1.
</event>
<event>
 7    1  0.5537228E-006  0.8489062E+02  0.7818608E-02  0.1360800E+00
          2   -1    0    0  502    0  0.00000000000E+00  0.00000000000E+00  0.38171828259E+03  0.38171828259E+03  0.00000000000E+00 0. -1.
          1   -1    0    0  501    0 -0.00000000000E+00 -0.00000000000E+00 -0.13782830147E+04  0.13782830147E+04  0.00000000000E+00 0. -1.
         25    2    1    2    0    0  0.44668982920E+02  0.33718422806E+02 -0.59400088197E+02  0.14928650906E+03  0.12500336491E+03 0.  0.
          2    1    1    2  501    0 -0.17796779593E+02 -0.84416707265E+02 -0.12700215335E+04  0.12729483892E+04  0.00000000000E+00 0. -1.
          1    1    1    2  502    0 -0.26872203327E+02  0.50698284460E+02  0.33285688963E+03  0.33776639906E+03  0.00000000000E+00 0. -1.
         22    1    3    3    0    0 -0.31183170837E+02  0.28946519524E+02 -0.59667774680E+02  0.73283930511E+02  0.00000000000E+00 0.  1.
         22    1    3    3    0    0  0.75852153757E+02  0.47719032818E+01  0.26768648236E+00  0.76002578552E+02  0.00000000000E+00 0.  1.
</event>
<event>
 7    1  0.5537228E-006  0.1046130E+03  0.7818608E-02  0.1444126E+00
          2   -1    0    0  502    0  0.00000000000E+00  0.00000000000E+00  0.89744266632E+03  0.89744266632E+03  0.00000000000E+00 0. -1.
          1   -1    0    0  501    0 -0.00000000000E+00 -0.00000000000E+00 -0.31393534537E+03  0.31393534537E+03  0.00000000000E+00 0. -1.
         25    2    1    2    0    0 -0.42026293618E+02  0.11558469851E+03  0.52107022383E+02  0.18294642747E+03  0.12501288597E+03 0.  0.
          2    1    1    2  501    0 -0.55738325330E+01 -0.23461230961E+02 -0.24447312840E+03  0.24565953569E+03  0.00000000000E+00 0. -1.
          1    1    1    2  502    0  0.47600126151E+02 -0.92123467548E+02  0.77587342696E+03  0.78277204852E+03  0.00000000000E+00 0. -1.
         22    1    3    3    0    0 -0.63174015796E+02  0.12056783735E+03  0.11135720097E+02  0.13657072869E+03  0.00000000000E+00 0. -1.
         22    1    3    3    0    0  0.21147722177E+02 -0.49831388370E+01  0.40971302286E+02  0.46375698776E+02  0.00000000000E+00 0. -1.
</event>
<event>
 7    1  0.5537228E-006  0.9884540E+02  0.7818608E-02  0.1412940E+00
          2   -1    0    0  502    0  0.00000000000E+00  0.00000000000E+00  0.16592426240E+04  0.16592426240E+04  0.00000000000E+00 0. -1.
          1   -1    0    0  501    0 -0.00000000000E+00 -0.00000000000E+00 -0.11909549267E+03  0.11909549267E+03  0.00000000000E+00 0. -1.
         25    2    1    2    0    0 -0.39798805676E+02  0.90752699660E+02  0.18950184992E+03  0.24770411537E+03  0.12500552075E+03 0.  0.
          2    1    1    2  501    0  0.85332618890E+01 -0.99036761219E+02 -0.62303504116E+02  0.11731505980E+03  0.00000000000E+00 0. -1.
          1    1    1    2  502    0  0.31265543787E+02  0.82840615588E+01  0.14129487855E+04  0.14133189415E+04  0.00000000000E+00 0. -1.
         22    1    3    3    0    0 -0.39957205432E+02  0.89372844366E+02  0.53246704583E+02  0.11144189125E+03  0.00000000000E+00 0. -1.
         22    1    3    3    0    0  0.15839975642E+00  0.13798552948E+01  0.13625514534E+03  0.13626222412E+03  0.00000000000E+00 0. -1.
</event>
<event>
 7    1  0.5537228E-006  0.1207702E+03  0.7818608E-02  0.1252792E+00
          2   -1    0    0  502    0  0.00000000000E+00  0.00000000000E+00  0.39869222185E+04  0.39869222185E+04  0.00000000000E+00 0. -1.
          1   -1    0    0  501    0 -0.00000000000E+00 -0.00000000000E+00 -0.22575124168E+02  0.22575124168E+02  0.00000000000E+00 0. -1.
         25    2    1    2    0    0 -0.42012213288E+02  0.19540406365E+02  0.21555924646E+04  0.21597108036E+04  0.12500011244E+03 0.  0.
          2    1    1    2  501    0  0.29650281823E+02 -0.12702503592E+03  0.20891363221E+03  0.24629130047E+03  0.00000000000E+00 0. -1.
          1    1    1    2  502    0  0.12361931465E+02  0.10748462955E+03  0.15998409975E+04  0.16034952386E+04  0.00000000000E+00 0. -1.
         22    1    3    3    0    0 -0.76338221602E+02 -0.21107649006E+02  0.11633185409E+04  0.11660116142E+04  0.00000000000E+00 0. -1.
         22    1    3    3    0    0  0.34326008314E+02  0.40648055371E+02  0.99227392378E+03  0.99369918942E+03  0.00000000000E+00 0. -1.
</event>
<event>
 7    1  0.5537228E-006  0.8120373E+02  0.7818608E-02  0.1418730E+00
          2   -1    0    0  502    0  0.00000000000E+00  0.00000000000E+00  0.31647948201E+03  0.31647948201E+03  0.00000000000E+00 0. -1.
          1   -1    0    0  501    0 -0.00000000000E+00 -0.00000000000E+00 -0.53702128114E+03  0.53702128114E+03  0.00000000000E+00 0. -1.
         25    2    1    2    0    0  0.48374909291E+01 -0.65155250804E+02 -0.10965817506E+03  0.17865716321E+03  0.12499943433E+03 0.  0.
          2    1    1    2  501    0  0.37259945804E+02 -0.53806555623E+01 -0.38594599398E+03  0.38777772665E+03  0.00000000000E+00 0. -1.
          1    1    1    2  502    0 -0.42097436733E+02  0.70535906366E+02  0.27506236991E+03  0.28706587329E+03  0.00000000000E+00 0. -1.
         22    1    3    3    0    0 -0.20703617792E+02  0.59102022433E+01 -0.10027514561E+03  0.10256059237E+03  0.00000000000E+00 0.  1.
         22    1    3    3    0    0  0.25541108721E+02 -0.71065453047E+02 -0.93830294472E+01  0.76096570837E+02  0.00000000000E+00 0.  1.
</event>
<event>
 7    1  0.5537228E-006  0.7498242E+02  0.7818608E-02  0.1377123E+00
          2   -1    0    0  502    0  0.00000000000E+00  0.00000000000E+00  0.17053971332E+04  0.17053971332E+04  0.00000000000E+00 0. -1.
          1   -1    0    0  501    0 -0.00000000000E+00 -0.00000000000E+00 -0.24776635084E+02  0.24776635084E+02  0.00000000000E+00 0. -1.
         25    2    1    2    0    0  0.24046513066E+02  0.78013445565E+01  0.83905972120E+03  0.84869612793E+03  0.12499922428E+03 0.  0.
          2    1    1    2  501    0 -0.64258843309E+02 -0.47829987575E+02  0.65857574613E+02  0.10370210600E+03  0.00000000000E+00 0. -1.
          1    1    1    2  502    0  0.40212330243E+02  0.40028643019E+02  0.77570320229E+03  0.77777553433E+03  0.00000000000E+00 0. -1.
         22    1    3    3    0    0 -0.28929225595E+02  0.32819381842E+02  0.12886318848E+03  0.13608722667E+03  0.00000000000E+00 0. -1.
         22    1    3    3    0    0  0.52975738661E+02 -0.25018037286E+02  0.71019653272E+03  0.71260890126E+03  0.00000000000E+00 0. -1.
</event>
<event>
 7    1  0.5537228E-006  0.8563286E+02  0.7818608E-02  0.1432049E+00
          2   -1    0    0  502    0  0.00000000000E+00  0.00000000000E+00  0.50186110227E+03  0.50186110227E+03  0.00000000000E+00 0. -1.
          1   -1    0    0  501    0 -0.00000000000E+00 -0.00000000000E+00 -0.29272141203E+03  0.29272141203E+03  0.00000000000E+00 0. -1.
         25    2    1    2    0    0 -0.97708209840E+02  0.53521874460E+01 -0.75833242383E+02  0.17592912431E+03  0.12499934380E+03 0.  0.
          2    1    1    2  501    0  0.80920434534E+02  0.22182960570E+02 -0.15566424746E+03  0.17683766115E+03  0.00000000000E+00 0. -1.
          1    1    1    2  502    0  0.16787775306E+02 -0.27535148016E+02  0.44063718009E+03  0.44181572884E+03  0.00000000000E+00 0. -1.
         22    1    3    3    0    0 -0.84697794505E+02 -0.37626872542E+02 -0.89652203091E+02  0.12894578493E+03  0.00000000000E+00 0.  1.
         22    1    3    3    0    0 -0.13010415335E+02  0.42979059988E+02  0.13818960708E+02  0.46983339384E+02  0.00000000000E+00 0.  1.
</event>
<event>
 7    1  0.5537228E-006  0.7234720E+02  0.7818608E-02  0.1362195E+00
          2   -1    0    0  502    0  0.00000000000E+00  0.00000000000E+00  0.11589800505E+03  0.11589800505E+03  0.00000000000E+00 0. -1.
          1   -1    0    0  501    0 -0.00000000000E+00 -0.00000000000E+00 -0.26555429975E+03  0.26555429975E+03  0.00000000000E+00 0. -1.
         25    2    1    2    0    0  0.97617372725E+01 -0.24850263075E+02 -0.72231097526E+02  0.14681729095E+03  0.12500063353E+03 0.  0.
          2    1    1    2  501    0 -0.59045211655E+02  0.69565252975E+02 -0.12360527320E+03  0.15363568922E+03  0.00000000000E+00 0. -1.
          1    1    1    2  502    0  0.49283474382E+02 -0.44714989900E+02  0.46180076024E+02  0.80999324630E+02  0.00000000000E+00 0. -1.
         22    1    3    3    0    0  0.12090988352E+02  0.28300698961E+02 -0.86436244892E+02  0.91751544903E+02  0.00000000000E+00 0.  1.
         22    1    3    3    0    0 -0.23292510792E+01 -0.53150962036E+02  0.14205147367E+02  0.55065746046E+02  0.00000000000E+00 0.  1.
</event>
<event>
 7    1  0.5537228E-006  0.7355802E+02  0.7818608E-02  0.1368841E+00
          2   -1    0    0  502    0  0.00000000000E+00  0.00000000000E+00  0.11078978796E+04  0.11078978796E+04  0.00000000000E+00 0. -1.
          1   -1    0    0  501    0 -0.00000000000E+00 -0.00000000000E+00 -0.93932572911E+02  0.93932572911E+02  0.00000000000E+00 0. -1.
         25    2    1    2    0    0 -0.76013947791E+02  0.31573066707E+02  0.49752252906E+02  0.15768851454E+03  0.12496160270E+03 0.  0.
          2    1    1    2  501    0  0.49335486906E+02  0.37423169497E+02 -0.13711833236E+02  0.63423168118E+02  0.00000000000E+00 0. -1.
          1    1    1    2  502    0  0.26678460885E+02 -0.68996236203E+02  0.97792488705E+03  0.98071876989E+03  0.00000000000E+00 0. -1.
         22    1    3    3    0    0 -0.52562249300E+02  0.63921516672E+02  0.73944725638E+02  0.11098005584E+03  0.00000000000E+00 0. -1.
         22    1    3    3    0    0 -0.23451698491E+02 -0.32348449966E+02 -0.24192472733E+02  0.46708458701E+02  0.00000000000E+00 0. -1.
</event>
<event>
 7    1  0.5537228E-006  0.7046145E+02  0.7818608E-02  0.1505883E+00
          2   -1    0    0  502    0  0.00000000000E+00  0.00000000000E+00  0.10067169112E+04  0.10067169112E+04  0.00000000000E+00 0. -1.
          1   -1    0    0  501    0 -0.00000000000E+00 -0.00000000000E+00 -0.58073437567E+03  0.58073437567E+03  0.00000000000E+00 0. -1.
         25    2    1    2    0    0  0.86878139963E+02 -0.18621486959E+02  0.15777338358E+03  0.22002851184E+03  0.12500213788E+03 0.  0.
          2    1    1    2  501    0 -0.22045633801E+02 -0.67988767360E+01 -0.54788117959E+03  0.54836668539E+03  0.00000000000E+00 0. -1.
          1    1    1    2  502    0 -0.64832506162E+02  0.25420363695E+02  0.81609033158E+03  0.81905608968E+03  0.00000000000E+00 0. -1.
         22    1    3    3    0    0 -0.16319284488E+02  0.30890983071E+02  0.17785761578E+02  0.39203382459E+02  0.00000000000E+00 0. -1.
         22    1    3    3    0    0  0.10319742445E+03 -0.49512470029E+02  0.13998762200E+03  0.18082512938E+03  0.00000000000E+00 0. -1.
</event>
<event>
 7    1  0.5537228E-006  0.9489462E+02  0.7818608E-02  0.1389604E+00
          2   -1    0    0  502    0  0.00000000000E+00  0.00000000000E+00  0.89093733118E+03  0.89093733118E+03  0.00000000000E+00 0. -1.
          1   -1    0    0  501    0 -0.00000000000E+00 -0.00000000000E+00 -0.32900887520E+02  0.32900887520E+02  0.00000000000E+00 0. -1.
         25    2    1    2    0    0 -0.26481865433E+02 -0.55988722484E+02  0.52163411676E+03  0.53996595681E+03  0.12500022599E+03 0.  0.
          2    1    1    2  501    0  0.39333932992E+02  0.94411270620E+02  0.96644449281E+02  0.14071530081E+03  0.00000000000E+00 0. -1.
          1    1    1    2  502    0 -0.12852067559E+02 -0.38422548136E+02  0.23975787761E+03  0.24315696108E+03  0.00000000000E+00 0. -1.
         22    1    3    3    0    0 -0.28286828946E+02 -0.89371629280E+02  0.26353815528E+03  0.27971376817E+03  0.00000000000E+00 0.  1.
         22    1    3    3    0    0  0.18049635125E+01  0.33382906796E+02  0.25809596148E+03  0.26025218864E+03  0.00000000000E+00 0.  1.
</event>
<event>
 7    1  0.5537228E-006  0.1181915E+03  0.7818608E-02  0.1274460E+00
          2   -1    0    0  502    0  0.00000000000E+00  0.00000000000E+00  0.14532077285E+04  0.14532077285E+04  0.00000000000E+00 0. -1.
          1   -1    0    0  501    0 -0.00000000000E+00 -0.00000000000E+00 -0.61057069956E+03  0.61057069956E+03  0.00000000000E+00 0. -1.
         25    2    1    2    0    0 -0.10215342753E+03  0.86369120633E+02 -0.16227007378E+03  0.24464594493E+03  0.12500045508E+03 0.  0.
          2    1    1    2  501    0  0.18900539599E+02 -0.11911367068E+03 -0.39672327036E+03  0.41465003338E+03  0.00000000000E+00 0. -1.
          1    1    1    2  502    0  0.83252887932E+02  0.32744550046E+02  0.14016303731E+04  0.14044824497E+04  0.00000000000E+00 0. -1.
         22    1    3    3    0    0 -0.69758942366E+02  0.11057890967E+03 -0.80816441036E+02  0.15370524534E+03  0.00000000000E+00 0. -1.
         22    1    3    3    0    0 -0.32394485166E+02 -0.24209789034E+02 -0.81453632748E+02  0.90940699591E+02  0.00000000000E+00 0. -1.
</event>
<event>
 7    1  0.5537228E-006  0.1276051E+03  0.7818608E-02  0.1285558E+00
          2   -1    0    0  502    0  0.00000000000E+00  0.00000000000E+00  0.57656508611E+03  0.57656508611E+03  0.00000000000E+00 0. -1.
          1   -1    0    0  501    0 -0.00000000000E+00 -0.00000000000E+00 -0.33360952994E+04  0.33360952994E+04  0.00000000000E+00 0. -1.
         25    2    1    2    0    0 -0.86041741417E+02 -0.11898062996E+03  0.27407029700E+02  0.19475221928E+03  0.12497083687E+03 0.  0.
          2    1    1    2  501    0 -0.30786342037E+02  0.67904029987E+02 -0.32432546912E+04  0.32441115499E+04  0.00000000000E+00 0. -1.
          1    1    1    2  502    0  0.11682808345E+03  0.51076599969E+02  0.45631744819E+03  0.47379661636E+03  0.00000000000E+00 0. -1.
         22    1    3    3    0    0 -0.68958566814E+02 -0.65688319788E+02  0.75050556126E+02  0.12125520718E+03  0.00000000000E+00 0. -1.
         22    1    3    3    0    0 -0.17083174602E+02 -0.53292310169E+02 -0.47643526426E+02  0.73497012102E+02  0.00000000000E+00 0. -1.
</event>
<event>
 7    1  0.5537228E-006  0.1051509E+03  0.7818608E-02  0.1326711E+00
          2   -1    0    0  502    0  0.00000000000E+00  0.00000000000E+00  0.49630330798E+03  0.49630330798E+03  0.00000000000E+00 0. -1.
          1   -1    0    0  501    0 -0.00000000000E+00 -0.00000000000E+00 -0.53715553034E+03  0.53715553034E+03  0.00000000000E+00 0. -1.
         25    2    1    2    0    0  0.89800298415E+01 -0.59673320805E+02  0.58554636886E+01  0.13892223957E+03  0.12499422403E+03 0.  0.
          2    1    1    2  501    0  0.53441162993E+02 -0.31698493336E+02 -0.46128197289E+03  0.46544796798E+03  0.00000000000E+00 0. -1.
          1    1    1    2  502    0 -0.62421192835E+02  0.91371814142E+02  0.41457428684E+03  0.42908863076E+03  0.00000000000E+00 0. -1.
         22    1    3    3    0    0  0.59781949096E+02 -0.44221304656E+02 -0.23833500048E+02  0.78086112387E+02  0.00000000000E+00 0.  1.
         22    1    3    3    0    0 -0.50801919255E+02 -0.15452016149E+02  0.29688963736E+02  0.60836127184E+02  0.00000000000E+00 0.  1.
</event>
<event>
 7    1  0.5537228E-006  0.4450375E+02  0.7818608E-02  0.1527497E+00
          2   -1    0    0  502    0  0.00000000000E+00  0.00000000000E+00  0.10928247466E+03  0.10928247466E+03  0.00000000000E+00 0. -1.
          1   -1    0    0  501    0 -0.00000000000E+00 -0.00000000000E+00 -0.28206161806E+03  0.28206161806E+03  0.00000000000E+00 0. -1.
         25    2    1    2    0    0 -0.77700860744E+01 -0.43109715440E+02  0.41060760760E+02  0.13867171090E+03  0.12500014211E+03 0.  0.
          2    1    1    2  501    0  0.35289761428E+02  0.27597795191E+02 -0.21639039968E+03  0.22097920860E+03  0.00000000000E+00 0. -1.
          1    1    1    2  502    0 -0.27519675353E+02  0.15511920250E+02  0.25504955257E+01  0.31693173221E+02  0.00000000000E+00 0. -1.
         22    1    3    3    0    0  0.57905545673E+02 -0.21713971785E+02  0.89050325128E+01  0.62480784202E+02  0.00000000000E+00 0.  1.
         22    1    3    3    0    0 -0.65675631747E+02 -0.21395743655E+02  0.32155728247E+02  0.76190926698E+02  0.00000000000E+00 0.  1.
</event>
<event>
 7    1  0.5537228E-006  0.3455185E+02  0.7818608E-02  0.1602049E+00
          2   -1    0    0  502    0  0.00000000000E+00  0.00000000000E+00  0.19739616523E+03  0.19739616523E+03  0.00000000000E+00 0. -1.
          1   -1    0    0  501    0 -0.00000000000E+00 -0.00000000000E+00 -0.23690557392E+03  0.23690557392E+03  0.00000000000E+00 0. -1.
         25    2    1    2    0    0 -0.45459715124E+01  0.32769514541E+02 -0.90234340252E+02  0.15769250225E+03  0.12502072694E+03 0.  0.
          2    1    1    2  501    0 -0.20573810028E+02 -0.28780026456E+02 -0.10914155557E+03  0.11473208241E+03  0.00000000000E+00 0. -1.
          1    1    1    2  502    0  0.25119781541E+02 -0.39894880848E+01  0.15986648713E+03  0.16187715450E+03  0.00000000000E+00 0. -1.
         22    1    3    3    0    0  0.13874686081E+02 -0.37113927904E+02  0.29905774147E+01  0.39735300573E+02  0.00000000000E+00 0.  1.
         22    1    3    3    0    0 -0.18420657593E+02  0.69883442445E+02 -0.93224917666E+02  0.11795720168E+03  0.00000000000E+00 0.  1.
</event>
<event>
 7    1  0.5537228E-006  0.6952196E+02  0.7818608E-02  0.1440299E+00
          2   -1    0    0  502    0  0.00000000000E+00  0.00000000000E+00  0.94037872721E+03  0.94037872721E+03  0.00000000000E+00 0. -1.
          1   -1    0    0  501    0 -0.00000000000E+00 -0.00000000000E+00 -0.46973023367E+02  0.46973023367E+02  0.00000000000E+00 0. -1.
         25    2    1    2    0    0 -0.15822555374E+02 -0.54893717367E+02  0.14742636522E+03  0.20155033948E+03  0.12499733085E+03 0.  0.
          2    1    1    2  501    0 -0.36609533383E+02  0.73240239290E+01  0.87898176368E+00  0.37345305863E+02  0.00000000000E+00 0. -1.
          1    1    1    2  502    0  0.52432088757E+02  0.47569693438E+02  0.74510035687E+03  0.74845610524E+03  0.00000000000E+00 0. -1.
         22    1    3    3    0    0  0.33637582168E+02 -0.75773906567E+02  0.10017239095E+03  0.13002953418E+03  0.00000000000E+00 0. -1.
         22    1    3    3    0    0 -0.49460137542E+02  0.20880189200E+02  0.47253974263E+02  0.71520805297E+02  0.00000000000E+00 0. -1.
</event>
<event>
 7    1  0.5537228E-006  0.1317179E+03  0.7818608E-02  0.1377240E+00
          2   -1    0    0  502    0  0.00000000000E+00  0.00000000000E+00  0.23708845172E+03  0.23708845172E+03  0.00000000000E+00 0. -1.
          1   -1    0    0  501    0 -0.00000000000E+00 -0.00000000000E+00 -0.33442937715E+03  0.33442937715E+03  0.00000000000E+00 0. -1.
         25    2    1    2    0    0 -0.74018163123E+02  0.81798234066E+02  0.53415551875E+02  0.17507093527E+03  0.12500788625E+03 0.  0.
          2    1    1    2  501    0  0.10624640191E+03 -0.83413017088E+02 -0.25432333728E+03  0.28796942412E+03  0.00000000000E+00 0. -1.
          1    1    1    2  502    0 -0.32228238786E+02  0.16147830216E+01  0.10356685998E+03  0.10847746949E+03  0.00000000000E+00 0. -1.
         22    1    3    3    0    0 -0.10424770111E+03  0.47511475455E+02  0.15352535684E+02  0.11558816478E+03  0.00000000000E+00 0.  1.
         22    1    3    3    0    0  0.30229537984E+02  0.34286758612E+02  0.38063016191E+02  0.59482770484E+02  0.00000000000E+00 0.  1.
</event>
<event>
 7    1  0.5537228E-006  0.1780889E+03  0.7818608E-02  0.1302729E+00
          2   -1    0    0  502    0  0.00000000000E+00  0.00000000000E+00  0.18915294635E+04  0.18915294635E+04  0.00000000000E+00 0. -1.
          1   -1    0    0  501    0 -0.00000000000E+00 -0.00000000000E+00 -0.97837386509E+03  0.97837386509E+03  0.00000000000E+00 0. -1.
         25    2    1    2    0    0 -0.18661276729E+03  0.31800471841E+02  0.23499198089E+03  0.32662158432E+03  0.12499933336E+03 0.  0.
          2    1    1    2  501    0  0.17744877817E+03  0.12801841635E+02 -0.92374736877E+03  0.94072374124E+03  0.00000000000E+00 0. -1.
          1    1    1    2  502    0  0.91639891139E+01 -0.44602313477E+02  0.16019109863E+04  0.16025580030E+04  0.00000000000E+00 0. -1.
         22    1    3    3    0    0 -0.18786211816E+03  0.39964745267E+02  0.24647744480E+03  0.31247477834E+03  0.00000000000E+00 0.  1.
         22    1    3    3    0    0  0.12493508752E+01 -0.81642734257E+01 -0.11485463912E+02  0.14146805981E+02  0.00000000000E+00 0.  1.
</event>
<event>
 7    1  0.5537228E-006  0.1083952E+03  0.7818608E-02  0.1336111E+00
          2   -1    0    0  502    0  0.00000000000E+00  0.00000000000E+00  0.18591098771E+04  0.18591098771E+04  0.00000000000E+00 0. -1.
          1   -1    0    0  501    0 -0.00000000000E+00 -0.00000000000E+00 -0.56393599570E+02  0.56393599570E+02  0.00000000000E+00 0. -1.
         25    2    1    2    0    0  0.91868646324E+02 -0.46087668456E+02  0.85691398400E+03  0.87206134624E+03  0.12500197702E+03 0.  0.
          2    1    1    2  501    0 -0.10955108720E+03 -0.65222772784E+01  0.14744042854E+02  0.11073105981E+03  0.00000000000E+00 0. -1.
          1    1    1    2  502    0  0.17682440878E+02  0.52609945734E+02  0.93105825068E+03  0.93271107063E+03  0.00000000000E+00 0. -1.
         22    1    3    3    0    0  0.95671957144E+02 -0.81634832741E+02  0.68889007156E+03  0.70027630260E+03  0.00000000000E+00 0. -1.
         22    1    3    3    0    0 -0.38033108195E+01  0.35547164286E+02  0.16802391245E+03  0.17178504363E+03  0.00000000000E+00 0. -1.
</event>
<event>
 7    1  0.5537228E-006  0.3218310E+02  0.7818608E-02  0.1578839E+00
          2   -1    0    0  502    0  0.00000000000E+00  0.00000000000E+00  0.34816152080E+03  0.34816152080E+03  0.00000000000E+00 0. -1.
          1   -1    0    0  501    0 -0.00000000000E+00 -0.00000000000E+00 -0.16455036268E+04  0.16455036268E+04  0.00000000000E+00 0. -1.
         25    2    1    2    0    0  0.15431538825E+01 -0.51103095351E+01 -0.42684910297E+03  0.44480770064E+03  0.12500094904E+03 0.  0.
          2    1    1    2  501    0  0.30629721137E+02  0.71514927318E+01 -0.12087041681E+04  0.12091133485E+04  0.00000000000E+00 0. -1.
          1    1    1    2  502    0 -0.32172875019E+02 -0.20411831967E+01  0.33821116500E+03  0.33974409847E+03  0.00000000000E+00 0. -1.
         22    1    3    3    0    0 -0.27825060509E+02 -0.28516416398E+02 -0.41125244156E+02  0.57259983439E+02  0.00000000000E+00 0.  1.
         22    1    3    3    0    0  0.29368214392E+02  0.23406106863E+02 -0.38572385881E+03  0.38754771720E+03  0.00000000000E+00 0.  1.
</event>
<event>
 7    1  0.5537228E-006  0.9141660E+02  0.7818608E-02  0.1391560E+00
          2   -1    0    0  502    0  0.00000000000E+00  0.00000000000E+00  0.54830510662E+03  0.54830510662E+03  0.00000000000E+00 0. -1.
          1   -1    0    0  501    0 -0.00000000000E+00 -0.00000000000E+00 -0.52854520047E+03  0.52854520047E+03  0.00000000000E+00 0. -1.
         25    2    1    2    0    0 -0.46633253315E+02 -0.20902700900E+02 -0.32638061456E+03  0.35321689567E+03  0.12500514633E+03 0.  0.
          2    1    1    2  501    0 -0.32874146486E+02 -0.25166280869E+02 -0.18246372747E+03  0.18710174516E+03  0.00000000000E+00 0. -1.
          1    1    1    2  502    0  0.79507399801E+02  0.46068981769E+02  0.52860424818E+03  0.53653166626E+03  0.00000000000E+00 0. -1.
         22    1    3    3    0    0  0.41399036938E+01  0.87165454174E+01 -0.27492963635E+03  0.27509893114E+03  0.00000000000E+00 0.  1.
         22    1    3    3    0    0 -0.50773157008E+02 -0.29619246318E+02 -0.51450978209E+02  0.78117964539E+02  0.00000000000E+00 0.  1.
</event>
<event>
 7    1  0.5537228E-006  0.7748882E+02  0.7818608E-02  0.1349777E+00
          2   -1    0    0  502    0  0.00000000000E+00  0.00000000000E+00  0.17911295776E+04  0.17911295776E+04  0.00000000000E+00 0. -1.
          1   -1    0    0  501    0 -0.00000000000E+00 -0.00000000000E+00 -0.28518131038E+03  0.28518131038E+03  0.00000000000E+00 0. -1.
         25    2    1    2    0    0  0.14082907968E+02 -0.25709806465E+02  0.15257362583E+03  0.19941238711E+03  0.12500906523E+03 0.  0.
          2    1    1    2  501    0 -0.79536696943E+02  0.38506584339E+01 -0.25494889614E+03  0.26709521406E+03  0.00000000000E+00 0. -1.
          1    1    1    2  502    0  0.65453788974E+02  0.21859148031E+02  0.16083235376E+04  0.16098032868E+04  0.00000000000E+00 0. -1.
         22    1    3    3    0    0  0.27859993974E+02 -0.26611173022E+01  0.16672612241E+03  0.16905874927E+03  0.00000000000E+00 0. -1.
         22    1    3    3    0    0 -0.13777086005E+02 -0.23048689163E+02 -0.14152496581E+02  0.30353637845E+02  0.00000000000E+00 0. -1.
</event>
<event>
 7    1  0.5537228E-006  0.4877504E+02  0.7818608E-02  0.1500120E+00
          2   -1    0    0  502    0  0.00000000000E+00  0.00000000000E+00  0.20182472055E+03  0.20182472055E+03  0.00000000000E+00 0. -1.
          1   -1    0    0  501    0 -0.00000000000E+00 -0.00000000000E+00 -0.64226526665E+03  0.64226526665E+03  0.00000000000E+00 0. -1.
         25    2    1    2    0    0 -0.35135608243E+02  0.74871394778E+02 -0.35701571606E+02  0.15407685687E+03  0.12499935554E+03 0.  0.
          2    1    1    2  501    0  0.22506001662E+02 -0.42585503511E+02 -0.54418993351E+03  0.54631742508E+03  0.00000000000E+00 0. -1.
          1    1    1    2  502    0  0.12629606581E+02 -0.32285891268E+02  0.13945095902E+03  0.14369570525E+03  0.00000000000E+00 0. -1.
         22    1    3    3    0    0  0.35289147953E+02 -0.67905281264E+01  0.94698424965E+01  0.37163330749E+02  0.00000000000E+00 0.  1.
         22    1    3    3    0    0 -0.70424756196E+02  0.81661922905E+02 -0.45171414103E+02  0.11691352612E+03  0.00000000000E+00 0.  1.
</event>
<event>
 7    1  0.5537228E-006  0.7135557E+02  0.7818608E-02  0.1386336E+00
          2   -1    0    0  502    0  0.00000000000E+00  0.00000000000E+00  0.15858142349E+03  0.15858142349E+03  0.00000000000E+00 0. -1.
          1   -1    0    0  501    0 -0.00000000000E+00 -0.00000000000E+00 -0.12373264366E+04  0.12373264366E+04  0.00000000000E+00 0. -1.
         25    2    1    2    0    0  0.44938254298E+02  0.65515406684E+02 -0.49278627669E+03  0.51456577625E+03  0.12501163297E+03 0.  0.
          2    1    1    2  501    0  0.99623015876E+01 -0.72300943910E+02 -0.72657738719E+03  0.73023378005E+03  0.00000000000E+00 0. -1.
          1    1    1    2  502    0 -0.54900555886E+02  0.67855372267E+01  0.14061865073E+03  0.15110830383E+03  0.00000000000E+00 0. -1.
         22    1    3    3    0    0  0.33598899566E+02  0.10300637131E+03 -0.38153250147E+03  0.39661851729E+03  0.00000000000E+00 0. -1.
         22    1    3    3    0    0  0.11339354733E+02 -0.37490964622E+02 -0.11125377523E+03  0.11794725896E+03  0.00000000000E+00 0. -1.
</event>
<event>
 7    1  0.5537228E-006  0.1097342E+03  0.7818608E-02  0.1435240E+00
          2   -1    0    0  502    0  0.00000000000E+00  0.00000000000E+00  0.59887484239E+03  0.59887484239E+03  0.00000000000E+00 0. -1.
          1   -1    0    0  501    0 -0.00000000000E+00 -0.00000000000E+00 -0.54678106495E+03  0.54678106495E+03  0.00000000000E+00 0. -1.
         25    2    1    2    0    0  0.12303190741E+03  0.97049038821E+01  0.34866748411E+03  0.39041630170E+03  0.12499935503E+03 0.  0.
          2    1    1    2  501    0 -0.20609496627E+02 -0.13372774516E+02 -0.51414828666E+03  0.51473492510E+03  0.00000000000E+00 0. -1.
          1    1    1    2  502    0 -0.10242241078E+03  0.36678706334E+01  0.21757457999E+03  0.24050468054E+03  0.00000000000E+00 0. -1.
         22    1    3    3    0    0  0.46319026068E+02 -0.51925490835E+01  0.16914003776E+02  0.49583245816E+02  0.00000000000E+00 0. -1.
         22    1    3    3    0    0  0.76712881338E+02  0.14897452966E+02  0.33175348034E+03  0.34083305588E+03  0.00000000000E+00 0. -1.
</event>
<event>
 7    1  0.5537228E-006  0.3997932E+03  0.7818608E-02  0.1251489E+00
          2   -1    0    0  502    0  0.00000000000E+00  0.00000000000E+00  0.31352570299E+04  0.31352570299E+04  0.00000000000E+00 0. -1.
          1   -1    0    0  501    0 -0.00000000000E+00 -0.00000000000E+00 -0.25160546360E+04  0.25160546360E+04  0.00000000000E+00 0. -1.
         25    2    1    2    0    0  0.30100049783E+03  0.24794343889E+03  0.20568714467E+04  0.20972417924E+04  0.12500295554E+03 0.  0.
          2    1    1    2  501    0  0.14353671427E+02  0.29837027393E+02 -0.24540291885E+04  0.24542525409E+04  0.00000000000E+00 0. -1.
          1    1    1    2  502    0 -0.31535416925E+03 -0.27778046629E+03  0.10163601358E+04  0.10998173326E+04  0.00000000000E+00 0. -1.
         22    1    3    3    0    0  0.77150360228E+02  0.37119402416E+01  0.44875702591E+03  0.45535571247E+03  0.00000000000E+00 0.  1.
         22    1    3    3    0    0  0.22385013760E+03  0.24423149865E+03  0.16081144208E+04  0.16418860799E+04  0.00000000000E+00 0.  1.
</event>
<event>
 7    1  0.5537228E-006  0.1080076E+03  0.7818608E-02  0.1269479E+00
          2   -1    0    0  502    0  0.00000000000E+00  0.00000000000E+00  0.10080865239E+03  0.10080865239E+03  0.00000000000E+00 0. -1.
          1   -1    0    0  501    0 -0.00000000000E+00 -0.00000000000E+00 -0.10669032924E+04  0.10669032924E+04  0.00000000000E+00 0. -1.
         25    2    1    2    0    0  0.20497531520E+02  0.12698376902E+03 -0.25855978785E+03  0.31467990495E+03  0.12500100917E+03 0.  0.
          2    1    1    2  501    0 -0.95355481020E+02 -0.56657774069E+02 -0.73769329577E+03  0.74598536832E+03  0.00000000000E+00 0. -1.
          1    1    1    2  502    0  0.74857949500E+02 -0.70325994954E+02  0.30158443577E+02  0.10704667154E+03  0.00000000000E+00 0. -1.
         22    1    3    3    0    0  0.65244644780E+02  0.11119648841E+03 -0.16155744528E+03  0.20669380937E+03  0.00000000000E+00 0.  1.
         22    1    3    3    0    0 -0.44747113260E+02  0.15787280610E+02 -0.97002342569E+02  0.10798609558E+03  0.00000000000E+00 0.  1.
</event>
<event>
 7    1  0.5537228E-006  0.9707235E+02  0.7818608E-02  0.1288768E+00
          2   -1    0    0  502    0  0.00000000000E+00  0.00000000000E+00  0.10946204290E+04  0.10946204290E+04  0.00000000000E+00 0. -1.
          1   -1    0    0  501    0 -0.00000000000E+00 -0.00000000000E+00 -0.54061859406E+03  0.54061859406E+03  0.00000000000E+00 0. -1.
         25    2    1    2    0    0 -0.16188619883E+03  0.22822166235E+02  0.75442604849E+03  0.78199197474E+03  0.12499917309E+03 0.  0.
          2    1    1    2  501    0  0.74932529534E+02 -0.61313590312E+02 -0.51530444784E+03  0.52432138456E+03  0.00000000000E+00 0. -1.
          1    1    1    2  502    0  0.86953669294E+02  0.38491424078E+02  0.31488023431E+03  0.32892566377E+03  0.00000000000E+00 0. -1.
         22    1    3    3    0    0 -0.63098117190E+01 -0.28578569869E+02  0.24797887074E+03  0.24969995737E+03  0.00000000000E+00 0. -1.
         22    1    3    3    0    0 -0.15557638711E+03  0.51400736104E+02  0.50644717776E+03  0.53229201737E+03  0.00000000000E+00 0. -1.
</event>
<event>
 7    1  0.5537228E-006  0.2186164E+03  0.7818608E-02  0.1305762E+00
          2   -1    0    0  502    0  0.00000000000E+00  0.00000000000E+00  0.97667184295E+03  0.97667184295E+03  0.00000000000E+00 0. -1.
          1   -1    0    0  501    0 -0.00000000000E+00 -0.00000000000E+00 -0.13608426552E+03  0.13608426552E+03  0.00000000000E+00 0. -1.
         25    2    1    2    0    0  0.20280031433E+03 -0.99108651706E+02  0.45159700082E+03  0.52011412076E+03  0.12501341982E+03 0.  0.
          2    1    1    2  501    0  0.25206224663E+01  0.35988719013E+02 -0.73957413652E+02  0.82287547466E+02  0.00000000000E+00 0. -1.
          1    1    1    2  502    0 -0.20532093679E+03  0.63119932693E+02  0.46294799026E+03  0.51035444024E+03  0.00000000000E+00 0. -1.
         22    1    3    3    0    0  0.13157723362E+03 -0.12134473150E+03  0.35943220121E+03  0.40153283743E+03  0.00000000000E+00 0. -1.
         22    1    3    3    0    0  0.71223080701E+02  0.22236079795E+02  0.92164799613E+02  0.11858128333E+03  0.00000000000E+00 0. -1.
</event>
<event>
 7    1  0.5537228E-006  0.1506395E+03  0.7818608E-02  0.1353977E+00
          2   -1    0    0  502    0  0.00000000000E+00  0.00000000000E+00  0.27768787048E+03  0.27768787048E+03  0.00000000000E+00 0. -1.
          1   -1    0    0  501    0 -0.00000000000E+00 -0.00000000000E+00 -0.20679317096E+04  0.20679317096E+04  0.00000000000E+00 0. -1.
         25    2    1    2    0    0 -0.64262892487E+02  0.12315554546E+03 -0.26611881986E+03  0.32517990878E+03  0.12500295621E+03 0.  0.
          2    1    1    2  501    0  0.39680925674E+02 -0.14700684002E+03 -0.17678118867E+04  0.17743574763E+04  0.00000000000E+00 0. -1.
          1    1    1    2  502    0  0.24581966813E+02  0.23851294558E+02  0.24368686744E+03  0.24608219502E+03  0.00000000000E+00 0. -1.
         22    1    3    3    0    0 -0.75745705830E+02  0.13523843531E+03 -0.18036051721E+03  0.23781665733E+03  0.00000000000E+00 0. -1.
         22    1    3    3    0    0  0.11482813343E+02 -0.12082889852E+02 -0.85758302654E+02  0.87363251448E+02  0.00000000000E+00 0. -1.
</event>
<event>
 7    1  0.5537228E-006  0.5147061E+02  0.7818608E-02  0.1443991E+00
          2   -1    0    0  502    0  0.00000000000E+00  0.00000000000E+00  0.76261530240E+02  0.76261530240E+02  0.00000000000E+00 0. -1.
          1   -1    0    0  501    0 -0.00000000000E+00 -0.00000000000E+00 -0.20116109314E+03  0.20116109314E+03  0.00000000000E+00 0. -1.
         25    2    1    2    0    0 -0.10194594725E+02 -0.93404441806E+01 -0.53135149484E+02  0.13652630485E+03  0.12499965658E+03 0.  0.
          2    1    1    2  501    0  0.40115848697E+02  0.48220907937E+02 -0.66721820767E+02  0.91576954773E+02  0.00000000000E+00 0. -1.
          1    1    1    2  502    0 -0.29921253972E+02 -0.38880463757E+02 -0.50425926482E+01  0.49319363761E+02  0.00000000000E+00 0. -1.
         22    1    3    3    0    0 -0.20194490454E+02 -0.62643005656E+02 -0.86513357538E+01  0.66383802336E+02  0.00000000000E+00 0. -1.
         22    1    3    3    0    0  0.99998957286E+01  0.53302561475E+02 -0.44483813730E+02  0.70142502510E+02  0.00000000000E+00 0. -1.
</event>
<event>
 7    1  0.5537228E-006  0.1313808E+03  0.7818608E-02  0.1248266E+00
          2   -1    0    0  502    0  0.00000000000E+00  0.00000000000E+00  0.85954384033E+03  0.85954384033E+03  0.00000000000E+00 0. -1.
          1   -1    0    0  501    0 -0.00000000000E+00 -0.00000000000E+00 -0.11030112605E+03  0.11030112605E+03  0.00000000000E+00 0. -1.
         25    2    1    2    0    0 -0.56073606664E+02  0.66032474145E+02  0.35537634769E+02  0.15618034099E+03  0.12499935369E+03 0.  0.
          2    1    1    2  501    0 -0.83534115289E+02 -0.62038241471E+02  0.19894407308E+02  0.10593620375E+03  0.00000000000E+00 0. -1.
          1    1    1    2  502    0  0.13960772195E+03 -0.39942326740E+01  0.69381067221E+03  0.70772842164E+03  0.00000000000E+00 0. -1.
         22    1    3    3    0    0 -0.84207612515E+00  0.66483179226E+02  0.65509257651E+02  0.93339086401E+02  0.00000000000E+00 0. -1.
         22    1    3    3    0    0 -0.55231530539E+02 -0.45070508121E+00 -0.29971622882E+02  0.62841254594E+02  0.00000000000E+00 0. -1.
</event>
<event>
 7    1  0.5537228E-006  0.5583838E+02  0.7818608E-02  0.1553891E+00
          2   -1    0    0  502    0  0.00000000000E+00  0.00000000000E+00  0.59392094490E+03  0.59392094490E+03  0.00000000000E+00 0. -1.
          1   -1    0    0  501    0 -0.00000000000E+00 -0.00000000000E+00 -0.51233970733E+03  0.51233970733E+03  0.00000000000E+00 0. -1.
         25    2    1    2    0    0  0.31631328460E+02 -0.53616555995E+02  0.64196805355E+02  0.15369836079E+03  0.12500672091E+03 0.  0.
          2    1    1    2  501    0  0.11229545909E+02  0.17989320982E+02 -0.46574555896E+03  0.46622810304E+03  0.00000000000E+00 0. -1.
          1    1    1    2  502    0 -0.42860874368E+02  0.35627235013E+02  0.48312999118E+03  0.48633418840E+03  0.00000000000E+00 0. -1.
         22    1    3    3    0    0  0.42127599220E+02 -0.51329574130E+02  0.97916204396E+02  0.11830909889E+03  0.00000000000E+00 0.  1.
         22    1    3    3    0    0 -0.10496270761E+02 -0.22869818655E+01 -0.33719399042E+02  0.35389261898E+02  0.00000000000E+00 0.  1.
</event>
<event>
 7    1  0.5537228E-006  0.4658119E+03  0.7818608E-02  0.1125805E+00
          2   -1    0    0  502    0  0.00000000000E+00  0.00000000000E+00  0.64118623948E+03  0.64118623948E+03  0.00000000000E+00 0. -1.
          1   -1    0    0  501    0 -0.00000000000E+00 -0.00000000000E+00 -0.12961118634E+04  0.12961118634E+04  0.00000000000E+00 0. -1.
         25    2    1    2    0    0  0.12800385889E+03  0.41279623170E+03  0.21451850033E+03  0.49842568716E+03  0.12499704730E+03 0.  0.
          2    1    1    2  501    0 -0.41014916124E+02  0.10716183257E+03 -0.90334114500E+03  0.91059931142E+03  0.00000000000E+00 0. -1.
          1    1    1    2  502    0 -0.86988942771E+02 -0.51995806427E+03  0.33897020702E+02  0.52827310435E+03  0.00000000000E+00 0. -1.
         22    1    3    3    0    0 -0.20202124818E+02  0.57991467300E+02  0.79053524733E+01  0.61916320341E+02  0.00000000000E+00 0.  1.
         22    1    3    3    0    0  0.14820598371E+03  0.35480476440E+03  0.20661314786E+03  0.43650936681E+03  0.00000000000E+00 0.  1.
</event>
<event>
 7    1  0.5537228E-006  0.4354084E+02  0.7818608E-02  0.1489136E+00
          2   -1    0    0  502    0  0.00000000000E+00  0.00000000000E+00  0.57829646746E+02  0.57829646746E+02  0.00000000000E+00 0. -1.
          1   -1    0    0  501    0 -0.00000000000E+00 -0.00000000000E+00 -0.78735648889E+03  0.78735648889E+03  0.00000000000E+00 0. -1.
         25    2    1    2    0    0 -0.23147748949E+02 -0.11839986531E+02 -0.42039299587E+03  0.43935234509E+03  0.12499683435E+03 0.  0.
          2    1    1    2  501    0 -0.10684542366E+02  0.40518691776E+02 -0.34577452964E+03  0.34830439156E+03  0.00000000000E+00 0. -1.
          1    1    1    2  502    0  0.33832291315E+02 -0.28678705245E+02  0.36640683370E+02  0.57529398988E+02  0.00000000000E+00 0. -1.
         22    1    3    3    0    0 -0.11487996474E+02  0.23833076081E+02 -0.39043803156E+03  0.39133342058E+03  0.00000000000E+00 0.  1.
         22    1    3    3    0    0 -0.11659752475E+02 -0.35673062612E+02 -0.29954964314E+02  0.48018924508E+02  0.00000000000E+00 0.  1.
</event>
<event>
 7    1  0.5537228E-006  0.1199401E+03  0.7818608E-02  0.1336406E+00
          2   -1    0    0  502    0  0.00000000000E+00  0.00000000000E+00  0.11274132713E+04  0.11274132713E+04  0.00000000000E+00 0. -1.
          1   -1    0    0  501    0 -0.00000000000E+00 -0.00000000000E+00 -0.47456379270E+03  0.47456379270E+03  0.00000000000E+00 0. -1.
         25    2    1    2    0    0 -0.15103014265E+03  0.45738835316E+02 -0.12885091242E+03  0.23902072316E+03  0.12500481360E+03 0.  0.
          2    1    1    2  501    0  0.11176983064E+03 -0.14727652672E+02 -0.27908346524E+03  0.30099332113E+03  0.00000000000E+00 0. -1.
          1    1    1    2  502    0  0.39260312017E+02 -0.31011182644E+02  0.10607838563E+04  0.10619630197E+04  0.00000000000E+00 0. -1.
         22    1    3    3    0    0 -0.16506030500E+03  0.58202393106E+02 -0.13297510737E+03  0.21980628296E+03  0.00000000000E+00 0. -1.
         22    1    3    3    0    0  0.14030162342E+02 -0.12463557791E+02  0.41241949527E+01  0.19214440199E+02  0.00000000000E+00 0. -1.
</event>
<event>
 7    1  0.5537228E-006  0.4526865E+02  0.7818608E-02  0.1480437E+00
          2   -1    0    0  502    0  0.00000000000E+00  0.00000000000E+00  0.26085346573E+04  0.26085346573E+04  0.00000000000E+00 0. -1.
          1   -1    0    0  501    0 -0.00000000000E+00 -0.00000000000E+00 -0.12711330359E+03  0.12711330359E+03  0.00000000000E+00 0. -1.
         25    2    1    2    0    0  0.12067329000E+02  0.73074883465E+01 -0.33674684729E+02  0.13021646074E+03  0.12499328958E+03 0.  0.
          2    1    1    2  501    0 -0.46302912985E+02 -0.33061642652E+02 -0.26998639041E+02  0.62975856293E+02  0.00000000000E+00 0. -1.
          1    1    1    2  502    0  0.34235583985E+02  0.25754154305E+02  0.25420946775E+04  0.25424556438E+04  0.00000000000E+00 0. -1.
         22    1    3    3    0    0  0.67649778657E+02  0.10247509645E+02 -0.78931756911E+01  0.68875294764E+02  0.00000000000E+00 0.  1.
         22    1    3    3    0    0 -0.55582449657E+02 -0.29400212988E+01 -0.25781509038E+02  0.61341165977E+02  0.00000000000E+00 0.  1.
</event>
<event>
 7    1  0.5537228E-006  0.4222343E+02  0.7818608E-02  0.1498416E+00
          2   -1    0    0  502    0  0.00000000000E+00  0.00000000000E+00  0.52904206733E+03  0.52904206733E+03  0.00000000000E+00 0. -1.
          1   -1    0    0  501    0 -0.00000000000E+00 -0.00000000000E+00 -0.87303475107E+03  0.87303475107E+03  0.00000000000E+00 0. -1.
         25    2    1    2    0    0  0.17874934861E+02  0.78700713275E+02 -0.26791232129E+03  0.30645367253E+03  0.12499410362E+03 0.  0.
          2    1    1    2  501    0 -0.40158908346E+01 -0.40624983307E+02 -0.58433331483E+03  0.58575757739E+03  0.00000000000E+00 0. -1.
          1    1    1    2  502    0 -0.13859044026E+02 -0.38075729968E+02  0.50825295238E+03  0.50986556848E+03  0.00000000000E+00 0. -1.
         22    1    3    3    0    0  0.20859519250E+02 -0.23413736446E+02 -0.13622110209E+03  0.13978380183E+03  0.00000000000E+00 0. -1.
         22    1    3    3    0    0 -0.29845843886E+01  0.10211444972E+03 -0.13169121920E+03  0.16666987071E+03  0.00000000000E+00 0. -1.
</event>
<event>
 7    1  0.5537228E-006  0.4359036E+02  0.7818608E-02  0.1571997E+00
          2   -1    0    0  502    0  0.00000000000E+00  0.00000000000E+00  0.79158593149E+03  0.79158593149E+03  0.00000000000E+00 0. -1.
          1   -1    0    0  501    0 -0.00000000000E+00 -0.00000000000E+00 -0.10342694072E+03  0.10342694072E+03  0.00000000000E+00 0. -1.
         25    2    1    2    0    0  0.19672851242E+02  0.51785327924E+01  0.34652805434E+03  0.36894591755E+03  0.12500223739E+03 0.  0.
          2    1    1    2  501    0 -0.43821175485E+02 -0.31850308596E+01 -0.86622678322E+02  0.97128411097E+02  0.00000000000E+00 0. -1.
          1    1    1    2  502    0  0.24148324242E+02 -0.19935019327E+01  0.42825361475E+03  0.42893854357E+03  0.00000000000E+00 0. -1.
         22    1    3    3    0    0  0.24027839302E+01 -0.59533927721E+02  0.16998110430E+03  0.18012117516E+03  0.00000000000E+00 0.  1.
         22    1    3    3    0    0  0.17270067312E+02  0.64712460513E+02  0.17654695004E+03  0.18882474239E+03  0.00000000000E+00 0.  1.
</event>
<event>
 7    1  0.5537228E-006  0.3914113E+02  0.7818608E-02  0.1580639E+00
          2   -1    0    0  502    0  0.00000000000E+00  0.00000000000E+00  0.55759493164E+03  0.55759493164E+03  0.00000000000E+00 0. -1.
          1   -1    0    0  501    0 -0.00000000000E+00 -0.00000000000E+00 -0.12572088497E+03  0.12572088497E+03  0.00000000000E+00 0. -1.
         25    2    1    2    0    0  0.86692963140E+01  0.28157781580E+02 -0.19496899516E+01  0.12843757026E+03  0.12499756318E+03 0.  0.
          2    1    1    2  501    0  0.14921912795E+02 -0.38036791558E+02 -0.53257812595E+02  0.67125670171E+02  0.00000000000E+00 0. -1.
          1    1    1    2  502    0 -0.23591209109E+02  0.98790099776E+01  0.48708154921E+03  0.48775257618E+03  0.00000000000E+00 0. -1.
         22    1    3    3    0    0  0.39343778987E+02 -0.83730665190E+01 -0.47663089488E+02  0.62368351650E+02  0.00000000000E+00 0.  1.
         22    1    3    3    0    0 -0.30674482673E+02  0.36530848099E+02  0.45713399537E+02  0.66069218607E+02  0.00000000000E+00 0.  1.
</event>
<event>
 7    1  0.5537228E-006  0.4343762E+02  0.7818608E-02  0.1538006E+00
          2   -1    0    0  502    0  0.00000000000E+00  0.00000000000E+00  0.76327311806E+03  0.76327311806E+03  0.00000000000E+00 0. -1.
          1   -1    0    0  501    0 -0.00000000000E+00 -0.00000000000E+00 -0.54834846319E+02  0.54834846319E+02  0.00000000000E+00 0. -1.
         25    2    1    2    0    0 -0.55859253808E+01 -0.19433684002E+02  0.78385159816E+02  0.14894515686E+03  0.12502622060E+03 0.  0.
          2    1    1    2  501    0  0.19601036309E+02  0.46190977770E+02  0.13624457529E+02  0.51994546778E+02  0.00000000000E+00 0. -1.
          1    1    1    2  502    0 -0.14015110928E+02 -0.26757293768E+02  0.61642865439E+03  0.61716826074E+03  0.00000000000E+00 0. -1.
         22    1    3    3    0    0  0.63859927176E+01  0.51887003099E+02  0.19902694868E+02  0.55938888589E+02  0.00000000000E+00 0. -1.
         22    1    3    3    0    0 -0.11971918098E+02 -0.71320687101E+02  0.58482464948E+02  0.93006268272E+02  0.00000000000E+00 0. -1.
</event>
<event>
 7    1  0.5537228E-006  0.1357458E+03  0.7818608E-02  0.1331382E+00
          2   -1    0    0  502    0  0.00000000000E+00  0.00000000000E+00  0.65213541916E+03  0.65213541916E+03  0.00000000000E+00 0. -1.
          1   -1    0    0  501    0 -0.00000000000E+00 -0.00000000000E+00 -0.35700542928E+03  0.35700542928E+03  0.00000000000E+00 0. -1.
         25    2    1    2    0    0  0.47291209480E+02 -0.17260924581E+03  0.22064640729E+03  0.31038053201E+03  0.12498330836E+03 0.  0.
          2    1    1    2  501    0 -0.41616529554E+02  0.12676875746E+03 -0.29638162617E+03  0.32502972438E+03  0.00000000000E+00 0. -1.
          1    1    1    2  502    0 -0.56746799258E+01  0.45840488355E+02  0.37086520876E+03  0.37373059205E+03  0.00000000000E+00 0. -1.
         22    1    3    3    0    0 -0.11658350689E+02 -0.13266080926E+03  0.19191126883E+03  0.23359097277E+03  0.00000000000E+00 0.  1.
         22    1    3    3    0    0  0.58949560169E+02 -0.39948436549E+02  0.28735138460E+02  0.76789559246E+02  0.00000000000E+00 0.  1.
</event>
<event>
 7    1  0.5537228E-006  0.4637581E+02  0.7818608E-02  0.1508747E+00
          2   -1    0    0  502    0  0.00000000000E+00  0.00000000000E+00  0.46856575843E+03  0.46856575843E+03  0.00000000000E+00 0. -1.
          1   -1    0    0  501    0 -0.00000000000E+00 -0.00000000000E+00 -0.16061907894E+04  0.16061907894E+04  0.00000000000E+00 0. -1.
         25    2    1    2    0    0 -0.52394001802E+02 -0.61253761623E+02 -0.26196161579E+03  0.30123327835E+03  0.12498177907E+03 0.  0.
          2    1    1    2  501    0  0.22534217007E+02  0.25959211771E+02 -0.13231792983E+04  0.13236257504E+04  0.00000000000E+00 0. -1.
          1    1    1    2  502    0  0.29859784795E+02  0.35294549852E+02  0.44751588315E+03  0.44989751907E+03  0.00000000000E+00 0. -1.
         22    1    3    3    0    0 -0.65219219879E+02 -0.44775134996E+02 -0.62869647364E+02  0.10104925490E+03  0.00000000000E+00 0.  1.
         22    1    3    3    0    0  0.12825218077E+02 -0.16478626628E+02 -0.19909196842E+03  0.20018402345E+03  0.00000000000E+00 0.  1.
</event>
<event>
 7    1  0.5537228E-006  0.1280090E+03  0.7818608E-02  0.1345004E+00
          2   -1    0    0  502    0  0.00000000000E+00  0.00000000000E+00  0.18324063568E+04  0.18324063568E+04  0.00000000000E+00 0. -1.
          1   -1    0    0  501    0 -0.00000000000E+00 -0.00000000000E+00 -0.21073150745E+03  0.21073150745E+03  0.00000000000E+00 0. -1.
         25    2    1    2    0    0 -0.16230261660E+03  0.75855251287E+01  0.39401762647E+02  0.20877218000E+03  0.12503457400E+03 0.  0.
          2    1    1    2  501    0  0.11928098171E+03 -0.14124978954E+02 -0.97084905929E+02  0.15444399175E+03  0.00000000000E+00 0. -1.
          1    1    1    2  502    0  0.43021634887E+02  0.65394538256E+01  0.16793579927E+04  0.16799216925E+04  0.00000000000E+00 0. -1.
         22    1    3    3    0    0 -0.77824112584E+02 -0.44836657673E+02  0.58967503172E+02  0.10744340278E+03  0.00000000000E+00 0. -1.
         22    1    3    3    0    0 -0.84478504018E+02  0.52422182802E+02 -0.19565740525E+02  0.10132877722E+03  0.00000000000E+00 0. -1.
</event>
<event>
 7    1  0.5537228E-006  0.9132518E+02  0.7818608E-02  0.1400189E+00
          2   -1    0    0  502    0  0.00000000000E+00  0.00000000000E+00  0.60141236550E+03  0.60141236550E+03  0.00000000000E+00 0. -1.
          1   -1    0    0  501    0 -0.00000000000E+00 -0.00000000000E+00 -0.90473215012E+03  0.90473215012E+03  0.00000000000E+00 0. -1.
         25    2    1    2    0    0  0.22305677061E+02 -0.11298526600E+03 -0.51699050576E+02  0.17765626124E+03  0.12500296702E+03 0.  0.
          2    1    1    2  501    0 -0.31298898417E+02  0.22743284877E+02 -0.78575643834E+03  0.78670836938E+03  0.00000000000E+00 0. -1.
          1    1    1    2  502    0  0.89932213562E+01  0.90241981122E+02  0.53413570430E+03  0.54177988501E+03  0.00000000000E+00 0. -1.
         22    1    3    3    0    0 -0.33695136815E+02 -0.79621229323E+02 -0.68540029664E+02  0.11032967901E+03  0.00000000000E+00 0.  1.
         22    1    3    3    0    0  0.56000813876E+02 -0.33364036676E+02  0.16840979089E+02  0.67326582230E+02  0.00000000000E+00 0.  1.
</event>
<event>
 7    1  0.5537228E-006  0.7764850E+02  0.7818608E-02  0.1452727E+00
          2   -1    0    0  502    0  0.00000000000E+00  0.00000000000E+00  0.12239059297E+04  0.12239059297E+04  0.00000000000E+00 0. -1.
          1   -1    0    0  501    0 -0.00000000000E+00 -0.00000000000E+00 -0.45764800066E+03  0.45764800066E+03  0.00000000000E+00 0. -1.
         25    2    1    2    0    0 -0.70893735191E+02 -0.69215008087E+02 -0.15231531324E+02  0.16022998266E+03  0.12500003505E+03 0.  0.
          2    1    1    2  501    0  0.65863072014E+02  0.39143808935E+02 -0.36574530888E+03  0.37368410857E+03  0.00000000000E+00 0. -1.
          1    1    1    2  502    0  0.50306631773E+01  0.30071199152E+02  0.11472347692E+04  0.11476398391E+04  0.00000000000E+00 0. -1.
         22    1    3    3    0    0 -0.23112551606E+02  0.35713309722E+02 -0.14466233669E+02  0.44932198362E+02  0.00000000000E+00 0.  1.
         22    1    3    3    0    0 -0.47781183585E+02 -0.10492831781E+03 -0.76529765582E+00  0.11529778430E+03  0.00000000000E+00 0.  1.
</event>
<event>
 7    1  0.5537228E-006  0.7230263E+02  0.7818608E-02  0.1477558E+00
          2   -1    0    0  502    0  0.00000000000E+00  0.00000000000E+00  0.17968212358E+04  0.17968212358E+04  0.00000000000E+00 0. -1.
          1   -1    0    0  501    0 -0.00000000000E+00 -0.00000000000E+00 -0.82850423840E+02  0.82850423840E+02  0.00000000000E+00 0. -1.
         25    2    1    2    0    0 -0.27534134215E+02 -0.87864068553E+02  0.27075270824E+03  0.31210497659E+03  0.12499705718E+03 0.  0.
          2    1    1    2  501    0  0.61320691287E+01  0.70795754499E+02 -0.41702476089E+02  0.82393796119E+02  0.00000000000E+00 0. -1.
          1    1    1    2  502    0  0.21402065086E+02  0.17068314054E+02  0.14849205798E+04  0.14851728869E+04  0.00000000000E+00 0. -1.
         22    1    3    3    0    0 -0.27534019451E+02  0.26000549793E+02  0.99402546946E+02  0.10637206944E+03  0.00000000000E+00 0.  1.
         22    1    3    3    0    0 -0.11476407277E-03 -0.11386461835E+03  0.17135016130E+03  0.20573290716E+03  0.00000000000E+00 0.  1.
</event>
<event>
 7    1  0.5537228E-006  0.5633291E+02  0.7818608E-02  0.1487751E+00
          2   -1    0    0  502    0  0.00000000000E+00  0.00000000000E+00  0.14134307630E+04  0.14134307630E+04  0.00000000000E+00 0. -1.
          1   -1    0    0  501    0 -0.00000000000E+00 -0.00000000000E+00 -0.39657284303E+03  0.39657284303E+03  0.00000000000E+00 0. -1.
         25    2    1    2    0    0  0.60056381176E+02 -0.55238664402E+02 -0.28290490011E+03  0.31986386922E+03  0.12497853162E+03 0.  0.
          2    1    1    2  501    0 -0.90485290368E+01  0.31426242371E+02 -0.91793640510E+02  0.97445148804E+02  0.00000000000E+00 0. -1.
          1    1    1    2  502    0 -0.51007852139E+02  0.23812422031E+02  0.13915564606E+04  0.13926945880E+04  0.00000000000E+00 0. -1.
         22    1    3    3    0    0  0.36911326036E+02 -0.81953899794E+02 -0.10381345287E+03  0.13731759056E+03  0.00000000000E+00 0. -1.
         22    1    3    3    0    0  0.23145055140E+02  0.26715235392E+02 -0.17909144724E+03  0.18254627866E+03  0.00000000000E+00 0. -1.
</event>
<event>
 7    1  0.5537228E-006  0.5935434E+02  0.7818608E-02  0.1484495E+00
          2   -1    0    0  502    0  0.00000000000E+00  0.00000000000E+00  0.47815555814E+03  0.47815555814E+03  0.00000000000E+00 0. -1.
          1   -1    0    0  501    0 -0.00000000000E+00 -0.00000000000E+00 -0.13620135853E+04  0.13620135853E+04  0.00000000000E+00 0. -1.
         25    2    1    2    0    0  0.63627647454E+01 -0.73727940112E+02 -0.44950889413E+02  0.15205824262E+03  0.12499933104E+03 0.  0.
          2    1    1    2  501    0  0.19860990041E+02  0.55821579126E+02 -0.12622194367E+04  0.12636092806E+04  0.00000000000E+00 0. -1.
          1    1    1    2  502    0 -0.26223754786E+02  0.17906360986E+02  0.42331229898E+03  0.42450162020E+03  0.00000000000E+00 0. -1.
         22    1    3    3    0    0  0.12805901372E+02 -0.10659881897E+03 -0.49549922039E+02  0.11824759655E+03  0.00000000000E+00 0.  1.
         22    1    3    3    0    0 -0.64431366264E+01  0.32870878859E+02  0.45990326261E+01  0.33810646070E+02  0.00000000000E+00 0.  1.
</event>
<event>
 7    1  0.5537228E-006  0.2625766E+03  0.7818608E-02  0.1280357E+00
          2   -1    0    0  502    0  0.00000000000E+00  0.00000000000E+00  0.20820392608E+04  0.20820392608E+04  0.00000000000E+00 0. -1.
          1   -1    0    0  501    0 -0.00000000000E+00 -0.00000000000E+00 -0.44970590920E+03  0.44970590920E+03  0.00000000000E+00 0. -1.
         25    2    1    2    0    0 -0.12238993702E+03 -0.20193719176E+03 -0.30539381397E+03  0.40576852794E+03  0.12499916221E+03 0.  0.
          2    1    1    2  501    0  0.10816645438E+02 -0.36492568699E+02 -0.81348565293E+02  0.89812562952E+02  0.00000000000E+00 0. -1.
          1    1    1    2  502    0  0.11157329158E+03  0.23842976046E+03  0.20190757308E+04  0.20361640791E+04  0.00000000000E+00 0. -1.
         22    1    3    3    0    0 -0.18491888289E+02 -0.13487561899E+03 -0.20692522449E+03  0.24769221033E+03  0.00000000000E+00 0.  1.
         22    1    3    3    0    0 -0.10389804873E+03 -0.67061572774E+02 -0.98468589481E+02  0.15807631761E+03  0.00000000000E+00 0.  1.
</event>
<event>
 7    1  0.5537228E-006  0.1213604E+03  0.7818608E-02  0.1377492E+00
          2   -1    0    0  502    0  0.00000000000E+00  0.00000000000E+00  0.31126710051E+04  0.31126710051E+04  0.00000000000E+00 0. -1.
          1   -1    0    0  501    0 -0.00000000000E+00 -0.00000000000E+00 -0.25495471144E+03  0.25495471144E+03  0.00000000000E+00 0. -1.
         25    2    1    2    0    0  0.71597012791E+02  0.63182119347E+02  0.52533165805E+03  0.54837591320E+03  0.12499871514E+03 0.  0.
          2    1    1    2  501    0 -0.10640297752E+03 -0.60007474829E+02 -0.22798072873E+03  0.25864590338E+03  0.00000000000E+00 0. -1.
          1    1    1    2  502    0  0.34805964732E+02 -0.31746445182E+01  0.25603653644E+04  0.25606039000E+04  0.00000000000E+00 0. -1.
         22    1    3    3    0    0 -0.60932240141E+01 -0.17275876966E+02  0.96508630488E+01  0.20705614249E+02  0.00000000000E+00 0.  1.
         22    1    3    3    0    0  0.77690236805E+02  0.80457996313E+02  0.51568079500E+03  0.52767029895E+03  0.00000000000E+00 0.  1.
</event>
<event>
 7    1  0.5537228E-006  0.6011216E+02  0.7818608E-02  0.1477682E+00
          2   -1    0    0  502    0  0.00000000000E+00  0.00000000000E+00  0.34578752285E+02  0.34578752285E+02  0.00000000000E+00 0. -1.
          1   -1    0    0  501    0 -0.00000000000E+00 -0.00000000000E+00 -0.61443480289E+03  0.61443480289E+03  0.00000000000E+00 0. -1.
         25    2    1    2    0    0 -0.27757178208E+01  0.38639740890E+02 -0.28049281399E+03  0.30951923278E+03  0.12500081029E+03 0.  0.
          2    1    1    2  501    0  0.24144589119E+02  0.22344043026E+02 -0.26358783760E+03  0.26563276449E+03  0.00000000000E+00 0. -1.
          1    1    1    2  502    0 -0.21368871298E+02 -0.60983783916E+02 -0.35775399019E+02  0.73861557905E+02  0.00000000000E+00 0. -1.
         22    1    3    3    0    0 -0.48881235207E+02  0.55336786169E+02 -0.21750005197E+03  0.22969067823E+03  0.00000000000E+00 0. -1.
         22    1    3    3    0    0  0.46105517386E+02 -0.16697045279E+02 -0.62992762026E+02  0.79828554554E+02  0.00000000000E+00 0. -1.
</event>
<event>
 7    1  0.5537228E-006  0.6783655E+02  0.7818608E-02  0.1492747E+00
          2   -1    0    0  502    0  0.00000000000E+00  0.00000000000E+00  0.30619137637E+03  0.30619137637E+03  0.00000000000E+00 0. -1.
          1   -1    0    0  501    0 -0.00000000000E+00 -0.00000000000E+00 -0.88419438832E+03  0.88419438832E+03  0.00000000000E+00 0. -1.
         25    2    1    2    0    0  0.26939230286E+02 -0.57182578024E+02 -0.23413781469E+03  0.27283021973E+03  0.12498097124E+03 0.  0.
          2    1    1    2  501    0 -0.50792144764E+02  0.46275064575E+02 -0.62823367602E+03  0.63198004340E+03  0.00000000000E+00 0. -1.
          1    1    1    2  502    0  0.23852914479E+02  0.10907513450E+02  0.28436847876E+03  0.28557550156E+03  0.00000000000E+00 0. -1.
         22    1    3    3    0    0 -0.11654239511E+02 -0.66340905615E+02 -0.48497621780E+02  0.82999737197E+02  0.00000000000E+00 0.  1.
         22    1    3    3    0    0  0.38593469797E+02  0.91583275908E+01 -0.18564019291E+03  0.18983048254E+03  0.00000000000E+00 0.  1.
</event>
<event>
 7    1  0.5537228E-006  0.7218574E+02  0.7818608E-02  0.1502251E+00
          2   -1    0    0  502    0  0.00000000000E+00  0.00000000000E+00  0.79302797505E+03  0.79302797505E+03  0.00000000000E+00 0. -1.
          1   -1    0    0  501    0 -0.00000000000E+00 -0.00000000000E+00 -0.63371577105E+02  0.63371577105E+02  0.00000000000E+00 0. -1.
         25    2    1    2    0    0 -0.86059375914E+01  0.54710763744E+02  0.11345820638E+03  0.17766460944E+03  0.12499847607E+03 0.  0.
          2    1    1    2  501    0  0.59473083740E+01 -0.77642058095E+02  0.17782480551E+02  0.79874127705E+02  0.00000000000E+00 0. -1.
          1    1    1    2  502    0  0.26586292175E+01  0.22931294351E+02  0.59841571101E+03  0.59886081500E+03  0.00000000000E+00 0. -1.
         22    1    3    3    0    0 -0.22672948287E+02  0.53961085386E+02  0.13770203833E+03  0.14962524078E+03  0.00000000000E+00 0. -1.
         22    1    3    3    0    0  0.14067010696E+02  0.74967835870E+00 -0.24243831941E+02  0.28039368658E+02  0.00000000000E+00 0. -1.
</event>
<event>
 7    1  0.5537228E-006  0.1076017E+03  0.7818608E-02  0.1288846E+00
          2   -1    0    0  502    0  0.00000000000E+00  0.00000000000E+00  0.72114234000E+03  0.72114234000E+03  0.00000000000E+00 0. -1.
          1   -1    0    0  501    0 -0.00000000000E+00 -0.00000000000E+00 -0.81536483891E+03  0.81536483891E+03  0.00000000000E+00 0. -1.
         25    2    1    2    0    0  0.16320423236E+03  0.27598416639E+02 -0.39558044218E+03  0.44666010871E+03  0.12499628962E+03 0.  0.
          2    1    1    2  501    0 -0.81065837853E+02 -0.52133055692E+02 -0.38564995096E+03  0.39751152214E+03  0.00000000000E+00 0. -1.
          1    1    1    2  502    0 -0.82138394506E+02  0.24534639054E+02  0.68700789423E+03  0.69233554805E+03  0.00000000000E+00 0. -1.
         22    1    3    3    0    0  0.51818446944E+02 -0.46624748631E+02 -0.96983559490E+02  0.11943546140E+03  0.00000000000E+00 0. -1.
         22    1    3    3    0    0  0.11138578542E+03  0.74223165270E+02 -0.29859688269E+03  0.32722464731E+03  0.00000000000E+00 0. -1.
</event>
<event>
 7    1  0.5537228E-006  0.6988863E+02  0.7818608E-02  0.1424889E+00
          2   -1    0    0  502    0  0.00000000000E+00  0.00000000000E+00  0.26612824361E+04  0.26612824361E+04  0.00000000000E+00 0. -1.
          1   -1    0    0  501    0 -0.00000000000E+00 -0.00000000000E+00 -0.20948865516E+03  0.20948865516E+03  0.00000000000E+00 0. -1.
         25    2    1    2    0    0  0.69831102613E+02  0.77008332805E+02 -0.29150405856E+02  0.16517173606E+03  0.12500116007E+03 0.  0.
          2    1    1    2  501    0 -0.52324379497E+02 -0.39135547752E+02 -0.10264268452E+03  0.12167560344E+03  0.00000000000E+00 0. -1.
          1    1    1    2  502    0 -0.17506723115E+02 -0.37872785053E+02  0.25835868713E+04  0.25839237517E+04  0.00000000000E+00 0. -1.
         22    1    3    3    0    0  0.32381231811E+02 -0.31215505430E+02 -0.22924094191E+02  0.50482334012E+02  0.00000000000E+00 0.  1.
         22    1    3    3    0    0  0.37449870802E+02  0.10822383823E+03 -0.62263116649E+01  0.11468940205E+03  0.00000000000E+00 0.  1.
</event>
<event>
 7    1  0.5537228E-006  0.2222284E+03  0.7818608E-02  0.1266908E+00
          2   -1    0    0  502    0  0.00000000000E+00  0.00000000000E+00  0.21190806234E+03  0.21190806234E+03  0.00000000000E+00 0. -1.
          1   -1    0    0  501    0 -0.00000000000E+00 -0.00000000000E+00 -0.18246614913E+04  0.18246614913E+04  0.00000000000E+00 0. -1.
         25    2    1    2    0    0 -0.18275129057E+03  0.10959409190E+02 -0.36015061028E+03  0.42290888048E+03  0.12500126500E+03 0.  0.
          2    1    1    2  501    0  0.23393005097E+03 -0.11260470364E+02 -0.14197069598E+04  0.14388946864E+04  0.00000000000E+00 0. -1.
          1    1    1    2  502    0 -0.51178760409E+02  0.30106117414E+00  0.16710414109E+03  0.17476598675E+03  0.00000000000E+00 0. -1.
         22    1    3    3    0    0 -0.19809476109E+03  0.19456702997E+02 -0.29824692614E+03  0.35856844063E+03  0.00000000000E+00 0.  1.
         22    1    3    3    0    0  0.15343470529E+02 -0.84972938064E+01 -0.61903684138E+02  0.64340439848E+02  0.00000000000E+00 0.  1.
</event>
<event>
 7    1  0.5537228E-006  0.1120155E+03  0.7818608E-02  0.1325312E+00
          2   -1    0    0  502    0  0.00000000000E+00  0.00000000000E+00  0.17760955742E+04  0.17760955742E+04  0.00000000000E+00 0. -1.
          1   -1    0    0  501    0 -0.00000000000E+00 -0.00000000000E+00 -0.12643186393E+04  0.12643186393E+04  0.00000000000E+00 0. -1.
         25    2    1    2    0    0 -0.93790352863E+02  0.12142663724E+03  0.22687315550E+03  0.30105494139E+03  0.12498636136E+03 0.  0.
          2    1    1    2  501    0  0.36952014528E+02 -0.10540119569E+03 -0.12241077376E+04  0.12291926687E+04  0.00000000000E+00 0. -1.
          1    1    1    2  502    0  0.56838338335E+02 -0.16025441552E+02  0.15090115171E+04  0.15101666035E+04  0.00000000000E+00 0. -1.
         22    1    3    3    0    0 -0.48167998652E+02 -0.16495278696E+02  0.42461484746E+02  0.66296515747E+02  0.00000000000E+00 0.  1.
         22    1    3    3    0    0 -0.45622354211E+02  0.13792191594E+03  0.18441167075E+03  0.23475842564E+03  0.00000000000E+00 0.  1.
</event>
<event>
 7    1  0.5537228E-006  0.5600951E+02  0.7818608E-02  0.1496225E+00
          2   -1    0    0  502    0  0.00000000000E+00  0.00000000000E+00  0.25509612155E+03  0.25509612155E+03  0.00000000000E+00 0. -1.
          1   -1    0    0  501    0 -0.00000000000E+00 -0.00000000000E+00 -0.36401393429E+04  0.36401393429E+04  0.00000000000E+00 0. -1.
         25    2    1    2    0    0  0.10887287973E+02  0.65469438955E+02 -0.24553436475E+03  0.28339840377E+03  0.12499100171E+03 0.  0.
          2    1    1    2  501    0 -0.33824679349E+02 -0.44598903056E+02 -0.33744218011E+04  0.33748860222E+04  0.00000000000E+00 0. -1.
          1    1    1    2  502    0  0.22937391376E+02 -0.20870535899E+02  0.23491294445E+03  0.23695103853E+03  0.00000000000E+00 0. -1.
         22    1    3    3    0    0 -0.45211714463E+02  0.70586456158E+02 -0.16562740271E+03  0.18563131052E+03  0.00000000000E+00 0.  1.
         22    1    3    3    0    0  0.56099002436E+02 -0.51170172026E+01 -0.79906962045E+02  0.97767093250E+02  0.00000000000E+00 0.  1.
</event>
<event>
 7    1  0.5537228E-006  0.1115694E+03  0.7818608E-02  0.1437928E+00
          2   -1    0    0  502    0  0.00000000000E+00  0.00000000000E+00  0.33679003570E+03  0.33679003570E+03  0.00000000000E+00 0. -1.
          1   -1    0    0  501    0 -0.00000000000E+00 -0.00000000000E+00 -0.34989836529E+04  0.34989836529E+04  0.00000000000E+00 0. -1.
         25    2    1    2    0    0 -0.12500505163E+03  0.20025234136E+02 -0.11710236387E+03  0.21299104950E+03  0.12499980243E+03 0.  0.
          2    1    1    2  501    0  0.11130370162E+03 -0.71043880931E+00 -0.33325208658E+04  0.33343791536E+04  0.00000000000E+00 0. -1.
          1    1    1    2  502    0  0.13701350015E+02 -0.19314795327E+02  0.28742961250E+03  0.28840348550E+03  0.00000000000E+00 0. -1.
         22    1    3    3    0    0 -0.13047176485E+03  0.15687577593E+02 -0.42572871882E+02  0.13813555275E+03  0.00000000000E+00 0. -1.
         22    1    3    3    0    0  0.54667132185E+01  0.43376565434E+01 -0.74529491990E+02  0.74855496752E+02  0.00000000000E+00 0. -1.
</event>
<event>
 7    1  0.5537228E-006  0.1039573E+03  0.7818608E-02  0.1373694E+00
          2   -1    0    0  502    0  0.00000000000E+00  0.00000000000E+00  0.12484217071E+04  0.12484217071E+04  0.00000000000E+00 0. -1.
          1   -1    0    0  501    0 -0.00000000000E+00 -0.00000000000E+00 -0.13679925687E+03  0.13679925687E+03  0.00000000000E+00 0. -1.
         25    2    1    2    0    0  0.31556347990E+02 -0.60230652435E+02  0.15234672152E+03  0.20846662335E+03  0.12500109960E+03 0.  0.
          2    1    1    2  501    0 -0.58505550468E+02  0.92566579070E+02 -0.80635824273E+02  0.13599120248E+03  0.00000000000E+00 0. -1.
          1    1    1    2  502    0  0.26949202478E+02 -0.32335926635E+02  0.10399115529E+04  0.10407631381E+04  0.00000000000E+00 0. -1.
         22    1    3    3    0    0  0.73918831585E+02 -0.38925936904E+02  0.13340706057E+03  0.15740605463E+03  0.00000000000E+00 0.  1.
         22    1    3    3    0    0 -0.42362483595E+02 -0.21304715531E+02  0.18939660950E+02  0.51060568711E+02  0.00000000000E+00 0.  1.
</event>
<event>
 7    1  0.5537228E-006  0.6553230E+02  0.7818608E-02  0.1499760E+00
          2   -1    0    0  502    0  0.00000000000E+00  0.00000000000E+00  0.27470482385E+04  0.27470482385E+04  0.00000000000E+00 0. -1.
          1   -1    0    0  501    0 -0.00000000000E+00 -0.00000000000E+00 -0.23918369911E+03  0.23918369911E+03  0.00000000000E+00 0. -1.
         25    2    1    2    0    0  0.64135414402E+02 -0.47450764078E+02  0.23302342442E+04  0.23349468500E+04  0.12498093120E+03 0.  0.
          2    1    1    2  501    0 -0.61817402022E+02  0.21687826055E+02 -0.23188104202E+03  0.24095761171E+03  0.00000000000E+00 0. -1.
          1    1    1    2  502    0 -0.23180123797E+01  0.25762938024E+02  0.40951133715E+03  0.41032747582E+03  0.00000000000E+00 0. -1.
         22    1    3    3    0    0 -0.34670834182E+02 -0.26003268374E+01  0.34447569470E+03  0.34622584057E+03  0.00000000000E+00 0.  1.
         22    1    3    3    0    0  0.98806248584E+02 -0.44850437241E+02  0.19857585495E+04  0.19887210095E+04  0.00000000000E+00 0.  1.
</event>
<event>
 7    1  0.5537228E-006  0.8878283E+02  0.7818608E-02  0.1432722E+00
          2   -1    0    0  502    0  0.00000000000E+00  0.00000000000E+00  0.21374489797E+04  0.21374489797E+04  0.00000000000E+00 0. -1.
          1   -1    0    0  501    0 -0.00000000000E+00 -0.00000000000E+00 -0.17070093502E+03  0.17070093502E+03  0.00000000000E+00 0. -1.
         25    2    1    2    0    0 -0.60262174812E+02  0.60681939230E+02  0.31962971991E+03  0.35369962526E+03  0.12500575825E+03 0.  0.
          2    1    1    2  501    0  0.23134770347E+02  0.20555127340E+02 -0.15098799716E+03  0.15412691570E+03  0.00000000000E+00 0. -1.
          1    1    1    2  502    0  0.37127404465E+02 -0.81237066569E+02  0.17981063219E+04  0.18003233737E+04  0.00000000000E+00 0. -1.
         22    1    3    3    0    0 -0.46933056137E+02  0.93143341559E+02  0.16548504915E+03  0.19561108181E+03  0.00000000000E+00 0. -1.
         22    1    3    3    0    0 -0.13329118675E+02 -0.32461402329E+02  0.15414467076E+03  0.15808854344E+03  0.00000000000E+00 0. -1.
</event>
<event>
 7    1  0.5537228E-006  0.3790332E+02  0.7818608E-02  0.1530430E+00
          2   -1    0    0  502    0  0.00000000000E+00  0.00000000000E+00  0.28227631842E+02  0.28227631842E+02  0.00000000000E+00 0. -1.
          1   -1    0    0  501    0 -0.00000000000E+00 -0.00000000000E+00 -0.13294383861E+04  0.13294383861E+04  0.00000000000E+00 0. -1.
         25    2    1    2    0    0 -0.35237086002E+02  0.17544023709E+02 -0.91665544952E+03  0.92597426395E+03  0.12498671679E+03 0.  0.
          2    1    1    2  501    0  0.38870525301E+01 -0.38847468407E+02 -0.39125741804E+03  0.39320046051E+03  0.00000000000E+00 0. -1.
          1    1    1    2  502    0  0.31350033472E+02  0.21303444698E+02  0.67021132540E+01  0.38491293519E+02  0.00000000000E+00 0. -1.
         22    1    3    3    0    0 -0.76272089588E+02  0.79407020683E+01 -0.75613960951E+03  0.76001815470E+03  0.00000000000E+00 0. -1.
         22    1    3    3    0    0  0.41035003585E+02  0.96033216409E+01 -0.16051584001E+03  0.16595610925E+03  0.00000000000E+00 0. -1.
</event>
<event>
 7    1  0.5537228E-006  0.4785206E+02  0.7818608E-02  0.1540131E+00
          2   -1    0    0  502    0  0.00000000000E+00  0.00000000000E+00  0.27514805581E+03  0.27514805581E+03  0.00000000000E+00 0. -1.
          1   -1    0    0  501    0 -0.00000000000E+00 -0.00000000000E+00 -0.67218046903E+03  0.67218046903E+03  0.00000000000E+00 0. -1.
         25    2    1    2    0    0 -0.16760935596E+02  0.53673537897E+02 -0.36318107938E+03  0.38818376697E+03  0.12499745152E+03 0.  0.
          2    1    1    2  501    0 -0.93252516794E+01 -0.46547734499E+02 -0.29389217703E+03  0.29770163524E+03  0.00000000000E+00 0. -1.
          1    1    1    2  502    0  0.26086187275E+02 -0.71258033979E+01  0.26004084319E+03  0.26144312263E+03  0.00000000000E+00 0. -1.
         22    1    3    3    0    0  0.10445293195E+02  0.53901429658E+02 -0.51372486016E+02  0.75190428836E+02  0.00000000000E+00 0.  1.
         22    1    3    3    0    0 -0.27206228791E+02 -0.22789176140E+00 -0.31180859337E+03  0.31299333814E+03  0.00000000000E+00 0.  1.
</event>
<event>
 7    1  0.5537228E-006  0.8250771E+02  0.7818608E-02  0.1336890E+00
          2   -1    0    0  502    0  0.00000000000E+00  0.00000000000E+00  0.19716162634E+03  0.19716162634E+03  0.00000000000E+00 0. -1.
          1   -1    0    0  501    0 -0.00000000000E+00 -0.00000000000E+00 -0.54612143796E+03  0.54612143796E+03  0.00000000000E+00 0. -1.
         25    2    1    2    0    0 -0.12406925194E+02  0.32170010118E+02 -0.19067866949E+03  0.23059145351E+03  0.12500088835E+03 0.  0.
          2    1    1    2  501    0 -0.63804072497E+02 -0.63783396779E+02 -0.31928043857E+03  0.33178197634E+03  0.00000000000E+00 0. -1.
          1    1    1    2  502    0  0.76210997690E+02  0.31613386661E+02  0.16099929644E+03  0.18090963446E+03  0.00000000000E+00 0. -1.
         22    1    3    3    0    0 -0.33871861273E+02  0.72044219583E+02 -0.89753458955E+02  0.11997231329E+03  0.00000000000E+00 0.  1.
         22    1    3    3    0    0  0.21464936079E+02 -0.39874209465E+02 -0.10092521053E+03  0.11061914022E+03  0.00000000000E+00 0.  1.
</event>
<event>
 7    1  0.5537228E-006  0.5416946E+02  0.7818608E-02  0.1442643E+00
          2   -1    0    0  502    0  0.00000000000E+00  0.00000000000E+00  0.49287925431E+02  0.49287925431E+02  0.00000000000E+00 0. -1.
          1   -1    0    0  501    0 -0.00000000000E+00 -0.00000000000E+00 -0.13987533538E+04  0.13987533538E+04  0.00000000000E+00 0. -1.
         25    2    1    2    0    0  0.74259824608E+00  0.29734066091E+02 -0.25024602620E+03  0.28130641208E+03  0.12500223082E+03 0.  0.
          2    1    1    2  501    0 -0.46842563345E+02  0.47847935458E+01 -0.11075444925E+04  0.11085449575E+04  0.00000000000E+00 0. -1.
          1    1    1    2  502    0  0.46099965099E+02 -0.34518859637E+02  0.83250903340E+01  0.58189909622E+02  0.00000000000E+00 0. -1.
         22    1    3    3    0    0  0.21588627595E+02  0.57439607702E+02 -0.23595686593E+03  0.24380529107E+03  0.00000000000E+00 0. -1.
         22    1    3    3    0    0 -0.20846029349E+02 -0.27705541611E+02 -0.14289160266E+02  0.37501121006E+02  0.00000000000E+00 0. -1.
</event>
<event>
 7    1  0.5537228E-006  0.4956232E+02  0.7818608E-02  0.1485947E+00
          2   -1    0    0  502    0  0.00000000000E+00  0.00000000000E+00  0.40128442578E+02  0.40128442578E+02  0.00000000000E+00 0. -1.
          1   -1    0    0  501    0 -0.00000000000E+00 -0.00000000000E+00 -0.10267483243E+04  0.10267483243E+04  0.00000000000E+00 0. -1.
         25    2    1    2    0    0  0.90033920397E+01 -0.10746537342E+02 -0.21701333556E+03  0.25083173284E+03  0.12500088503E+03 0.  0.
          2    1    1    2  501    0 -0.39444859289E+02  0.32888627641E+02 -0.77614212915E+03  0.77783942006E+03  0.00000000000E+00 0. -1.
          1    1    1    2  502    0  0.30441467249E+02 -0.22142090300E+02  0.65355830230E+01  0.38205613940E+02  0.00000000000E+00 0. -1.
         22    1    3    3    0    0 -0.88238804449E+01  0.55658296544E+02 -0.11077736255E+03  0.12428729177E+03  0.00000000000E+00 0. -1.
         22    1    3    3    0    0  0.17827272485E+02 -0.66404833886E+02 -0.10623597300E+03  0.12654444108E+03  0.00000000000E+00 0. -1.
</event>
<event>
 7    1  0.5537228E-006  0.4194283E+02  0.7818608E-02  0.1519421E+00
          2   -1    0    0  502    0  0.00000000000E+00  0.00000000000E+00  0.15595609253E+04  0.15595609253E+04  0.00000000000E+00 0. -1.
          1   -1    0    0  501    0 -0.00000000000E+00 -0.00000000000E+00 -0.11612579924E+04  0.11612579924E+04  0.00000000000E+00 0. -1.
         25    2    1    2    0    0  0.29385302901E+02  0.61970055765E+01  0.39782945056E+02  0.13457119292E+03  0.12499929737E+03 0.  0.
          2    1    1    2  501    0 -0.15948725533E+02 -0.38915498936E+02 -0.11132543263E+04  0.11140484607E+04  0.00000000000E+00 0. -1.
          1    1    1    2  502    0 -0.13436577368E+02  0.32718493359E+02  0.14717743141E+04  0.14721992641E+04  0.00000000000E+00 0. -1.
         22    1    3    3    0    0  0.16907871533E+02  0.63524957664E+02  0.40176904471E+01  0.65859230200E+02  0.00000000000E+00 0.  1.
         22    1    3    3    0    0  0.12477431368E+02 -0.57327952087E+02  0.35765254609E+02  0.68711962723E+02  0.00000000000E+00 0.  1.
</event>
<event>
 7    1  0.5537228E-006  0.5387201E+02  0.7818608E-02  0.1497920E+00
          2   -1    0    0  502    0  0.00000000000E+00  0.00000000000E+00  0.13255982594E+04  0.13255982594E+04  0.00000000000E+00 0. -1.
          1   -1    0    0  501    0 -0.00000000000E+00 -0.00000000000E+00 -0.52290402680E+03  0.52290402680E+03  0.00000000000E+00 0. -1.
         25    2    1    2    0    0 -0.22674285183E+01 -0.83967313004E+02 -0.94906326896E+02  0.17801456870E+03  0.12500529948E+03 0.  0.
          2    1    1    2  501    0 -0.28226094948E+01  0.52509641110E+02 -0.38445577608E+03  0.38803540212E+03  0.00000000000E+00 0. -1.
          1    1    1    2  502    0  0.50900380131E+01  0.31457671894E+02  0.12820563356E+04  0.12824523153E+04  0.00000000000E+00 0. -1.
         22    1    3    3    0    0  0.54157605131E+02 -0.68817589988E+01 -0.27746024631E+02  0.61239257697E+02  0.00000000000E+00 0. -1.
         22    1    3    3    0    0 -0.56425033649E+02 -0.77085554005E+02 -0.67160302265E+02  0.11677531100E+03  0.00000000000E+00 0. -1.
</event>
<event>
 7    1  0.5537228E-006  0.4002056E+02  0.7818608E-02  0.1567447E+00
          2   -1    0    0  502    0  0.00000000000E+00  0.00000000000E+00  0.50348266751E+02  0.50348266751E+02  0.00000000000E+00 0. -1.
          1   -1    0    0  501    0 -0.00000000000E+00 -0.00000000000E+00 -0.12562293749E+04  0.12562293749E+04  0.00000000000E+00 0. -1.
         25    2    1    2    0    0  0.26813893703E+02  0.60269764368E+02 -0.28106512343E+03  0.31460215983E+03  0.12500194386E+03 0.  0.
          2    1    1    2  501    0 -0.13413681784E+02 -0.23609833602E+02 -0.94679241935E+03  0.94718173358E+03  0.00000000000E+00 0. -1.
          1    1    1    2  502    0 -0.13400211919E+02 -0.36659930766E+02  0.21976434619E+02  0.44793748245E+02  0.00000000000E+00 0. -1.
         22    1    3    3    0    0  0.64850085519E+02  0.39577614186E+02 -0.25005861111E+03  0.26134504037E+03  0.00000000000E+00 0. -1.
         22    1    3    3    0    0 -0.38036191816E+02  0.20692150182E+02 -0.31006512321E+02  0.53257119461E+02  0.00000000000E+00 0. -1.
</event>
<event>
 7    1  0.5537228E-006  0.9700583E+02  0.7818608E-02  0.1354407E+00
          2   -1    0    0  502    0  0.00000000000E+00  0.00000000000E+00  0.65619340912E+03  0.65619340912E+03  0.00000000000E+00 0. -1.
          1   -1    0    0  501    0 -0.00000000000E+00 -0.00000000000E+00 -0.10067578978E+03  0.10067578978E+03  0.00000000000E+00 0. -1.
         25    2    1    2    0    0  0.67610816925E+02  0.84051120275E+02  0.37549619880E+03  0.41019263886E+03  0.12499916912E+03 0.  0.
          2    1    1    2  501    0 -0.15943314896E+02 -0.95837929327E+02 -0.50949510989E+02  0.10970392271E+03  0.00000000000E+00 0. -1.
          1    1    1    2  502    0 -0.51667502030E+02  0.11786809053E+02  0.23097093153E+03  0.23697263733E+03  0.00000000000E+00 0. -1.
         22    1    3    3    0    0  0.29628076948E+02  0.11219812507E+03  0.29247055232E+03  0.31465102286E+03  0.00000000000E+00 0. -1.
         22    1    3    3    0    0  0.37982739977E+02 -0.28147004797E+02  0.83025646481E+02  0.95541616004E+02  0.00000000000E+00 0. -1.
</event>
<event>
 7    1  0.5537228E-006  0.1462639E+03  0.7818608E-02  0.1270929E+00
          2   -1    0    0  502    0  0.00000000000E+00  0.00000000000E+00  0.24988481153E+04  0.24988481153E+04  0.00000000000E+00 0. -1.
          1   -1    0    0  501    0 -0.00000000000E+00 -0.00000000000E+00 -0.16179035009E+03  0.16179035009E+03  0.00000000000E+00 0. -1.
         25    2    1    2    0    0 -0.16135790771E+03  0.48847027684E+02  0.84458724323E+03  0.87027317360E+03  0.12500151503E+03 0.  0.
          2    1    1    2  501    0  0.10660437961E+03 -0.99794291585E+02 -0.11207566022E+03  0.18407701649E+03  0.00000000000E+00 0. -1.
          1    1    1    2  502    0  0.54753528093E+02  0.50947263901E+02  0.16045461822E+04  0.16062882753E+04  0.00000000000E+00 0. -1.
         22    1    3    3    0    0 -0.10719599320E+03  0.77433668378E+02  0.39532535389E+03  0.41685619749E+03  0.00000000000E+00 0. -1.
         22    1    3    3    0    0 -0.54161914511E+02 -0.28586640694E+02  0.44926188934E+03  0.45341697611E+03  0.00000000000E+00 0. -1.
</event>
<event>
 7    1  0.5537228E-006  0.6410314E+02  0.7818608E-02  0.1435784E+00
          2   -1    0    0  502    0  0.00000000000E+00  0.00000000000E+00  0.19652579083E+04  0.19652579083E+04  0.00000000000E+00 0. -1.
          1   -1    0    0  501    0 -0.00000000000E+00 -0.00000000000E+00 -0.16070941159E+04  0.16070941159E+04  0.00000000000E+00 0. -1.
         25    2    1    2    0    0 -0.12123072859E+02  0.19914028887E+02  0.15040233796E+03  0.19695044999E+03  0.12500031618E+03 0.  0.
          2    1    1    2  501    0  0.20115918275E+02 -0.61028722718E+02 -0.15829233003E+04  0.15842270449E+04  0.00000000000E+00 0. -1.
          1    1    1    2  502    0 -0.79928454159E+01  0.41114693830E+02  0.17906847547E+04  0.17911745293E+04  0.00000000000E+00 0. -1.
         22    1    3    3    0    0 -0.99831575518E+01  0.45903302548E+02  0.27972558210E+01  0.47059550142E+02  0.00000000000E+00 0. -1.
         22    1    3    3    0    0 -0.21399153072E+01 -0.25989273660E+02  0.14760508214E+03  0.14989089984E+03  0.00000000000E+00 0. -1.
</event>
<event>
 7    1  0.5537228E-006  0.3751843E+02  0.7818608E-02  0.1588761E+00
          2   -1    0    0  502    0  0.00000000000E+00  0.00000000000E+00  0.14301155941E+04  0.14301155941E+04  0.00000000000E+00 0. -1.
          1   -1    0    0  501    0 -0.00000000000E+00 -0.00000000000E+00 -0.68400356877E+02  0.68400356877E+02  0.00000000000E+00 0. -1.
         25    2    1    2    0    0 -0.22212568071E+02  0.35148499321E+02  0.61633006256E+03  0.63025118319E+03  0.12499997083E+03 0.  0.
          2    1    1    2  501    0 -0.30695740732E+01 -0.37431835466E+02 -0.55480219704E+02  0.66997159416E+02  0.00000000000E+00 0. -1.
          1    1    1    2  502    0  0.25282142144E+02  0.22833361455E+01  0.80086539435E+03  0.80126760836E+03  0.00000000000E+00 0. -1.
         22    1    3    3    0    0 -0.35652536561E+02  0.85815781862E+01  0.58803571113E+03  0.58917802438E+03  0.00000000000E+00 0. -1.
         22    1    3    3    0    0  0.13439968491E+02  0.26566921135E+02  0.28294351434E+02  0.41073158811E+02  0.00000000000E+00 0. -1.
</event>
<event>
 7    1  0.5537228E-006  0.6997831E+02  0.7818608E-02  0.1465976E+00
          2   -1    0    0  502    0  0.00000000000E+00  0.00000000000E+00  0.13878602576E+03  0.13878602576E+03  0.00000000000E+00 0. -1.
          1   -1    0    0  501    0 -0.00000000000E+00 -0.00000000000E+00 -0.84753935989E+03  0.84753935989E+03  0.00000000000E+00 0. -1.
         25    2    1    2    0    0 -0.37933703974E+02  0.88080890905E+02 -0.53736126569E+03  0.55998353550E+03  0.12500888340E+03 0.  0.
          2    1    1    2  501    0 -0.13720187900E+01 -0.30693382703E+02 -0.28850150325E+03  0.29013287224E+03  0.00000000000E+00 0. -1.
          1    1    1    2  502    0  0.39305722764E+02 -0.57387508202E+02  0.11710943481E+03  0.13620897790E+03  0.00000000000E+00 0. -1.
         22    1    3    3    0    0 -0.17695542695E+02  0.56686380665E+02 -0.72914719364E+02  0.94037408961E+02  0.00000000000E+00 0.  1.
         22    1    3    3    0    0 -0.20238161280E+02  0.31394510241E+02 -0.46444654633E+03  0.46594612654E+03  0.00000000000E+00 0.  1.
</event>
<event>
 7    1  0.5537228E-006  0.6887782E+02  0.7818608E-02  0.1439443E+00
          2   -1    0    0  502    0  0.00000000000E+00  0.00000000000E+00  0.74384082691E+03  0.74384082691E+03  0.00000000000E+00 0. -1.
          1   -1    0    0  501    0 -0.00000000000E+00 -0.00000000000E+00 -0.27650385739E+03  0.27650385739E+03  0.00000000000E+00 0. -1.
         25    2    1    2    0    0  0.40330784333E+02  0.14909867740E+02 -0.11114953477E+03  0.17270842447E+03  0.12500041793E+03 0.  0.
          2    1    1    2  501    0 -0.78101070415E+02 -0.11474961438E+02 -0.12244177388E+03  0.14568266860E+03  0.00000000000E+00 0. -1.
          1    1    1    2  502    0  0.37770286081E+02 -0.34349063015E+01  0.70092827817E+03  0.70195359123E+03  0.00000000000E+00 0. -1.
         22    1    3    3    0    0  0.44642539002E+01  0.49198683785E+02 -0.11271330741E+03  0.12306392532E+03  0.00000000000E+00 0.  1.
         22    1    3    3    0    0  0.35866530433E+02 -0.34288816046E+02  0.15637726373E+01  0.49644499151E+02  0.00000000000E+00 0.  1.
</event>
<event>
 7    1  0.5537228E-006  0.3719341E+02  0.7818608E-02  0.1557777E+00
          2   -1    0    0  502    0  0.00000000000E+00  0.00000000000E+00  0.11056511001E+04  0.11056511001E+04  0.00000000000E+00 0. -1.
          1   -1    0    0  501    0 -0.00000000000E+00 -0.00000000000E+00 -0.10152859490E+04  0.10152859490E+04  0.00000000000E+00 0. -1.
         25    2    1    2    0    0 -0.54792290008E+02  0.40161123468E+02  0.75658740394E+02  0.16113423938E+03  0.12499954888E+03 0.  0.
          2    1    1    2  501    0  0.24117649072E+02 -0.19569538640E+02 -0.97195441832E+03  0.97245052272E+03  0.00000000000E+00 0. -1.
          1    1    1    2  502    0  0.30674640936E+02 -0.20591584828E+02  0.98666082907E+03  0.98735228697E+03  0.00000000000E+00 0. -1.
         22    1    3    3    0    0 -0.95020990759E+02  0.35742399199E+02  0.49502900480E+02  0.11294708912E+03  0.00000000000E+00 0. -1.
         22    1    3    3    0    0  0.40228700751E+02  0.44187242685E+01  0.26155839914E+02  0.48187150257E+02  0.00000000000E+00 0. -1.
</event>
<event>
 7    1  0.5537228E-006  0.4579425E+02  0.7818608E-02  0.1508061E+00
          2   -1    0    0  502    0  0.00000000000E+00  0.00000000000E+00  0.64719093767E+03  0.64719093767E+03  0.00000000000E+00 0. -1.
          1   -1    0    0  501    0 -0.00000000000E+00 -0.00000000000E+00 -0.11008851744E+03  0.11008851744E+03  0.00000000000E+00 0. -1.
         25    2    1    2    0    0  0.44350517391E+01 -0.43082471728E+02  0.28977262241E+02  0.13543227965E+03  0.12500580623E+03 0.  0.
          2    1    1    2  501    0  0.31779286523E+02  0.14604565364E+02 -0.50443341880E+02  0.61381977170E+02  0.00000000000E+00 0. -1.
          1    1    1    2  502    0 -0.36214338262E+02  0.28477906364E+02  0.55856849987E+03  0.56046519829E+03  0.00000000000E+00 0. -1.
         22    1    3    3    0    0  0.59509935766E+02 -0.48682760140E+01 -0.56633849732E+01  0.59976716279E+02  0.00000000000E+00 0. -1.
         22    1    3    3    0    0 -0.55074884027E+02 -0.38214195714E+02  0.34640647214E+02  0.75455563374E+02  0.00000000000E+00 0. -1.
</event>
<event>
 7    1  0.5537228E-006  0.6124157E+02  0.7818608E-02  0.1406126E+00
          2   -1    0    0  502    0  0.00000000000E+00  0.00000000000E+00  0.18179747742E+04  0.18179747742E+04  0.00000000000E+00 0. -1.
          1   -1    0    0  501    0 -0.00000000000E+00 -0.00000000000E+00 -0.98189418866E+03  0.98189418866E+03  0.00000000000E+00 0. -1.
         25    2    1    2    0    0  0.11074787052E+03 -0.34478989326E+01  0.24949024814E+03  0.30024598631E+03  0.12500115819E+03 0.  0.
          2    1    1    2  501    0 -0.59070363575E+02 -0.15546024540E+02 -0.95504924890E+03  0.95700055097E+03  0.00000000000E+00 0. -1.
          1    1    1    2  502    0 -0.51677506949E+02  0.18993923473E+02  0.15416395863E+04  0.15426224256E+04  0.00000000000E+00 0. -1.
         22    1    3    3    0    0  0.78994510488E+01 -0.45324649950E+02  0.31986970963E+02  0.56034735043E+02  0.00000000000E+00 0. -1.
         22    1    3    3    0    0  0.10284841948E+03  0.41876751018E+02  0.21750327718E+03  0.24421125127E+03  0.00000000000E+00 0. -1.
</event>
<event>
 7    1  0.5537228E-006  0.1868310E+03  0.7818608E-02  0.1210329E+00
          2   -1    0    0  502    0  0.00000000000E+00  0.00000000000E+00  0.27422867743E+04  0.27422867743E+04  0.00000000000E+00 0. -1.
          1   -1    0    0  501    0 -0.00000000000E+00 -0.00000000000E+00 -0.25302609173E+03  0.25302609173E+03  0.00000000000E+00 0. -1.
         25    2    1    2    0    0 -0.18168954485E+03 -0.81402440743E+02  0.39752494991E+03  0.46183116568E+03  0.12499796690E+03 0.  0.
          2    1    1    2  501    0  0.10408289096E+03  0.15695770127E+03 -0.17919991963E+03  0.25996457331E+03  0.00000000000E+00 0. -1.
          1    1    1    2  502    0  0.77606653893E+02 -0.75555260530E+02  0.22709356522E+04  0.22735171270E+04  0.00000000000E+00 0. -1.
         22    1    3    3    0    0  0.15517790663E+02  0.51697818453E+01  0.53561143179E+02  0.56002897515E+02  0.00000000000E+00 0.  1.
         22    1    3    3    0    0 -0.19720733552E+03 -0.86572222588E+02  0.34396380673E+03  0.40582826817E+03  0.00000000000E+00 0.  1.
</event>
<event>
 7    1  0.5537228E-006  0.1934194E+03  0.7818608E-02  0.1285029E+00
          2   -1    0    0  502    0  0.00000000000E+00  0.00000000000E+00  0.21390554541E+03  0.21390554541E+03  0.00000000000E+00 0. -1.
          1   -1    0    0  501    0 -0.00000000000E+00 -0.00000000000E+00 -0.14425660211E+04  0.14425660211E+04  0.00000000000E+00 0. -1.
         25    2    1    2    0    0 -0.14857522092E+03 -0.88213586949E+02 -0.12239367229E+03  0.24588565110E+03  0.12499323664E+03 0.  0.
          2    1    1    2  501    0 -0.43084588769E+02  0.24236580113E+02 -0.11906080877E+04  0.11916338834E+04  0.00000000000E+00 0. -1.
          1    1    1    2  502    0  0.19165980969E+03  0.63977006836E+02  0.84341284338E+02  0.21895203196E+03  0.00000000000E+00 0. -1.
         22    1    3    3    0    0 -0.13755970834E+03 -0.25027592394E+02 -0.48389029929E+02  0.14795456045E+03  0.00000000000E+00 0. -1.
         22    1    3    3    0    0 -0.11015512580E+02 -0.63185994555E+02 -0.74004642362E+02  0.97931090653E+02  0.00000000000E+00 0. -1.
</event>
<event>
 7    1  0.5537228E-006  0.9894998E+02  0.7818608E-02  0.1309259E+00
          2   -1    0    0  502    0  0.00000000000E+00  0.00000000000E+00  0.24955011049E+03  0.24955011049E+03  0.00000000000E+00 0. -1.
          1   -1    0    0  501    0 -0.00000000000E+00 -0.00000000000E+00 -0.25695463949E+03  0.25695463949E+03  0.00000000000E+00 0. -1.
         25    2    1    2    0    0  0.63961986621E+01  0.38975584503E+02 -0.18260308223E+03  0.22481193440E+03  0.12504604217E+03 0.  0.
          2    1    1    2  501    0  0.71268029510E+02  0.29697299513E+02 -0.10497382507E+01  0.77215047621E+02  0.00000000000E+00 0. -1.
          1    1    1    2  502    0 -0.77664228172E+02 -0.68672884016E+02  0.17624829148E+03  0.20447776795E+03  0.00000000000E+00 0. -1.
         22    1    3    3    0    0  0.27888517415E+02  0.19706633117E+02  0.54287970265E+01  0.34577342719E+02  0.00000000000E+00 0.  1.
         22    1    3    3    0    0 -0.21492318752E+02  0.19268951386E+02 -0.18803187926E+03  0.19023459168E+03  0.00000000000E+00 0.  1.
</event>
<event>
 7    1  0.5537228E-006  0.6965047E+02  0.7818608E-02  0.1397106E+00
          2   -1    0    0  502    0  0.00000000000E+00  0.00000000000E+00  0.13009167658E+04  0.13009167658E+04  0.00000000000E+00 0. -1.
          1   -1    0    0  501    0 -0.00000000000E+00 -0.00000000000E+00 -0.50212094121E+02  0.50212094121E+02  0.00000000000E+00 0. -1.
         25    2    1    2    0    0 -0.31074997225E+01  0.50863813294E+02  0.31187414135E+03  0.33983477729E+03  0.12500164702E+03 0.  0.
          2    1    1    2  501    0 -0.51901210711E+02 -0.29644885170E+01 -0.15447611580E+02  0.54232394092E+02  0.00000000000E+00 0. -1.
          1    1    1    2  502    0  0.55008710434E+02 -0.47899324777E+02  0.95427814186E+03  0.95706168849E+03  0.00000000000E+00 0. -1.
         22    1    3    3    0    0  0.61066654541E+01  0.69286303935E+02  0.31156472257E+03  0.31923417679E+03  0.00000000000E+00 0. -1.
         22    1    3    3    0    0 -0.92141651766E+01 -0.18422490641E+02  0.30941877882E+00  0.20600600509E+02  0.00000000000E+00 0. -1.
</event>
<event>
 7    1  0.5537228E-006  0.9372052E+02  0.7818608E-02  0.1297693E+00
          2   -1    0    0  502    0  0.00000000000E+00  0.00000000000E+00  0.97339676079E+03  0.97339676079E+03  0.00000000000E+00 0. -1.
          1   -1    0    0  501    0 -0.00000000000E+00 -0.00000000000E+00 -0.28695888969E+04  0.28695888969E+04  0.00000000000E+00 0. -1.
         25    2    1    2    0    0 -0.29734728983E+02  0.15765854349E+03 -0.11869684011E+03  0.23549045804E+03  0.12500578200E+03 0.  0.
          2    1    1    2  501    0  0.59082866742E+02 -0.71907677239E+02 -0.26894439685E+04  0.26910537637E+04  0.00000000000E+00 0. -1.
          1    1    1    2  502    0 -0.29348137759E+02 -0.85750866250E+02  0.91194867252E+03  0.91644143597E+03  0.00000000000E+00 0. -1.
         22    1    3    3    0    0 -0.40281366555E+02  0.17517263709E+03 -0.11803446952E+03  0.21503529308E+03  0.00000000000E+00 0.  1.
         22    1    3    3    0    0  0.10546637571E+02 -0.17514093600E+02 -0.66237058596E+00  0.20455164958E+02  0.00000000000E+00 0.  1.
</event>
<event>
 7    1  0.5537228E-006  0.5034419E+02  0.7818608E-02  0.1568888E+00
          2   -1    0    0  502    0  0.00000000000E+00  0.00000000000E+00  0.14682962697E+04  0.14682962697E+04  0.00000000000E+00 0. -1.
          1   -1    0    0  501    0 -0.00000000000E+00 -0.00000000000E+00 -0.38467113101E+02  0.38467113101E+02  0.00000000000E+00 0. -1.
         25    2    1    2    0    0  0.79383592626E+01 -0.44140773900E+02  0.21335614541E+03  0.25131156102E+03  0.12500092179E+03 0.  0.
          2    1    1    2  501    0  0.12599689900E+02  0.50123591574E+02  0.15037850439E+02  0.53826234901E+02  0.00000000000E+00 0. -1.
          1    1    1    2  502    0 -0.20538049162E+02 -0.59828176738E+01  0.12014351608E+04  0.12016255869E+04  0.00000000000E+00 0. -1.
         22    1    3    3    0    0  0.57199618735E+02 -0.30766117683E+02  0.55580319106E+02  0.85484046773E+02  0.00000000000E+00 0. -1.
         22    1    3    3    0    0 -0.49261259472E+02 -0.13374656216E+02  0.15777582631E+03  0.16582751424E+03  0.00000000000E+00 0. -1.
</event>
<event>
 7    1  0.5537228E-006  0.9003106E+02  0.7818608E-02  0.1433051E+00
          2   -1    0    0  502    0  0.00000000000E+00  0.00000000000E+00  0.22166296699E+04  0.22166296699E+04  0.00000000000E+00 0. -1.
          1   -1    0    0  501    0 -0.00000000000E+00 -0.00000000000E+00 -0.23404352807E+03  0.23404352807E+03  0.00000000000E+00 0. -1.
         25    2    1    2    0    0  0.55821028284E+02  0.10448005470E+03  0.16156600619E+03  0.23613308647E+03  0.12499276435E+03 0.  0.
          2    1    1    2  501    0 -0.37103586568E+02 -0.80471659732E+02 -0.18666165536E+03  0.20662753383E+03  0.00000000000E+00 0. -1.
          1    1    1    2  502    0 -0.18717441716E+02 -0.24008394966E+02  0.20076817910E+04  0.20079125776E+04  0.00000000000E+00 0. -1.
         22    1    3    3    0    0 -0.36049420789E+02  0.57347639102E+02  0.77936445228E+02  0.10325890734E+03  0.00000000000E+00 0.  1.
         22    1    3    3    0    0  0.91870449073E+02  0.47132415595E+02  0.83629560964E+02  0.13287417913E+03  0.00000000000E+00 0.  1.
</event>
<event>
 7    1  0.5537228E-006  0.8691244E+02  0.7818608E-02  0.1381522E+00
          2   -1    0    0  502    0  0.00000000000E+00  0.00000000000E+00  0.16026913660E+04  0.16026913660E+04  0.00000000000E+00 0. -1.
          1   -1    0    0  501    0 -0.00000000000E+00 -0.00000000000E+00 -0.82107810012E+03  0.82107810012E+03  0.00000000000E+00 0. -1.
         25    2    1    2    0    0  0.21200455943E+02 -0.82233912900E+02  0.45211662712E+03  0.47670299523E+03  0.12499770150E+03 0.  0.
          2    1    1    2  501    0  0.26017665086E+02  0.83004571262E+02 -0.80595377856E+03  0.81063442495E+03  0.00000000000E+00 0. -1.
          1    1    1    2  502    0 -0.47218121029E+02 -0.77065836177E+00  0.11354504173E+04  0.11364320460E+04  0.00000000000E+00 0. -1.
         22    1    3    3    0    0 -0.28893008729E+02 -0.37472178141E+01  0.27558771846E+03  0.27712350705E+03  0.00000000000E+00 0.  1.
         22    1    3    3    0    0  0.50093464672E+02 -0.78486695086E+02  0.17652890865E+03  0.19957948817E+03  0.00000000000E+00 0.  1.
</event>
<event>
 7    1  0.5537228E-006  0.4656936E+03  0.7818608E-02  0.1098025E+00
          2   -1    0    0  502    0  0.00000000000E+00  0.00000000000E+00  0.20571280848E+04  0.20571280848E+04  0.00000000000E+00 0. -1.
          1   -1    0    0  501    0 -0.00000000000E+00 -0.00000000000E+00 -0.30981592605E+03  0.30981592605E+03  0.00000000000E+00 0. -1.
         25    2    1    2    0    0  0.47351182265E+02  0.36001296167E+03  0.59985700668E+03  0.71225209931E+03  0.12499262971E+03 0.  0.
          2    1    1    2  501    0  0.22422738824E+02 -0.50765164777E+03  0.12759919486E+02  0.50830678752E+03  0.00000000000E+00 0. -1.
          1    1    1    2  502    0 -0.69773921089E+02  0.14763868610E+03  0.11346952326E+04  0.11463851240E+04  0.00000000000E+00 0. -1.
         22    1    3    3    0    0 -0.27161470279E+02  0.75290359680E+02  0.70880649783E+02  0.10691328375E+03  0.00000000000E+00 0. -1.
         22    1    3    3    0    0  0.74512652544E+02  0.28472260199E+03  0.52897635690E+03  0.60533881556E+03  0.00000000000E+00 0. -1.
</event>
<event>
 7    1  0.5537228E-006  0.1933345E+03  0.7818608E-02  0.1217781E+00
          2   -1    0    0  502    0  0.00000000000E+00  0.00000000000E+00  0.14317002204E+03  0.14317002204E+03  0.00000000000E+00 0. -1.
          1   -1    0    0  501    0 -0.00000000000E+00 -0.00000000000E+00 -0.12419562146E+04  0.12419562146E+04  0.00000000000E+00 0. -1.
         25    2    1    2    0    0  0.11319200671E+03 -0.59524699143E+02 -0.25473301479E+03  0.31122578352E+03  0.12496783311E+03 0.  0.
          2    1    1    2  501    0 -0.19669918513E+03  0.10831343643E+03 -0.92245917146E+03  0.94939627814E+03  0.00000000000E+00 0. -1.
          1    1    1    2  502    0  0.83507178422E+02 -0.48788737283E+02  0.78405993702E+02  0.12450417496E+03  0.00000000000E+00 0. -1.
         22    1    3    3    0    0  0.25551338480E+02 -0.23427153003E+02 -0.19746533719E+03  0.20048506624E+03  0.00000000000E+00 0. -1.
         22    1    3    3    0    0  0.87640668225E+02 -0.36097546140E+02 -0.57267677602E+02  0.11074071727E+03  0.00000000000E+00 0. -1.
</event>
<event>
 7    1  0.5537228E-006  0.9262654E+02  0.7818608E-02  0.1308262E+00
          2   -1    0    0  502    0  0.00000000000E+00  0.00000000000E+00  0.11789870165E+04  0.11789870165E+04  0.00000000000E+00 0. -1.
          1   -1    0    0  501    0 -0.00000000000E+00 -0.00000000000E+00 -0.10108833719E+04  0.10108833719E+04  0.00000000000E+00 0. -1.
         25    2    1    2    0    0 -0.34169658837E+02 -0.15205400205E+03  0.22924308178E+03  0.30408070313E+03  0.12499879337E+03 0.  0.
          2    1    1    2  501    0 -0.21067519198E+02  0.89795816630E+02 -0.96937272680E+03  0.97375079590E+03  0.00000000000E+00 0. -1.
          1    1    1    2  502    0  0.55237178035E+02  0.62258185425E+02  0.90823328964E+03  0.91203888946E+03  0.00000000000E+00 0. -1.
         22    1    3    3    0    0 -0.21632077088E+02 -0.42473287162E+02  0.17460413547E+03  0.18099317944E+03  0.00000000000E+00 0.  1.
         22    1    3    3    0    0 -0.12537581749E+02 -0.10958071489E+03  0.54638946305E+02  0.12308752368E+03  0.00000000000E+00 0.  1.
</event>
<event>
 7    1  0.5537228E-006  0.8911019E+02  0.7818608E-02  0.1469686E+00
          2   -1    0    0  502    0  0.00000000000E+00  0.00000000000E+00  0.42907159640E+03  0.42907159640E+03  0.00000000000E+00 0. -1.
          1   -1    0    0  501    0 -0.00000000000E+00 -0.00000000000E+00 -0.21780288984E+03  0.21780288984E+03  0.00000000000E+00 0. -1.
         25    2    1    2    0    0  0.28795535717E+02  0.82003881148E+02 -0.79268451767E+02  0.17164456327E+03  0.12499819700E+03 0.  0.
          2    1    1    2  501    0 -0.51325138904E+02 -0.75344978444E+02 -0.69369816625E+02  0.11455700380E+03  0.00000000000E+00 0. -1.
          1    1    1    2  502    0  0.22529603188E+02 -0.66589027045E+01  0.35990697495E+03  0.36067291917E+03  0.00000000000E+00 0. -1.
         22    1    3    3    0    0  0.27054988103E+02  0.10470237552E+03 -0.95024235882E+02  0.14395890117E+03  0.00000000000E+00 0. -1.
         22    1    3    3    0    0  0.17405476134E+01 -0.22698494373E+02  0.15755784115E+02  0.27685662099E+02  0.00000000000E+00 0. -1.
</event>
<event>
 7    1  0.5537228E-006  0.9586588E+02  0.7818608E-02  0.1377623E+00
          2   -1    0    0  502    0  0.00000000000E+00  0.00000000000E+00  0.17962675459E+04  0.17962675459E+04  0.00000000000E+00 0. -1.
          1   -1    0    0  501    0 -0.00000000000E+00 -0.00000000000E+00 -0.47591749690E+02  0.47591749690E+02  0.00000000000E+00 0. -1.
         25    2    1    2    0    0 -0.36131020015E+02 -0.41146115604E+02  0.17601444444E+03  0.22270179272E+03  0.12496619700E+03 0.  0.
          2    1    1    2  501    0 -0.23032643689E+02 -0.37721893538E+02 -0.11970728790E+01  0.44213989990E+02  0.00000000000E+00 0. -1.
          1    1    1    2  502    0  0.59163663703E+02  0.78868009142E+02  0.15738584246E+04  0.15769435129E+04  0.00000000000E+00 0. -1.
         22    1    3    3    0    0 -0.73870802292E+02 -0.18838561815E+02  0.15775860624E+03  0.17521291244E+03  0.00000000000E+00 0.  1.
         22    1    3    3    0    0  0.37739782277E+02 -0.22307553789E+02  0.18255838205E+02  0.47488880287E+02  0.00000000000E+00 0.  1.
</event>
<event>
 7    1  0.5537228E-006  0.5074903E+02  0.7818608E-02  0.1496545E+00
          2   -1    0    0  502    0  0.00000000000E+00  0.00000000000E+00  0.15214547647E+04  0.15214547647E+04  0.00000000000E+00 0. -1.
          1   -1    0    0  501    0 -0.00000000000E+00 -0.00000000000E+00 -0.92810893579E+02  0.92810893579E+02  0.00000000000E+00 0. -1.
         25    2    1    2    0    0 -0.74148518383E+01 -0.83954409523E+02  0.69400041053E+02  0.16596577786E+03  0.12499980327E+03 0.  0.
          2    1    1    2  501    0 -0.51180453203E+00  0.34146374230E+02 -0.37457484494E+02  0.50688262562E+02  0.00000000000E+00 0. -1.
          1    1    1    2  502    0  0.79266563703E+01  0.49808035292E+02  0.13967013145E+04  0.13976116178E+04  0.00000000000E+00 0. -1.
         22    1    3    3    0    0  0.31860184810E+02  0.20486542968E+02  0.83992513557E+01  0.38798418038E+02  0.00000000000E+00 0. -1.
         22    1    3    3    0    0 -0.39275036649E+02 -0.10444095249E+03  0.61000789697E+02  0.12716735982E+03  0.00000000000E+00 0. -1.
</event>
<event>
 7    1  0.5537228E-006  0.3900781E+02  0.7818608E-02  0.1529006E+00
          2   -1    0    0  502    0  0.00000000000E+00  0.00000000000E+00  0.15725597528E+04  0.15725597528E+04  0.00000000000E+00 0. -1.
          1   -1    0    0  501    0 -0.00000000000E+00 -0.00000000000E+00 -0.57734904098E+03  0.57734904098E+03  0.00000000000E+00 0. -1.
         25    2    1    2    0    0 -0.48525143571E+02 -0.37816445303E+01  0.29792413023E+03  0.32673043911E+03  0.12500000831E+03 0.  0.
          2    1    1    2  501    0  0.29011357044E+02 -0.26093419763E+02 -0.56201671148E+03  0.56336960281E+03  0.00000000000E+00 0. -1.
          1    1    1    2  502    0  0.19513786527E+02  0.29875064293E+02  0.12593032931E+04  0.12598087519E+04  0.00000000000E+00 0. -1.
         22    1    3    3    0    0 -0.17557268259E+01  0.32351859268E+02  0.11667444016E+02  0.34436239990E+02  0.00000000000E+00 0.  1.
         22    1    3    3    0    0 -0.46769416745E+02 -0.36133503798E+02  0.28625668621E+03  0.29229419912E+03  0.00000000000E+00 0.  1.
</event>
<event>
 7    1  0.5537228E-006  0.4996800E+02  0.7818608E-02  0.1509546E+00
          2   -1    0    0  502    0  0.00000000000E+00  0.00000000000E+00  0.37105237244E+03  0.37105237244E+03  0.00000000000E+00 0. -1.
          1   -1    0    0  501    0 -0.00000000000E+00 -0.00000000000E+00 -0.59678220895E+03  0.59678220895E+03  0.00000000000E+00 0. -1.
         25    2    1    2    0    0  0.33676588702E+01 -0.69117664357E+02 -0.68951815608E+02  0.15864462199E+03  0.12500068223E+03 0.  0.
          2    1    1    2  501    0 -0.22807113220E+02  0.44037622083E+02 -0.48093417772E+03  0.48348439465E+03  0.00000000000E+00 0. -1.
          1    1    1    2  502    0  0.19439454350E+02  0.25080042274E+02  0.32415615681E+03  0.32570556475E+03  0.00000000000E+00 0. -1.
         22    1    3    3    0    0 -0.71673296118E+01 -0.44962892194E+02  0.31127561560E+02  0.55153942532E+02  0.00000000000E+00 0. -1.
         22    1    3    3    0    0  0.10534988482E+02 -0.24154772163E+02 -0.10007937717E+03  0.10349067946E+03  0.00000000000E+00 0. -1.
</event>
<event>
 7    1  0.5537228E-006  0.5125172E+02  0.7818608E-02  0.1514633E+00
          2   -1    0    0  502    0  0.00000000000E+00  0.00000000000E+00  0.14409126549E+04  0.14409126549E+04  0.00000000000E+00 0. -1.
          1   -1    0    0  501    0 -0.00000000000E+00 -0.00000000000E+00 -0.20831108720E+03  0.20831108720E+03  0.00000000000E+00 0. -1.
         25    2    1    2    0    0  0.77172346107E+02 -0.13881170200E+02  0.16768659728E+02  0.14851094842E+03  0.12500422378E+03 0.  0.
          2    1    1    2  501    0 -0.29545241116E+02 -0.45356755758E+01 -0.14038595149E+03  0.14353295441E+03  0.00000000000E+00 0. -1.
          1    1    1    2  502    0 -0.47627104991E+02  0.18416845776E+02  0.13562188595E+04  0.13571798393E+04  0.00000000000E+00 0. -1.
         22    1    3    3    0    0  0.50272770099E+02  0.12424076139E+02 -0.49928069379E+02  0.71934144836E+02  0.00000000000E+00 0. -1.
         22    1    3    3    0    0  0.26899576008E+02 -0.26305246339E+02  0.66696729107E+02  0.76576803589E+02  0.00000000000E+00 0. -1.
</event>
<event>
 7    1  0.5537228E-006  0.1007460E+03  0.7818608E-02  0.1290074E+00
          2   -1    0    0  502    0  0.00000000000E+00  0.00000000000E+00  0.58551239307E+03  0.58551239307E+03  0.00000000000E+00 0. -1.
          1   -1    0    0  501    0 -0.00000000000E+00 -0.00000000000E+00 -0.10351998366E+04  0.10351998366E+04  0.00000000000E+00 0. -1.
         25    2    1    2    0    0 -0.16355606847E+02 -0.85115060459E+01  0.98009377291E+02  0.15990821572E+03  0.12499939123E+03 0.  0.
          2    1    1    2  501    0  0.30394885035E+02  0.97926335196E+02 -0.99710955085E+03  0.10023676334E+04  0.00000000000E+00 0. -1.
          1    1    1    2  502    0 -0.14039278188E+02 -0.89414829150E+02  0.44941273006E+03  0.45843638048E+03  0.00000000000E+00 0. -1.
         22    1    3    3    0    0  0.38214484824E+02 -0.35595346998E+01  0.97856375061E+02  0.10511368739E+03  0.00000000000E+00 0. -1.
         22    1    3    3    0    0 -0.54570091671E+02 -0.49519713461E+01  0.15300222995E+00  0.54794528330E+02  0.00000000000E+00 0. -1.
</event>
<event>
 7    1  0.5537228E-006  0.1355440E+03  0.7818608E-02  0.1287005E+00
          2   -1    0    0  502    0  0.00000000000E+00  0.00000000000E+00  0.59186160884E+03  0.59186160884E+03  0.00000000000E+00 0. -1.
          1   -1    0    0  501    0 -0.00000000000E+00 -0.00000000000E+00 -0.59474505135E+03  0.59474505135E+03  0.00000000000E+00 0. -1.
         25    2    1    2    0    0  0.15785068706E+03  0.79610788180E+01  0.14901721025E+03  0.25062324327E+03  0.12500265171E+03 0.  0.
          2    1    1    2  501    0 -0.11858809884E+03 -0.64992827894E+02 -0.53236397499E+03  0.54927097751E+03  0.00000000000E+00 0. -1.
          1    1    1    2  502    0 -0.39262588228E+02  0.57031749076E+02  0.38046332223E+03  0.38671243942E+03  0.00000000000E+00 0. -1.
         22    1    3    3    0    0  0.45640055803E+02 -0.52004519484E+02  0.80389373066E+02  0.10606571568E+03  0.00000000000E+00 0. -1.
         22    1    3    3    0    0  0.11221063126E+03  0.59965598302E+02  0.68627837184E+02  0.14455752759E+03  0.00000000000E+00 0. -1.
</event>
<event>
 7    1  0.5537228E-006  0.1251022E+03  0.7818608E-02  0.1332590E+00
          2   -1    0    0  502    0  0.00000000000E+00  0.00000000000E+00  0.63679480562E+03  0.63679480562E+03  0.00000000000E+00 0. -1.
          1   -1    0    0  501    0 -0.00000000000E+00 -0.00000000000E+00 -0.40240925141E+03  0.40240925141E+03  0.00000000000E+00 0. -1.
         25    2    1    2    0    0  0.62009546793E+02  0.51389863645E+02 -0.10012662155E+03  0.17926662942E+03  0.12500032840E+03 0.  0.
          2    1    1    2  501    0  0.21592273531E+02  0.44644961978E+02 -0.25349613789E+03  0.25830155019E+03  0.00000000000E+00 0. -1.
          1    1    1    2  502    0 -0.83601820324E+02 -0.96034825624E+02  0.58800831364E+03  0.60163587743E+03  0.00000000000E+00 0. -1.
         22    1    3    3    0    0  0.24721028210E+02  0.75988560601E+02 -0.10754600603E+03  0.13398333475E+03  0.00000000000E+00 0.  1.
         22    1    3    3    0    0  0.37288518583E+02 -0.24598696955E+02  0.74193844786E+01  0.45283294669E+02  0.00000000000E+00 0.  1.
</event>
<event>
 7    1  0.5537228E-006  0.1579371E+03  0.7818608E-02  0.1249612E+00
          2   -1    0    0  502    0  0.00000000000E+00  0.00000000000E+00  0.10135098493E+03  0.10135098493E+03  0.00000000000E+00 0. -1.
          1   -1    0    0  501    0 -0.00000000000E+00 -0.00000000000E+00 -0.98480363764E+03  0.98480363764E+03  0.00000000000E+00 0. -1.
         25    2    1    2    0    0 -0.89004581675E+02 -0.11571455802E+02 -0.36104113114E+03  0.39246989807E+03  0.12500483338E+03 0.  0.
          2    1    1    2  501    0 -0.82673247887E+02 -0.21398649261E+02 -0.51144550495E+03  0.51852605782E+03  0.00000000000E+00 0. -1.
          1    1    1    2  502    0  0.17167782956E+03  0.32970105064E+02 -0.10966016623E+02  0.17515866668E+03  0.00000000000E+00 0. -1.
         22    1    3    3    0    0 -0.93982156214E+02  0.26382756858E+02 -0.32694877412E+03  0.34120990086E+03  0.00000000000E+00 0. -1.
         22    1    3    3    0    0  0.49775745393E+01 -0.37954212660E+02 -0.34092357026E+02  0.51259997215E+02  0.00000000000E+00 0. -1.
</event>
<event>
 7    1  0.5537228E-006  0.4738601E+02  0.7818608E-02  0.1496758E+00
          2   -1    0    0  502    0  0.00000000000E+00  0.00000000000E+00  0.53607700921E+02  0.53607700921E+02  0.00000000000E+00 0. -1.
          1   -1    0    0  501    0 -0.00000000000E+00 -0.00000000000E+00 -0.25670027851E+03  0.25670027851E+03  0.00000000000E+00 0. -1.
         25    2    1    2    0    0  0.47669737950E+01 -0.26236343724E+02 -0.96517940788E+02  0.16018215975E+03  0.12502616381E+03 0.  0.
          2    1    1    2  501    0 -0.26630452043E+02 -0.24990690074E+02 -0.80969819446E+02  0.88824699422E+02  0.00000000000E+00 0. -1.
          1    1    1    2  502    0  0.21863478248E+02  0.51227033798E+02 -0.25604817352E+02  0.61301120254E+02  0.00000000000E+00 0. -1.
         22    1    3    3    0    0 -0.42655895757E+02  0.70269666423E+01 -0.92516399198E+02  0.10211849893E+03  0.00000000000E+00 0. -1.
         22    1    3    3    0    0  0.47422869552E+02 -0.33263310366E+02 -0.40015415904E+01  0.58063660823E+02  0.00000000000E+00 0. -1.
</event>
<event>
 7    1  0.5537228E-006  0.1249043E+03  0.7818608E-02  0.1436271E+00
          2   -1    0    0  502    0  0.00000000000E+00  0.00000000000E+00  0.70364182763E+03  0.70364182763E+03  0.00000000000E+00 0. -1.
          1   -1    0    0  501    0 -0.00000000000E+00 -0.00000000000E+00 -0.10533802024E+04  0.10533802024E+04  0.00000000000E+00 0. -1.
         25    2    1    2    0    0  0.29976277903E+02  0.12078955817E+03  0.49067000414E+02  0.18308854736E+03  0.12500060418E+03 0.  0.
          2    1    1    2  501    0 -0.89118720306E+01 -0.12466203831E+03 -0.98221316902E+03  0.99013269548E+03  0.00000000000E+00 0. -1.
          1    1    1    2  502    0 -0.21064405872E+02  0.38724801337E+01  0.58340779381E+03  0.58380078723E+03  0.00000000000E+00 0. -1.
         22    1    3    3    0    0  0.50802073626E+02  0.19121058822E+02 -0.20638333901E+02  0.58072423760E+02  0.00000000000E+00 0. -1.
         22    1    3    3    0    0 -0.20825795723E+02  0.10166849935E+03  0.69705334315E+02  0.12501612360E+03  0.00000000000E+00 0. -1.
</event>
<event>
 7    1  0.5537228E-006  0.9615889E+02  0.7818608E-02  0.1424869E+00
          2   -1    0    0  502    0  0.00000000000E+00  0.00000000000E+00  0.69829173886E+03  0.69829173886E+03  0.00000000000E+00 0. -1.
          1   -1    0    0  501    0 -0.00000000000E+00 -0.00000000000E+00 -0.13918156938E+04  0.13918156938E+04  0.00000000000E+00 0. -1.
         25    2    1    2    0    0 -0.85964514124E+02  0.86604310807E+02  0.22219063690E+01  0.17470840407E+03  0.12501154044E+03 0.  0.
          2    1    1    2  501    0  0.57339049486E+02 -0.76581984889E+02 -0.13034411526E+04  0.13069473613E+04  0.00000000000E+00 0. -1.
          1    1    1    2  502    0  0.28625464637E+02 -0.10022325918E+02  0.60769529133E+03  0.60845166722E+03  0.00000000000E+00 0. -1.
         22    1    3    3    0    0 -0.11320492793E+03  0.61381469733E+02  0.24962946031E+02  0.13117236450E+03  0.00000000000E+00 0.  1.
         22    1    3    3    0    0  0.27240413805E+02  0.25222841074E+02 -0.22741039662E+02  0.43536039566E+02  0.00000000000E+00 0.  1.
</event>
<event>
 7    1  0.5537228E-006  0.9494339E+02  0.7818608E-02  0.1406883E+00
          2   -1    0    0  502    0  0.00000000000E+00  0.00000000000E+00  0.24666606925E+03  0.24666606925E+03  0.00000000000E+00 0. -1.
          1   -1    0    0  501    0 -0.00000000000E+00 -0.00000000000E+00 -0.91679157007E+03  0.91679157007E+03  0.00000000000E+00 0. -1.
         25    2    1    2    0    0 -0.65545252056E+02 -0.10865821743E+03 -0.55161172932E+03  0.57965720583E+03  0.12499675220E+03 0.  0.
          2    1    1    2  501    0  0.69679486219E+01  0.34609180588E+02 -0.34062744472E+03  0.34245204597E+03  0.00000000000E+00 0. -1.
          1    1    1    2  502    0  0.58577303434E+02  0.74049036838E+02  0.22211367322E+03  0.24134838753E+03  0.00000000000E+00 0. -1.
         22    1    3    3    0    0 -0.15437935820E+02 -0.11525629974E+03 -0.27675806921E+03  0.30019555853E+03  0.00000000000E+00 0.  1.
         22    1    3    3    0    0 -0.50107316236E+02  0.65980823108E+01 -0.27485366011E+03  0.27946164729E+03  0.00000000000E+00 0.  1.
</event>
<event>
 7    1  0.5537228E-006  0.8547820E+02  0.7818608E-02  0.1374170E+00
          2   -1    0    0  502    0  0.00000000000E+00  0.00000000000E+00  0.59898713195E+03  0.59898713195E+03  0.00000000000E+00 0. -1.
          1   -1    0    0  501    0 -0.00000000000E+00 -0.00000000000E+00 -0.81317598712E+03  0.81317598712E+03  0.00000000000E+00 0. -1.
         25    2    1    2    0    0  0.12277108290E+02  0.12230523145E+03  0.53618811037E+02  0.18331040460E+03  0.12497371927E+03 0.  0.
          2    1    1    2  501    0 -0.35664626260E+02 -0.76991446511E+02 -0.74456089807E+03  0.74938013006E+03  0.00000000000E+00 0. -1.
          1    1    1    2  502    0  0.23387517969E+02 -0.45313784942E+02  0.47675323186E+03  0.47947258440E+03  0.00000000000E+00 0. -1.
         22    1    3    3    0    0 -0.15207926821E+02  0.14054676904E+03  0.35851894699E+02  0.14584249614E+03  0.00000000000E+00 0.  1.
         22    1    3    3    0    0  0.27485035111E+02 -0.18241537586E+02  0.17766916338E+02  0.37467908465E+02  0.00000000000E+00 0.  1.
</event>
<event>
 7    1  0.5537228E-006  0.9934538E+02  0.7818608E-02  0.1330166E+00
          2   -1    0    0  502    0  0.00000000000E+00  0.00000000000E+00  0.10859438281E+04  0.10859438281E+04  0.00000000000E+00 0. -1.
          1   -1    0    0  501    0 -0.00000000000E+00 -0.00000000000E+00 -0.53805486206E+02  0.53805486206E+02  0.00000000000E+00 0. -1.
         25    2    1    2    0    0 -0.70276039065E+01  0.10066559186E+03  0.30851436838E+03  0.34783327853E+03  0.12499570214E+03 0.  0.
          2    1    1    2  501    0  0.66788817024E+02 -0.78346826419E+02  0.48532648411E+02  0.11381735040E+03  0.00000000000E+00 0. -1.
          1    1    1    2  502    0 -0.59761213118E+02 -0.22318765440E+02  0.67509132508E+03  0.67809868536E+03  0.00000000000E+00 0. -1.
         22    1    3    3    0    0  0.21331506445E+02  0.10455630843E+03  0.29931274262E+03  0.31776590864E+03  0.00000000000E+00 0. -1.
         22    1    3    3    0    0 -0.28359110352E+02 -0.38907165702E+01  0.92016257598E+01  0.30067369888E+02  0.00000000000E+00 0. -1.
</event>
<event>
 7    1  0.5537228E-006  0.5384710E+02  0.7818608E-02  0.1477530E+00
          2   -1    0    0  502    0  0.00000000000E+00  0.00000000000E+00  0.23715346852E+04  0.23715346852E+04  0.00000000000E+00 0. -1.
          1   -1    0    0  501    0 -0.00000000000E+00 -0.00000000000E+00 -0.26125814510E+03  0.26125814510E+03  0.00000000000E+00 0. -1.
         25    2    1    2    0    0  0.27422874604E+02 -0.12280952252E+01  0.83260662068E+03  0.84238512550E+03  0.12500157034E+03 0.  0.
          2    1    1    2  501    0 -0.43601312432E+02 -0.31785007572E+02 -0.25330673359E+03  0.25898969562E+03  0.00000000000E+00 0. -1.
          1    1    1    2  502    0  0.16178437828E+02  0.33013102798E+02  0.15309766530E+04  0.15314180092E+04  0.00000000000E+00 0. -1.
         22    1    3    3    0    0  0.68301661785E+02 -0.15354072759E+01  0.27791449482E+03  0.28618864567E+03  0.00000000000E+00 0. -1.
         22    1    3    3    0    0 -0.40878787182E+02  0.30731205063E+00  0.55469212587E+03  0.55619647984E+03  0.00000000000E+00 0. -1.
</event>
<event>
 7    1  0.5537228E-006  0.5261217E+02  0.7818608E-02  0.1503028E+00
          2   -1    0    0  502    0  0.00000000000E+00  0.00000000000E+00  0.11394669128E+04  0.11394669128E+04  0.00000000000E+00 0. -1.
          1   -1    0    0  501    0 -0.00000000000E+00 -0.00000000000E+00 -0.37814849439E+02  0.37814849439E+02  0.00000000000E+00 0. -1.
         25    2    1    2    0    0  0.12899199735E+02 -0.55608973409E+02  0.16162428099E+03  0.21214998565E+03  0.12500584358E+03 0.  0.
          2    1    1    2  501    0 -0.30921277977E+02  0.60384660117E+01  0.92144210539E+01  0.32825204628E+02  0.00000000000E+00 0. -1.
          1    1    1    2  502    0  0.18022078242E+02  0.49570507398E+02  0.93081336130E+03  0.93230657194E+03  0.00000000000E+00 0. -1.
         22    1    3    3    0    0  0.68363231106E+02 -0.29625495822E+02  0.10491567420E+03  0.12867983549E+03  0.00000000000E+00 0. -1.
         22    1    3    3    0    0 -0.55464031371E+02 -0.25983477587E+02  0.56708606787E+02  0.83470150156E+02  0.00000000000E+00 0. -1.
</event>
<event>
 7    1  0.5537228E-006  0.5507064E+02  0.7818608E-02  0.1467113E+00
          2   -1    0    0  502    0  0.00000000000E+00  0.00000000000E+00  0.11907142096E+03  0.11907142096E+03  0.00000000000E+00 0. -1.
          1   -1    0    0  501    0 -0.00000000000E+00 -0.00000000000E+00 -0.31924329727E+03  0.31924329727E+03  0.00000000000E+00 0. -1.
         25    2    1    2    0    0  0.22264786092E+02 -0.62601341096E+02 -0.23053539350E+03  0.27053013238E+03  0.12500134504E+03 0.  0.
          2    1    1    2  501    0  0.22978933990E+02  0.31167734887E+02 -0.54349531380E+02  0.66733280052E+02  0.00000000000E+00 0. -1.
          1    1    1    2  502    0 -0.45243720081E+02  0.31433606209E+02  0.84713048567E+02  0.10105130580E+03  0.00000000000E+00 0. -1.
         22    1    3    3    0    0  0.53347048114E+02  0.14939291439E+02 -0.11819055752E+03  0.13053006495E+03  0.00000000000E+00 0. -1.
         22    1    3    3    0    0 -0.31082262022E+02 -0.77540632535E+02 -0.11234483598E+03  0.14000006742E+03  0.00000000000E+00 0. -1.
</event>
<event>
 7    1  0.5537228E-006  0.1188021E+03  0.7818608E-02  0.1433301E+00
          2   -1    0    0  502    0  0.00000000000E+00  0.00000000000E+00  0.23392920641E+03  0.23392920641E+03  0.00000000000E+00 0. -1.
          1   -1    0    0  501    0 -0.00000000000E+00 -0.00000000000E+00 -0.11690889524E+04  0.11690889524E+04  0.00000000000E+00 0. -1.
         25    2    1    2    0    0 -0.12309000610E+03 -0.99025490779E+01 -0.39776449763E+03  0.43484555553E+03  0.12499940603E+03 0.  0.
          2    1    1    2  501    0  0.50579130786E+01  0.22464275437E+02 -0.73623681881E+03  0.73659682292E+03  0.00000000000E+00 0. -1.
          1    1    1    2  502    0  0.11803209303E+03 -0.12561726359E+02  0.19884157041E+03  0.23157578042E+03  0.00000000000E+00 0. -1.
         22    1    3    3    0    0 -0.99461684803E+02  0.48513619691E+02 -0.28393910864E+03  0.30474188333E+03  0.00000000000E+00 0.  1.
         22    1    3    3    0    0 -0.23628321301E+02 -0.58416168769E+02 -0.11382538899E+03  0.13010367220E+03  0.00000000000E+00 0.  1.
</event>
<event>
 7    1  0.5537228E-006  0.8032283E+02  0.7818608E-02  0.1330437E+00
          2   -1    0    0  502    0  0.00000000000E+00  0.00000000000E+00  0.13470060343E+04  0.13470060343E+04  0.00000000000E+00 0. -1.
          1   -1    0    0  501    0 -0.00000000000E+00 -0.00000000000E+00 -0.31095025260E+03  0.31095025260E+03  0.00000000000E+00 0. -1.
         25    2    1    2    0    0 -0.10061299342E+03 -0.10352357383E+02  0.18566389104E+03  0.24561469849E+03  0.12500141572E+03 0.  0.
          2    1    1    2  501    0  0.42217035977E+02  0.66433764536E+02 -0.27397779193E+03  0.28506061402E+03  0.00000000000E+00 0. -1.
          1    1    1    2  502    0  0.58395957439E+02 -0.56081407153E+02  0.11243696826E+04  0.11272809744E+04  0.00000000000E+00 0. -1.
         22    1    3    3    0    0 -0.10975905185E+03 -0.24838268439E+02  0.19570810931E+03  0.22575573767E+03  0.00000000000E+00 0.  1.
         22    1    3    3    0    0  0.91460584345E+01  0.14485911057E+02 -0.10044218273E+02  0.19858960817E+02  0.00000000000E+00 0.  1.
</event>
<event>
 7    1  0.5537228E-006  0.9363392E+02  0.7818608E-02  0.1296272E+00
          2   -1    0    0  502    0  0.00000000000E+00  0.00000000000E+00  0.93823448475E+03  0.93823448475E+03  0.00000000000E+00 0. -1.
          1   -1    0    0  501    0 -0.00000000000E+00 -0.00000000000E+00 -0.16069986377E+04  0.16069986377E+04  0.00000000000E+00 0. -1.
         25    2    1    2    0    0 -0.42897169109E+02 -0.66286766048E+02 -0.11789730821E+03  0.18910084887E+03  0.12500101316E+03 0.  0.
          2    1    1    2  501    0 -0.51127189591E+02  0.76389027301E+02 -0.14495629896E+04  0.14524744864E+04  0.00000000000E+00 0. -1.
          1    1    1    2  502    0  0.94024358701E+02 -0.10102261252E+02  0.89869614478E+03  0.90365778719E+03  0.00000000000E+00 0. -1.
         22    1    3    3    0    0 -0.56996578217E+02 -0.20459223761E+02  0.13528327460E+01  0.60572435330E+02  0.00000000000E+00 0. -1.
         22    1    3    3    0    0  0.14099409108E+02 -0.45827542287E+02 -0.11925014096E+03  0.12852841354E+03  0.00000000000E+00 0. -1.
</event>
<event>
 7    1  0.5537228E-006  0.9288615E+02  0.7818608E-02  0.1336922E+00
          2   -1    0    0  502    0  0.00000000000E+00  0.00000000000E+00  0.11596575892E+04  0.11596575892E+04  0.00000000000E+00 0. -1.
          1   -1    0    0  501    0 -0.00000000000E+00 -0.00000000000E+00 -0.20316556109E+04  0.20316556109E+04  0.00000000000E+00 0. -1.
         25    2    1    2    0    0  0.31346989149E+02  0.99868882150E+02  0.51679999441E+03  0.54190748269E+03  0.12500023289E+03 0.  0.
          2    1    1    2  501    0 -0.75938161449E+02 -0.53524454661E+02 -0.20163889314E+04  0.20185281257E+04  0.00000000000E+00 0. -1.
          1    1    1    2  502    0  0.44591172300E+02 -0.46344427489E+02  0.62759091532E+03  0.63087759161E+03  0.00000000000E+00 0. -1.
         22    1    3    3    0    0 -0.24489235982E+02 -0.18928918772E+02  0.78806126704E+02  0.84666594658E+02  0.00000000000E+00 0.  1.
         22    1    3    3    0    0  0.55836225131E+02  0.11879780092E+03  0.43799386771E+03  0.45724088803E+03  0.00000000000E+00 0.  1.
</event>
<event>
 7    1  0.5537228E-006  0.1122806E+03  0.7818608E-02  0.1351102E+00
          2   -1    0    0  502    0  0.00000000000E+00  0.00000000000E+00  0.15257773103E+04  0.15257773103E+04  0.00000000000E+00 0. -1.
          1   -1    0    0  501    0 -0.00000000000E+00 -0.00000000000E+00 -0.50917581014E+03  0.50917581014E+03  0.00000000000E+00 0. -1.
         25    2    1    2    0    0  0.10196093234E+03  0.36739647823E+02  0.12600372659E+03  0.20796311763E+03  0.12500354289E+03 0.  0.
          2    1    1    2  501    0  0.10705151548E+02 -0.45856635433E+02 -0.46465328987E+03  0.46703330831E+03  0.00000000000E+00 0. -1.
          1    1    1    2  502    0 -0.11266608389E+03  0.91169876096E+01  0.13552510635E+04  0.13599566945E+04  0.00000000000E+00 0. -1.
         22    1    3    3    0    0  0.88658876535E+02 -0.23431551566E+02  0.35207202835E+02  0.98229227467E+02  0.00000000000E+00 0. -1.
         22    1    3    3    0    0  0.13302055809E+02  0.60171199390E+02  0.90796523756E+02  0.10973389017E+03  0.00000000000E+00 0. -1.
</event>
<event>
 7    1  0.5537228E-006  0.8396454E+02  0.7818608E-02  0.1335861E+00
          2   -1    0    0  502    0  0.00000000000E+00  0.00000000000E+00  0.28562136463E+03  0.28562136463E+03  0.00000000000E+00 0. -1.
          1   -1    0    0  501    0 -0.00000000000E+00 -0.00000000000E+00 -0.69231382723E+03  0.69231382723E+03  0.00000000000E+00 0. -1.
         25    2    1    2    0    0 -0.18198987868E+02 -0.12321549965E+02  0.78821949374E+02  0.14940071296E+03  0.12499859830E+03 0.  0.
          2    1    1    2  501    0  0.16247868758E+02  0.84102086253E+02 -0.64655796111E+03  0.65220729161E+03  0.00000000000E+00 0. -1.
          1    1    1    2  502    0  0.19511191099E+01 -0.71780536289E+02  0.16104354914E+03  0.17632718728E+03  0.00000000000E+00 0. -1.
         22    1    3    3    0    0  0.11624439516E+02  0.51798145356E+02  0.17785881782E+02  0.55986722061E+02  0.00000000000E+00 0. -1.
         22    1    3    3    0    0 -0.29823427383E+02 -0.64119695320E+02  0.61036067591E+02  0.93413990900E+02  0.00000000000E+00 0. -1.
</event>
<event>
 7    1  0.5537228E-006  0.1453204E+03  0.7818608E-02  0.1322347E+00
          2   -1    0    0  502    0  0.00000000000E+00  0.00000000000E+00  0.44412816323E+03  0.44412816323E+03  0.00000000000E+00 0. -1.
          1   -1    0    0  501    0 -0.00000000000E+00 -0.00000000000E+00 -0.52413768295E+03  0.52413768295E+03  0.00000000000E+00 0. -1.
         25    2    1    2    0    0  0.10716418847E+03  0.15158004772E+03 -0.11294776158E+03  0.25068503617E+03  0.12500046542E+03 0.  0.
          2    1    1    2  501    0 -0.12807900651E+02 -0.44945273220E+02 -0.32709362404E+03  0.33041543365E+03  0.00000000000E+00 0. -1.
          1    1    1    2  502    0 -0.94356287823E+02 -0.10663477450E+03  0.36003186590E+03  0.38716537636E+03  0.00000000000E+00 0. -1.
         22    1    3    3    0    0  0.10795345862E+03  0.91353247501E+02 -0.12559594860E+03  0.18913938607E+03  0.00000000000E+00 0. -1.
         22    1    3    3    0    0 -0.78927014956E+00  0.60226800221E+02  0.12648187016E+02  0.61545650106E+02  0.00000000000E+00 0. -1.
</event>
<event>
 7    1  0.5537228E-006  0.2216590E+03  0.7818608E-02  0.1365610E+00
          2   -1    0    0  502    0  0.00000000000E+00  0.00000000000E+00  0.56437886922E+03  0.56437886922E+03  0.00000000000E+00 0. -1.
          1   -1    0    0  501    0 -0.00000000000E+00 -0.00000000000E+00 -0.11913641266E+04  0.11913641266E+04  0.00000000000E+00 0. -1.
         25    2    1    2    0    0 -0.16650465748E+03 -0.14820891787E+03  0.13541944543E+03  0.28922728265E+03  0.12499724208E+03 0.  0.
          2    1    1    2  501    0  0.17876712632E+03  0.13102717023E+03 -0.11031102465E+04  0.11251568871E+04  0.00000000000E+00 0. -1.
          1    1    1    2  502    0 -0.12262468840E+02  0.17181747645E+02  0.34070554369E+03  0.34135882601E+03  0.00000000000E+00 0. -1.
         22    1    3    3    0    0 -0.13791588233E+03 -0.16999798358E+03  0.12358961622E+03  0.25138515918E+03  0.00000000000E+00 0.  1.
         22    1    3    3    0    0 -0.28588775149E+02  0.21789065711E+02  0.11829829208E+02  0.37842123463E+02  0.00000000000E+00 0.  1.
</event>
<event>
 7    1  0.5537228E-006  0.1132421E+03  0.7818608E-02  0.1289577E+00
          2   -1    0    0  502    0  0.00000000000E+00  0.00000000000E+00  0.31076100290E+03  0.31076100290E+03  0.00000000000E+00 0. -1.
          1   -1    0    0  501    0 -0.00000000000E+00 -0.00000000000E+00 -0.57410441572E+03  0.57410441572E+03  0.00000000000E+00 0. -1.
         25    2    1    2    0    0  0.41971582795E+02  0.13987293428E+03 -0.11945110277E+03  0.22631760856E+03  0.12500016995E+03 0.  0.
          2    1    1    2  501    0  0.31840659171E+02 -0.10676297119E+03 -0.38679897886E+03  0.40252404852E+03  0.00000000000E+00 0. -1.
          1    1    1    2  502    0 -0.73812241966E+02 -0.33109963083E+02  0.24290666881E+03  0.25602376154E+03  0.00000000000E+00 0. -1.
         22    1    3    3    0    0  0.49392569737E+02  0.77134788132E+02 -0.13321009759E+03  0.16166116289E+03  0.00000000000E+00 0.  1.
         22    1    3    3    0    0 -0.74209869426E+01  0.62738146145E+02  0.13758994824E+02  0.64656445676E+02  0.00000000000E+00 0.  1.
</event>
<event>
 7    1  0.5537228E-006  0.8517246E+02  0.7818608E-02  0.1344603E+00
          2   -1    0    0  502    0  0.00000000000E+00  0.00000000000E+00  0.11832761340E+04  0.11832761340E+04  0.00000000000E+00 0. -1.
          1   -1    0    0  501    0 -0.00000000000E+00 -0.00000000000E+00 -0.10675608885E+03  0.10675608885E+03  0.00000000000E+00 0. -1.
         25    2    1    2    0    0 -0.74568401948E+02 -0.11883532278E+03  0.44445535921E+03  0.48254304791E+03  0.12499978498E+03 0.  0.
          2    1    1    2  501    0  0.48595268101E+02  0.44108151320E+02 -0.72905980632E+02  0.98093379525E+02  0.00000000000E+00 0. -1.
          1    1    1    2  502    0  0.25973133847E+02  0.74727171456E+02  0.70497066660E+03  0.70939579545E+03  0.00000000000E+00 0. -1.
         22    1    3    3    0    0 -0.29357253345E+02 -0.61247842554E+02  0.37674406552E+03  0.38281749887E+03  0.00000000000E+00 0. -1.
         22    1    3    3    0    0 -0.45211148603E+02 -0.57587480222E+02  0.67711293690E+02  0.99725549031E+02  0.00000000000E+00 0. -1.
</event>
<event>
 7    1  0.5537228E-006  0.9584625E+02  0.7818608E-02  0.1394479E+00
          2   -1    0    0  502    0  0.00000000000E+00  0.00000000000E+00  0.82952161691E+03  0.82952161691E+03  0.00000000000E+00 0. -1.
          1   -1    0    0  501    0 -0.00000000000E+00 -0.00000000000E+00 -0.33137118952E+03  0.33137118952E+03  0.00000000000E+00 0. -1.
         25    2    1    2    0    0  0.44959220762E+02  0.39833751784E+02  0.81185340432E+02  0.16069814288E+03  0.12499909724E+03 0.  0.
          2    1    1    2  501    0 -0.69135207077E+02 -0.69894795290E+02 -0.28278267265E+03  0.29938436702E+03  0.00000000000E+00 0. -1.
          1    1    1    2  502    0  0.24175986315E+02  0.30061043507E+02  0.69974775961E+03  0.70081029653E+03  0.00000000000E+00 0. -1.
         22    1    3    3    0    0  0.37835533434E+02  0.19701248046E+02 -0.26960959521E+02  0.50463453143E+02  0.00000000000E+00 0. -1.
         22    1    3    3    0    0  0.71236873278E+01  0.20132503738E+02  0.10814629995E+03  0.11023468974E+03  0.00000000000E+00 0. -1.
</event>
<event>
 7    1  0.5537228E-006  0.1766157E+03  0.7818608E-02  0.1225957E+00
          2   -1    0    0  502    0  0.00000000000E+00  0.00000000000E+00  0.53614721571E+03  0.53614721571E+03  0.00000000000E+00 0. -1.
          1   -1    0    0  501    0 -0.00000000000E+00 -0.00000000000E+00 -0.10203318716E+04  0.10203318716E+04  0.00000000000E+00 0. -1.
         25    2    1    2    0    0 -0.18230245236E+02 -0.10740364334E+03 -0.11368994630E+03  0.20104299149E+03  0.12499998437E+03 0.  0.
          2    1    1    2  501    0 -0.27929716086E+02  0.19293080255E+03 -0.84698791779E+03  0.86913226640E+03  0.00000000000E+00 0. -1.
          1    1    1    2  502    0  0.46159961322E+02 -0.85527159207E+02  0.47649320823E+03  0.48630382939E+03  0.00000000000E+00 0. -1.
         22    1    3    3    0    0 -0.31381177811E+02 -0.11502961908E+03 -0.13157979669E+03  0.17756642273E+03  0.00000000000E+00 0.  1.
         22    1    3    3    0    0  0.13150932575E+02  0.76259757369E+01  0.17889850388E+02  0.23476568754E+02  0.00000000000E+00 0.  1.
</event>
<event>
 7    1  0.5537228E-006  0.3596070E+02  0.7818608E-02  0.1569397E+00
          2   -1    0    0  502    0  0.00000000000E+00  0.00000000000E+00  0.50815835838E+03  0.50815835838E+03  0.00000000000E+00 0. -1.
          1   -1    0    0  501    0 -0.00000000000E+00 -0.00000000000E+00 -0.25455819019E+03  0.25455819019E+03  0.00000000000E+00 0. -1.
         25    2    1    2    0    0 -0.40131280981E+01  0.42259636389E+02 -0.92499027470E+02  0.16118951589E+03  0.12499603147E+03 0.  0.
          2    1    1    2  501    0 -0.23232652011E+02 -0.18746204570E+02 -0.12527408255E+03  0.12878187785E+03  0.00000000000E+00 0. -1.
          1    1    1    2  502    0  0.27245780109E+02 -0.23513431820E+02  0.47137327820E+03  0.47274515483E+03  0.00000000000E+00 0. -1.
         22    1    3    3    0    0  0.22442642849E+02  0.27181472518E+01 -0.10862711572E+03  0.11095454390E+03  0.00000000000E+00 0. -1.
         22    1    3    3    0    0 -0.26455770947E+02  0.39541489137E+02  0.16128088252E+02  0.50234971984E+02  0.00000000000E+00 0. -1.
</event>
<event>
 7    1  0.5537228E-006  0.1143453E+03  0.7818608E-02  0.1366682E+00
          2   -1    0    0  502    0  0.00000000000E+00  0.00000000000E+00  0.11357469855E+04  0.11357469855E+04  0.00000000000E+00 0. -1.
          1   -1    0    0  501    0 -0.00000000000E+00 -0.00000000000E+00 -0.42989759958E+03  0.42989759958E+03  0.00000000000E+00 0. -1.
         25    2    1    2    0    0 -0.10360469361E+03 -0.11226168779E+03 -0.18062654886E+03  0.26755732395E+03  0.12499740943E+03 0.  0.
          2    1    1    2  501    0  0.33910973244E+02  0.22244616335E+02 -0.20080656646E+03  0.20486106071E+03  0.00000000000E+00 0. -1.
          1    1    1    2  502    0  0.69693720366E+02  0.90017071451E+02  0.10872825012E+04  0.10932262004E+04  0.00000000000E+00 0. -1.
         22    1    3    3    0    0 -0.12784105569E+03 -0.82663960069E+02 -0.11203712980E+03  0.18902112122E+03  0.00000000000E+00 0. -1.
         22    1    3    3    0    0  0.24236362075E+02 -0.29597727716E+02 -0.68589419051E+02  0.78536202724E+02  0.00000000000E+00 0. -1.
</event>
<event>
 7    1  0.5537228E-006  0.5628711E+02  0.7818608E-02  0.1418629E+00
          2   -1    0    0  502    0  0.00000000000E+00  0.00000000000E+00  0.15086597676E+03  0.15086597676E+03  0.00000000000E+00 0. -1.
          1   -1    0    0  501    0 -0.00000000000E+00 -0.00000000000E+00 -0.36584363425E+03  0.36584363425E+03  0.00000000000E+00 0. -1.
         25    2    1    2    0    0  0.31449003234E+01  0.24656612515E+02  0.18923868674E+02  0.12883969950E+03  0.12499486559E+03 0.  0.
          2    1    1    2  501    0  0.52960725253E+02  0.12226233638E+02 -0.29325765378E+03  0.29825219314E+03  0.00000000000E+00 0. -1.
          1    1    1    2  502    0 -0.56105625576E+02 -0.36882846152E+02  0.59356127619E+02  0.89617718379E+02  0.00000000000E+00 0. -1.
         22    1    3    3    0    0 -0.44123549268E+02 -0.29155462689E+02  0.21692214385E+02  0.57161882138E+02  0.00000000000E+00 0. -1.
         22    1    3    3    0    0  0.47268449591E+02  0.53812075203E+02 -0.27683457109E+01  0.71677817367E+02  0.00000000000E+00 0. -1.
</event>
<event>
 7    1  0.5537228E-006  0.3824291E+02  0.7818608E-02  0.1600407E+00
          2   -1    0    0  502    0  0.00000000000E+00  0.00000000000E+00  0.18222785139E+02  0.18222785139E+02  0.00000000000E+00 0. -1.
          1   -1    0    0  501    0 -0.00000000000E+00 -0.00000000000E+00 -0.14173499734E+04  0.14173499734E+04  0.00000000000E+00 0. -1.
         25    2    1    2    0    0 -0.45138955584E+02  0.35211699048E+02 -0.50307108029E+03  0.52152062159E+03  0.12500343138E+03 0.  0.
          2    1    1    2  501    0  0.34571071200E+02 -0.14549919238E+02 -0.88900667111E+03  0.88979757271E+03  0.00000000000E+00 0. -1.
          1    1    1    2  502    0  0.10567884385E+02 -0.20661779810E+02 -0.70494368204E+01  0.24254564205E+02  0.00000000000E+00 0. -1.
         22    1    3    3    0    0 -0.45540624834E+02 -0.32568971319E+02 -0.11898527016E+03  0.13149973733E+03  0.00000000000E+00 0.  1.
         22    1    3    3    0    0  0.40166924948E+00  0.67780670367E+02 -0.38408581013E+03  0.39002088426E+03  0.00000000000E+00 0.  1.
</event>
<event>
 7    1  0.5537228E-006  0.1405141E+03  0.7818608E-02  0.1313974E+00
          2   -1    0    0  502    0  0.00000000000E+00  0.00000000000E+00  0.47272809646E+03  0.47272809646E+03  0.00000000000E+00 0. -1.
          1   -1    0    0  501    0 -0.00000000000E+00 -0.00000000000E+00 -0.97921636402E+03  0.97921636402E+03  0.00000000000E+00 0. -1.
         25    2    1    2    0    0 -0.77624768040E+02  0.14525349328E+03 -0.92041544905E+02  0.22632141727E+03  0.12500222400E+03 0.  0.
          2    1    1    2  501    0  0.98861121878E+02 -0.97679863381E+02 -0.81243651333E+03  0.82423780872E+03  0.00000000000E+00 0. -1.
          1    1    1    2  502    0 -0.21236353837E+02 -0.47573629894E+02  0.39798979068E+03  0.40138523449E+03  0.00000000000E+00 0. -1.
         22    1    3    3    0    0 -0.92834750846E+01  0.29722304873E+02 -0.86546725039E+02  0.91977899148E+02  0.00000000000E+00 0.  1.
         22    1    3    3    0    0 -0.68341292956E+02  0.11553118840E+03 -0.54948198652E+01  0.13434351812E+03  0.00000000000E+00 0.  1.
</event>
<event>
 7    1  0.5537228E-006  0.5976248E+02  0.7818608E-02  0.1415204E+00
          2   -1    0    0  502    0  0.00000000000E+00  0.00000000000E+00  0.62480490566E+03  0.62480490566E+03  0.00000000000E+00 0. -1.
          1   -1    0    0  501    0 -0.00000000000E+00 -0.00000000000E+00 -0.47588828918E+02  0.47588828918E+02  0.00000000000E+00 0. -1.
         25    2    1    2    0    0 -0.16058276074E+02  0.13883458093E+02  0.41225890998E+03  0.43131430674E+03  0.12499601473E+03 0.  0.
          2    1    1    2  501    0 -0.29305163140E+01 -0.62899229014E+02 -0.50129011143E+01  0.63166685159E+02  0.00000000000E+00 0. -1.
          1    1    1    2  502    0  0.18988792388E+02  0.49015770920E+02  0.16997006787E+03  0.17791274268E+03  0.00000000000E+00 0. -1.
         22    1    3    3    0    0 -0.69057575403E+01  0.65528745544E+02  0.14957698678E+03  0.16344718093E+03  0.00000000000E+00 0. -1.
         22    1    3    3    0    0 -0.91525185339E+01 -0.51645287450E+02  0.26268192321E+03  0.26786712581E+03  0.00000000000E+00 0. -1.
</event>
<event>
 7    1  0.5537228E-006  0.7333530E+02  0.7818608E-02  0.1374037E+00
          2   -1    0    0  502    0  0.00000000000E+00  0.00000000000E+00  0.27746699027E+03  0.27746699027E+03  0.00000000000E+00 0. -1.
          1   -1    0    0  501    0 -0.00000000000E+00 -0.00000000000E+00 -0.88017648623E+03  0.88017648623E+03  0.00000000000E+00 0. -1.
         25    2    1    2    0    0  0.79830657290E+02 -0.43445505068E+02 -0.25769889672E+02  0.15668415581E+03  0.12500156685E+03 0.  0.
          2    1    1    2  501    0 -0.25953157162E+02  0.68697858915E+02 -0.78302239885E+03  0.78645854264E+03  0.00000000000E+00 0. -1.
          1    1    1    2  502    0 -0.53877500128E+02 -0.25252353848E+02  0.20608279256E+03  0.21450077805E+03  0.00000000000E+00 0. -1.
         22    1    3    3    0    0  0.93298755894E+02  0.28406115323E+01 -0.46412959520E+02  0.10424437508E+03  0.00000000000E+00 0. -1.
         22    1    3    3    0    0 -0.13468098604E+02 -0.46286116600E+02  0.20643069847E+02  0.52439780726E+02  0.00000000000E+00 0. -1.
</event>
<event>
 7    1  0.5537228E-006  0.1105794E+03  0.7818608E-02  0.1341765E+00
          2   -1    0    0  502    0  0.00000000000E+00  0.00000000000E+00  0.61665233140E+03  0.61665233140E+03  0.00000000000E+00 0. -1.
          1   -1    0    0  501    0 -0.00000000000E+00 -0.00000000000E+00 -0.27914073747E+03  0.27914073747E+03  0.00000000000E+00 0. -1.
         25    2    1    2    0    0  0.64765382965E+02 -0.57422494470E+02  0.35565196005E+03  0.38678852476E+03  0.12500059398E+03 0.  0.
          2    1    1    2  501    0 -0.41430657603E+02  0.10367011783E+03 -0.24874677267E+03  0.27265170022E+03  0.00000000000E+00 0. -1.
          1    1    1    2  502    0 -0.23334725362E+02 -0.46247623365E+02  0.23060640655E+03  0.23635284389E+03  0.00000000000E+00 0. -1.
         22    1    3    3    0    0  0.41605537568E+02  0.31497432632E+02  0.74165607182E+02  0.90684322280E+02  0.00000000000E+00 0. -1.
         22    1    3    3    0    0  0.23159845396E+02 -0.88919927102E+02  0.28148635287E+03  0.29610420248E+03  0.00000000000E+00 0. -1.
</event>
<event>
 7    1  0.5537228E-006  0.9789738E+02  0.7818608E-02  0.1365671E+00
          2   -1    0    0  502    0  0.00000000000E+00  0.00000000000E+00  0.34024511513E+03  0.34024511513E+03  0.00000000000E+00 0. -1.
          1   -1    0    0  501    0 -0.00000000000E+00 -0.00000000000E+00 -0.49718084339E+03  0.49718084339E+03  0.00000000000E+00 0. -1.
         25    2    1    2    0    0 -0.11434055200E+02  0.11588671511E+03  0.16973237352E+03  0.24081954061E+03  0.12499801664E+03 0.  0.
          2    1    1    2  501    0 -0.30397413280E+02 -0.92819181365E+02 -0.45202474413E+03  0.46245623844E+03  0.00000000000E+00 0. -1.
          1    1    1    2  502    0  0.41831468480E+02 -0.23067533743E+02  0.12535664236E+03  0.13415017947E+03  0.00000000000E+00 0. -1.
         22    1    3    3    0    0 -0.46403078473E+02  0.72774944488E+02  0.16359951072E+03  0.18497091162E+03  0.00000000000E+00 0.  1.
         22    1    3    3    0    0  0.34969023273E+02  0.43111770620E+02  0.61328628011E+01  0.55848628996E+02  0.00000000000E+00 0.  1.
</event>
<event>
 7    1  0.5537228E-006  0.2577849E+03  0.7818608E-02  0.1214057E+00
          2   -1    0    0  502    0  0.00000000000E+00  0.00000000000E+00  0.80573346629E+03  0.80573346629E+03  0.00000000000E+00 0. -1.
          1   -1    0    0  501    0 -0.00000000000E+00 -0.00000000000E+00 -0.72849278481E+03  0.72849278481E+03  0.00000000000E+00 0. -1.
         25    2    1    2    0    0  0.20931465368E+03 -0.97038009201E+02  0.18598755227E+03  0.32162958690E+03  0.12500088838E+03 0.  0.
          2    1    1    2  501    0 -0.19727094829E+03  0.17151765677E+03 -0.63200196083E+03  0.68393026846E+03  0.00000000000E+00 0. -1.
          1    1    1    2  502    0 -0.12043705386E+02 -0.74479647573E+02  0.52325509004E+03  0.52866639575E+03  0.00000000000E+00 0. -1.
         22    1    3    3    0    0  0.28591709657E+02  0.29490326084E+02  0.20902085545E+02  0.46087551181E+02  0.00000000000E+00 0.  1.
         22    1    3    3    0    0  0.18072294402E+03 -0.12652833528E+03  0.16508546672E+03  0.27554203572E+03  0.00000000000E+00 0.  1.
</event>
<event>
 7    1  0.5537228E-006  0.1054683E+03  0.7818608E-02  0.1445971E+00
          2   -1    0    0  502    0  0.00000000000E+00  0.00000000000E+00  0.39034021843E+03  0.39034021843E+03  0.00000000000E+00 0. -1.
          1   -1    0    0  501    0 -0.00000000000E+00 -0.00000000000E+00 -0.22164987353E+03  0.22164987353E+03  0.00000000000E+00 0. -1.
         25    2    1    2    0    0 -0.73719855741E+02 -0.54192434659E+02  0.10687745977E+03  0.18820150166E+03  0.12500230684E+03 0.  0.
          2    1    1    2  501    0 -0.44909084120E+01 -0.23162036411E+02 -0.16765993416E+03  0.16931184752E+03  0.00000000000E+00 0. -1.
          1    1    1    2  502    0  0.78210764153E+02  0.77354471070E+02  0.22947281929E+03  0.25447674278E+03  0.00000000000E+00 0. -1.
         22    1    3    3    0    0 -0.54934967336E+02 -0.93666960171E+02  0.59834378292E+02  0.12398186516E+03  0.00000000000E+00 0.  1.
         22    1    3    3    0    0 -0.18784888405E+02  0.39474525512E+02  0.47043081477E+02  0.64219636496E+02  0.00000000000E+00 0.  1.
</event>
<event>
 7    1  0.5537228E-006  0.5282360E+02  0.7818608E-02  0.1568810E+00
          2   -1    0    0  502    0  0.00000000000E+00  0.00000000000E+00  0.41047906602E+03  0.41047906602E+03  0.00000000000E+00 0. -1.
          1   -1    0    0  501    0 -0.00000000000E+00 -0.00000000000E+00 -0.53026181197E+03  0.53026181197E+03  0.00000000000E+00 0. -1.
         25    2    1    2    0    0  0.39701533852E+02  0.11331776960E+02 -0.10380987376E+03  0.16764826235E+03  0.12499931607E+03 0.  0.
          2    1    1    2  501    0  0.13143573424E+02 -0.15598301418E+02 -0.39241030464E+03  0.39294008159E+03  0.00000000000E+00 0. -1.
          1    1    1    2  502    0 -0.52845107276E+02  0.42665244576E+01  0.37643743246E+03  0.38015253406E+03  0.00000000000E+00 0. -1.
         22    1    3    3    0    0 -0.90852337145E+01  0.32865105980E+02  0.15127532349E+02  0.37302800132E+02  0.00000000000E+00 0.  1.
         22    1    3    3    0    0  0.48786767566E+02 -0.21533329020E+02 -0.11893740611E+03  0.13034546221E+03  0.00000000000E+00 0.  1.
</event>
<event>
 7    1  0.5763106E-006  0.1229023E+03  0.7818608E-02  0.1258173E+00
          2   -1    0    0  502    0  0.00000000000E+00  0.00000000000E+00  0.14437335863E+04  0.14437335863E+04  0.00000000000E+00 0. -1.
          1   -1    0    0  501    0 -0.00000000000E+00 -0.00000000000E+00 -0.86447377605E+03  0.86447377605E+03  0.00000000000E+00 0. -1.
         25    2    1    2    0    0  0.76573410858E-01  0.47772880574E+02 -0.68155603982E+02  0.15017384307E+03  0.12499897122E+03 0.  0.
          2    1    1    2  501    0 -0.80061155869E+02 -0.10911851365E+03 -0.74741300007E+03  0.75956752918E+03  0.00000000000E+00 0. -1.
          1    1    1    2  502    0  0.79984582458E+02  0.61345633073E+02  0.13948284143E+04  0.13984659901E+04  0.00000000000E+00 0. -1.
         22    1    3    3    0    0 -0.57669891840E+02  0.49388850631E+02 -0.41846042959E+02  0.86695826329E+02  0.00000000000E+00 0. -1.
         22    1    3    3    0    0  0.57746465250E+02 -0.16159700567E+01 -0.26309561022E+02  0.63478016741E+02  0.00000000000E+00 0. -1.
</event>
<event>
 7    1  0.5537228E-006  0.4684428E+02  0.7818608E-02  0.1487666E+00
          2   -1    0    0  502    0  0.00000000000E+00  0.00000000000E+00  0.28680394477E+03  0.28680394477E+03  0.00000000000E+00 0. -1.
          1   -1    0    0  501    0 -0.00000000000E+00 -0.00000000000E+00 -0.28750910264E+04  0.28750910264E+04  0.00000000000E+00 0. -1.
         25    2    1    2    0    0 -0.70780070242E+02  0.40598488355E+02 -0.59632395614E+03  0.61473596191E+03  0.12505993200E+03 0.  0.
          2    1    1    2  501    0  0.44663163926E+02 -0.11164267283E+02 -0.22679317633E+04  0.22683989777E+04  0.00000000000E+00 0. -1.
          1    1    1    2  502    0  0.26116906316E+02 -0.29434221072E+02  0.27596863779E+03  0.27876003159E+03  0.00000000000E+00 0. -1.
         22    1    3    3    0    0 -0.11803593969E+02 -0.19688315221E+01  0.18913613210E+01  0.12115212577E+02  0.00000000000E+00 0. -1.
         22    1    3    3    0    0 -0.58976476273E+02  0.42567319877E+02 -0.59821531746E+03  0.60262074933E+03  0.00000000000E+00 0. -1.
</event>
<event>
 7    1  0.5537228E-006  0.8167789E+02  0.7818608E-02  0.1418369E+00
          2   -1    0    0  502    0  0.00000000000E+00  0.00000000000E+00  0.63530895219E+03  0.63530895219E+03  0.00000000000E+00 0. -1.
          1   -1    0    0  501    0 -0.00000000000E+00 -0.00000000000E+00 -0.17027599444E+03  0.17027599444E+03  0.00000000000E+00 0. -1.
         25    2    1    2    0    0 -0.76423152540E+02  0.70371686549E+01 -0.29468613764E+02  0.14960977607E+03  0.12499866364E+03 0.  0.
          2    1    1    2  501    0  0.80260128222E+02  0.30298538608E+02 -0.57128551657E+02  0.10306969020E+03  0.00000000000E+00 0. -1.
          1    1    1    2  502    0 -0.38369756825E+01 -0.37335707263E+02  0.55163012317E+03  0.55290548036E+03  0.00000000000E+00 0. -1.
         22    1    3    3    0    0 -0.99439571957E+02 -0.27863075526E+02 -0.30854761978E+02  0.10778031261E+03  0.00000000000E+00 0. -1.
         22    1    3    3    0    0  0.23016419417E+02  0.34900244181E+02  0.13861482138E+01  0.41829463462E+02  0.00000000000E+00 0. -1.
</event>
<event>
 7    1  0.5537228E-006  0.7824410E+02  0.7818608E-02  0.1475180E+00
          2   -1    0    0  502    0  0.00000000000E+00  0.00000000000E+00  0.13122834541E+04  0.13122834541E+04  0.00000000000E+00 0. -1.
          1   -1    0    0  501    0 -0.00000000000E+00 -0.00000000000E+00 -0.11937107233E+04  0.11937107233E+04  0.00000000000E+00 0. -1.
         25    2    1    2    0    0 -0.37314315926E+02  0.66752672126E+02  0.26892718965E+03  0.30625977221E+03  0.12499974934E+03 0.  0.
          2    1    1    2  501    0 -0.21374685133E+02 -0.14317101406E+02 -0.11733920660E+04  0.11736740592E+04  0.00000000000E+00 0. -1.
          1    1    1    2  502    0  0.58689001059E+02 -0.52435570719E+02  0.10230376072E+04  0.10260603461E+04  0.00000000000E+00 0. -1.
         22    1    3    3    0    0 -0.67780656181E+02  0.86094459642E+02  0.21595616855E+03  0.24216428322E+03  0.00000000000E+00 0.  1.
         22    1    3    3    0    0  0.30466340255E+02 -0.19341787516E+02  0.52971021100E+02  0.64095488993E+02  0.00000000000E+00 0.  1.
</event>
<event>
 7    1  0.5537228E-006  0.1465440E+03  0.7818608E-02  0.1322280E+00
          2   -1    0    0  502    0  0.00000000000E+00  0.00000000000E+00  0.54114218637E+03  0.54114218637E+03  0.00000000000E+00 0. -1.
          1   -1    0    0  501    0 -0.00000000000E+00 -0.00000000000E+00 -0.61411835242E+03  0.61411835242E+03  0.00000000000E+00 0. -1.
         25    2    1    2    0    0  0.13383607156E+03 -0.45745864188E+02 -0.43607275940E+03  0.47517195995E+03  0.12499664752E+03 0.  0.
          2    1    1    2  501    0 -0.16984381850E+02 -0.43149678654E+02 -0.14446127951E+03  0.15172153859E+03  0.00000000000E+00 0. -1.
          1    1    1    2  502    0 -0.11685168971E+03  0.88895542842E+02  0.50755787286E+03  0.52836704025E+03  0.00000000000E+00 0. -1.
         22    1    3    3    0    0  0.57226582376E+02 -0.59332181188E+01 -0.40678923986E+02  0.70461760299E+02  0.00000000000E+00 0. -1.
         22    1    3    3    0    0  0.76609489187E+02 -0.39812646069E+02 -0.39539383541E+03  0.40471019965E+03  0.00000000000E+00 0. -1.
</event>
<event>
 7    1  0.5537228E-006  0.1486677E+03  0.7818608E-02  0.1208020E+00
          2   -1    0    0  502    0  0.00000000000E+00  0.00000000000E+00  0.56196339726E+02  0.56196339726E+02  0.00000000000E+00 0. -1.
          1   -1    0    0  501    0 -0.00000000000E+00 -0.00000000000E+00 -0.21114681833E+04  0.21114681833E+04  0.00000000000E+00 0. -1.
         25    2    1    2    0    0 -0.32571259238E+02 -0.22512832381E+02 -0.91990975662E+03  0.92920741804E+03  0.12499900346E+03 0.  0.
          2    1    1    2  501    0 -0.96534250324E+02  0.11306287557E+03 -0.10473813149E+04  0.10578798108E+04  0.00000000000E+00 0. -1.
          1    1    1    2  502    0  0.12910550956E+03 -0.90550043185E+02 -0.87980772048E+02  0.18057729417E+03  0.00000000000E+00 0. -1.
         22    1    3    3    0    0  0.44482657723E+02 -0.21623998444E+02 -0.24727670298E+03  0.25217468546E+03  0.00000000000E+00 0. -1.
         22    1    3    3    0    0 -0.77053916961E+02 -0.88883393705E+00 -0.67263305364E+03  0.67703273258E+03  0.00000000000E+00 0. -1.
</event>
<event>
 7    1  0.5537228E-006  0.1584068E+03  0.7818608E-02  0.1311102E+00
          2   -1    0    0  502    0  0.00000000000E+00  0.00000000000E+00  0.35842009329E+03  0.35842009329E+03  0.00000000000E+00 0. -1.
          1   -1    0    0  501    0 -0.00000000000E+00 -0.00000000000E+00 -0.88769312265E+03  0.88769312265E+03  0.00000000000E+00 0. -1.
         25    2    1    2    0    0  0.11724085326E+03  0.45885686829E+02  0.15607827633E+02  0.17810033106E+03  0.12500083885E+03 0.  0.
          2    1    1    2  501    0  0.47251006102E+02 -0.41028628087E+01 -0.77811886107E+03  0.77956298849E+03  0.00000000000E+00 0. -1.
          1    1    1    2  502    0 -0.16449185936E+03 -0.41782824021E+02  0.23323800408E+03  0.28844989639E+03  0.00000000000E+00 0. -1.
         22    1    3    3    0    0  0.11242839468E+03  0.82456508203E+02  0.41902159486E+01  0.13948755351E+03  0.00000000000E+00 0.  1.
         22    1    3    3    0    0  0.48124585761E+01 -0.36570821373E+02  0.11417611684E+02  0.38612777549E+02  0.00000000000E+00 0.  1.
</event>
<event>
 7    1  0.5537228E-006  0.4973470E+02  0.7818608E-02  0.1527023E+00
          2   -1    0    0  502    0  0.00000000000E+00  0.00000000000E+00  0.55275298724E+02  0.55275298724E+02  0.00000000000E+00 0. -1.
          1   -1    0    0  501    0 -0.00000000000E+00 -0.00000000000E+00 -0.14310945609E+04  0.14310945609E+04  0.00000000000E+00 0. -1.
         25    2    1    2    0    0 -0.58524844106E+02  0.41872783349E+02 -0.27006171376E+03  0.30616442829E+03  0.12499936220E+03 0.  0.
          2    1    1    2  501    0  0.30348920513E+02 -0.38676492178E+02 -0.11369717027E+04  0.11380340859E+04  0.00000000000E+00 0. -1.
          1    1    1    2  502    0  0.28175923592E+02 -0.31962911705E+01  0.31214154262E+02  0.42171345412E+02  0.00000000000E+00 0. -1.
         22    1    3    3    0    0  0.17577986745E+02  0.23849057250E+01 -0.18340728756E+03  0.18426314477E+03  0.00000000000E+00 0. -1.
         22    1    3    3    0    0 -0.76102830850E+02  0.39487877624E+02 -0.86654426203E+02  0.12190128352E+03  0.00000000000E+00 0. -1.
</event>
<event>
 7    1  0.5537228E-006  0.3674133E+03  0.7818608E-02  0.1232112E+00
          2   -1    0    0  502    0  0.00000000000E+00  0.00000000000E+00  0.68299749265E+03  0.68299749265E+03  0.00000000000E+00 0. -1.
          1   -1    0    0  501    0 -0.00000000000E+00 -0.00000000000E+00 -0.71570767409E+03  0.71570767409E+03  0.00000000000E+00 0. -1.
         25    2    1    2    0    0 -0.10429483211E+03 -0.32751372847E+03  0.24496007904E+03  0.44019563309E+03  0.12499640287E+03 0.  0.
          2    1    1    2  501    0  0.78667310497E+02  0.36308005467E+03 -0.56042443943E+03  0.67237729300E+03  0.00000000000E+00 0. -1.
          1    1    1    2  502    0  0.25627521612E+02 -0.35566326192E+02  0.28275417895E+03  0.28613224065E+03  0.00000000000E+00 0. -1.
         22    1    3    3    0    0 -0.12033626489E+03 -0.23373970754E+03  0.13753587336E+03  0.29670049543E+03  0.00000000000E+00 0.  1.
         22    1    3    3    0    0  0.16041432778E+02 -0.93774020935E+02  0.10742420568E+03  0.14349513766E+03  0.00000000000E+00 0.  1.
</event>
<event>
 7    1  0.5537228E-006  0.2754575E+03  0.7818608E-02  0.1181444E+00
          2   -1    0    0  502    0  0.00000000000E+00  0.00000000000E+00  0.16989976904E+03  0.16989976904E+03  0.00000000000E+00 0. -1.
          1   -1    0    0  501    0 -0.00000000000E+00 -0.00000000000E+00 -0.12087131973E+04  0.12087131973E+04  0.00000000000E+00 0. -1.
         25    2    1    2    0    0 -0.84330839616E+02  0.25230339166E+03 -0.43410828149E+03  0.52425375033E+03  0.12499321071E+03 0.  0.
          2    1    1    2  501    0 -0.97463170956E+01 -0.28838051568E+03 -0.67326270354E+03  0.73248957706E+03  0.00000000000E+00 0. -1.
          1    1    1    2  502    0  0.94077156712E+02  0.36077124023E+02  0.68557556806E+02  0.12186963891E+03  0.00000000000E+00 0. -1.
         22    1    3    3    0    0 -0.74262592801E+02  0.11892628145E+03 -0.31642089666E+03  0.34609330671E+03  0.00000000000E+00 0.  1.
         22    1    3    3    0    0 -0.10068246816E+02  0.13337711021E+03 -0.11768738483E+03  0.17816044362E+03  0.00000000000E+00 0.  1.
</event>
<event>
 7    1  0.5537228E-006  0.4980125E+02  0.7818608E-02  0.1513063E+00
          2   -1    0    0  502    0  0.00000000000E+00  0.00000000000E+00  0.79757968340E+03  0.79757968340E+03  0.00000000000E+00 0. -1.
          1   -1    0    0  501    0 -0.00000000000E+00 -0.00000000000E+00 -0.47714200694E+03  0.47714200694E+03  0.00000000000E+00 0. -1.
         25    2    1    2    0    0 -0.42190984834E+02  0.59569488201E+01  0.91567735374E+02  0.16070450761E+03  0.12500289663E+03 0.  0.
          2    1    1    2  501    0  0.34572007003E+02 -0.36098277448E+02 -0.44080059487E+03  0.44362537545E+03  0.00000000000E+00 0. -1.
          1    1    1    2  502    0  0.76189778309E+01  0.30141328627E+02  0.66967053596E+03  0.67039180727E+03  0.00000000000E+00 0. -1.
         22    1    3    3    0    0  0.41704555667E+02  0.13606167344E+02  0.50786001624E+02  0.67108983856E+02  0.00000000000E+00 0. -1.
         22    1    3    3    0    0 -0.83895540501E+02 -0.76492185241E+01  0.40781733750E+02  0.93595523759E+02  0.00000000000E+00 0. -1.
</event>
<event>
 7    1  0.5537228E-006  0.9808008E+02  0.7818608E-02  0.1426240E+00
          2   -1    0    0  502    0  0.00000000000E+00  0.00000000000E+00  0.55705883823E+03  0.55705883823E+03  0.00000000000E+00 0. -1.
          1   -1    0    0  501    0 -0.00000000000E+00 -0.00000000000E+00 -0.40669351165E+03  0.40669351165E+03  0.00000000000E+00 0. -1.
         25    2    1    2    0    0  0.80428408995E+02  0.20844007575E+02  0.32261619357E+03  0.35582062497E+03  0.12499562861E+03 0.  0.
          2    1    1    2  501    0  0.29254584658E+02 -0.31692365709E+01 -0.37531295956E+03  0.37646472929E+03  0.00000000000E+00 0. -1.
          1    1    1    2  502    0 -0.10968299365E+03 -0.17674771004E+02  0.20306209256E+03  0.23146699562E+03  0.00000000000E+00 0. -1.
         22    1    3    3    0    0  0.10927157292E+03  0.38160859663E+02  0.26354647769E+03  0.28784244608E+03  0.00000000000E+00 0. -1.
         22    1    3    3    0    0 -0.28843163925E+02 -0.17316852089E+02  0.59069715881E+02  0.67978178893E+02  0.00000000000E+00 0. -1.
</event>
<event>
 7    1  0.5537228E-006  0.5472245E+02  0.7818608E-02  0.1443333E+00
          2   -1    0    0  502    0  0.00000000000E+00  0.00000000000E+00  0.53572089739E+03  0.53572089739E+03  0.00000000000E+00 0. -1.
          1   -1    0    0  501    0 -0.00000000000E+00 -0.00000000000E+00 -0.29013706509E+04  0.29013706509E+04  0.00000000000E+00 0. -1.
         25    2    1    2    0    0 -0.11148868053E+01 -0.12206574423E+02 -0.41449264330E+02  0.13226798084E+03  0.12500613510E+03 0.  0.
          2    1    1    2  501    0  0.30542221980E+02 -0.34892804783E+02 -0.28127476714E+04  0.28131298936E+04  0.00000000000E+00 0. -1.
          1    1    1    2  502    0 -0.29427335175E+02  0.47099379206E+02  0.48854718227E+03  0.49169367383E+03  0.00000000000E+00 0. -1.
         22    1    3    3    0    0 -0.35767152627E+02 -0.49825699846E+02 -0.51565556095E+02  0.80130494492E+02  0.00000000000E+00 0. -1.
         22    1    3    3    0    0  0.34652265821E+02  0.37619125422E+02  0.10116291765E+02  0.52137486353E+02  0.00000000000E+00 0. -1.
</event>
<event>
 7    1  0.5537228E-006  0.8147993E+02  0.7818608E-02  0.1491889E+00
          2   -1    0    0  502    0  0.00000000000E+00  0.00000000000E+00  0.17748509529E+03  0.17748509529E+03  0.00000000000E+00 0. -1.
          1   -1    0    0  501    0 -0.00000000000E+00 -0.00000000000E+00 -0.12656188636E+04  0.12656188636E+04  0.00000000000E+00 0. -1.
         25    2    1    2    0    0  0.75677354356E+02  0.33680442909E+02  0.47707465190E+02  0.15736130438E+03  0.12500057474E+03 0.  0.
          2    1    1    2  501    0 -0.80572543445E+02 -0.12265483698E+02 -0.12077789437E+04  0.12105256518E+04  0.00000000000E+00 0. -1.
          1    1    1    2  502    0  0.48951890887E+01 -0.21414959211E+02  0.71937710169E+02  0.75217002722E+02  0.00000000000E+00 0. -1.
         22    1    3    3    0    0 -0.73026930117E+01  0.44528232718E+02  0.57514269997E+02  0.73102558693E+02  0.00000000000E+00 0.  1.
         22    1    3    3    0    0  0.82980047368E+02 -0.10847789809E+02 -0.98068048073E+01  0.84258745691E+02  0.00000000000E+00 0.  1.
</event>
<event>
 7    1  0.5537228E-006  0.5926328E+02  0.7818608E-02  0.1436364E+00
          2   -1    0    0  502    0  0.00000000000E+00  0.00000000000E+00  0.76965230870E+02  0.76965230870E+02  0.00000000000E+00 0. -1.
          1   -1    0    0  501    0 -0.00000000000E+00 -0.00000000000E+00 -0.85852750339E+03  0.85852750339E+03  0.00000000000E+00 0. -1.
         25    2    1    2    0    0  0.59705884102E+02 -0.63040512219E+02 -0.16325810229E+03  0.22319861622E+03  0.12500206215E+03 0.  0.
          2    1    1    2  501    0 -0.44472082121E+02  0.75484576808E+01 -0.64659793062E+03  0.64816944481E+03  0.00000000000E+00 0. -1.
          1    1    1    2  502    0 -0.15233801981E+02  0.55492054538E+02  0.28293760391E+02  0.64124673229E+02  0.00000000000E+00 0. -1.
         22    1    3    3    0    0  0.96127322959E+02 -0.49229957723E+02 -0.91497965340E+02  0.14154832609E+03  0.00000000000E+00 0. -1.
         22    1    3    3    0    0 -0.36421438857E+02 -0.13810554497E+02 -0.71760136950E+02  0.81650290134E+02  0.00000000000E+00 0. -1.
</event>
<event>
 7    1  0.5537228E-006  0.1085105E+03  0.7818608E-02  0.1401685E+00
          2   -1    0    0  502    0  0.00000000000E+00  0.00000000000E+00  0.47583136262E+02  0.47583136262E+02  0.00000000000E+00 0. -1.
          1   -1    0    0  501    0 -0.00000000000E+00 -0.00000000000E+00 -0.31318038278E+04  0.31318038278E+04  0.00000000000E+00 0. -1.
         25    2    1    2    0    0 -0.91575536659E+02  0.71636246250E+02 -0.15543774068E+04  0.15637235990E+04  0.12499816183E+03 0.  0.
          2    1    1    2  501    0  0.27898320091E+02  0.16037155712E+02 -0.15038985684E+04  0.15042428031E+04  0.00000000000E+00 0. -1.
          1    1    1    2  502    0  0.63677216568E+02 -0.87673401962E+02 -0.25944716265E+02  0.11142056194E+03  0.00000000000E+00 0. -1.
         22    1    3    3    0    0 -0.74970527019E+02  0.43550569327E+02 -0.14795999270E+04  0.14821380422E+04  0.00000000000E+00 0.  1.
         22    1    3    3    0    0 -0.16605009640E+02  0.28085676923E+02 -0.74777479782E+02  0.81585556785E+02  0.00000000000E+00 0.  1.
</event>
<event>
 7    1  0.5537228E-006  0.1397299E+03  0.7818608E-02  0.1293511E+00
          2   -1    0    0  502    0  0.00000000000E+00  0.00000000000E+00  0.18626227517E+04  0.18626227517E+04  0.00000000000E+00 0. -1.
          1   -1    0    0  501    0 -0.00000000000E+00 -0.00000000000E+00 -0.52924836206E+02  0.52924836206E+02  0.00000000000E+00 0. -1.
         25    2    1    2    0    0 -0.79524363340E+02  0.82447539347E+02  0.23880905267E+03  0.29285507767E+03  0.12495043726E+03 0.  0.
          2    1    1    2  501    0  0.85060415567E+02 -0.14540178949E+03  0.25702099305E+03  0.30730562239E+03  0.00000000000E+00 0. -1.
          1    1    1    2  502    0 -0.55360522274E+01  0.62954250143E+02  0.13138678698E+04  0.13153868879E+04  0.00000000000E+00 0. -1.
         22    1    3    3    0    0 -0.10543349501E+03  0.62470628549E+02  0.12754186771E+03  0.17687772421E+03  0.00000000000E+00 0. -1.
         22    1    3    3    0    0  0.25909131668E+02  0.19976910798E+02  0.11126718495E+03  0.11597735346E+03  0.00000000000E+00 0. -1.
</event>
<event>
 7    1  0.5537228E-006  0.1411595E+03  0.7818608E-02  0.1318472E+00
          2   -1    0    0  502    0  0.00000000000E+00  0.00000000000E+00  0.31132122396E+04  0.31132122396E+04  0.00000000000E+00 0. -1.
          1   -1    0    0  501    0 -0.00000000000E+00 -0.00000000000E+00 -0.65000642894E+02  0.65000642894E+02  0.00000000000E+00 0. -1.
         25    2    1    2    0    0  0.59392088585E+02 -0.17863250837E+03  0.15868208203E+04  0.16028293938E+04  0.12499902652E+03 0.  0.
          2    1    1    2  501    0 -0.39979783209E+02  0.13276553022E+03  0.28407139842E+02  0.14153457060E+03  0.00000000000E+00 0. -1.
          1    1    1    2  502    0 -0.19412305376E+02  0.45866978149E+02  0.14329836365E+04  0.14338489180E+04  0.00000000000E+00 0. -1.
         22    1    3    3    0    0  0.15017527264E+02  0.23139568907E+00  0.51940811869E+03  0.51962522401E+03  0.00000000000E+00 0. -1.
         22    1    3    3    0    0  0.44374561321E+02 -0.17886390406E+03  0.10674127017E+04  0.10832041698E+04  0.00000000000E+00 0. -1.
</event>
<event>
 7    1  0.5537228E-006  0.6966103E+02  0.7818608E-02  0.1459879E+00
          2   -1    0    0  502    0  0.00000000000E+00  0.00000000000E+00  0.82613870592E+02  0.82613870592E+02  0.00000000000E+00 0. -1.
          1   -1    0    0  501    0 -0.00000000000E+00 -0.00000000000E+00 -0.34801816667E+03  0.34801816667E+03  0.00000000000E+00 0. -1.
         25    2    1    2    0    0  0.57862611698E+02 -0.51520973064E+02 -0.46316947258E+02  0.15418190286E+03  0.12499722824E+03 0.  0.
          2    1    1    2  501    0 -0.66455799258E+02  0.20430780127E+02 -0.23163162832E+03  0.24184085939E+03  0.00000000000E+00 0. -1.
          1    1    1    2  502    0  0.85931875597E+01  0.31090192937E+02  0.12544279499E+02  0.34609275020E+02  0.00000000000E+00 0. -1.
         22    1    3    3    0    0  0.70203661006E+02 -0.39302337357E+02 -0.81763007532E+02  0.11471014402E+03  0.00000000000E+00 0. -1.
         22    1    3    3    0    0 -0.12341049308E+02 -0.12218635707E+02  0.35446060274E+02  0.39471758835E+02  0.00000000000E+00 0. -1.
</event>
<event>
 7    1  0.5537228E-006  0.7833593E+02  0.7818608E-02  0.1368073E+00
          2   -1    0    0  502    0  0.00000000000E+00  0.00000000000E+00  0.49976252969E+03  0.49976252969E+03  0.00000000000E+00 0. -1.
          1   -1    0    0  501    0 -0.00000000000E+00 -0.00000000000E+00 -0.56865279204E+03  0.56865279204E+03  0.00000000000E+00 0. -1.
         25    2    1    2    0    0  0.56683328209E+02 -0.56246623491E+02  0.18116189300E+03  0.23413858630E+03  0.12499825506E+03 0.  0.
          2    1    1    2  501    0 -0.25901849479E+01  0.78569092078E+02 -0.53633948219E+03  0.54206996914E+03  0.00000000000E+00 0. -1.
          1    1    1    2  502    0 -0.54093143262E+02 -0.22322468587E+02  0.28628732684E+03  0.29220676628E+03  0.00000000000E+00 0. -1.
         22    1    3    3    0    0  0.32246124813E+01 -0.87801424845E+01  0.15902399676E+03  0.15929884047E+03  0.00000000000E+00 0.  1.
         22    1    3    3    0    0  0.53458715728E+02 -0.47466481007E+02  0.22137896240E+02  0.74839745834E+02  0.00000000000E+00 0.  1.
</event>
<event>
 7    1  0.5537228E-006  0.9092301E+02  0.7818608E-02  0.1430920E+00
          2   -1    0    0  502    0  0.00000000000E+00  0.00000000000E+00  0.48124848285E+03  0.48124848285E+03  0.00000000000E+00 0. -1.
          1   -1    0    0  501    0 -0.00000000000E+00 -0.00000000000E+00 -0.47438770134E+03  0.47438770134E+03  0.00000000000E+00 0. -1.
         25    2    1    2    0    0 -0.23763969863E+02  0.11505717302E+03  0.13874035813E+03  0.22062822881E+03  0.12500019620E+03 0.  0.
          2    1    1    2  501    0  0.67069446440E+01 -0.29890127225E+02 -0.42662880484E+03  0.42772717932E+03  0.00000000000E+00 0. -1.
          1    1    1    2  502    0  0.17057025219E+02 -0.85167045790E+02  0.29474922822E+03  0.30728077606E+03  0.00000000000E+00 0. -1.
         22    1    3    3    0    0  0.40876536171E+02  0.37237189719E+02  0.88638328451E+01  0.56000598570E+02  0.00000000000E+00 0. -1.
         22    1    3    3    0    0 -0.64640506034E+02  0.77819983296E+02  0.12987652528E+03  0.16462763024E+03  0.00000000000E+00 0. -1.
</event>
<event>
 7    1  0.5537228E-006  0.9646501E+02  0.7818608E-02  0.1323279E+00
          2   -1    0    0  502    0  0.00000000000E+00  0.00000000000E+00  0.18566884046E+04  0.18566884046E+04  0.00000000000E+00 0. -1.
          1   -1    0    0  501    0 -0.00000000000E+00 -0.00000000000E+00 -0.18122466987E+03  0.18122466987E+03  0.00000000000E+00 0. -1.
         25    2    1    2    0    0  0.33774080293E+02  0.77944197130E+01 -0.90957064164E+01  0.13003258890E+03  0.12499720326E+03 0.  0.
          2    1    1    2  501    0  0.59791974913E+02 -0.36056420542E+02 -0.99275175014E+02  0.12137012029E+03  0.00000000000E+00 0. -1.
          1    1    1    2  502    0 -0.93566055206E+02  0.28262000829E+02  0.17838346162E+04  0.17865103653E+04  0.00000000000E+00 0. -1.
         22    1    3    3    0    0 -0.88887598249E+01 -0.53939003692E+02 -0.44861924698E+01  0.54850269766E+02  0.00000000000E+00 0.  1.
         22    1    3    3    0    0  0.42662840118E+02  0.61733423405E+02 -0.46095139467E+01  0.75182319138E+02  0.00000000000E+00 0.  1.
</event>
<event>
 7    1  0.6751522E-006  0.1487281E+03  0.7818608E-02  0.1336650E+00
          2   -1    0    0  502    0  0.00000000000E+00  0.00000000000E+00  0.12875032007E+04  0.12875032007E+04  0.00000000000E+00 0. -1.
          1   -1    0    0  501    0 -0.00000000000E+00 -0.00000000000E+00 -0.11089324474E+04  0.11089324474E+04  0.00000000000E+00 0. -1.
         25    2    1    2    0    0 -0.52361323732E+02 -0.95720898275E+02 -0.25295104928E+03  0.30251477165E+03  0.12500702039E+03 0.  0.
          2    1    1    2  501    0 -0.18453658703E+02 -0.35782672385E+02 -0.82629104533E+03  0.82727131508E+03  0.00000000000E+00 0. -1.
          1    1    1    2  502    0  0.70814982436E+02  0.13150357066E+03  0.12578128479E+04  0.12666495613E+04  0.00000000000E+00 0. -1.
         22    1    3    3    0    0 -0.93092608412E+02 -0.58307857955E+02 -0.15408270892E+03  0.18922875371E+03  0.00000000000E+00 0.  1.
         22    1    3    3    0    0  0.40731284679E+02 -0.37413040320E+02 -0.98868340355E+02  0.11328601795E+03  0.00000000000E+00 0.  1.
</event>
<event>
 7    1  0.5537228E-006  0.4385391E+02  0.7818608E-02  0.1581311E+00
          2   -1    0    0  502    0  0.00000000000E+00  0.00000000000E+00  0.79238456284E+03  0.79238456284E+03  0.00000000000E+00 0. -1.
          1   -1    0    0  501    0 -0.00000000000E+00 -0.00000000000E+00 -0.80834830928E+03  0.80834830928E+03  0.00000000000E+00 0. -1.
         25    2    1    2    0    0 -0.29621831824E+02  0.56994300604E+02  0.12802719989E+03  0.19011118276E+03  0.12500197868E+03 0.  0.
          2    1    1    2  501    0  0.27073181938E+02 -0.34404442202E+02 -0.77648552133E+03  0.77771870728E+03  0.00000000000E+00 0. -1.
          1    1    1    2  502    0  0.25486498855E+01 -0.22589858401E+02  0.63249457499E+03  0.63290298207E+03  0.00000000000E+00 0. -1.
         22    1    3    3    0    0  0.39851286996E+01  0.58441968593E+02  0.87445262970E+00  0.58584209572E+02  0.00000000000E+00 0. -1.
         22    1    3    3    0    0 -0.33606960523E+02 -0.14476679897E+01  0.12715274726E+03  0.13152697318E+03  0.00000000000E+00 0. -1.
</event>
<event>
 7    1  0.5537228E-006  0.1796351E+03  0.7818608E-02  0.1242987E+00
          2   -1    0    0  502    0  0.00000000000E+00  0.00000000000E+00  0.15639219151E+04  0.15639219151E+04  0.00000000000E+00 0. -1.
          1   -1    0    0  501    0 -0.00000000000E+00 -0.00000000000E+00 -0.19824855982E+03  0.19824855982E+03  0.00000000000E+00 0. -1.
         25    2    1    2    0    0  0.22734095119E+03 -0.58861827146E+02  0.86506291097E+03  0.90504534602E+03  0.12499846257E+03 0.  0.
          2    1    1    2  501    0 -0.75966316043E+02  0.25872786215E+02 -0.15978198302E+03  0.17880314409E+03  0.00000000000E+00 0. -1.
          1    1    1    2  502    0 -0.15137463515E+03  0.32989040930E+02  0.66039242732E+03  0.67832198479E+03  0.00000000000E+00 0. -1.
         22    1    3    3    0    0 -0.65790829411E+01  0.10816690218E+02  0.10939079400E+02  0.16731663926E+02  0.00000000000E+00 0.  1.
         22    1    3    3    0    0  0.23392003413E+03 -0.69678517364E+02  0.85412383157E+03  0.88831368210E+03  0.00000000000E+00 0.  1.
</event>
<event>
 7    1  0.5537228E-006  0.4472901E+02  0.7818608E-02  0.1496526E+00
          2   -1    0    0  502    0  0.00000000000E+00  0.00000000000E+00  0.24933792066E+03  0.24933792066E+03  0.00000000000E+00 0. -1.
          1   -1    0    0  501    0 -0.00000000000E+00 -0.00000000000E+00 -0.11154153053E+04  0.11154153053E+04  0.00000000000E+00 0. -1.
         25    2    1    2    0    0 -0.11954258122E+02 -0.66136720181E+01 -0.64287637865E+03  0.65505846603E+03  0.12499964295E+03 0.  0.
          2    1    1    2  501    0  0.28930685112E+02 -0.34768508944E+02 -0.46328092890E+03  0.46548367623E+03  0.00000000000E+00 0. -1.
          1    1    1    2  502    0 -0.16976426990E+02  0.41382180962E+02  0.24007992296E+03  0.24421108366E+03  0.00000000000E+00 0. -1.
         22    1    3    3    0    0  0.43538020970E+02  0.15167752002E+02 -0.11609463822E+03  0.12491431060E+03  0.00000000000E+00 0. -1.
         22    1    3    3    0    0 -0.55492279092E+02 -0.21781424020E+02 -0.52678174044E+03  0.53014415542E+03  0.00000000000E+00 0. -1.
</event>
<event>
 7    1  0.5537228E-006  0.1451236E+03  0.7818608E-02  0.1293274E+00
          2   -1    0    0  502    0  0.00000000000E+00  0.00000000000E+00  0.69564105467E+03  0.69564105467E+03  0.00000000000E+00 0. -1.
          1   -1    0    0  501    0 -0.00000000000E+00 -0.00000000000E+00 -0.12121431990E+03  0.12121431990E+03  0.00000000000E+00 0. -1.
         25    2    1    2    0    0 -0.89451963731E+01  0.10545567603E+03  0.12768208566E+03  0.20767790835E+03  0.12500592975E+03 0.  0.
          2    1    1    2  501    0 -0.11419267503E+01 -0.16559834099E+03  0.75553201257E+01  0.16577453785E+03  0.00000000000E+00 0. -1.
          1    1    1    2  502    0  0.10087123123E+02  0.60142664962E+02  0.43918932898E+03  0.44340292838E+03  0.00000000000E+00 0. -1.
         22    1    3    3    0    0 -0.37228222622E+02  0.95990470820E+02  0.32549222111E+02  0.10797945595E+03  0.00000000000E+00 0. -1.
         22    1    3    3    0    0  0.28283026249E+02  0.94652052106E+01  0.95132863549E+02  0.99698452398E+02  0.00000000000E+00 0. -1.
</event>
<event>
 7    1  0.5537228E-006  0.6895945E+02  0.7818608E-02  0.1500524E+00
          2   -1    0    0  502    0  0.00000000000E+00  0.00000000000E+00  0.53698537468E+02  0.53698537468E+02  0.00000000000E+00 0. -1.
          1   -1    0    0  501    0 -0.00000000000E+00 -0.00000000000E+00 -0.70294581378E+03  0.70294581378E+03  0.00000000000E+00 0. -1.
         25    2    1    2    0    0 -0.26835028559E+02 -0.37845488454E+02 -0.62362375372E+03  0.63771806999E+03  0.12500140334E+03 0.  0.
          2    1    1    2  501    0 -0.19822985040E+02 -0.14317470583E+02 -0.40563684672E+02  0.47364049805E+02  0.00000000000E+00 0. -1.
          1    1    1    2  502    0  0.46658013599E+02  0.52162959037E+02  0.14940162072E+02  0.71562231458E+02  0.00000000000E+00 0. -1.
         22    1    3    3    0    0  0.48161103958E+02  0.12799816102E+01 -0.19877692932E+03  0.20453214397E+03  0.00000000000E+00 0. -1.
         22    1    3    3    0    0 -0.74996132517E+02 -0.39125470064E+02 -0.42484682439E+03  0.43318592602E+03  0.00000000000E+00 0. -1.
</event>
<event>
 7    1  0.5537228E-006  0.6566764E+02  0.7818608E-02  0.1489925E+00
          2   -1    0    0  502    0  0.00000000000E+00  0.00000000000E+00  0.39580960062E+03  0.39580960062E+03  0.00000000000E+00 0. -1.
          1   -1    0    0  501    0 -0.00000000000E+00 -0.00000000000E+00 -0.13458574643E+04  0.13458574643E+04  0.00000000000E+00 0. -1.
         25    2    1    2    0    0  0.82345565604E+02 -0.12832161254E+02 -0.24356776500E+03  0.28620036602E+03  0.12505973304E+03 0.  0.
          2    1    1    2  501    0 -0.17403763621E+02  0.21462306907E+02 -0.10779298426E+04  0.10782839456E+04  0.00000000000E+00 0. -1.
          1    1    1    2  502    0 -0.64941801983E+02 -0.86301456532E+01  0.37144974401E+03  0.37718275329E+03  0.00000000000E+00 0. -1.
         22    1    3    3    0    0  0.70247568247E+02  0.48942918633E+02 -0.16128146538E+03  0.18259748411E+03  0.00000000000E+00 0.  1.
         22    1    3    3    0    0  0.12097997357E+02 -0.61775079887E+02 -0.82286299613E+02  0.10360288191E+03  0.00000000000E+00 0.  1.
</event>
<event>
 7    1  0.5537228E-006  0.8054348E+02  0.7818608E-02  0.1418830E+00
          2   -1    0    0  502    0  0.00000000000E+00  0.00000000000E+00  0.14868401575E+03  0.14868401575E+03  0.00000000000E+00 0. -1.
          1   -1    0    0  501    0 -0.00000000000E+00 -0.00000000000E+00 -0.64527482225E+03  0.64527482225E+03  0.00000000000E+00 0. -1.
         25    2    1    2    0    0 -0.75042289991E+01  0.61165759682E+02  0.31452586208E+02  0.14286969832E+03  0.12499968764E+03 0.  0.
          2    1    1    2  501    0 -0.27083548484E+02 -0.76724225053E+02 -0.58060216076E+03  0.58627552771E+03  0.00000000000E+00 0. -1.
          1    1    1    2  502    0  0.34587777483E+02  0.15558465371E+02  0.52558768063E+02  0.64813611967E+02  0.00000000000E+00 0. -1.
         22    1    3    3    0    0 -0.26905336444E+02 -0.32343773633E+02  0.20321030777E+02  0.46722169405E+02  0.00000000000E+00 0. -1.
         22    1    3    3    0    0  0.19401107445E+02  0.93509533315E+02  0.11131555431E+02  0.96147528919E+02  0.00000000000E+00 0. -1.
</event>
<event>
 7    1  0.5537228E-006  0.1136773E+03  0.7818608E-02  0.1371959E+00
          2   -1    0    0  502    0  0.00000000000E+00  0.00000000000E+00  0.90834399005E+03  0.90834399005E+03  0.00000000000E+00 0. -1.
          1   -1    0    0  501    0 -0.00000000000E+00 -0.00000000000E+00 -0.37841081057E+03  0.37841081057E+03  0.00000000000E+00 0. -1.
         25    2    1    2    0    0 -0.58961227884E+02 -0.11142832018E+03  0.38328492036E+02  0.18162287292E+03  0.12500039095E+03 0.  0.
          2    1    1    2  501    0  0.80778628691E+02  0.79043083843E+02 -0.29585390759E+03  0.31670574765E+03  0.00000000000E+00 0. -1.
          1    1    1    2  502    0 -0.21817400807E+02  0.32385236335E+02  0.78745859503E+03  0.78842618006E+03  0.00000000000E+00 0. -1.
         22    1    3    3    0    0 -0.51174032981E+02 -0.79521911084E+02  0.83241385061E+02  0.12598271382E+03  0.00000000000E+00 0. -1.
         22    1    3    3    0    0 -0.77871949028E+01 -0.31906409093E+02 -0.44912893024E+02  0.55640159107E+02  0.00000000000E+00 0. -1.
</event>
<event>
 7    1  0.5537228E-006  0.5635441E+02  0.7818608E-02  0.1455450E+00
          2   -1    0    0  502    0  0.00000000000E+00  0.00000000000E+00  0.16890576436E+03  0.16890576436E+03  0.00000000000E+00 0. -1.
          1   -1    0    0  501    0 -0.00000000000E+00 -0.00000000000E+00 -0.16297360515E+04  0.16297360515E+04  0.00000000000E+00 0. -1.
         25    2    1    2    0    0  0.73921719228E+02  0.36074655468E+01 -0.64354191653E+02  0.15888470271E+03  0.12500180956E+03 0.  0.
          2    1    1    2  501    0 -0.28750309923E+02  0.29482413562E+02 -0.15113772797E+04  0.15119381848E+04  0.00000000000E+00 0. -1.
          1    1    1    2  502    0 -0.45171409305E+02 -0.33089879109E+02  0.11490118420E+03  0.12781892836E+03  0.00000000000E+00 0. -1.
         22    1    3    3    0    0  0.57343860503E+02  0.38552392939E+01  0.28786811242E+02  0.64279559028E+02  0.00000000000E+00 0.  1.
         22    1    3    3    0    0  0.16577858725E+02 -0.24777374704E+00 -0.93141002895E+02  0.94605143687E+02  0.00000000000E+00 0.  1.
</event>
<event>
 7    1  0.5537228E-006  0.4644639E+02  0.7818608E-02  0.1491045E+00
          2   -1    0    0  502    0  0.00000000000E+00  0.00000000000E+00  0.38150735733E+03  0.38150735733E+03  0.00000000000E+00 0. -1.
          1   -1    0    0  501    0 -0.00000000000E+00 -0.00000000000E+00 -0.21279144331E+04  0.21279144331E+04  0.00000000000E+00 0. -1.
         25    2    1    2    0    0 -0.84609349810E+02  0.94865483767E+01 -0.18684876514E+04  0.18745976453E+04  0.12498596577E+03 0.  0.
          2    1    1    2  501    0  0.38646576698E+02 -0.30096598360E+01 -0.25346949112E+03  0.25641645593E+03  0.00000000000E+00 0. -1.
          1    1    1    2  502    0  0.45962773112E+02 -0.64768885407E+01  0.37555006676E+03  0.37840768919E+03  0.00000000000E+00 0. -1.
         22    1    3    3    0    0  0.37021255695E+01  0.39652019644E+02 -0.22755964882E+03  0.23101814250E+03  0.00000000000E+00 0. -1.
         22    1    3    3    0    0 -0.88311475379E+02 -0.30165471268E+02 -0.16409280026E+04  0.16435795028E+04  0.00000000000E+00 0. -1.
</event>
<event>
 7    1  0.5537228E-006  0.1037307E+03  0.7818608E-02  0.1309346E+00
          2   -1    0    0  502    0  0.00000000000E+00  0.00000000000E+00  0.16149991074E+04  0.16149991074E+04  0.00000000000E+00 0. -1.
          1   -1    0    0  501    0 -0.00000000000E+00 -0.00000000000E+00 -0.65333188831E+02  0.65333188831E+02  0.00000000000E+00 0. -1.
         25    2    1    2    0    0 -0.60887467516E+02  0.89815257185E+02  0.35812951366E+03  0.39453104239E+03  0.12499572286E+03 0.  0.
          2    1    1    2  501    0  0.10251178499E+03 -0.29126488176E+02  0.15765024190E+02  0.10772907854E+03  0.00000000000E+00 0. -1.
          1    1    1    2  502    0 -0.41624317475E+02 -0.60688769009E+02  0.11757713808E+04  0.11780721753E+04  0.00000000000E+00 0. -1.
         22    1    3    3    0    0  0.34611022631E+02  0.31086048135E+01  0.54466062713E+02  0.64607571529E+02  0.00000000000E+00 0. -1.
         22    1    3    3    0    0 -0.95498490147E+02  0.86706652371E+02  0.30366345094E+03  0.32992347086E+03  0.00000000000E+00 0. -1.
</event>
<event>
 7    1  0.5537228E-006  0.9189014E+02  0.7818608E-02  0.1314710E+00
          2   -1    0    0  502    0  0.00000000000E+00  0.00000000000E+00  0.29098795035E+04  0.29098795035E+04  0.00000000000E+00 0. -1.
          1   -1    0    0  501    0 -0.00000000000E+00 -0.00000000000E+00 -0.24494733755E+04  0.24494733755E+04  0.00000000000E+00 0. -1.
         25    2    1    2    0    0  0.86038877531E+02  0.34526282163E+01  0.96645845777E+02  0.17994612949E+03  0.12500232368E+03 0.  0.
          2    1    1    2  501    0 -0.32535485461E+02  0.72142012387E+02 -0.24063988941E+04  0.24076998703E+04  0.00000000000E+00 0. -1.
          1    1    1    2  502    0 -0.53503392070E+02 -0.75594640604E+02  0.27701591762E+04  0.27717068792E+04  0.00000000000E+00 0. -1.
         22    1    3    3    0    0  0.70384853941E+02 -0.56071541333E+02  0.52264942440E+02  0.10406569858E+03  0.00000000000E+00 0.  1.
         22    1    3    3    0    0  0.15654023590E+02  0.59524169549E+02  0.44380903337E+02  0.75880430917E+02  0.00000000000E+00 0.  1.
</event>
<event>
 7    1  0.5537228E-006  0.9305022E+02  0.7818608E-02  0.1404637E+00
          2   -1    0    0  502    0  0.00000000000E+00  0.00000000000E+00  0.83873682868E+03  0.83873682868E+03  0.00000000000E+00 0. -1.
          1   -1    0    0  501    0 -0.00000000000E+00 -0.00000000000E+00 -0.15180168446E+03  0.15180168446E+03  0.00000000000E+00 0. -1.
         25    2    1    2    0    0  0.15368596113E+02 -0.99083715442E+02  0.17242020455E+03  0.23538627121E+03  0.12499677325E+03 0.  0.
          2    1    1    2  501    0  0.31471874594E+02  0.18806315365E+02 -0.11402675132E+03  0.11977585902E+03  0.00000000000E+00 0. -1.
          1    1    1    2  502    0 -0.46840470707E+02  0.80277400078E+02  0.62854169099E+03  0.63537638292E+03  0.00000000000E+00 0. -1.
         22    1    3    3    0    0 -0.18621403734E+02 -0.99663053518E+02  0.17396783599E+03  0.20135612450E+03  0.00000000000E+00 0.  1.
         22    1    3    3    0    0  0.33989999848E+02  0.57933807553E+00 -0.15476314356E+01  0.34030146713E+02  0.00000000000E+00 0.  1.
</event>
<event>
 7    1  0.5537228E-006  0.1093082E+03  0.7818608E-02  0.1376206E+00
          2   -1    0    0  502    0  0.00000000000E+00  0.00000000000E+00  0.18398446952E+02  0.18398446952E+02  0.00000000000E+00 0. -1.
          1   -1    0    0  501    0 -0.00000000000E+00 -0.00000000000E+00 -0.26315364827E+04  0.26315364827E+04  0.00000000000E+00 0. -1.
         25    2    1    2    0    0  0.56163796726E+02  0.66209986885E+02 -0.19879965461E+04  0.19938114441E+04  0.12496268513E+03 0.  0.
          2    1    1    2  501    0 -0.12614042675E+02  0.37131102247E+02 -0.42418825917E+03  0.42599707985E+03  0.00000000000E+00 0. -1.
          1    1    1    2  502    0 -0.43549754051E+02 -0.10334108913E+03 -0.20095323041E+03  0.23012640569E+03  0.00000000000E+00 0. -1.
         22    1    3    3    0    0 -0.30567965830E+01 -0.16229504031E+02 -0.10853319878E+04  0.10854576291E+04  0.00000000000E+00 0. -1.
         22    1    3    3    0    0  0.59220593309E+02  0.82439490917E+02 -0.90266455830E+03  0.90835381496E+03  0.00000000000E+00 0. -1.
</event>
<event>
 7    1  0.5537228E-006  0.1394233E+03  0.7818608E-02  0.1324782E+00
          2   -1    0    0  502    0  0.00000000000E+00  0.00000000000E+00  0.96613601810E+03  0.96613601810E+03  0.00000000000E+00 0. -1.
          1   -1    0    0  501    0 -0.00000000000E+00 -0.00000000000E+00 -0.10322515438E+04  0.10322515438E+04  0.00000000000E+00 0. -1.
         25    2    1    2    0    0 -0.12413295153E+03  0.18049828534E+02 -0.14342775023E+03  0.22788098025E+03  0.12499374248E+03 0.  0.
          2    1    1    2  501    0  0.13970111587E+03  0.27004878908E+02 -0.83999539746E+03  0.85196122741E+03  0.00000000000E+00 0. -1.
          1    1    1    2  502    0 -0.15568164340E+02 -0.45054707442E+02  0.91730762200E+03  0.91854535423E+03  0.00000000000E+00 0. -1.
         22    1    3    3    0    0 -0.14268851201E+03 -0.10179004100E+02 -0.12066659727E+03  0.18714713805E+03  0.00000000000E+00 0.  1.
         22    1    3    3    0    0  0.18555560476E+02  0.28228832634E+02 -0.22761152952E+02  0.40733842197E+02  0.00000000000E+00 0.  1.
</event>
<event>
 7    1  0.5537228E-006  0.1407611E+03  0.7818608E-02  0.1293155E+00
          2   -1    0    0  502    0  0.00000000000E+00  0.00000000000E+00  0.72097955844E+02  0.72097955844E+02  0.00000000000E+00 0. -1.
          1   -1    0    0  501    0 -0.00000000000E+00 -0.00000000000E+00 -0.97889279700E+03  0.97889279700E+03  0.00000000000E+00 0. -1.
         25    2    1    2    0    0 -0.96859143005E+01  0.98694856128E+02 -0.11728263502E+03  0.19802749610E+03  0.12500072468E+03 0.  0.
          2    1    1    2  501    0 -0.32706088603E+02 -0.14522127015E+03 -0.77393618949E+03  0.78812190107E+03  0.00000000000E+00 0. -1.
          1    1    1    2  502    0  0.42392002903E+02  0.46526414024E+02 -0.15576016643E+02  0.64841355681E+02  0.00000000000E+00 0. -1.
         22    1    3    3    0    0  0.34051704785E+02 -0.13518570220E+02 -0.13502740323E+02  0.39046054036E+02  0.00000000000E+00 0.  1.
         22    1    3    3    0    0 -0.43737619086E+02  0.11221342635E+03 -0.10377989470E+03  0.15898144206E+03  0.00000000000E+00 0.  1.
</event>
<event>
 7    1  0.5537228E-006  0.2413741E+03  0.7818608E-02  0.1216027E+00
          2   -1    0    0  502    0  0.00000000000E+00  0.00000000000E+00  0.74279629258E+03  0.74279629258E+03  0.00000000000E+00 0. -1.
          1   -1    0    0  501    0 -0.00000000000E+00 -0.00000000000E+00 -0.37675934750E+03  0.37675934750E+03  0.00000000000E+00 0. -1.
         25    2    1    2    0    0 -0.88750203609E+02 -0.24919030657E+03  0.26048206440E+03  0.39172354323E+03  0.12499608360E+03 0.  0.
          2    1    1    2  501    0  0.14314850393E+03  0.19202200719E+03 -0.26020668884E+03  0.35365444482E+03  0.00000000000E+00 0. -1.
          1    1    1    2  502    0 -0.54398300324E+02  0.57168299380E+02  0.36576156953E+03  0.37417765202E+03  0.00000000000E+00 0. -1.
         22    1    3    3    0    0  0.29117725847E+01 -0.16302035772E+03  0.17747372535E+03  0.24100008017E+03  0.00000000000E+00 0. -1.
         22    1    3    3    0    0 -0.91661976194E+02 -0.86169948856E+02  0.83008339043E+02  0.15072346306E+03  0.00000000000E+00 0. -1.
</event>
<event>
 7    1  0.5537228E-006  0.1034931E+03  0.7818608E-02  0.1342788E+00
          2   -1    0    0  502    0  0.00000000000E+00  0.00000000000E+00  0.28856917634E+04  0.28856917634E+04  0.00000000000E+00 0. -1.
          1   -1    0    0  501    0 -0.00000000000E+00 -0.00000000000E+00 -0.20778640605E+03  0.20778640605E+03  0.00000000000E+00 0. -1.
         25    2    1    2    0    0  0.50807253849E+02  0.84573778294E+02 -0.23873877542E+02  0.16102258952E+03  0.12499684511E+03 0.  0.
          2    1    1    2  501    0 -0.51423593852E+02  0.19114981958E+02 -0.10780345740E+03  0.12096013379E+03  0.00000000000E+00 0. -1.
          1    1    1    2  502    0  0.61634000277E+00 -0.10368876025E+03  0.28095826923E+04  0.28114954462E+04  0.00000000000E+00 0. -1.
         22    1    3    3    0    0  0.39951844585E+02  0.11738565741E+03 -0.12445685368E+02  0.12462117611E+03  0.00000000000E+00 0. -1.
         22    1    3    3    0    0  0.10855409264E+02 -0.32811879116E+02 -0.11428192174E+02  0.36401413403E+02  0.00000000000E+00 0. -1.
</event>
<event>
 7    1  0.5537228E-006  0.8051275E+02  0.7818608E-02  0.1462100E+00
          2   -1    0    0  502    0  0.00000000000E+00  0.00000000000E+00  0.45688357122E+03  0.45688357122E+03  0.00000000000E+00 0. -1.
          1   -1    0    0  501    0 -0.00000000000E+00 -0.00000000000E+00 -0.85585032807E+03  0.85585032807E+03  0.00000000000E+00 0. -1.
         25    2    1    2    0    0  0.84991846876E+02 -0.57286811773E+02 -0.33179627535E+03  0.36907462851E+03  0.12498768032E+03 0.  0.
          2    1    1    2  501    0 -0.68608584582E+02  0.35246867410E+02 -0.50203634919E+03  0.50792713596E+03  0.00000000000E+00 0. -1.
          1    1    1    2  502    0 -0.16383262294E+02  0.22039944363E+02  0.43486586769E+03  0.43573213482E+03  0.00000000000E+00 0. -1.
         22    1    3    3    0    0  0.11530693099E+03 -0.33259832538E+02 -0.21751679936E+03  0.24842597045E+03  0.00000000000E+00 0.  1.
         22    1    3    3    0    0 -0.30315084110E+02 -0.24026979236E+02 -0.11427947599E+03  0.12064865805E+03  0.00000000000E+00 0.  1.
</event>
<event>
 7    1  0.5537228E-006  0.4408967E+02  0.7818608E-02  0.1582802E+00
          2   -1    0    0  502    0  0.00000000000E+00  0.00000000000E+00  0.21723272982E+02  0.21723272982E+02  0.00000000000E+00 0. -1.
          1   -1    0    0  501    0 -0.00000000000E+00 -0.00000000000E+00 -0.22184163396E+04  0.22184163396E+04  0.00000000000E+00 0. -1.
         25    2    1    2    0    0 -0.25890472558E+02  0.47985542623E+02 -0.11692013781E+04  0.11771275889E+04  0.12499827664E+03 0.  0.
          2    1    1    2  501    0 -0.85631160530E+01 -0.20703980334E+02 -0.10177522111E+04  0.10179987942E+04  0.00000000000E+00 0. -1.
          1    1    1    2  502    0  0.34453588611E+02 -0.27281562289E+02 -0.97394774291E+01  0.45013229496E+02  0.00000000000E+00 0. -1.
         22    1    3    3    0    0  0.23056426232E+02  0.69137266733E+02 -0.88291761780E+03  0.88592047062E+03  0.00000000000E+00 0. -1.
         22    1    3    3    0    0 -0.48946898790E+02 -0.21151724110E+02 -0.28628376026E+03  0.29120711825E+03  0.00000000000E+00 0. -1.
</event>
<event>
 7    1  0.5537228E-006  0.1770452E+03  0.7818608E-02  0.1255257E+00
          2   -1    0    0  502    0  0.00000000000E+00  0.00000000000E+00  0.53445417076E+03  0.53445417076E+03  0.00000000000E+00 0. -1.
          1   -1    0    0  501    0 -0.00000000000E+00 -0.00000000000E+00 -0.98697760797E+03  0.98697760797E+03  0.00000000000E+00 0. -1.
         25    2    1    2    0    0 -0.20527344191E+01  0.12251702385E+03  0.62633496498E+01  0.17515222302E+03  0.12499774730E+03 0.  0.
          2    1    1    2  501    0  0.50288767660E+02 -0.17599791545E+03 -0.89023690259E+03  0.90885970816E+03  0.00000000000E+00 0. -1.
          1    1    1    2  502    0 -0.48236033241E+02  0.53480891603E+02  0.43145011572E+03  0.43741984754E+03  0.00000000000E+00 0. -1.
         22    1    3    3    0    0  0.49941436888E+02  0.30227775008E+02  0.31395551962E+02  0.66283830482E+02  0.00000000000E+00 0.  1.
         22    1    3    3    0    0 -0.51994171307E+02  0.92289248841E+02 -0.25132202312E+02  0.10886839254E+03  0.00000000000E+00 0.  1.
</event>
<event>
 7    1  0.5537228E-006  0.1235591E+03  0.7818608E-02  0.1385448E+00
          2   -1    0    0  502    0  0.00000000000E+00  0.00000000000E+00  0.45245197721E+03  0.45245197721E+03  0.00000000000E+00 0. -1.
          1   -1    0    0  501    0 -0.00000000000E+00 -0.00000000000E+00 -0.15425276528E+04  0.15425276528E+04  0.00000000000E+00 0. -1.
         25    2    1    2    0    0 -0.34829414920E+02  0.15104670372E+03 -0.92998877900E+03  0.95106915382E+03  0.12500084572E+03 0.  0.
          2    1    1    2  501    0  0.25518559217E+01 -0.32075124651E+02 -0.59295722195E+03  0.59382959900E+03  0.00000000000E+00 0. -1.
          1    1    1    2  502    0  0.32277558999E+02 -0.11897157907E+03  0.43287032535E+03  0.45008087719E+03  0.00000000000E+00 0. -1.
         22    1    3    3    0    0 -0.48016785516E+01  0.33373553619E+02 -0.37798998467E+02  0.50651895159E+02  0.00000000000E+00 0.  1.
         22    1    3    3    0    0 -0.30027736369E+02  0.11767315010E+03 -0.89218978053E+03  0.90041725866E+03  0.00000000000E+00 0.  1.
</event>
<event>
 7    1  0.5537228E-006  0.5862264E+02  0.7818608E-02  0.1406066E+00
          2   -1    0    0  502    0  0.00000000000E+00  0.00000000000E+00  0.17074873119E+04  0.17074873119E+04  0.00000000000E+00 0. -1.
          1   -1    0    0  501    0 -0.00000000000E+00 -0.00000000000E+00 -0.17274581539E+03  0.17274581539E+03  0.00000000000E+00 0. -1.
         25    2    1    2    0    0  0.86991633171E+01 -0.21059816046E+01  0.19658810922E+03  0.23313891247E+03  0.12500702869E+03 0.  0.
          2    1    1    2  501    0  0.13504094674E+01 -0.57528732068E+02 -0.14847497791E+03  0.15923629512E+03  0.00000000000E+00 0. -1.
          1    1    1    2  502    0 -0.10049572785E+02  0.59634713672E+02  0.14866283652E+04  0.14878579197E+04  0.00000000000E+00 0. -1.
         22    1    3    3    0    0 -0.34884406082E+02 -0.46382630641E+01  0.37154039798E+01  0.35386996180E+02  0.00000000000E+00 0. -1.
         22    1    3    3    0    0  0.43583569399E+02  0.25322814595E+01  0.19287270524E+03  0.19775191629E+03  0.00000000000E+00 0. -1.
</event>
<event>
 7    1  0.5537228E-006  0.8956941E+02  0.7818608E-02  0.1378565E+00
          2   -1    0    0  502    0  0.00000000000E+00  0.00000000000E+00  0.11495739505E+04  0.11495739505E+04  0.00000000000E+00 0. -1.
          1   -1    0    0  501    0 -0.00000000000E+00 -0.00000000000E+00 -0.54458428313E+03  0.54458428313E+03  0.00000000000E+00 0. -1.
         25    2    1    2    0    0 -0.17454500303E+02 -0.11728008690E+03 -0.33151444688E+03  0.37361270738E+03  0.12500139304E+03 0.  0.
          2    1    1    2  501    0  0.36255625581E+02  0.29816864411E+02 -0.18734753290E+03  0.19313884611E+03  0.00000000000E+00 0. -1.
          1    1    1    2  502    0 -0.18801125277E+02  0.87463222489E+02  0.11238516471E+04  0.11274066801E+04  0.00000000000E+00 0. -1.
         22    1    3    3    0    0 -0.31843884488E+02  0.14752508557E+02 -0.39654696465E+02  0.52954361857E+02  0.00000000000E+00 0.  1.
         22    1    3    3    0    0  0.14389384184E+02 -0.13203259546E+03 -0.29185975042E+03  0.32065834552E+03  0.00000000000E+00 0.  1.
</event>
<event>
 7    1  0.5537228E-006  0.6560211E+02  0.7818608E-02  0.1471229E+00
          2   -1    0    0  502    0  0.00000000000E+00  0.00000000000E+00  0.22344780676E+04  0.22344780676E+04  0.00000000000E+00 0. -1.
          1   -1    0    0  501    0 -0.00000000000E+00 -0.00000000000E+00 -0.14371084336E+02  0.14371084336E+02  0.00000000000E+00 0. -1.
         25    2    1    2    0    0  0.29792273461E+02  0.22411358090E+02  0.61620621399E+03  0.62986192866E+03  0.12500440988E+03 0.  0.
          2    1    1    2  501    0  0.27322162280E+02  0.15798987550E+02  0.29862614751E+02  0.43449790782E+02  0.00000000000E+00 0. -1.
          1    1    1    2  502    0 -0.57114435741E+02 -0.38210345640E+02  0.15740381545E+04  0.15755374325E+04  0.00000000000E+00 0. -1.
         22    1    3    3    0    0  0.25218564475E+02 -0.16239829999E+02  0.56373040434E+03  0.56452783531E+03  0.00000000000E+00 0. -1.
         22    1    3    3    0    0  0.45737089857E+01  0.38651188089E+02  0.52475809650E+02  0.65334093343E+02  0.00000000000E+00 0. -1.
</event>
<event>
 7    1  0.5537228E-006  0.1550563E+03  0.7818608E-02  0.1209392E+00
          2   -1    0    0  502    0  0.00000000000E+00  0.00000000000E+00  0.56859061930E+03  0.56859061930E+03  0.00000000000E+00 0. -1.
          1   -1    0    0  501    0 -0.00000000000E+00 -0.00000000000E+00 -0.15193979329E+03  0.15193979329E+03  0.00000000000E+00 0. -1.
         25    2    1    2    0    0  0.39806998654E+02 -0.85614507336E+02  0.25731329802E+03  0.30124713919E+03  0.12500105809E+03 0.  0.
          2    1    1    2  501    0 -0.16826674892E+03  0.56040171343E+02 -0.38564924068E+02  0.18149780430E+03  0.00000000000E+00 0. -1.
          1    1    1    2  502    0  0.12845975027E+03  0.29574335993E+02  0.19790245206E+03  0.23778546911E+03  0.00000000000E+00 0. -1.
         22    1    3    3    0    0 -0.36015824661E+02 -0.69795024238E+02  0.14331653344E+03  0.16342617230E+03  0.00000000000E+00 0. -1.
         22    1    3    3    0    0  0.75822823314E+02 -0.15819483097E+02  0.11399676458E+03  0.13782096689E+03  0.00000000000E+00 0. -1.
</event>
<event>
 7    1  0.5537228E-006  0.5910461E+02  0.7818608E-02  0.1412490E+00
          2   -1    0    0  502    0  0.00000000000E+00  0.00000000000E+00  0.49933561024E+03  0.49933561024E+03  0.00000000000E+00 0. -1.
          1   -1    0    0  501    0 -0.00000000000E+00 -0.00000000000E+00 -0.11591783995E+04  0.11591783995E+04  0.00000000000E+00 0. -1.
         25    2    1    2    0    0  0.25455344873E+02  0.59470695703E+01  0.17350165809E+03  0.21543208592E+03  0.12499926427E+03 0.  0.
          2    1    1    2  501    0 -0.10999936857E+02 -0.58268516767E+02 -0.11350168800E+04  0.11365647965E+04  0.00000000000E+00 0. -1.
          1    1    1    2  502    0 -0.14455408016E+02  0.52321447197E+02  0.30167243272E+03  0.30651712729E+03  0.00000000000E+00 0. -1.
         22    1    3    3    0    0  0.22673819613E+02 -0.10681693436E+02 -0.12955467052E+02  0.28214265843E+02  0.00000000000E+00 0. -1.
         22    1    3    3    0    0  0.27815252593E+01  0.16628763006E+02  0.18645712514E+03  0.18721782008E+03  0.00000000000E+00 0. -1.
</event>
<event>
 7    1  0.5537228E-006  0.6076084E+02  0.7818608E-02  0.1415624E+00
          2   -1    0    0  502    0  0.00000000000E+00  0.00000000000E+00  0.17464656782E+03  0.17464656782E+03  0.00000000000E+00 0. -1.
          1   -1    0    0  501    0 -0.00000000000E+00 -0.00000000000E+00 -0.11907902652E+04  0.11907902652E+04  0.00000000000E+00 0. -1.
         25    2    1    2    0    0  0.78445994471E+02  0.55957676952E+02 -0.35382511506E+03  0.38742987599E+03  0.12499864442E+03 0.  0.
          2    1    1    2  501    0 -0.18588269842E+02 -0.48064912205E+02 -0.81354401980E+03  0.81517460198E+03  0.00000000000E+00 0. -1.
          1    1    1    2  502    0 -0.59857724629E+02 -0.78927647468E+01  0.15122543744E+03  0.16283235508E+03  0.00000000000E+00 0. -1.
         22    1    3    3    0    0 -0.66354696384E+01 -0.24951465475E+02 -0.15000972219E+03  0.15221537977E+03  0.00000000000E+00 0. -1.
         22    1    3    3    0    0  0.85081464109E+02  0.80909142426E+02 -0.20381539286E+03  0.23521449622E+03  0.00000000000E+00 0. -1.
</event>
<event>
 7    1  0.5537228E-006  0.1486089E+03  0.7818608E-02  0.1268451E+00
          2   -1    0    0  502    0  0.00000000000E+00  0.00000000000E+00  0.13980188570E+04  0.13980188570E+04  0.00000000000E+00 0. -1.
          1   -1    0    0  501    0 -0.00000000000E+00 -0.00000000000E+00 -0.84061874437E+02  0.84061874437E+02  0.00000000000E+00 0. -1.
         25    2    1    2    0    0  0.41048105412E+01  0.80919823773E+02  0.81251206559E+02  0.16968092415E+03  0.12499996042E+03 0.  0.
          2    1    1    2  501    0  0.11981237222E+02  0.74438099282E+02  0.58290065230E+01  0.75621147750E+02  0.00000000000E+00 0. -1.
          1    1    1    2  502    0 -0.16086047764E+02 -0.15535792306E+03  0.12268767694E+04  0.12367786595E+04  0.00000000000E+00 0. -1.
         22    1    3    3    0    0  0.40178146876E+00  0.11008551797E+03  0.36200025372E+02  0.11588539396E+03  0.00000000000E+00 0. -1.
         22    1    3    3    0    0  0.37030290725E+01 -0.29165694200E+02  0.45051181187E+02  0.53795530193E+02  0.00000000000E+00 0. -1.
</event>
<event>
 7    1  0.5537228E-006  0.1418205E+03  0.7818608E-02  0.1337953E+00
          2   -1    0    0  502    0  0.00000000000E+00  0.00000000000E+00  0.19471498426E+04  0.19471498426E+04  0.00000000000E+00 0. -1.
          1   -1    0    0  501    0 -0.00000000000E+00 -0.00000000000E+00 -0.70895326947E+03  0.70895326947E+03  0.00000000000E+00 0. -1.
         25    2    1    2    0    0  0.59998212218E+02 -0.15868070673E+03  0.59230389688E+03  0.62867290445E+03  0.12500544939E+03 0.  0.
          2    1    1    2  501    0 -0.75295203808E+02  0.11983821556E+03 -0.68318822239E+03  0.69769385323E+03  0.00000000000E+00 0. -1.
          1    1    1    2  502    0  0.15296991589E+02  0.38842491171E+02  0.13290808986E+04  0.13297363544E+04  0.00000000000E+00 0. -1.
         22    1    3    3    0    0  0.89260194084E+02 -0.12927975381E+03  0.53720427142E+03  0.55970444542E+03  0.00000000000E+00 0.  1.
         22    1    3    3    0    0 -0.29261981865E+02 -0.29400952922E+02  0.55099625458E+02  0.68968459030E+02  0.00000000000E+00 0.  1.
</event>
<event>
 7    1  0.5537228E-006  0.5570898E+02  0.7818608E-02  0.1429939E+00
          2   -1    0    0  502    0  0.00000000000E+00  0.00000000000E+00  0.15593228448E+03  0.15593228448E+03  0.00000000000E+00 0. -1.
          1   -1    0    0  501    0 -0.00000000000E+00 -0.00000000000E+00 -0.13872603647E+04  0.13872603647E+04  0.00000000000E+00 0. -1.
         25    2    1    2    0    0 -0.18683008057E+02 -0.47900297597E+02  0.79241518546E+02  0.15667623421E+03  0.12499892321E+03 0.  0.
          2    1    1    2  501    0  0.48716698973E+02 -0.12799805719E+02 -0.13174784999E+04  0.13184410300E+04  0.00000000000E+00 0. -1.
          1    1    1    2  502    0 -0.30033690915E+02  0.60700103316E+02  0.69089011156E+01  0.68075385032E+02  0.00000000000E+00 0. -1.
         22    1    3    3    0    0  0.32717488437E+02 -0.48736324846E+00 -0.17656167700E+02  0.37180799217E+02  0.00000000000E+00 0.  1.
         22    1    3    3    0    0 -0.51400496494E+02 -0.47412934349E+02  0.96897686246E+02  0.11949543499E+03  0.00000000000E+00 0.  1.
</event>
<event>
 7    1  0.5537228E-006  0.7461843E+02  0.7818608E-02  0.1372229E+00
          2   -1    0    0  502    0  0.00000000000E+00  0.00000000000E+00  0.12568165639E+04  0.12568165639E+04  0.00000000000E+00 0. -1.
          1   -1    0    0  501    0 -0.00000000000E+00 -0.00000000000E+00 -0.27920787272E+03  0.27920787272E+03  0.00000000000E+00 0. -1.
         25    2    1    2    0    0  0.86216326754E+01  0.37149449513E+02  0.67332538320E+01  0.13085784575E+03  0.12499609969E+03 0.  0.
          2    1    1    2  501    0  0.42441569817E+02 -0.67410898042E+02 -0.20906878493E+03  0.22373035747E+03  0.00000000000E+00 0. -1.
          1    1    1    2  502    0 -0.51063202492E+02  0.30261448529E+02  0.11799442222E+04  0.11814362334E+04  0.00000000000E+00 0. -1.
         22    1    3    3    0    0 -0.25474102667E+02 -0.38901700782E+02 -0.46817201626E+01  0.46735326404E+02  0.00000000000E+00 0.  1.
         22    1    3    3    0    0  0.34095735342E+02  0.76051150295E+02  0.11414973995E+02  0.84122519345E+02  0.00000000000E+00 0.  1.
</event>
<event>
 7    1  0.5537228E-006  0.6215716E+02  0.7818608E-02  0.1393012E+00
          2   -1    0    0  502    0  0.00000000000E+00  0.00000000000E+00  0.11496824326E+04  0.11496824326E+04  0.00000000000E+00 0. -1.
          1   -1    0    0  501    0 -0.00000000000E+00 -0.00000000000E+00 -0.20233495145E+03  0.20233495145E+03  0.00000000000E+00 0. -1.
         25    2    1    2    0    0  0.74278779595E+02  0.63308451018E+02  0.37169493418E+03  0.40411257214E+03  0.12499819917E+03 0.  0.
          2    1    1    2  501    0 -0.13707098950E+02 -0.58604482362E+02 -0.18000940879E+03  0.18980452357E+03  0.00000000000E+00 0. -1.
          1    1    1    2  502    0 -0.60571680645E+02 -0.47039686551E+01  0.75566195576E+03  0.75810028835E+03  0.00000000000E+00 0. -1.
         22    1    3    3    0    0  0.42932484973E+02 -0.27712620608E+02  0.20821794683E+03  0.21439659743E+03  0.00000000000E+00 0. -1.
         22    1    3    3    0    0  0.31346294621E+02  0.91021071625E+02  0.16347698735E+03  0.18971597471E+03  0.00000000000E+00 0. -1.
</event>
<event>
 7    1  0.5537228E-006  0.6535990E+02  0.7818608E-02  0.1378689E+00
          2   -1    0    0  502    0  0.00000000000E+00  0.00000000000E+00  0.11205449438E+04  0.11205449438E+04  0.00000000000E+00 0. -1.
          1   -1    0    0  501    0 -0.00000000000E+00 -0.00000000000E+00 -0.11389146852E+03  0.11389146852E+03  0.00000000000E+00 0. -1.
         25    2    1    2    0    0 -0.10558681942E+02  0.22645516929E+02  0.94178382266E+02  0.15844575261E+03  0.12494472230E+03 0.  0.
          2    1    1    2  501    0 -0.56371603138E+02 -0.30856543245E+02 -0.67789600919E+02  0.93409388683E+02  0.00000000000E+00 0. -1.
          1    1    1    2  502    0  0.66930285080E+02  0.82110263161E+01  0.98026469390E+03  0.98258127101E+03  0.00000000000E+00 0. -1.
         22    1    3    3    0    0  0.25671272381E+02 -0.40808503394E+02  0.14519059600E+02  0.50350285666E+02  0.00000000000E+00 0.  1.
         22    1    3    3    0    0 -0.36229954323E+02  0.63454020323E+02  0.79659322666E+02  0.10809546694E+03  0.00000000000E+00 0.  1.
</event>
<event>
 7    1  0.5537228E-006  0.5155851E+02  0.7818608E-02  0.1443779E+00
          2   -1    0    0  502    0  0.00000000000E+00  0.00000000000E+00  0.96926375255E+03  0.96926375255E+03  0.00000000000E+00 0. -1.
          1   -1    0    0  501    0 -0.00000000000E+00 -0.00000000000E+00 -0.15182405371E+03  0.15182405371E+03  0.00000000000E+00 0. -1.
         25    2    1    2    0    0  0.21056418823E+01  0.56183603831E+01  0.21432030731E+03  0.24818266555E+03  0.12500176660E+03 0.  0.
          2    1    1    2  501    0 -0.48966811632E+02  0.16140994062E+02 -0.12902236318E+03  0.13894261597E+03  0.00000000000E+00 0. -1.
          1    1    1    2  502    0  0.46861169749E+02 -0.21759354445E+02  0.73214175471E+03  0.73396252474E+03  0.00000000000E+00 0. -1.
         22    1    3    3    0    0  0.24366674110E+02  0.14800184986E+02  0.22128616962E+03  0.22311510291E+03  0.00000000000E+00 0.  1.
         22    1    3    3    0    0 -0.22261032228E+02 -0.91818246034E+01 -0.69658623092E+01  0.25067562638E+02  0.00000000000E+00 0.  1.
</event>
<event>
 7    1  0.5537228E-006  0.1740120E+03  0.7818608E-02  0.1349462E+00
          2   -1    0    0  502    0  0.00000000000E+00  0.00000000000E+00  0.16115928231E+04  0.16115928231E+04  0.00000000000E+00 0. -1.
          1   -1    0    0  501    0 -0.00000000000E+00 -0.00000000000E+00 -0.37129914993E+03  0.37129914993E+03  0.00000000000E+00 0. -1.
         25    2    1    2    0    0  0.13112518168E+03  0.14358034912E+03  0.61994016134E+03  0.66163440894E+03  0.12500063012E+03 0.  0.
          2    1    1    2  501    0 -0.10039372491E+03 -0.14135031674E+03 -0.32874381869E+03  0.37166020821E+03  0.00000000000E+00 0. -1.
          1    1    1    2  502    0 -0.30731456773E+02 -0.22300323819E+01  0.94909733052E+03  0.94959735587E+03  0.00000000000E+00 0. -1.
         22    1    3    3    0    0  0.10189060823E+03  0.62690063365E+02  0.20059726744E+03  0.23356156318E+03  0.00000000000E+00 0.  1.
         22    1    3    3    0    0  0.29234573444E+02  0.80890285753E+02  0.41934289390E+03  0.42807284576E+03  0.00000000000E+00 0.  1.
</event>
<event>
 7    1  0.5537228E-006  0.1643159E+03  0.7818608E-02  0.1282859E+00
          2   -1    0    0  502    0  0.00000000000E+00  0.00000000000E+00  0.47148526548E+03  0.47148526548E+03  0.00000000000E+00 0. -1.
          1   -1    0    0  501    0 -0.00000000000E+00 -0.00000000000E+00 -0.26350869137E+04  0.26350869137E+04  0.00000000000E+00 0. -1.
         25    2    1    2    0    0 -0.54514505471E+02  0.19481849119E+03 -0.12324809519E+04  0.12552130396E+04  0.12499760874E+03 0.  0.
          2    1    1    2  501    0  0.65406628289E+02 -0.13642980264E+03 -0.13851866101E+04  0.13934249398E+04  0.00000000000E+00 0. -1.
          1    1    1    2  502    0 -0.10892122817E+02 -0.58388688550E+02  0.45406591376E+03  0.45793419978E+03  0.00000000000E+00 0. -1.
         22    1    3    3    0    0 -0.35930987850E+02  0.19814906819E+03 -0.90260239166E+03  0.92479466183E+03  0.00000000000E+00 0.  1.
         22    1    3    3    0    0 -0.18583517621E+02 -0.33305770016E+01 -0.32987856021E+03  0.33041837775E+03  0.00000000000E+00 0.  1.
</event>
<event>
 7    1  0.5537228E-006  0.1083671E+03  0.7818608E-02  0.1378827E+00
          2   -1    0    0  502    0  0.00000000000E+00  0.00000000000E+00  0.63047753933E+03  0.63047753933E+03  0.00000000000E+00 0. -1.
          1   -1    0    0  501    0 -0.00000000000E+00 -0.00000000000E+00 -0.36854761761E+03  0.36854761761E+03  0.00000000000E+00 0. -1.
         25    2    1    2    0    0  0.57814998491E+01  0.71484546308E+02  0.18490604961E+03  0.23443319564E+03  0.12500083973E+03 0.  0.
          2    1    1    2  501    0 -0.16637119249E+02 -0.10864780304E+03 -0.33406576630E+03  0.35168320269E+03  0.00000000000E+00 0. -1.
          1    1    1    2  502    0  0.10855619400E+02  0.37163256736E+02  0.41108963841E+03  0.41290875860E+03  0.00000000000E+00 0. -1.
         22    1    3    3    0    0 -0.19421732089E+01 -0.36137070138E+02  0.48380699256E+02  0.60418142436E+02  0.00000000000E+00 0. -1.
         22    1    3    3    0    0  0.77236730580E+01  0.10762161645E+03  0.13652535035E+03  0.17401505320E+03  0.00000000000E+00 0. -1.
</event>
<event>
 7    1  0.5537228E-006  0.5518815E+02  0.7818608E-02  0.1510620E+00
          2   -1    0    0  502    0  0.00000000000E+00  0.00000000000E+00  0.39436423134E+03  0.39436423134E+03  0.00000000000E+00 0. -1.
          1   -1    0    0  501    0 -0.00000000000E+00 -0.00000000000E+00 -0.18316670214E+04  0.18316670214E+04  0.00000000000E+00 0. -1.
         25    2    1    2    0    0 -0.23712984229E+02 -0.20674745512E+02  0.46579302244E+02  0.13709738044E+03  0.12504523023E+03 0.  0.
          2    1    1    2  501    0  0.52146728064E+02  0.18434046686E+02 -0.17853065056E+04  0.17861630425E+04  0.00000000000E+00 0. -1.
          1    1    1    2  502    0 -0.28433743835E+02  0.22406988264E+01  0.30142441325E+03  0.30277082988E+03  0.00000000000E+00 0. -1.
         22    1    3    3    0    0  0.28798092040E+02 -0.49921854929E+02 -0.50602944698E+01  0.57854371354E+02  0.00000000000E+00 0. -1.
         22    1    3    3    0    0 -0.52511076269E+02  0.29247109417E+02  0.51639596713E+02  0.79243009085E+02  0.00000000000E+00 0. -1.
</event>
<event>
 7    1  0.5537228E-006  0.5709959E+02  0.7818608E-02  0.1473229E+00
          2   -1    0    0  502    0  0.00000000000E+00  0.00000000000E+00  0.25010796619E+03  0.25010796619E+03  0.00000000000E+00 0. -1.
          1   -1    0    0  501    0 -0.00000000000E+00 -0.00000000000E+00 -0.31202218506E+03  0.31202218506E+03  0.00000000000E+00 0. -1.
         25    2    1    2    0    0  0.61531950384E+02  0.45258878026E+02 -0.13013783706E+02  0.14707346285E+03  0.12500679162E+03 0.  0.
          2    1    1    2  501    0 -0.55586970098E+02 -0.10010119196E+02 -0.22673549475E+03  0.23366449947E+03  0.00000000000E+00 0. -1.
          1    1    1    2  502    0 -0.59449802863E+01 -0.35248758830E+02  0.17783505958E+03  0.18139218893E+03  0.00000000000E+00 0. -1.
         22    1    3    3    0    0 -0.21464152587E+02 -0.24014568619E+02 -0.21354750277E+02  0.38644983007E+02  0.00000000000E+00 0.  1.
         22    1    3    3    0    0  0.82996102971E+02  0.69273446645E+02  0.83409665709E+01  0.10842847985E+03  0.00000000000E+00 0.  1.
</event>
<event>
 7    1  0.5537228E-006  0.7553571E+02  0.7818608E-02  0.1396662E+00
          2   -1    0    0  502    0  0.00000000000E+00  0.00000000000E+00  0.19526539724E+04  0.19526539724E+04  0.00000000000E+00 0. -1.
          1   -1    0    0  501    0 -0.00000000000E+00 -0.00000000000E+00 -0.45787828097E+03  0.45787828097E+03  0.00000000000E+00 0. -1.
         25    2    1    2    0    0 -0.10467535109E+03 -0.25251561821E+02  0.11770344282E+02  0.16540253469E+03  0.12499954790E+03 0.  0.
          2    1    1    2  501    0  0.60294420833E+02  0.43809568405E+02 -0.37710403085E+03  0.38439842033E+03  0.00000000000E+00 0. -1.
          1    1    1    2  502    0  0.44380930260E+02 -0.18558006584E+02  0.18601093780E+04  0.18607312983E+04  0.00000000000E+00 0. -1.
         22    1    3    3    0    0 -0.11809435070E+03  0.13638788159E+02 -0.91832302064E+01  0.11923348493E+03  0.00000000000E+00 0. -1.
         22    1    3    3    0    0  0.13418999609E+02 -0.38890349980E+02  0.20953574488E+02  0.46169049761E+02  0.00000000000E+00 0. -1.
</event>
<event>
 7    1  0.5537228E-006  0.1349701E+03  0.7818608E-02  0.1380139E+00
          2   -1    0    0  502    0  0.00000000000E+00  0.00000000000E+00  0.85068595478E+03  0.85068595478E+03  0.00000000000E+00 0. -1.
          1   -1    0    0  501    0 -0.00000000000E+00 -0.00000000000E+00 -0.17533835395E+03  0.17533835395E+03  0.00000000000E+00 0. -1.
         25    2    1    2    0    0 -0.11275687551E+03  0.50078931529E+02  0.94380047005E+02  0.19938228258E+03  0.12499475579E+03 0.  0.
          2    1    1    2  501    0  0.23739042984E+01  0.30662293713E+02 -0.11413891109E+03  0.11820957111E+03  0.00000000000E+00 0. -1.
          1    1    1    2  502    0  0.11038297122E+03 -0.80741225242E+02  0.69510646491E+03  0.70843245504E+03  0.00000000000E+00 0. -1.
         22    1    3    3    0    0 -0.47577132512E+02  0.10554456935E+02 -0.27253607090E+02  0.55836719089E+02  0.00000000000E+00 0.  1.
         22    1    3    3    0    0 -0.65179743002E+02  0.39524474594E+02  0.12163365409E+03  0.14354556349E+03  0.00000000000E+00 0.  1.
</event>
<event>
 7    1  0.5537228E-006  0.8718776E+02  0.7818608E-02  0.1404169E+00
          2   -1    0    0  502    0  0.00000000000E+00  0.00000000000E+00  0.51061762548E+03  0.51061762548E+03  0.00000000000E+00 0. -1.
          1   -1    0    0  501    0 -0.00000000000E+00 -0.00000000000E+00 -0.75120137617E+03  0.75120137617E+03  0.00000000000E+00 0. -1.
         25    2    1    2    0    0 -0.93646185999E+02 -0.82248635831E+02 -0.56522056953E+02  0.18534719399E+03  0.12499757258E+03 0.  0.
          2    1    1    2  501    0  0.62416133008E+02  0.58436654114E+02 -0.62649313689E+03  0.63230077239E+03  0.00000000000E+00 0. -1.
          1    1    1    2  502    0  0.31230052991E+02  0.23811981716E+02  0.44243144315E+03  0.44417103526E+03  0.00000000000E+00 0. -1.
         22    1    3    3    0    0  0.27680469165E+02 -0.19526067246E+02  0.72028997232E+01  0.34631740351E+02  0.00000000000E+00 0.  1.
         22    1    3    3    0    0 -0.12132665516E+03 -0.62722568585E+02 -0.63724956677E+02  0.15071545364E+03  0.00000000000E+00 0.  1.
</event>
<event>
 7    1  0.5537228E-006  0.5459192E+02  0.7818608E-02  0.1558021E+00
          2   -1    0    0  502    0  0.00000000000E+00  0.00000000000E+00  0.32974476534E+04  0.32974476534E+04  0.00000000000E+00 0. -1.
          1   -1    0    0  501    0 -0.00000000000E+00 -0.00000000000E+00 -0.11355525428E+04  0.11355525428E+04  0.00000000000E+00 0. -1.
         25    2    1    2    0    0 -0.18745629620E+02 -0.41545292386E+02 -0.21356842240E+02  0.13475534432E+03  0.12500191263E+03 0.  0.
          2    1    1    2  501    0 -0.20776726404E+02  0.38327384396E+01 -0.10571606824E+04  0.10573717750E+04  0.00000000000E+00 0. -1.
          1    1    1    2  502    0  0.39522356024E+02  0.37712553947E+02  0.32404126352E+04  0.32408730768E+04  0.00000000000E+00 0. -1.
         22    1    3    3    0    0 -0.66845995308E+02 -0.44513393039E+02  0.37839076449E+01  0.80399920432E+02  0.00000000000E+00 0. -1.
         22    1    3    3    0    0  0.48100365688E+02  0.29681006521E+01 -0.25140749885E+02  0.54355423883E+02  0.00000000000E+00 0. -1.
</event>
<event>
 7    1  0.5537228E-006  0.7924207E+02  0.7818608E-02  0.1363476E+00
          2   -1    0    0  502    0  0.00000000000E+00  0.00000000000E+00  0.57130494608E+02  0.57130494608E+02  0.00000000000E+00 0. -1.
          1   -1    0    0  501    0 -0.00000000000E+00 -0.00000000000E+00 -0.16056597992E+04  0.16056597992E+04  0.00000000000E+00 0. -1.
         25    2    1    2    0    0 -0.80647574330E+02 -0.37892210103E+01 -0.63340216310E+03  0.65064691350E+03  0.12499886556E+03 0.  0.
          2    1    1    2  501    0  0.57739020930E+02  0.59359637073E+02 -0.94247587309E+03  0.94610682928E+03  0.00000000000E+00 0. -1.
          1    1    1    2  502    0  0.22908553400E+02 -0.55570416062E+02  0.27348731550E+02  0.66036551073E+02  0.00000000000E+00 0. -1.
         22    1    3    3    0    0 -0.25728908977E+02  0.19444592796E+01 -0.55010733280E+03  0.55071211652E+03  0.00000000000E+00 0. -1.
         22    1    3    3    0    0 -0.54918665353E+02 -0.57336802899E+01 -0.83294830297E+02  0.99934796983E+02  0.00000000000E+00 0. -1.
</event>
<event>
 7    1  0.5537228E-006  0.5976041E+02  0.7818608E-02  0.1456562E+00
          2   -1    0    0  502    0  0.00000000000E+00  0.00000000000E+00  0.98462241580E+03  0.98462241580E+03  0.00000000000E+00 0. -1.
          1   -1    0    0  501    0 -0.00000000000E+00 -0.00000000000E+00 -0.70385956489E+02  0.70385956489E+02  0.00000000000E+00 0. -1.
         25    2    1    2    0    0  0.16656841745E+02  0.20408161934E+02  0.18670767742E+03  0.22623840826E+03  0.12502046678E+03 0.  0.
          2    1    1    2  501    0  0.37061533124E+02  0.10494968122E+02 -0.41862185649E+02  0.56887117881E+02  0.00000000000E+00 0. -1.
          1    1    1    2  502    0 -0.53718374869E+02 -0.30903130057E+02  0.76939096754E+03  0.77188284615E+03  0.00000000000E+00 0. -1.
         22    1    3    3    0    0 -0.13441220243E+02 -0.49526645767E+02  0.83001037684E+02  0.97584462386E+02  0.00000000000E+00 0.  1.
         22    1    3    3    0    0  0.30098061988E+02  0.69934807701E+02  0.10370663974E+03  0.12865394588E+03  0.00000000000E+00 0.  1.
</event>
<event>
 7    1  0.5537228E-006  0.1895464E+03  0.7818608E-02  0.1255936E+00
          2   -1    0    0  502    0  0.00000000000E+00  0.00000000000E+00  0.12325500988E+04  0.12325500988E+04  0.00000000000E+00 0. -1.
          1   -1    0    0  501    0 -0.00000000000E+00 -0.00000000000E+00 -0.28198507341E+04  0.28198507341E+04  0.00000000000E+00 0. -1.
         25    2    1    2    0    0 -0.12572336014E+03  0.14151314759E+03 -0.34334505708E+03  0.41151260077E+03  0.12499783256E+03 0.  0.
          2    1    1    2  501    0  0.56741646854E+02  0.35287450038E+02 -0.24344474834E+04  0.24353643193E+04  0.00000000000E+00 0. -1.
          1    1    1    2  502    0  0.68981713284E+02 -0.17680059762E+03  0.11904919052E+04  0.12055239128E+04  0.00000000000E+00 0. -1.
         22    1    3    3    0    0 -0.12688269487E+03  0.93927245397E+02 -0.17105883216E+03  0.23277171165E+03  0.00000000000E+00 0. -1.
         22    1    3    3    0    0  0.11593347333E+01  0.47585902188E+02 -0.17228622493E+03  0.17874088912E+03  0.00000000000E+00 0. -1.
</event>
<event>
 7    1  0.5537228E-006  0.9551746E+02  0.7818608E-02  0.1432978E+00
          2   -1    0    0  502    0  0.00000000000E+00  0.00000000000E+00  0.17717062929E+04  0.17717062929E+04  0.00000000000E+00 0. -1.
          1   -1    0    0  501    0 -0.00000000000E+00 -0.00000000000E+00 -0.13461029483E+03  0.13461029483E+03  0.00000000000E+00 0. -1.
         25    2    1    2    0    0  0.36729863341E+02 -0.56483541633E+02  0.90970701561E+03  0.92072318583E+03  0.12499942932E+03 0.  0.
          2    1    1    2  501    0 -0.53364977859E+02  0.79882838196E+02 -0.11095073049E+03  0.14676223389E+03  0.00000000000E+00 0. -1.
          1    1    1    2  502    0  0.16635114518E+02 -0.23399296563E+02  0.83833971297E+03  0.83883116803E+03  0.00000000000E+00 0. -1.
         22    1    3    3    0    0  0.17214868407E+02 -0.43313274506E+02  0.88629797624E+03  0.88752267246E+03  0.00000000000E+00 0. -1.
         22    1    3    3    0    0  0.19514994934E+02 -0.13170267127E+02  0.23409039366E+02  0.33200513362E+02  0.00000000000E+00 0. -1.
</event>
<event>
 7    1  0.5537228E-006  0.1666062E+03  0.7818608E-02  0.1313651E+00
          2   -1    0    0  502    0  0.00000000000E+00  0.00000000000E+00  0.10430151752E+04  0.10430151752E+04  0.00000000000E+00 0. -1.
          1   -1    0    0  501    0 -0.00000000000E+00 -0.00000000000E+00 -0.29300597926E+03  0.29300597926E+03  0.00000000000E+00 0. -1.
         25    2    1    2    0    0 -0.14572749467E+03  0.61045778718E+02  0.57814425347E+03  0.61224094585E+03  0.12500043262E+03 0.  0.
          2    1    1    2  501    0  0.13181903010E+03 -0.10286084958E+03 -0.24937541859E+03  0.30024108725E+03  0.00000000000E+00 0. -1.
          1    1    1    2  502    0  0.13908464567E+02  0.41815070865E+02  0.42124036109E+03  0.42353912139E+03  0.00000000000E+00 0. -1.
         22    1    3    3    0    0  0.31887098033E+00 -0.26156472215E+02  0.39495008873E+02  0.47372127283E+02  0.00000000000E+00 0.  1.
         22    1    3    3    0    0 -0.14604636565E+03  0.87202250933E+02  0.53864924460E+03  0.56486881857E+03  0.00000000000E+00 0.  1.
</event>
<event>
 7    1  0.5537228E-006  0.4523207E+02  0.7818608E-02  0.1477157E+00
          2   -1    0    0  502    0  0.00000000000E+00  0.00000000000E+00  0.26153588657E+03  0.26153588657E+03  0.00000000000E+00 0. -1.
          1   -1    0    0  501    0 -0.00000000000E+00 -0.00000000000E+00 -0.47278848865E+03  0.47278848865E+03  0.00000000000E+00 0. -1.
         25    2    1    2    0    0 -0.23655720665E+02  0.29895982253E+02  0.77253092744E+02  0.15180982645E+03  0.12499928077E+03 0.  0.
          2    1    1    2  501    0 -0.21752179542E+02 -0.39658322313E+02 -0.43062724844E+03  0.43299626666E+03  0.00000000000E+00 0. -1.
          1    1    1    2  502    0  0.45407900207E+02  0.97623400601E+01  0.14212155362E+03  0.14951828212E+03  0.00000000000E+00 0. -1.
         22    1    3    3    0    0  0.20981958275E+02 -0.40741791083E+02  0.37796217045E+02  0.59402778863E+02  0.00000000000E+00 0. -1.
         22    1    3    3    0    0 -0.44637678939E+02  0.70637773337E+02  0.39456875698E+02  0.92407047583E+02  0.00000000000E+00 0. -1.
</event>
<event>
 7    1  0.5537228E-006  0.3640565E+03  0.7818608E-02  0.1196356E+00
          2   -1    0    0  502    0  0.00000000000E+00  0.00000000000E+00  0.19071878140E+04  0.19071878140E+04  0.00000000000E+00 0. -1.
          1   -1    0    0  501    0 -0.00000000000E+00 -0.00000000000E+00 -0.76526818717E+03  0.76526818717E+03  0.00000000000E+00 0. -1.
         25    2    1    2    0    0  0.12265409948E+03  0.36953980313E+03 -0.73129200410E+02  0.41542310240E+03  0.12499911937E+03 0.  0.
          2    1    1    2  501    0  0.43762367090E+02 -0.47569245882E+02 -0.49997236126E+03  0.50413325614E+03  0.00000000000E+00 0. -1.
          1    1    1    2  502    0 -0.16641646657E+03 -0.32197055725E+03  0.17150211885E+04  0.17528996426E+04  0.00000000000E+00 0. -1.
         22    1    3    3    0    0  0.54218998962E+02  0.42812010163E+02  0.13852678431E+02  0.70458957999E+02  0.00000000000E+00 0. -1.
         22    1    3    3    0    0  0.68435100519E+02  0.32672779296E+03 -0.86981878841E+02  0.34496414440E+03  0.00000000000E+00 0. -1.
</event>
<event>
 7    1  0.5537228E-006  0.1637409E+03  0.7818608E-02  0.1207908E+00
          2   -1    0    0  502    0  0.00000000000E+00  0.00000000000E+00  0.23471719959E+04  0.23471719959E+04  0.00000000000E+00 0. -1.
          1   -1    0    0  501    0 -0.00000000000E+00 -0.00000000000E+00 -0.38329305885E+03  0.38329305885E+03  0.00000000000E+00 0. -1.
         25    2    1    2    0    0 -0.16048949169E+03  0.78008571877E+02  0.50961711168E+03  0.55423531871E+03  0.12499989504E+03 0.  0.
          2    1    1    2  501    0  0.15749718119E+03  0.48782260066E+02 -0.33980079958E+03  0.37768989181E+03  0.00000000000E+00 0. -1.
          1    1    1    2  502    0  0.29923105049E+01 -0.12679083194E+03  0.17940626250E+04  0.17985398442E+04  0.00000000000E+00 0. -1.
         22    1    3    3    0    0 -0.38256402246E+02  0.62985900148E+02  0.86880666080E+02  0.11392552861E+03  0.00000000000E+00 0. -1.
         22    1    3    3    0    0 -0.12223308945E+03  0.15022671729E+02  0.42273644560E+03  0.44030979011E+03  0.00000000000E+00 0. -1.
</event>
<event>
 7    1  0.5537228E-006  0.5595646E+02  0.7818608E-02  0.1457968E+00
          2   -1    0    0  502    0  0.00000000000E+00  0.00000000000E+00  0.62721349362E+03  0.62721349362E+03  0.00000000000E+00 0. -1.
          1   -1    0    0  501    0 -0.00000000000E+00 -0.00000000000E+00 -0.89684844731E+02  0.89684844731E+02  0.00000000000E+00 0. -1.
         25    2    1    2    0    0  0.89774401750E+02 -0.30574311314E+02  0.13280997513E+03  0.20556593789E+03  0.12499853440E+03 0.  0.
          2    1    1    2  501    0 -0.39167408684E+02  0.11129311038E+02 -0.43652816313E+02  0.59695191090E+02  0.00000000000E+00 0. -1.
          1    1    1    2  502    0 -0.50606993066E+02  0.19445000275E+02  0.44837149007E+03  0.45163720938E+03  0.00000000000E+00 0. -1.
         22    1    3    3    0    0  0.99732868120E+02 -0.17369571183E+01  0.39309948286E+02  0.10721443017E+03  0.00000000000E+00 0.  1.
         22    1    3    3    0    0 -0.99584663698E+01 -0.28837354195E+02  0.93500026843E+02  0.98351507711E+02  0.00000000000E+00 0.  1.
</event>
<event>
 7    1  0.5537228E-006  0.1101235E+03  0.7818608E-02  0.1438296E+00
          2   -1    0    0  502    0  0.00000000000E+00  0.00000000000E+00  0.74256684652E+03  0.74256684652E+03  0.00000000000E+00 0. -1.
          1   -1    0    0  501    0 -0.00000000000E+00 -0.00000000000E+00 -0.46932848221E+03  0.46932848221E+03  0.00000000000E+00 0. -1.
         25    2    1    2    0    0 -0.55695255980E+02 -0.11476547908E+03 -0.81410598918E+02  0.19628074002E+03  0.12500146623E+03 0.  0.
          2    1    1    2  501    0  0.35835571500E+02  0.10142246754E+03 -0.32151274020E+03  0.33902971436E+03  0.00000000000E+00 0. -1.
          1    1    1    2  502    0  0.19859684480E+02  0.13343011543E+02  0.67616170343E+03  0.67658487436E+03  0.00000000000E+00 0. -1.
         22    1    3    3    0    0 -0.47669223192E+02 -0.13488358554E+03 -0.38398738097E+02  0.14812292050E+03  0.00000000000E+00 0.  1.
         22    1    3    3    0    0 -0.80260327876E+01  0.20118106463E+02 -0.43011860821E+02  0.48157819523E+02  0.00000000000E+00 0.  1.
</event>
<event>
 7    1  0.5537228E-006  0.3985110E+02  0.7818608E-02  0.1535001E+00
          2   -1    0    0  502    0  0.00000000000E+00  0.00000000000E+00  0.23394809697E+04  0.23394809697E+04  0.00000000000E+00 0. -1.
          1   -1    0    0  501    0 -0.00000000000E+00 -0.00000000000E+00 -0.76009106881E+03  0.76009106881E+03  0.00000000000E+00 0. -1.
         25    2    1    2    0    0  0.55162044789E+01  0.56662953891E+01  0.69532103547E+03  0.70651372555E+03  0.12501106592E+03 0.  0.
          2    1    1    2  501    0  0.27909806463E+02  0.18667659295E+02 -0.75386014721E+03  0.75460755387E+03  0.00000000000E+00 0. -1.
          1    1    1    2  502    0 -0.33426010942E+02 -0.24333954684E+02  0.16379290126E+04  0.16384507591E+04  0.00000000000E+00 0. -1.
         22    1    3    3    0    0 -0.40507003465E+01  0.64934821088E+02  0.37965764752E+03  0.38519198912E+03  0.00000000000E+00 0. -1.
         22    1    3    3    0    0  0.95669048254E+01 -0.59268525699E+02  0.31566338795E+03  0.32132173642E+03  0.00000000000E+00 0. -1.
</event>
<event>
 7    1  0.5537228E-006  0.8617175E+02  0.7818608E-02  0.1315358E+00
          2   -1    0    0  502    0  0.00000000000E+00  0.00000000000E+00  0.12509759374E+04  0.12509759374E+04  0.00000000000E+00 0. -1.
          1   -1    0    0  501    0 -0.00000000000E+00 -0.00000000000E+00 -0.52172071051E+03  0.52172071051E+03  0.00000000000E+00 0. -1.
         25    2    1    2    0    0 -0.38187354915E+02 -0.12494831733E+03 -0.34941374944E+02  0.18414056160E+03  0.12496595803E+03 0.  0.
          2    1    1    2  501    0  0.70609600085E+02  0.47565691105E+02 -0.40626580221E+03  0.41509048729E+03  0.00000000000E+00 0. -1.
          1    1    1    2  502    0 -0.32422245170E+02  0.77382626220E+02  0.11704624040E+04  0.11734655990E+04  0.00000000000E+00 0. -1.
         22    1    3    3    0    0 -0.19955562689E+02  0.40198324029E+01  0.31822174220E+02  0.37776107619E+02  0.00000000000E+00 0. -1.
         22    1    3    3    0    0 -0.18231792226E+02 -0.12896814973E+03 -0.66763549165E+02  0.14636445398E+03  0.00000000000E+00 0. -1.
</event>
<event>
 7    1  0.5537228E-006  0.6680861E+02  0.7818608E-02  0.1389599E+00
          2   -1    0    0  502    0  0.00000000000E+00  0.00000000000E+00  0.93114676228E+02  0.93114676228E+02  0.00000000000E+00 0. -1.
          1   -1    0    0  501    0 -0.00000000000E+00 -0.00000000000E+00 -0.12189734103E+04  0.12189734103E+04  0.00000000000E+00 0. -1.
         25    2    1    2    0    0 -0.54248977684E+01  0.13474588046E+02 -0.22027363616E+03  0.25368558382E+03  0.12499962643E+03 0.  0.
          2    1    1    2  501    0  0.47834413015E+02 -0.52377115294E+02 -0.96967504883E+03  0.97226600969E+03  0.00000000000E+00 0. -1.
          1    1    1    2  502    0 -0.42409515246E+02  0.38902527247E+02  0.64089950960E+02  0.86136492985E+02  0.00000000000E+00 0. -1.
         22    1    3    3    0    0 -0.12882923667E+02  0.49174901094E+01  0.13699191489E+02  0.19437573888E+02  0.00000000000E+00 0.  1.
         22    1    3    3    0    0  0.74580258983E+01  0.85570979369E+01 -0.23397282765E+03  0.23424800993E+03  0.00000000000E+00 0.  1.
</event>
<event>
 7    1  0.5537228E-006  0.8809831E+02  0.7818608E-02  0.1370296E+00
          2   -1    0    0  502    0  0.00000000000E+00  0.00000000000E+00  0.77329740986E+03  0.77329740986E+03  0.00000000000E+00 0. -1.
          1   -1    0    0  501    0 -0.00000000000E+00 -0.00000000000E+00 -0.10385222010E+03  0.10385222010E+03  0.00000000000E+00 0. -1.
         25    2    1    2    0    0 -0.95034294286E+02  0.91999715160E+02  0.19254122486E+03  0.26493937763E+03  0.12500114345E+03 0.  0.
          2    1    1    2  501    0  0.25801870490E+02 -0.44088662102E+02 -0.54196969862E+02  0.74477232689E+02  0.00000000000E+00 0. -1.
          1    1    1    2  502    0  0.69232423796E+02 -0.47911053057E+02  0.53110093476E+03  0.53773301964E+03  0.00000000000E+00 0. -1.
         22    1    3    3    0    0 -0.16117402039E+02 -0.21549877858E+02 -0.11706937352E+01  0.26935820166E+02  0.00000000000E+00 0. -1.
         22    1    3    3    0    0 -0.78916892247E+02  0.11354959302E+03  0.19371191860E+03  0.23800355746E+03  0.00000000000E+00 0. -1.
</event>
<event>
 7    1  0.5537228E-006  0.1484405E+03  0.7818608E-02  0.1295367E+00
          2   -1    0    0  502    0  0.00000000000E+00  0.00000000000E+00  0.51694432001E+03  0.51694432001E+03  0.00000000000E+00 0. -1.
          1   -1    0    0  501    0 -0.00000000000E+00 -0.00000000000E+00 -0.85980942810E+03  0.85980942810E+03  0.00000000000E+00 0. -1.
         25    2    1    2    0    0 -0.17558272339E+03 -0.10123181881E+03 -0.21472047442E+02  0.23908989736E+03  0.12500302518E+03 0.  0.
          2    1    1    2  501    0  0.12164405514E+03  0.78661265847E+02 -0.72018429844E+03  0.73460893993E+03  0.00000000000E+00 0. -1.
          1    1    1    2  502    0  0.53938668251E+02  0.22570552964E+02  0.39879123780E+03  0.40305491082E+03  0.00000000000E+00 0. -1.
         22    1    3    3    0    0 -0.17692584886E+03 -0.49578947360E+02 -0.31593445022E+02  0.18643758683E+03  0.00000000000E+00 0.  1.
         22    1    3    3    0    0  0.13431254661E+01 -0.51652871450E+02  0.10121397580E+02  0.52652310529E+02  0.00000000000E+00 0.  1.
</event>
<event>
 7    1  0.5537228E-006  0.1244689E+03  0.7818608E-02  0.1387076E+00
          2   -1    0    0  502    0  0.00000000000E+00  0.00000000000E+00  0.16043934917E+04  0.16043934917E+04  0.00000000000E+00 0. -1.
          1   -1    0    0  501    0 -0.00000000000E+00 -0.00000000000E+00 -0.53476821278E+02  0.53476821278E+02  0.00000000000E+00 0. -1.
         25    2    1    2    0    0  0.28539448160E+02 -0.14648694462E+03  0.59630586346E+03  0.62727848546E+03  0.12499876189E+03 0.  0.
          2    1    1    2  501    0 -0.13009185590E+02  0.28714390274E+02 -0.27190381851E+02  0.41630181164E+02  0.00000000000E+00 0. -1.
          1    1    1    2  502    0 -0.15530262570E+02  0.11777255435E+03  0.98180118885E+03  0.98896164639E+03  0.00000000000E+00 0. -1.
         22    1    3    3    0    0  0.65542916644E+02 -0.59436233409E+02  0.18273488364E+03  0.20302851391E+03  0.00000000000E+00 0.  1.
         22    1    3    3    0    0 -0.37003468484E+02 -0.87050711212E+02  0.41357097983E+03  0.42424997155E+03  0.00000000000E+00 0.  1.
</event>
<event>
 7    1  0.5537228E-006  0.7552099E+02  0.7818608E-02  0.1363953E+00
          2   -1    0    0  502    0  0.00000000000E+00  0.00000000000E+00  0.34307362071E+04  0.34307362071E+04  0.00000000000E+00 0. -1.
          1   -1    0    0  501    0 -0.00000000000E+00 -0.00000000000E+00 -0.14322824541E+04  0.14322824541E+04  0.00000000000E+00 0. -1.
         25    2    1    2    0    0  0.73396607639E+02  0.36141642683E+02  0.19170293584E+03  0.24304005419E+03  0.12500068793E+03 0.  0.
          2    1    1    2  501    0 -0.22047124542E+02 -0.72326204094E+02 -0.14052904494E+04  0.14073231337E+04  0.00000000000E+00 0. -1.
          1    1    1    2  502    0 -0.51349483097E+02  0.36184561411E+02  0.32120412666E+04  0.32126554733E+04  0.00000000000E+00 0. -1.
         22    1    3    3    0    0  0.10628483278E+03  0.30054037146E+02  0.11546008037E+03  0.15978341899E+03  0.00000000000E+00 0. -1.
         22    1    3    3    0    0 -0.32888225138E+02  0.60876055365E+01  0.76242855474E+02  0.83256635199E+02  0.00000000000E+00 0. -1.
</event>
<event>
 7    1  0.5537228E-006  0.2020910E+03  0.7818608E-02  0.1339886E+00
          2   -1    0    0  502    0  0.00000000000E+00  0.00000000000E+00  0.13628864390E+04  0.13628864390E+04  0.00000000000E+00 0. -1.
          1   -1    0    0  501    0 -0.00000000000E+00 -0.00000000000E+00 -0.68357300634E+03  0.68357300634E+03  0.00000000000E+00 0. -1.
         25    2    1    2    0    0  0.16948009138E+03  0.67642858631E+02  0.75859216237E+02  0.23383556195E+03  0.12500156659E+03 0.  0.
          2    1    1    2  501    0  0.26747644758E+02 -0.10700548392E+02 -0.59559461105E+03  0.59629093482E+03  0.00000000000E+00 0. -1.
          1    1    1    2  502    0 -0.19622773614E+03 -0.56942310239E+02  0.11990488275E+04  0.12163329486E+04  0.00000000000E+00 0. -1.
         22    1    3    3    0    0  0.13135750518E+02  0.49616878869E+02 -0.13210271610E+02  0.52998998919E+02  0.00000000000E+00 0.  1.
         22    1    3    3    0    0  0.15634434086E+03  0.18025979762E+02  0.89069487847E+02  0.18083656304E+03  0.00000000000E+00 0.  1.
</event>
<event>
 7    1  0.6149668E-006  0.9042823E+02  0.7818608E-02  0.1440277E+00
          2   -1    0    0  502    0  0.00000000000E+00  0.00000000000E+00  0.16256321249E+04  0.16256321249E+04  0.00000000000E+00 0. -1.
          1   -1    0    0  501    0 -0.00000000000E+00 -0.00000000000E+00 -0.75743067213E+03  0.75743067213E+03  0.00000000000E+00 0. -1.
         25    2    1    2    0    0 -0.71368704247E+02 -0.64995388600E+01 -0.82149357020E+02  0.16586156035E+03  0.12500321753E+03 0.  0.
          2    1    1    2  501    0 -0.13510433499E+02 -0.25330527876E+02 -0.63180184027E+03  0.63245373967E+03  0.00000000000E+00 0. -1.
          1    1    1    2  502    0  0.84879137746E+02  0.31830066736E+02  0.15821526500E+04  0.15847474970E+04  0.00000000000E+00 0. -1.
         22    1    3    3    0    0 -0.11422082660E+02  0.19783669159E+02 -0.96233780605E+02  0.98908028325E+02  0.00000000000E+00 0. -1.
         22    1    3    3    0    0 -0.59946621587E+02 -0.26283208019E+02  0.14084423585E+02  0.66953532030E+02  0.00000000000E+00 0. -1.
</event>
<event>
 7    1  0.5537228E-006  0.1276043E+03  0.7818608E-02  0.1357479E+00
          2   -1    0    0  502    0  0.00000000000E+00  0.00000000000E+00  0.55511206166E+03  0.55511206166E+03  0.00000000000E+00 0. -1.
          1   -1    0    0  501    0 -0.00000000000E+00 -0.00000000000E+00 -0.27775319324E+04  0.27775319324E+04  0.00000000000E+00 0. -1.
         25    2    1    2    0    0 -0.14570790739E+03 -0.39319377008E+02 -0.50635754590E+02  0.20240096377E+03  0.12500145122E+03 0.  0.
          2    1    1    2  501    0  0.12712238076E+03  0.47437635200E+01 -0.26486806233E+04  0.26517337060E+04  0.00000000000E+00 0. -1.
          1    1    1    2  502    0  0.18585526622E+02  0.34575613488E+02  0.47689650721E+03  0.47850932429E+03  0.00000000000E+00 0. -1.
         22    1    3    3    0    0 -0.57378363790E+02 -0.54597572435E+02 -0.75450081528E+02  0.10938869388E+03  0.00000000000E+00 0. -1.
         22    1    3    3    0    0 -0.88329543596E+02  0.15278195428E+02  0.24814326938E+02  0.93012269883E+02  0.00000000000E+00 0. -1.
</event>
<event>
 7    1  0.5537228E-006  0.9193018E+02  0.7818608E-02  0.1400674E+00
          2   -1    0    0  502    0  0.00000000000E+00  0.00000000000E+00  0.62882657445E+03  0.62882657445E+03  0.00000000000E+00 0. -1.
          1   -1    0    0  501    0 -0.00000000000E+00 -0.00000000000E+00 -0.22906625582E+04  0.22906625582E+04  0.00000000000E+00 0. -1.
         25    2    1    2    0    0  0.33559989882E+02  0.11292381503E+03 -0.15658808422E+04  0.15752727819E+04  0.12499385815E+03 0.  0.
          2    1    1    2  501    0 -0.26228356383E+02 -0.75344669380E+02 -0.71728493540E+03  0.72170799111E+03  0.00000000000E+00 0. -1.
          1    1    1    2  502    0 -0.73316334996E+01 -0.37579145648E+02  0.62132979387E+03  0.62250835961E+03  0.00000000000E+00 0. -1.
         22    1    3    3    0    0  0.52436808466E+02  0.98651993048E+02 -0.15154825437E+04  0.15195950694E+04  0.00000000000E+00 0.  1.
         22    1    3    3    0    0 -0.18876818583E+02  0.14271821980E+02 -0.50398298486E+02  0.55677712532E+02  0.00000000000E+00 0.  1.
</event>
<event>
 7    1  0.5537228E-006  0.2095771E+03  0.7818608E-02  0.1159307E+00
          2   -1    0    0  502    0  0.00000000000E+00  0.00000000000E+00  0.10590991028E+04  0.10590991028E+04  0.00000000000E+00 0. -1.
          1   -1    0    0  501    0 -0.00000000000E+00 -0.00000000000E+00 -0.44482013712E+03  0.44482013712E+03  0.00000000000E+00 0. -1.
         25    2    1    2    0    0  0.63092387029E+02 -0.36203514842E+02 -0.22778373260E+03  0.26981607486E+03  0.12499576645E+03 0.  0.
          2    1    1    2  501    0  0.26684312379E+01 -0.17054065612E+03 -0.14476160962E+03  0.22371222482E+03  0.00000000000E+00 0. -1.
          1    1    1    2  502    0 -0.65760818267E+02  0.20674417096E+03  0.98682430794E+03  0.10103909403E+04  0.00000000000E+00 0. -1.
         22    1    3    3    0    0 -0.37513384462E+02 -0.98710034888E+01 -0.44067082107E+02  0.58707737558E+02  0.00000000000E+00 0.  1.
         22    1    3    3    0    0  0.10060577149E+03 -0.26332511353E+02 -0.18371665049E+03  0.21110833731E+03  0.00000000000E+00 0.  1.
</event>
<event>
 7    1  0.5537228E-006  0.5826366E+02  0.7818608E-02  0.1502025E+00
          2   -1    0    0  502    0  0.00000000000E+00  0.00000000000E+00  0.12109092044E+04  0.12109092044E+04  0.00000000000E+00 0. -1.
          1   -1    0    0  501    0 -0.00000000000E+00 -0.00000000000E+00 -0.73418472219E+02  0.73418472219E+02  0.00000000000E+00 0. -1.
         25    2    1    2    0    0  0.28598298324E+02 -0.34286859324E+02  0.53222654230E+03  0.54852503033E+03  0.12498465977E+03 0.  0.
          2    1    1    2  501    0 -0.54461023744E+02  0.21971354239E+02 -0.51683962487E+02  0.78230272227E+02  0.00000000000E+00 0. -1.
          1    1    1    2  502    0  0.25862725420E+02  0.12315505086E+02  0.65694815241E+03  0.65757237410E+03  0.00000000000E+00 0. -1.
         22    1    3    3    0    0  0.51823642661E+01 -0.16772579014E+02  0.51350279404E+03  0.51380277908E+03  0.00000000000E+00 0.  1.
         22    1    3    3    0    0  0.23415934058E+02 -0.17514280310E+02  0.18723748258E+02  0.34722251244E+02  0.00000000000E+00 0.  1.
</event>
<event>
 7    1  0.5537228E-006  0.1410789E+03  0.7818608E-02  0.1336554E+00
          2   -1    0    0  502    0  0.00000000000E+00  0.00000000000E+00  0.19763770374E+03  0.19763770374E+03  0.00000000000E+00 0. -1.
          1   -1    0    0  501    0 -0.00000000000E+00 -0.00000000000E+00 -0.22420085082E+04  0.22420085082E+04  0.00000000000E+00 0. -1.
         25    2    1    2    0    0 -0.34680314540E+02  0.17009932871E+03 -0.50252763543E+02  0.21974278871E+03  0.12500018842E+03 0.  0.
          2    1    1    2  501    0  0.50707661005E+02 -0.13075959031E+03 -0.21005918561E+04  0.21052685063E+04  0.00000000000E+00 0. -1.
          1    1    1    2  502    0 -0.16027346465E+02 -0.39339738395E+02  0.10647381524E+03  0.11463491695E+03  0.00000000000E+00 0. -1.
         22    1    3    3    0    0 -0.61848658938E+02  0.17542580388E+03 -0.47088153811E+02  0.19187694887E+03  0.00000000000E+00 0. -1.
         22    1    3    3    0    0  0.27168344398E+02 -0.53264751750E+01 -0.31646097318E+01  0.27865839838E+02  0.00000000000E+00 0. -1.
</event>
<event>
 7    1  0.5537228E-006  0.8895357E+02  0.7818608E-02  0.1333405E+00
          2   -1    0    0  502    0  0.00000000000E+00  0.00000000000E+00  0.34962829081E+03  0.34962829081E+03  0.00000000000E+00 0. -1.
          1   -1    0    0  501    0 -0.00000000000E+00 -0.00000000000E+00 -0.43280868214E+03  0.43280868214E+03  0.00000000000E+00 0. -1.
         25    2    1    2    0    0 -0.48151984949E+02  0.12016469154E+02 -0.14362662864E+03  0.19676636270E+03  0.12500153538E+03 0.  0.
          2    1    1    2  501    0  0.10395888376E+03  0.28984832440E+02 -0.24751428626E+03  0.27002016948E+03  0.00000000000E+00 0. -1.
          1    1    1    2  502    0 -0.55806898811E+02 -0.41001301594E+02  0.30796052356E+03  0.31565044077E+03  0.00000000000E+00 0. -1.
         22    1    3    3    0    0 -0.78080655289E+02 -0.22742348399E+02 -0.58878113300E+02  0.10040137134E+03  0.00000000000E+00 0. -1.
         22    1    3    3    0    0  0.29928670340E+02  0.34758817553E+02 -0.84748515344E+02  0.96364991356E+02  0.00000000000E+00 0. -1.
</event>
<event>
 7    1  0.5537228E-006  0.7916365E+02  0.7818608E-02  0.1357210E+00
          2   -1    0    0  502    0  0.00000000000E+00  0.00000000000E+00  0.29687816933E+03  0.29687816933E+03  0.00000000000E+00 0. -1.
          1   -1    0    0  501    0 -0.00000000000E+00 -0.00000000000E+00 -0.55188099242E+03  0.55188099242E+03  0.00000000000E+00 0. -1.
         25    2    1    2    0    0 -0.45987239980E+02  0.23932136969E+01 -0.19346191522E+03  0.23488846894E+03  0.12499810593E+03 0.  0.
          2    1    1    2  501    0  0.68327957108E+02 -0.61745701661E+02 -0.32763072497E+03  0.34032797907E+03  0.00000000000E+00 0. -1.
          1    1    1    2  502    0 -0.22340717127E+02  0.59352487965E+02  0.26608981711E+03  0.27354271373E+03  0.00000000000E+00 0. -1.
         22    1    3    3    0    0 -0.16218601285E+02  0.30286067791E+02  0.27645572622E+01  0.34466385171E+02  0.00000000000E+00 0. -1.
         22    1    3    3    0    0 -0.29768638695E+02 -0.27892854094E+02 -0.19622647248E+03  0.20042208377E+03  0.00000000000E+00 0. -1.
</event>
<event>
 7    1  0.5537228E-006  0.1348209E+03  0.7818608E-02  0.1251091E+00
          2   -1    0    0  502    0  0.00000000000E+00  0.00000000000E+00  0.35742257533E+03  0.35742257533E+03  0.00000000000E+00 0. -1.
          1   -1    0    0  501    0 -0.00000000000E+00 -0.00000000000E+00 -0.69243654058E+03  0.69243654058E+03  0.00000000000E+00 0. -1.
         25    2    1    2    0    0 -0.59868304661E+02  0.55367301852E+01 -0.38155283240E+02  0.14386282659E+03  0.12500327177E+03 0.  0.
          2    1    1    2  501    0 -0.84668654507E+02 -0.50476277676E+02 -0.57818944685E+03  0.58653190204E+03  0.00000000000E+00 0. -1.
          1    1    1    2  502    0  0.14453695917E+03  0.44939547491E+02  0.28133076483E+03  0.31946438727E+03  0.00000000000E+00 0. -1.
         22    1    3    3    0    0 -0.78550156550E+02  0.41182211274E+01  0.21328338581E+02  0.81498373394E+02  0.00000000000E+00 0. -1.
         22    1    3    3    0    0  0.18681851889E+02  0.14185090578E+01 -0.59483621821E+02  0.62364453199E+02  0.00000000000E+00 0. -1.
</event>
<event>
 7    1  0.5537228E-006  0.6634636E+02  0.7818608E-02  0.1373059E+00
          2   -1    0    0  502    0  0.00000000000E+00  0.00000000000E+00  0.10788432430E+04  0.10788432430E+04  0.00000000000E+00 0. -1.
          1   -1    0    0  501    0 -0.00000000000E+00 -0.00000000000E+00 -0.25352319108E+02  0.25352319108E+02  0.00000000000E+00 0. -1.
         25    2    1    2    0    0  0.27707754515E+02  0.21358580949E+01  0.46716435382E+03  0.48439757812E+03  0.12500479454E+03 0.  0.
          2    1    1    2  501    0 -0.46710847616E+02  0.61430813949E+02  0.87880246211E+02  0.11695548667E+03  0.00000000000E+00 0. -1.
          1    1    1    2  502    0  0.19003093101E+02 -0.63566672044E+02  0.49844632381E+03  0.50284249727E+03  0.00000000000E+00 0. -1.
         22    1    3    3    0    0  0.55263784770E+02  0.27061495534E+02  0.11633804552E+03  0.13160908511E+03  0.00000000000E+00 0. -1.
         22    1    3    3    0    0 -0.27556030255E+02 -0.24925637440E+02  0.35082630830E+03  0.35278849301E+03  0.00000000000E+00 0. -1.
</event>
<event>
 7    1  0.5537228E-006  0.1424843E+03  0.7818608E-02  0.1321649E+00
          2   -1    0    0  502    0  0.00000000000E+00  0.00000000000E+00  0.10698273226E+03  0.10698273226E+03  0.00000000000E+00 0. -1.
          1   -1    0    0  501    0 -0.00000000000E+00 -0.00000000000E+00 -0.14867121311E+04  0.14867121311E+04  0.00000000000E+00 0. -1.
         25    2    1    2    0    0  0.10385174645E+03 -0.20673589693E+02 -0.10852263956E+02  0.16417706469E+03  0.12499501744E+03 0.  0.
          2    1    1    2  501    0 -0.14433787838E+03 -0.50408564057E+01 -0.13737388299E+04  0.13813099602E+04  0.00000000000E+00 0. -1.
          1    1    1    2  502    0  0.40486131926E+02  0.25714446098E+02  0.48616949668E+01  0.48207838517E+02  0.00000000000E+00 0. -1.
         22    1    3    3    0    0 -0.11351368439E+02  0.35715447496E+00 -0.41582238467E+02  0.43105262796E+02  0.00000000000E+00 0.  1.
         22    1    3    3    0    0  0.11520311489E+03 -0.21030744168E+02  0.30729974511E+02  0.12107180190E+03  0.00000000000E+00 0.  1.
</event>
<event>
 7    1  0.5537228E-006  0.5967332E+02  0.7818608E-02  0.1451322E+00
          2   -1    0    0  502    0  0.00000000000E+00  0.00000000000E+00  0.22599329808E+03  0.22599329808E+03  0.00000000000E+00 0. -1.
          1   -1    0    0  501    0 -0.00000000000E+00 -0.00000000000E+00 -0.34525116746E+03  0.34525116746E+03  0.00000000000E+00 0. -1.
         25    2    1    2    0    0  0.38192196347E+02  0.19016161748E+01 -0.22211512862E+03  0.25772421549E+03  0.12499752350E+03 0.  0.
          2    1    1    2  501    0  0.53525881425E+01  0.39725688035E+02 -0.96907161366E+02  0.10487029329E+03  0.00000000000E+00 0. -1.
          1    1    1    2  502    0 -0.43544784490E+02 -0.41627304210E+02  0.19976442062E+03  0.20864995676E+03  0.00000000000E+00 0. -1.
         22    1    3    3    0    0 -0.35974610473E+02  0.16119657777E+01 -0.15005325968E+03  0.15431380940E+03  0.00000000000E+00 0. -1.
         22    1    3    3    0    0  0.74166806820E+02  0.28965039708E+00 -0.72061868947E+02  0.10341040609E+03  0.00000000000E+00 0. -1.
</event>
<event>
 7    1  0.7800253E-006  0.7326006E+02  0.7818608E-02  0.1356898E+00
          2   -1    0    0  502    0  0.00000000000E+00  0.00000000000E+00  0.52902433820E+03  0.52902433820E+03  0.00000000000E+00 0. -1.
          1   -1    0    0  501    0 -0.00000000000E+00 -0.00000000000E+00 -0.26158733347E+04  0.26158733347E+04  0.00000000000E+00 0. -1.
         25    2    1    2    0    0 -0.30200273562E+02  0.10411864308E+01 -0.43317761545E+03  0.45186352127E+03  0.12499861895E+03 0.  0.
          2    1    1    2  501    0  0.34290427736E+02 -0.69628755993E+02 -0.21703849713E+04  0.21717722995E+04  0.00000000000E+00 0. -1.
          1    1    1    2  502    0 -0.40901541735E+01  0.68587569563E+02  0.51671359030E+03  0.52126185210E+03  0.00000000000E+00 0. -1.
         22    1    3    3    0    0 -0.75884002297E+02  0.21124411005E+01 -0.33612917499E+03  0.34459493103E+03  0.00000000000E+00 0.  1.
         22    1    3    3    0    0  0.45683728734E+02 -0.10712546697E+01 -0.97048440459E+02  0.10726859024E+03  0.00000000000E+00 0.  1.
</event>
<event>
 7    1  0.5537228E-006  0.7821416E+02  0.7818608E-02  0.1336133E+00
          2   -1    0    0  502    0  0.00000000000E+00  0.00000000000E+00  0.95375543850E+03  0.95375543850E+03  0.00000000000E+00 0. -1.
          1   -1    0    0  501    0 -0.00000000000E+00 -0.00000000000E+00 -0.18486042391E+03  0.18486042391E+03  0.00000000000E+00 0. -1.
         25    2    1    2    0    0 -0.72644116800E+01 -0.45768297138E+02 -0.17000866837E+02  0.13441593120E+03  0.12502441517E+03 0.  0.
          2    1    1    2  501    0  0.77445538215E+02  0.10938172292E+02 -0.93171130840E+02  0.12164832356E+03  0.00000000000E+00 0. -1.
          1    1    1    2  502    0 -0.70181126535E+02  0.34830124846E+02  0.87906701226E+03  0.88255160765E+03  0.00000000000E+00 0. -1.
         22    1    3    3    0    0 -0.13801245058E+02  0.19373450459E+01 -0.64970226207E+02  0.66448159977E+02  0.00000000000E+00 0.  1.
         22    1    3    3    0    0  0.65368333779E+01 -0.47705642184E+02  0.47969359370E+02  0.67967771224E+02  0.00000000000E+00 0.  1.
</event>
<event>
 7    1  0.5537228E-006  0.1871220E+03  0.7818608E-02  0.1207246E+00
          2   -1    0    0  502    0  0.00000000000E+00  0.00000000000E+00  0.16120179727E+04  0.16120179727E+04  0.00000000000E+00 0. -1.
          1   -1    0    0  501    0 -0.00000000000E+00 -0.00000000000E+00 -0.16243682491E+03  0.16243682491E+03  0.00000000000E+00 0. -1.
         25    2    1    2    0    0  0.53520734463E+02  0.26886219505E+03  0.73356894115E+03  0.79303160390E+03  0.12499753765E+03 0.  0.
          2    1    1    2  501    0 -0.95933340184E+01 -0.11135679631E+03 -0.99522957163E+02  0.14965689809E+03  0.00000000000E+00 0. -1.
          1    1    1    2  502    0 -0.43927400445E+02 -0.15750539874E+03  0.81553516384E+03  0.83176629567E+03  0.00000000000E+00 0. -1.
         22    1    3    3    0    0  0.36471307111E+02  0.58089269236E+01  0.73059266354E+02  0.81863033627E+02  0.00000000000E+00 0. -1.
         22    1    3    3    0    0  0.17049427352E+02  0.26305326813E+03  0.66050967480E+03  0.71116857027E+03  0.00000000000E+00 0. -1.
</event>
<event>
 7    1  0.5537228E-006  0.6264150E+02  0.7818608E-02  0.1437161E+00
          2   -1    0    0  502    0  0.00000000000E+00  0.00000000000E+00  0.19960630089E+04  0.19960630089E+04  0.00000000000E+00 0. -1.
          1   -1    0    0  501    0 -0.00000000000E+00 -0.00000000000E+00 -0.90741843666E+03  0.90741843666E+03  0.00000000000E+00 0. -1.
         25    2    1    2    0    0 -0.19070342917E+02  0.43122656509E+02  0.35152430270E+03  0.37605173847E+03  0.12498933209E+03 0.  0.
          2    1    1    2  501    0 -0.39115105048E+02 -0.16417787865E+02 -0.89402383766E+03  0.89502969644E+03  0.00000000000E+00 0. -1.
          1    1    1    2  502    0  0.58185447965E+02 -0.26704868644E+02  0.16311441072E+04  0.16324000106E+04  0.00000000000E+00 0. -1.
         22    1    3    3    0    0  0.19088688920E+02 -0.66138616185E+01  0.28087212117E+03  0.28159770891E+03  0.00000000000E+00 0.  1.
         22    1    3    3    0    0 -0.38159031837E+02  0.49736518128E+02  0.70652181527E+02  0.94454029563E+02  0.00000000000E+00 0.  1.
</event>
<event>
 7    1  0.5537228E-006  0.1298191E+03  0.7818608E-02  0.1241615E+00
          2   -1    0    0  502    0  0.00000000000E+00  0.00000000000E+00  0.13450824540E+04  0.13450824540E+04  0.00000000000E+00 0. -1.
          1   -1    0    0  501    0 -0.00000000000E+00 -0.00000000000E+00 -0.47369111923E+03  0.47369111923E+03  0.00000000000E+00 0. -1.
         25    2    1    2    0    0  0.16375169571E+02 -0.35066378650E+02  0.34545840913E+02  0.13536511893E+03  0.12503000923E+03 0.  0.
          2    1    1    2  501    0  0.11159618132E+03 -0.14996763244E+02 -0.41195707685E+03  0.42706819568E+03  0.00000000000E+00 0. -1.
          1    1    1    2  502    0 -0.12797135090E+03  0.50063141894E+02  0.12488025707E+04  0.12563402586E+04  0.00000000000E+00 0. -1.
         22    1    3    3    0    0  0.65810060956E+02 -0.29393291246E+02 -0.43507957943E+01  0.72207057254E+02  0.00000000000E+00 0.  1.
         22    1    3    3    0    0 -0.49434891385E+02 -0.56730874040E+01  0.38896636708E+02  0.63158061671E+02  0.00000000000E+00 0.  1.
</event>
<event>
 7    1  0.5537228E-006  0.9198347E+02  0.7818608E-02  0.1425356E+00
          2   -1    0    0  502    0  0.00000000000E+00  0.00000000000E+00  0.11423607120E+04  0.11423607120E+04  0.00000000000E+00 0. -1.
          1   -1    0    0  501    0 -0.00000000000E+00 -0.00000000000E+00 -0.65537213783E+03  0.65537213783E+03  0.00000000000E+00 0. -1.
         25    2    1    2    0    0  0.61596200706E+02 -0.15988722661E+02  0.42730971904E+01  0.14033708941E+03  0.12500603230E+03 0.  0.
          2    1    1    2  501    0 -0.86498141035E+02  0.35423533932E+02 -0.58338594354E+03  0.59082646715E+03  0.00000000000E+00 0. -1.
          1    1    1    2  502    0  0.24901940329E+02 -0.19434811271E+02  0.10661014205E+04  0.10665692933E+04  0.00000000000E+00 0. -1.
         22    1    3    3    0    0  0.38064323838E+02 -0.69060999223E+01 -0.59944248041E+02  0.71343533965E+02  0.00000000000E+00 0.  1.
         22    1    3    3    0    0  0.23531876868E+02 -0.90826227385E+01  0.64217345232E+02  0.68993555448E+02  0.00000000000E+00 0.  1.
</event>
<event>
 7    1  0.5537228E-006  0.1265523E+03  0.7818608E-02  0.1261761E+00
          2   -1    0    0  502    0  0.00000000000E+00  0.00000000000E+00  0.14098683546E+04  0.14098683546E+04  0.00000000000E+00 0. -1.
          1   -1    0    0  501    0 -0.00000000000E+00 -0.00000000000E+00 -0.45000312127E+03  0.45000312127E+03  0.00000000000E+00 0. -1.
         25    2    1    2    0    0  0.94261052602E+02  0.80386242087E+02 -0.16781829275E+03  0.24317766567E+03  0.12500121496E+03 0.  0.
          2    1    1    2  501    0 -0.19487650593E+02 -0.13817573312E+03 -0.22280865130E+03  0.26289921423E+03  0.00000000000E+00 0. -1.
          1    1    1    2  502    0 -0.74773402009E+02  0.57789491037E+02  0.13504921774E+04  0.13537945960E+04  0.00000000000E+00 0. -1.
         22    1    3    3    0    0  0.61509052723E+02  0.14657079346E+02 -0.15660611361E+03  0.16888951526E+03  0.00000000000E+00 0.  1.
         22    1    3    3    0    0  0.32751999879E+02  0.65729162741E+02 -0.11212179140E+02  0.74288150414E+02  0.00000000000E+00 0.  1.
</event>
<event>
 7    1  0.5537228E-006  0.3628193E+02  0.7818608E-02  0.1634028E+00
          2   -1    0    0  502    0  0.00000000000E+00  0.00000000000E+00  0.10585467343E+04  0.10585467343E+04  0.00000000000E+00 0. -1.
          1   -1    0    0  501    0 -0.00000000000E+00 -0.00000000000E+00 -0.12213941157E+04  0.12213941157E+04  0.00000000000E+00 0. -1.
         25    2    1    2    0    0  0.21473020380E+02 -0.79360491083E+01 -0.77019234453E+02  0.14859483474E+03  0.12499756380E+03 0.  0.
          2    1    1    2  501    0  0.17601418887E+01 -0.19992676246E+02 -0.11081735823E+04  0.11083553102E+04  0.00000000000E+00 0. -1.
          1    1    1    2  502    0 -0.23233162268E+02  0.27928725354E+02  0.10223454354E+04  0.10229907051E+04  0.00000000000E+00 0. -1.
         22    1    3    3    0    0  0.28716030613E+02  0.38446452796E+02  0.10644012773E+02  0.49153180515E+02  0.00000000000E+00 0.  1.
         22    1    3    3    0    0 -0.72430102333E+01 -0.46382501905E+02 -0.87663247226E+02  0.99441654222E+02  0.00000000000E+00 0.  1.
</event>
<event>
 7    1  0.5537228E-006  0.1866958E+03  0.7818608E-02  0.1362788E+00
          2   -1    0    0  502    0  0.00000000000E+00  0.00000000000E+00  0.21489241833E+04  0.21489241833E+04  0.00000000000E+00 0. -1.
          1   -1    0    0  501    0 -0.00000000000E+00 -0.00000000000E+00 -0.97994429866E+03  0.97994429866E+03  0.00000000000E+00 0. -1.
         25    2    1    2    0    0 -0.11504011836E+03  0.11648743502E+03  0.20028934434E+03  0.28729458441E+03  0.12497521924E+03 0.  0.
          2    1    1    2  501    0 -0.15435089044E+02  0.20497973464E+02 -0.93156821833E+03  0.93192153870E+03  0.00000000000E+00 0. -1.
          1    1    1    2  502    0  0.13047520740E+03 -0.13698540849E+03  0.19002587586E+04  0.19096523589E+04  0.00000000000E+00 0. -1.
         22    1    3    3    0    0 -0.10605749885E+02 -0.94685034463E+01  0.87306554765E+02  0.88456593836E+02  0.00000000000E+00 0.  1.
         22    1    3    3    0    0 -0.10443436848E+03  0.12595593847E+03  0.11298278958E+03  0.19883799058E+03  0.00000000000E+00 0.  1.
</event>
<event>
 7    1  0.5537228E-006  0.5343826E+02  0.7818608E-02  0.1500369E+00
          2   -1    0    0  502    0  0.00000000000E+00  0.00000000000E+00  0.41589305502E+03  0.41589305502E+03  0.00000000000E+00 0. -1.
          1   -1    0    0  501    0 -0.00000000000E+00 -0.00000000000E+00 -0.50473500341E+03  0.50473500341E+03  0.00000000000E+00 0. -1.
         25    2    1    2    0    0 -0.78391491724E+02 -0.17610591040E+02 -0.19839118455E+03  0.24786499971E+03  0.12499054798E+03 0.  0.
          2    1    1    2  501    0  0.30916277496E+02 -0.64832605234E+01 -0.27889961231E+03  0.28068281498E+03  0.00000000000E+00 0. -1.
          1    1    1    2  502    0  0.47475214228E+02  0.24093851564E+02  0.38844884847E+03  0.39208024374E+03  0.00000000000E+00 0. -1.
         22    1    3    3    0    0  0.17420531293E+01 -0.33620828003E+02 -0.39487947907E+00  0.33668245492E+02  0.00000000000E+00 0. -1.
         22    1    3    3    0    0 -0.80133544853E+02  0.16010236963E+02 -0.19799630507E+03  0.21419675422E+03  0.00000000000E+00 0. -1.
</event>
<event>
 7    1  0.5537228E-006  0.3934285E+02  0.7818608E-02  0.1552991E+00
          2   -1    0    0  502    0  0.00000000000E+00  0.00000000000E+00  0.52648083418E+03  0.52648083418E+03  0.00000000000E+00 0. -1.
          1   -1    0    0  501    0 -0.00000000000E+00 -0.00000000000E+00 -0.24177573215E+03  0.24177573215E+03  0.00000000000E+00 0. -1.
         25    2    1    2    0    0 -0.25040148269E+02 -0.44263427706E+02  0.19577457276E+03  0.23777979582E+03  0.12500115162E+03 0.  0.
          2    1    1    2  501    0  0.35921172398E+02  0.16014998664E+02 -0.21827167694E+03  0.22178668978E+03  0.00000000000E+00 0. -1.
          1    1    1    2  502    0 -0.10881024129E+02  0.28248429041E+02  0.30720220622E+03  0.30869008072E+03  0.00000000000E+00 0. -1.
         22    1    3    3    0    0 -0.58150137686E+02  0.35366982580E+01  0.15810549872E+03  0.16849716755E+03  0.00000000000E+00 0.  1.
         22    1    3    3    0    0  0.33109989417E+02 -0.47800125964E+02  0.37669074034E+02  0.69282628269E+02  0.00000000000E+00 0.  1.
</event>
<event>
 7    1  0.5537228E-006  0.6376580E+02  0.7818608E-02  0.1391595E+00
          2   -1    0    0  502    0  0.00000000000E+00  0.00000000000E+00  0.27603747547E+03  0.27603747547E+03  0.00000000000E+00 0. -1.
          1   -1    0    0  501    0 -0.00000000000E+00 -0.00000000000E+00 -0.11474402646E+04  0.11474402646E+04  0.00000000000E+00 0. -1.
         25    2    1    2    0    0  0.74941757644E+02 -0.11157948851E+02  0.59748994992E+02  0.15791089481E+03  0.12500056575E+03 0.  0.
          2    1    1    2  501    0 -0.39945890037E+02 -0.43877895826E+02 -0.10911625621E+04  0.10927747621E+04  0.00000000000E+00 0. -1.
          1    1    1    2  502    0 -0.34995867607E+02  0.55035844677E+02  0.16001077793E+03  0.17279208316E+03  0.00000000000E+00 0. -1.
         22    1    3    3    0    0  0.16067288416E+02  0.34199734686E+02 -0.24910013099E+02  0.45258019867E+02  0.00000000000E+00 0. -1.
         22    1    3    3    0    0  0.58874469228E+02 -0.45357683537E+02  0.84659008091E+02  0.11265287495E+03  0.00000000000E+00 0. -1.
</event>
<event>
 7    1  0.5537228E-006  0.3547419E+02  0.7818608E-02  0.1579211E+00
          2   -1    0    0  502    0  0.00000000000E+00  0.00000000000E+00  0.14488693759E+03  0.14488693759E+03  0.00000000000E+00 0. -1.
          1   -1    0    0  501    0 -0.00000000000E+00 -0.00000000000E+00 -0.43748607441E+03  0.43748607441E+03  0.00000000000E+00 0. -1.
         25    2    1    2    0    0 -0.37834184742E+02  0.89011112723E+00 -0.30002767293E+03  0.32722334800E+03  0.12500518838E+03 0.  0.
          2    1    1    2  501    0  0.13533009808E+02  0.25047687735E+02 -0.11975519333E+03  0.12309279161E+03  0.00000000000E+00 0. -1.
          1    1    1    2  502    0  0.24301174934E+02 -0.25937798862E+02  0.12718372944E+03  0.13205687239E+03  0.00000000000E+00 0. -1.
         22    1    3    3    0    0 -0.31863446351E+02 -0.33622352469E+02 -0.30572927221E+02  0.55501762835E+02  0.00000000000E+00 0.  1.
         22    1    3    3    0    0 -0.59707383910E+01  0.34512463597E+02 -0.26945474571E+03  0.27172158517E+03  0.00000000000E+00 0.  1.
</event>
<event>
 7    1  0.5537228E-006  0.9136104E+02  0.7818608E-02  0.1417665E+00
          2   -1    0    0  502    0  0.00000000000E+00  0.00000000000E+00  0.52612844072E+02  0.52612844072E+02  0.00000000000E+00 0. -1.
          1   -1    0    0  501    0 -0.00000000000E+00 -0.00000000000E+00 -0.12415912130E+04  0.12415912130E+04  0.00000000000E+00 0. -1.
         25    2    1    2    0    0  0.92488214637E+02  0.46035804881E+02 -0.27879773331E+03  0.32253189403E+03  0.12500112556E+03 0.  0.
          2    1    1    2  501    0 -0.89791319458E+02 -0.12406702283E+02 -0.92874959071E+03  0.93316247758E+03  0.00000000000E+00 0. -1.
          1    1    1    2  502    0 -0.26968951792E+01 -0.33629102598E+02  0.18568955059E+02  0.38509685498E+02  0.00000000000E+00 0. -1.
         22    1    3    3    0    0  0.19876666142E+02  0.73925604710E+02 -0.18790623592E+03  0.20290103594E+03  0.00000000000E+00 0. -1.
         22    1    3    3    0    0  0.72611548494E+02 -0.27889799829E+02 -0.90891497386E+02  0.11963085809E+03  0.00000000000E+00 0. -1.
</event>
<event>
 7    1  0.5537228E-006  0.5496901E+02  0.7818608E-02  0.1476540E+00
          2   -1    0    0  502    0  0.00000000000E+00  0.00000000000E+00  0.36255458608E+03  0.36255458608E+03  0.00000000000E+00 0. -1.
          1   -1    0    0  501    0 -0.00000000000E+00 -0.00000000000E+00 -0.98904657825E+03  0.98904657825E+03  0.00000000000E+00 0. -1.
         25    2    1    2    0    0  0.14665680015E+02  0.80567995434E+02 -0.18373957475E+02  0.15056410385E+03  0.12500265195E+03 0.  0.
          2    1    1    2  501    0  0.98146684268E+01 -0.53808774187E+02 -0.90263738788E+03  0.90429307523E+03  0.00000000000E+00 0. -1.
          1    1    1    2  502    0 -0.24480348442E+02 -0.26759221247E+02  0.29451935319E+03  0.29674398526E+03  0.00000000000E+00 0. -1.
         22    1    3    3    0    0 -0.97986144131E+01  0.89670193268E+02 -0.54954393622E+02  0.10562547886E+03  0.00000000000E+00 0.  1.
         22    1    3    3    0    0  0.24464294428E+02 -0.91021978338E+01  0.36580436147E+02  0.44938624990E+02  0.00000000000E+00 0.  1.
</event>
<event>
 7    1  0.5537228E-006  0.8642739E+02  0.7818608E-02  0.1391053E+00
          2   -1    0    0  502    0  0.00000000000E+00  0.00000000000E+00  0.26742792385E+04  0.26742792385E+04  0.00000000000E+00 0. -1.
          1   -1    0    0  501    0 -0.00000000000E+00 -0.00000000000E+00 -0.45441992735E+02  0.45441992735E+02  0.00000000000E+00 0. -1.
         25    2    1    2    0    0  0.96265556352E+02  0.22086044047E+01  0.11143757032E+04  0.11254910038E+04  0.12499942590E+03 0.  0.
          2    1    1    2  501    0 -0.77790193571E+02  0.37690966635E+02  0.76509263398E+01  0.86778222242E+02  0.00000000000E+00 0. -1.
          1    1    1    2  502    0 -0.18475362782E+02 -0.39899571039E+02  0.15068106163E+04  0.15074520053E+04  0.00000000000E+00 0. -1.
         22    1    3    3    0    0  0.20980821476E+02  0.59557093439E+02  0.44255630473E+03  0.44703839332E+03  0.00000000000E+00 0.  1.
         22    1    3    3    0    0  0.75284734876E+02 -0.57348489035E+02  0.67181939846E+03  0.67845261047E+03  0.00000000000E+00 0.  1.
</event>
<event>
 7    1  0.5537228E-006  0.5818276E+02  0.7818608E-02  0.1407126E+00
          2   -1    0    0  502    0  0.00000000000E+00  0.00000000000E+00  0.15147119505E+04  0.15147119505E+04  0.00000000000E+00 0. -1.
          1   -1    0    0  501    0 -0.00000000000E+00 -0.00000000000E+00 -0.22640962477E+03  0.22640962477E+03  0.00000000000E+00 0. -1.
         25    2    1    2    0    0  0.15449804157E+02 -0.80703480168E+02  0.30015296255E+03  0.33536355901E+03  0.12500067051E+03 0.  0.
          2    1    1    2  501    0  0.32165177530E+02  0.48469872288E+02 -0.20404638794E+03  0.21217647277E+03  0.00000000000E+00 0. -1.
          1    1    1    2  502    0 -0.47614981687E+02  0.32233607880E+02  0.11921957511E+04  0.11935815435E+04  0.00000000000E+00 0. -1.
         22    1    3    3    0    0  0.26378935181E+02 -0.61175804566E+02  0.47738545985E+02  0.81959112113E+02  0.00000000000E+00 0. -1.
         22    1    3    3    0    0 -0.10929131024E+02 -0.19527675602E+02  0.25241441656E+03  0.25340444690E+03  0.00000000000E+00 0. -1.
</event>
<event>
 7    1  0.5537228E-006  0.7289406E+02  0.7818608E-02  0.1388448E+00
          2   -1    0    0  502    0  0.00000000000E+00  0.00000000000E+00  0.42399063953E+03  0.42399063953E+03  0.00000000000E+00 0. -1.
          1   -1    0    0  501    0 -0.00000000000E+00 -0.00000000000E+00 -0.10988439171E+04  0.10988439171E+04  0.00000000000E+00 0. -1.
         25    2    1    2    0    0  0.86311887934E+02  0.58298782469E+02  0.99846571206E+02  0.19089898133E+03  0.12499837301E+03 0.  0.
          2    1    1    2  501    0 -0.53064253353E+02  0.42702312466E+01 -0.10481265843E+04  0.10494776733E+04  0.00000000000E+00 0. -1.
          1    1    1    2  502    0 -0.33247634581E+02 -0.62569013716E+02  0.27342673558E+03  0.28245790202E+03  0.00000000000E+00 0. -1.
         22    1    3    3    0    0  0.93011235229E+02  0.78328707579E+02  0.11301570937E+03  0.16600911684E+03  0.00000000000E+00 0. -1.
         22    1    3    3    0    0 -0.66993472955E+01 -0.20029925110E+02 -0.13169138168E+02  0.24889864487E+02  0.00000000000E+00 0. -1.
</event>
<event>
 7    1  0.5537228E-006  0.2270372E+03  0.7818608E-02  0.1289311E+00
          2   -1    0    0  502    0  0.00000000000E+00  0.00000000000E+00  0.58308858034E+03  0.58308858034E+03  0.00000000000E+00 0. -1.
          1   -1    0    0  501    0 -0.00000000000E+00 -0.00000000000E+00 -0.40898702856E+03  0.40898702856E+03  0.00000000000E+00 0. -1.
         25    2    1    2    0    0 -0.25758717440E+03 -0.43758878436E+02 -0.20387149497E+02  0.29035604801E+03  0.12500002759E+03 0.  0.
          2    1    1    2  501    0  0.39128529498E+02  0.10259461398E+02 -0.22444529353E+03  0.22806136928E+03  0.00000000000E+00 0. -1.
          1    1    1    2  502    0  0.21845864490E+03  0.33499417038E+02  0.41893399480E+03  0.47365819161E+03  0.00000000000E+00 0. -1.
         22    1    3    3    0    0 -0.15926784121E+03 -0.60590787057E+02 -0.63281389407E+02  0.18177464885E+03  0.00000000000E+00 0.  1.
         22    1    3    3    0    0 -0.98319333188E+02  0.16831908621E+02  0.42894239910E+02  0.10858139916E+03  0.00000000000E+00 0.  1.
</event>
<event>
 7    1  0.5537228E-006  0.8533020E+02  0.7818608E-02  0.1325286E+00
          2   -1    0    0  502    0  0.00000000000E+00  0.00000000000E+00  0.55833134483E+03  0.55833134483E+03  0.00000000000E+00 0. -1.
          1   -1    0    0  501    0 -0.00000000000E+00 -0.00000000000E+00 -0.12392036168E+03  0.12392036168E+03  0.00000000000E+00 0. -1.
         25    2    1    2    0    0 -0.89669436974E+01  0.14268583467E+02  0.67113642772E+02  0.14287385891E+03  0.12499879984E+03 0.  0.
          2    1    1    2  501    0  0.94272757260E+02 -0.12228565746E+02 -0.54133354288E+02  0.10939520386E+03  0.00000000000E+00 0. -1.
          1    1    1    2  502    0 -0.85305813562E+02 -0.20400177214E+01  0.42143069467E+03  0.42998264373E+03  0.00000000000E+00 0. -1.
         22    1    3    3    0    0  0.23388363672E+02 -0.49303883622E+02  0.24857697334E+02  0.59964936523E+02  0.00000000000E+00 0.  1.
         22    1    3    3    0    0 -0.32355307369E+02  0.63572467089E+02  0.42255945438E+02  0.82908922389E+02  0.00000000000E+00 0.  1.
</event>
<event>
 7    1  0.5537228E-006  0.6521321E+02  0.7818608E-02  0.1479518E+00
          2   -1    0    0  502    0  0.00000000000E+00  0.00000000000E+00  0.17810254193E+03  0.17810254193E+03  0.00000000000E+00 0. -1.
          1   -1    0    0  501    0 -0.00000000000E+00 -0.00000000000E+00 -0.14779401563E+04  0.14779401563E+04  0.00000000000E+00 0. -1.
         25    2    1    2    0    0  0.57937288529E+02  0.31838478775E+01 -0.87303219746E+02  0.16314264433E+03  0.12500721552E+03 0.  0.
          2    1    1    2  501    0 -0.56526057716E+02 -0.33082938139E+02 -0.13503165751E+04  0.13519040384E+04  0.00000000000E+00 0. -1.
          1    1    1    2  502    0 -0.14112308132E+01  0.29899090262E+02  0.13778218041E+03  0.14099601558E+03  0.00000000000E+00 0. -1.
         22    1    3    3    0    0 -0.31829625780E+02 -0.27604753947E+02 -0.35064278848E+02  0.54814698475E+02  0.00000000000E+00 0. -1.
         22    1    3    3    0    0  0.89766914310E+02  0.30788601824E+02 -0.52238940898E+02  0.10832794585E+03  0.00000000000E+00 0. -1.
</event>
<event>
 7    1  0.5537228E-006  0.3591443E+02  0.7818608E-02  0.1562669E+00
          2   -1    0    0  502    0  0.00000000000E+00  0.00000000000E+00  0.54218070643E+02  0.54218070643E+02  0.00000000000E+00 0. -1.
          1   -1    0    0  501    0 -0.00000000000E+00 -0.00000000000E+00 -0.79904851192E+03  0.79904851192E+03  0.00000000000E+00 0. -1.
         25    2    1    2    0    0 -0.95728314582E+01 -0.10276998785E+01 -0.59834571360E+02  0.13891584771E+03  0.12499896618E+03 0.  0.
          2    1    1    2  501    0  0.19514597717E+02  0.30583238647E+02 -0.68206646686E+03  0.68303061368E+03  0.00000000000E+00 0. -1.
          1    1    1    2  502    0 -0.99417662586E+01 -0.29555538769E+02 -0.29294030596E+01  0.31320121177E+02  0.00000000000E+00 0. -1.
         22    1    3    3    0    0  0.17645055957E+02  0.51648304537E+02  0.14088131869E+00  0.54579439434E+02  0.00000000000E+00 0. -1.
         22    1    3    3    0    0 -0.27217887415E+02 -0.52676004416E+02 -0.59975452679E+02  0.84336408274E+02  0.00000000000E+00 0. -1.
</event>
<event>
 7    1  0.5537228E-006  0.1058298E+03  0.7818608E-02  0.1276565E+00
          2   -1    0    0  502    0  0.00000000000E+00  0.00000000000E+00  0.12497845113E+04  0.12497845113E+04  0.00000000000E+00 0. -1.
          1   -1    0    0  501    0 -0.00000000000E+00 -0.00000000000E+00 -0.14604185726E+03  0.14604185726E+03  0.00000000000E+00 0. -1.
         25    2    1    2    0    0  0.64253772562E+02 -0.93632384416E+02  0.70529688556E+03  0.72523509907E+03  0.12500672555E+03 0.  0.
          2    1    1    2  501    0 -0.95839589362E+02 -0.20051501527E+02 -0.11079459733E+03  0.14786051670E+03  0.00000000000E+00 0. -1.
          1    1    1    2  502    0  0.31585816800E+02  0.11368388594E+03  0.50924036576E+03  0.52273075275E+03  0.00000000000E+00 0. -1.
         22    1    3    3    0    0  0.79536003237E+02 -0.10467638303E+03  0.68512109433E+03  0.69762026552E+03  0.00000000000E+00 0. -1.
         22    1    3    3    0    0 -0.15282230675E+02  0.11043998612E+02  0.20175791238E+02  0.27614833547E+02  0.00000000000E+00 0. -1.
</event>
<event>
 7    1  0.5537228E-006  0.6021395E+02  0.7818608E-02  0.1416726E+00
          2   -1    0    0  502    0  0.00000000000E+00  0.00000000000E+00  0.34753349205E+02  0.34753349205E+02  0.00000000000E+00 0. -1.
          1   -1    0    0  501    0 -0.00000000000E+00 -0.00000000000E+00 -0.99904476380E+03  0.99904476380E+03  0.00000000000E+00 0. -1.
         25    2    1    2    0    0  0.15984443578E+02 -0.81336001067E+01 -0.25901368845E+03  0.28815779597E+03  0.12500066675E+03 0.  0.
          2    1    1    2  501    0 -0.64218962888E+02 -0.10085777124E+02 -0.68829025895E+03  0.69135322279E+03  0.00000000000E+00 0. -1.
          1    1    1    2  502    0  0.48234519310E+02  0.18219377231E+02 -0.16987467193E+02  0.54287094243E+02  0.00000000000E+00 0. -1.
         22    1    3    3    0    0 -0.12470705865E+02  0.14491462352E+02 -0.24996477888E+03  0.25069485768E+03  0.00000000000E+00 0.  1.
         22    1    3    3    0    0  0.28455149443E+02 -0.22625062459E+02 -0.90489095688E+01  0.37462938292E+02  0.00000000000E+00 0.  1.
</event>
<event>
 7    1  0.5537228E-006  0.1255019E+03  0.7818608E-02  0.1285738E+00
          2   -1    0    0  502    0  0.00000000000E+00  0.00000000000E+00  0.11800823613E+04  0.11800823613E+04  0.00000000000E+00 0. -1.
          1   -1    0    0  501    0 -0.00000000000E+00 -0.00000000000E+00 -0.59169995904E+02  0.59169995904E+02  0.00000000000E+00 0. -1.
         25    2    1    2    0    0 -0.82599395259E+02 -0.72987041172E+02  0.73852411309E+03  0.75709477873E+03  0.12499948036E+03 0.  0.
          2    1    1    2  501    0  0.12902361962E+03  0.13221661403E+02  0.46395784636E+02  0.13774786961E+03  0.00000000000E+00 0. -1.
          1    1    1    2  502    0 -0.46424224362E+02  0.59765379769E+02  0.33599246765E+03  0.34440970884E+03  0.00000000000E+00 0. -1.
         22    1    3    3    0    0 -0.92714628041E+02 -0.96147715653E+02  0.51087300447E+03  0.52804508537E+03  0.00000000000E+00 0. -1.
         22    1    3    3    0    0  0.10115232782E+02  0.23160674481E+02  0.22765110861E+03  0.22904969336E+03  0.00000000000E+00 0. -1.
</event>
<event>
 7    1  0.5537228E-006  0.8963602E+02  0.7818608E-02  0.1341044E+00
          2   -1    0    0  502    0  0.00000000000E+00  0.00000000000E+00  0.76325683218E+03  0.76325683218E+03  0.00000000000E+00 0. -1.
          1   -1    0    0  501    0 -0.00000000000E+00 -0.00000000000E+00 -0.96794121553E+03  0.96794121553E+03  0.00000000000E+00 0. -1.
         25    2    1    2    0    0  0.80557332802E+02 -0.50614452595E+02  0.35326356550E+03  0.38661642575E+03  0.12500322904E+03 0.  0.
          2    1    1    2  501    0 -0.88764262766E+02 -0.13163356637E+02 -0.94650014146E+03  0.95074438525E+03  0.00000000000E+00 0. -1.
          1    1    1    2  502    0  0.82069299644E+01  0.63777809233E+02  0.38855219260E+03  0.39383723671E+03  0.00000000000E+00 0. -1.
         22    1    3    3    0    0  0.15880570964E+02 -0.79376542341E+02  0.23761552181E+03  0.25102582380E+03  0.00000000000E+00 0. -1.
         22    1    3    3    0    0  0.64676761838E+02  0.28762089746E+02  0.11564804369E+03  0.13559060195E+03  0.00000000000E+00 0. -1.
</event>
<event>
 7    1  0.5537228E-006  0.9945224E+02  0.7818608E-02  0.1362262E+00
          2   -1    0    0  502    0  0.00000000000E+00  0.00000000000E+00  0.90724835367E+03  0.90724835367E+03  0.00000000000E+00 0. -1.
          1   -1    0    0  501    0 -0.00000000000E+00 -0.00000000000E+00 -0.63819446278E+03  0.63819446278E+03  0.00000000000E+00 0. -1.
         25    2    1    2    0    0  0.28421826910E+02  0.11529204609E+03  0.26470209202E+03  0.31589869234E+03  0.12499892066E+03 0.  0.
          2    1    1    2  501    0  0.16725834971E+02 -0.97900960760E+02 -0.60760948048E+03  0.61567331633E+03  0.00000000000E+00 0. -1.
          1    1    1    2  502    0 -0.45147661881E+02 -0.17391085331E+02  0.61196127934E+03  0.61387080777E+03  0.00000000000E+00 0. -1.
         22    1    3    3    0    0 -0.46270581316E+02  0.21632900545E+02  0.99358126026E+02  0.11171833461E+03  0.00000000000E+00 0.  1.
         22    1    3    3    0    0  0.74692408226E+02  0.93659145546E+02  0.16534396600E+03  0.20418035773E+03  0.00000000000E+00 0.  1.
</event>
<event>
 7    1  0.5537228E-006  0.9317251E+02  0.7818608E-02  0.1317076E+00
          2   -1    0    0  502    0  0.00000000000E+00  0.00000000000E+00  0.25367883247E+04  0.25367883247E+04  0.00000000000E+00 0. -1.
          1   -1    0    0  501    0 -0.00000000000E+00 -0.00000000000E+00 -0.58729052051E+02  0.58729052051E+02  0.00000000000E+00 0. -1.
         25    2    1    2    0    0 -0.13852760441E+03  0.49697930723E+02  0.33751179667E+03  0.38884341924E+03  0.12500084117E+03 0.  0.
          2    1    1    2  501    0  0.62703616056E+02 -0.59125897946E+02  0.24985097158E+02  0.89732214697E+02  0.00000000000E+00 0. -1.
          1    1    1    2  502    0  0.75823988356E+02  0.94279672234E+01  0.21155623788E+04  0.21169417428E+04  0.00000000000E+00 0. -1.
         22    1    3    3    0    0 -0.15631226051E+03  0.33459429112E+02  0.23971888822E+03  0.28812879334E+03  0.00000000000E+00 0. -1.
         22    1    3    3    0    0  0.17784656100E+02  0.16238501611E+02  0.97792908456E+02  0.10071462591E+03  0.00000000000E+00 0. -1.
</event>
<event>
 7    1  0.5537228E-006  0.1920926E+03  0.7818608E-02  0.1304028E+00
          2   -1    0    0  502    0  0.00000000000E+00  0.00000000000E+00  0.24159370346E+03  0.24159370346E+03  0.00000000000E+00 0. -1.
          1   -1    0    0  501    0 -0.00000000000E+00 -0.00000000000E+00 -0.51710778775E+03  0.51710778775E+03  0.00000000000E+00 0. -1.
         25    2    1    2    0    0  0.15139007248E+03  0.13825621255E+03 -0.29775817583E+03  0.38251556764E+03  0.12499797543E+03 0.  0.
          2    1    1    2  501    0 -0.10983653914E+03 -0.14192122987E+03 -0.12788835115E+03  0.22036590294E+03  0.00000000000E+00 0. -1.
          1    1    1    2  502    0 -0.41553533340E+02  0.36650173159E+01  0.15013244268E+03  0.15582002064E+03  0.00000000000E+00 0. -1.
         22    1    3    3    0    0  0.68009000090E+02  0.16697108343E+01 -0.39408844584E+02  0.78619775241E+02  0.00000000000E+00 0. -1.
         22    1    3    3    0    0  0.83381072390E+02  0.13658650172E+03 -0.25834933125E+03  0.30389579240E+03  0.00000000000E+00 0. -1.
</event>
<event>
 7    1  0.5537228E-006  0.1721102E+03  0.7818608E-02  0.1187115E+00
          2   -1    0    0  502    0  0.00000000000E+00  0.00000000000E+00  0.61173009571E+03  0.61173009571E+03  0.00000000000E+00 0. -1.
          1   -1    0    0  501    0 -0.00000000000E+00 -0.00000000000E+00 -0.74144001569E+03  0.74144001569E+03  0.00000000000E+00 0. -1.
         25    2    1    2    0    0  0.22514737200E+03 -0.21584019164E+03 -0.40746486980E+03  0.52813893558E+03  0.12499915082E+03 0.  0.
          2    1    1    2  501    0 -0.13052837368E+03  0.76658237048E+02 -0.23825132304E+03  0.28227262456E+03  0.00000000000E+00 0. -1.
          1    1    1    2  502    0 -0.94618998320E+02  0.13918195459E+03  0.51600627287E+03  0.54275855126E+03  0.00000000000E+00 0. -1.
         22    1    3    3    0    0  0.60611252576E+00  0.14348079505E+02 -0.19882200355E+02  0.24526244084E+02  0.00000000000E+00 0.  1.
         22    1    3    3    0    0  0.22454125948E+03 -0.23018827114E+03 -0.38758266945E+03  0.50361269150E+03  0.00000000000E+00 0.  1.
</event>
<event>
 7    1  0.5537228E-006  0.8328435E+02  0.7818608E-02  0.1494748E+00
          2   -1    0    0  502    0  0.00000000000E+00  0.00000000000E+00  0.53344674029E+03  0.53344674029E+03  0.00000000000E+00 0. -1.
          1   -1    0    0  501    0 -0.00000000000E+00 -0.00000000000E+00 -0.12788313930E+04  0.12788313930E+04  0.00000000000E+00 0. -1.
         25    2    1    2    0    0  0.80101604441E+02  0.21610702381E+02 -0.10675193694E+04  0.10780100173E+04  0.12499881508E+03 0.  0.
          2    1    1    2  501    0 -0.77197388965E+01  0.19604185975E+02 -0.20223231067E+03  0.20332689433E+03  0.00000000000E+00 0. -1.
          1    1    1    2  502    0 -0.72381865544E+02 -0.41214888355E+02  0.52436702738E+03  0.53094122168E+03  0.00000000000E+00 0. -1.
         22    1    3    3    0    0  0.17275641240E+02  0.63107482518E+02 -0.31438620466E+03  0.32112254329E+03  0.00000000000E+00 0.  1.
         22    1    3    3    0    0  0.62825963200E+02 -0.41496780138E+02 -0.75313316479E+03  0.75688747401E+03  0.00000000000E+00 0.  1.
</event>
<event>
 7    1  0.5537228E-006  0.5459982E+02  0.7818608E-02  0.1458771E+00
          2   -1    0    0  502    0  0.00000000000E+00  0.00000000000E+00  0.18497100482E+02  0.18497100482E+02  0.00000000000E+00 0. -1.
          1   -1    0    0  501    0 -0.00000000000E+00 -0.00000000000E+00 -0.26325797807E+04  0.26325797807E+04  0.00000000000E+00 0. -1.
         25    2    1    2    0    0 -0.37857613030E+02  0.32742435185E+02 -0.47633093309E+03  0.49499621827E+03  0.12499932945E+03 0.  0.
          2    1    1    2  501    0  0.30243334201E+01 -0.55275885239E+02 -0.20976517711E+04  0.20983821203E+04  0.00000000000E+00 0. -1.
          1    1    1    2  502    0  0.34833279610E+02  0.22533450054E+02 -0.40099976051E+02  0.57698542607E+02  0.00000000000E+00 0. -1.
         22    1    3    3    0    0 -0.26762996673E+02 -0.26012168911E+02 -0.37853011242E+03  0.38036553069E+03  0.00000000000E+00 0.  1.
         22    1    3    3    0    0 -0.11094616357E+02  0.58754604095E+02 -0.97800820664E+02  0.11463068759E+03  0.00000000000E+00 0.  1.
</event>
<event>
 7    1  0.5537228E-006  0.4797497E+02  0.7818608E-02  0.1504001E+00
          2   -1    0    0  502    0  0.00000000000E+00  0.00000000000E+00  0.81400958551E+03  0.81400958551E+03  0.00000000000E+00 0. -1.
          1   -1    0    0  501    0 -0.00000000000E+00 -0.00000000000E+00 -0.26001698642E+02  0.26001698642E+02  0.00000000000E+00 0. -1.
         25    2    1    2    0    0  0.31364733843E+02  0.27545129749E+01  0.23459378963E+03  0.26767474534E+03  0.12499675712E+03 0.  0.
          2    1    1    2  501    0  0.18218216739E+01  0.34273150019E+02  0.27238350217E+02  0.43816612934E+02  0.00000000000E+00 0. -1.
          1    1    1    2  502    0 -0.33186555517E+02 -0.37027662994E+02  0.52617574702E+03  0.52851992588E+03  0.00000000000E+00 0. -1.
         22    1    3    3    0    0  0.33250498625E+02  0.56707369209E+02  0.17662196850E+03  0.18845859264E+03  0.00000000000E+00 0.  1.
         22    1    3    3    0    0 -0.18857647812E+01 -0.53952856234E+02  0.57971821128E+02  0.79216152706E+02  0.00000000000E+00 0.  1.
</event>
<event>
 7    1  0.5537228E-006  0.6582321E+02  0.7818608E-02  0.1442928E+00
          2   -1    0    0  502    0  0.00000000000E+00  0.00000000000E+00  0.19415583584E+04  0.19415583584E+04  0.00000000000E+00 0. -1.
          1   -1    0    0  501    0 -0.00000000000E+00 -0.00000000000E+00 -0.74292057249E+02  0.74292057249E+02  0.00000000000E+00 0. -1.
         25    2    1    2    0    0  0.52049825476E+02 -0.87961559108E+02  0.14540298724E+04  0.14629679023E+04  0.12500317188E+03 0.  0.
          2    1    1    2  501    0 -0.41209741849E+02  0.50844439233E+02 -0.53509285221E+02  0.84537822476E+02  0.00000000000E+00 0. -1.
          1    1    1    2  502    0 -0.10840083628E+02  0.37117119875E+02  0.46674571395E+03  0.46834469090E+03  0.00000000000E+00 0. -1.
         22    1    3    3    0    0  0.65354238327E+01  0.12061924593E+02  0.77356288304E+03  0.77368451956E+03  0.00000000000E+00 0. -1.
         22    1    3    3    0    0  0.45514401644E+02 -0.10002348370E+03  0.68046698936E+03  0.68928338269E+03  0.00000000000E+00 0. -1.
</event>
<event>
 7    1  0.5537228E-006  0.7364227E+02  0.7818608E-02  0.1411819E+00
          2   -1    0    0  502    0  0.00000000000E+00  0.00000000000E+00  0.89595326757E+02  0.89595326757E+02  0.00000000000E+00 0. -1.
          1   -1    0    0  501    0 -0.00000000000E+00 -0.00000000000E+00 -0.10147960800E+04  0.10147960800E+04  0.00000000000E+00 0. -1.
         25    2    1    2    0    0 -0.10851596812E+03  0.69579045416E+01 -0.45282598663E+03  0.48218678996E+03  0.12501439304E+03 0.  0.
          2    1    1    2  501    0  0.37696771030E+02 -0.22290686975E+02 -0.52864850616E+03  0.53045938990E+03  0.00000000000E+00 0. -1.
          1    1    1    2  502    0  0.70819197089E+02  0.15332782433E+02  0.56273739555E+02  0.91745226889E+02  0.00000000000E+00 0. -1.
         22    1    3    3    0    0 -0.11652846810E+03 -0.15161062331E+02 -0.23152918556E+03  0.25964303468E+03  0.00000000000E+00 0.  1.
         22    1    3    3    0    0  0.80124999796E+01  0.22118966873E+02 -0.22129680107E+03  0.22254375528E+03  0.00000000000E+00 0.  1.
</event>
<event>
 7    1  0.5537228E-006  0.1116820E+03  0.7818608E-02  0.1266617E+00
          2   -1    0    0  502    0  0.00000000000E+00  0.00000000000E+00  0.20174793072E+04  0.20174793072E+04  0.00000000000E+00 0. -1.
          1   -1    0    0  501    0 -0.00000000000E+00 -0.00000000000E+00 -0.58687292509E+02  0.58687292509E+02  0.00000000000E+00 0. -1.
         25    2    1    2    0    0 -0.62862959129E+01 -0.29149410917E+02  0.52916134526E+03  0.54453773408E+03  0.12498163402E+03 0.  0.
          2    1    1    2  501    0  0.11396472566E+03 -0.48538770319E+00  0.17752101189E+02  0.11534006847E+03  0.00000000000E+00 0. -1.
          1    1    1    2  502    0 -0.10767842975E+03  0.29634798620E+02  0.14118785682E+04  0.14162887972E+04  0.00000000000E+00 0. -1.
         22    1    3    3    0    0 -0.32771937193E+02 -0.62449337475E+02  0.44148332266E+03  0.44708102600E+03  0.00000000000E+00 0.  1.
         22    1    3    3    0    0  0.26485641280E+02  0.33299926558E+02  0.87678022597E+02  0.97456708077E+02  0.00000000000E+00 0.  1.
</event>
<event>
 7    1  0.7651483E-006  0.1003941E+03  0.7818608E-02  0.1403630E+00
          2   -1    0    0  502    0  0.00000000000E+00  0.00000000000E+00  0.14709283371E+04  0.14709283371E+04  0.00000000000E+00 0. -1.
          1   -1    0    0  501    0 -0.00000000000E+00 -0.00000000000E+00 -0.85484631808E+03  0.85484631808E+03  0.00000000000E+00 0. -1.
         25    2    1    2    0    0  0.34926996556E+02 -0.11688389876E+03 -0.39421126589E+03  0.43117201785E+03  0.12500018377E+03 0.  0.
          2    1    1    2  501    0 -0.29908943279E+02  0.16691440250E+02 -0.43975575993E+03  0.44108760746E+03  0.00000000000E+00 0. -1.
          1    1    1    2  502    0 -0.50180532770E+01  0.10019245851E+03  0.14500490448E+04  0.14535150298E+04  0.00000000000E+00 0. -1.
         22    1    3    3    0    0 -0.38041116234E+02 -0.52000181967E+02 -0.24122315745E+03  0.24967930859E+03  0.00000000000E+00 0.  1.
         22    1    3    3    0    0  0.72968112790E+02 -0.64883716792E+02 -0.15298810844E+03  0.18149270926E+03  0.00000000000E+00 0.  1.
</event>
<event>
 7    1  0.5537228E-006  0.1183710E+03  0.7818608E-02  0.1321250E+00
          2   -1    0    0  502    0  0.00000000000E+00  0.00000000000E+00  0.21576270922E+04  0.21576270922E+04  0.00000000000E+00 0. -1.
          1   -1    0    0  501    0 -0.00000000000E+00 -0.00000000000E+00 -0.56610130165E+02  0.56610130165E+02  0.00000000000E+00 0. -1.
         25    2    1    2    0    0 -0.16324319868E+03  0.10394379532E+02  0.39008867464E+03  0.44107810153E+03  0.12499733007E+03 0.  0.
          2    1    1    2  501    0  0.53042342141E+02  0.23308551363E+02 -0.41599049628E+00  0.57939206713E+02  0.00000000000E+00 0. -1.
          1    1    1    2  502    0  0.11020085654E+03 -0.33702930895E+02  0.17113442778E+04  0.17152199141E+04  0.00000000000E+00 0. -1.
         22    1    3    3    0    0 -0.40256248591E+01  0.31462196559E+02  0.19624581098E+02  0.37298788869E+02  0.00000000000E+00 0.  1.
         22    1    3    3    0    0 -0.15921757382E+03 -0.21067817027E+02  0.37046409354E+03  0.40377931266E+03  0.00000000000E+00 0.  1.
</event>
<event>
 7    1  0.5537228E-006  0.8672529E+02  0.7818608E-02  0.1452077E+00
          2   -1    0    0  502    0  0.00000000000E+00  0.00000000000E+00  0.10903594085E+02  0.10903594085E+02  0.00000000000E+00 0. -1.
          1   -1    0    0  501    0 -0.00000000000E+00 -0.00000000000E+00 -0.35455390933E+04  0.35455390933E+04  0.00000000000E+00 0. -1.
         25    2    1    2    0    0  0.82006058615E+02 -0.11394196061E+02 -0.19951282534E+04  0.20007539053E+04  0.12499848219E+03 0.  0.
          2    1    1    2  501    0 -0.81064808627E+02  0.38806715340E+02 -0.15184547884E+04  0.15211122275E+04  0.00000000000E+00 0. -1.
          1    1    1    2  502    0 -0.94124998857E+00 -0.27412519279E+02 -0.21052457454E+02  0.34576554624E+02  0.00000000000E+00 0. -1.
         22    1    3    3    0    0 -0.28637754080E+02  0.13796454909E+02 -0.26328167060E+03  0.26519370506E+03  0.00000000000E+00 0.  1.
         22    1    3    3    0    0  0.11064381270E+03 -0.25190650969E+02 -0.17318465828E+04  0.17355602002E+04  0.00000000000E+00 0.  1.
</event>
<event>
 7    1  0.5537228E-006  0.7251076E+02  0.7818608E-02  0.1489983E+00
          2   -1    0    0  502    0  0.00000000000E+00  0.00000000000E+00  0.89732718134E+03  0.89732718134E+03  0.00000000000E+00 0. -1.
          1   -1    0    0  501    0 -0.00000000000E+00 -0.00000000000E+00 -0.26789589108E+02  0.26789589108E+02  0.00000000000E+00 0. -1.
         25    2    1    2    0    0 -0.48949418546E+02  0.10538491927E+02  0.68103814222E+03  0.69422103547E+03  0.12499115788E+03 0.  0.
          2    1    1    2  501    0  0.72424426867E+02 -0.19177001751E+02  0.54620900923E+02  0.92717300548E+02  0.00000000000E+00 0. -1.
          1    1    1    2  502    0 -0.23475008321E+02  0.86385098237E+01  0.13487854909E+03  0.13717843443E+03  0.00000000000E+00 0. -1.
         22    1    3    3    0    0 -0.10896254165E+02 -0.54867056321E+02  0.36428275294E+03  0.36855263710E+03  0.00000000000E+00 0. -1.
         22    1    3    3    0    0 -0.38053164381E+02  0.65405548248E+02  0.31675538928E+03  0.32566839838E+03  0.00000000000E+00 0. -1.
</event>
<event>
 7    1  0.5537228E-006  0.9360898E+02  0.7818608E-02  0.1405461E+00
          2   -1    0    0  502    0  0.00000000000E+00  0.00000000000E+00  0.24444306138E+04  0.24444306138E+04  0.00000000000E+00 0. -1.
          1   -1    0    0  501    0 -0.00000000000E+00 -0.00000000000E+00 -0.32610905669E+03  0.32610905669E+03  0.00000000000E+00 0. -1.
         25    2    1    2    0    0 -0.76152306307E+02  0.14275028471E+01  0.28126041435E+03  0.31706791695E+03  0.12499372686E+03 0.  0.
          2    1    1    2  501    0  0.87010462912E+02 -0.35969730879E+02 -0.30085789376E+03  0.31524611723E+03  0.00000000000E+00 0. -1.
          1    1    1    2  502    0 -0.10858156606E+02  0.34542228032E+02  0.21379190366E+04  0.21382256364E+04  0.00000000000E+00 0. -1.
         22    1    3    3    0    0  0.14259452618E+02 -0.27703305489E+02  0.16013746568E+03  0.16314047027E+03  0.00000000000E+00 0.  1.
         22    1    3    3    0    0 -0.90411758925E+02  0.29130808336E+02  0.12112294867E+03  0.15392744668E+03  0.00000000000E+00 0.  1.
</event>
<event>
 7    1  0.5537228E-006  0.1924463E+03  0.7818608E-02  0.1384315E+00
          2   -1    0    0  502    0  0.00000000000E+00  0.00000000000E+00  0.22083324664E+04  0.22083324664E+04  0.00000000000E+00 0. -1.
          1   -1    0    0  501    0 -0.00000000000E+00 -0.00000000000E+00 -0.11418116218E+04  0.11418116218E+04  0.00000000000E+00 0. -1.
         25    2    1    2    0    0 -0.12387947741E+03 -0.12553785830E+03 -0.32082485398E+03  0.38685807956E+03  0.12499883199E+03 0.  0.
          2    1    1    2  501    0 -0.20780888086E+02 -0.16849047345E+01 -0.78356606306E+03  0.78384338958E+03  0.00000000000E+00 0. -1.
          1    1    1    2  502    0  0.14466036549E+03  0.12722276303E+03  0.21709117617E+04  0.21794426191E+04  0.00000000000E+00 0. -1.
         22    1    3    3    0    0 -0.14084985836E+03 -0.13209657786E+03 -0.31128541021E+03  0.36631515816E+03  0.00000000000E+00 0.  1.
         22    1    3    3    0    0  0.16970380958E+02  0.65587195675E+01 -0.95394437663E+01  0.20542921399E+02  0.00000000000E+00 0.  1.
</event>
<event>
 7    1  0.5537228E-006  0.1075740E+03  0.7818608E-02  0.1305071E+00
          2   -1    0    0  502    0  0.00000000000E+00  0.00000000000E+00  0.11300877603E+04  0.11300877603E+04  0.00000000000E+00 0. -1.
          1   -1    0    0  501    0 -0.00000000000E+00 -0.00000000000E+00 -0.10063562114E+04  0.10063562114E+04  0.00000000000E+00 0. -1.
         25    2    1    2    0    0 -0.24821750045E+02  0.12294139820E+03  0.17884299372E+00  0.17707588083E+03  0.12500051568E+03 0.  0.
          2    1    1    2  501    0  0.69458372317E+02 -0.24885104078E+02 -0.91363019644E+03  0.91660453290E+03  0.00000000000E+00 0. -1.
          1    1    1    2  502    0 -0.44636622272E+02 -0.98056294121E+02  0.10371829024E+04  0.10427635580E+04  0.00000000000E+00 0. -1.
         22    1    3    3    0    0  0.10901816726E+02 -0.21636050127E+02  0.13186186280E+02  0.27583396848E+02  0.00000000000E+00 0. -1.
         22    1    3    3    0    0 -0.35723566772E+02  0.14457744833E+03 -0.13007343286E+02  0.14949248398E+03  0.00000000000E+00 0. -1.
</event>
<event>
 7    1  0.5537228E-006  0.1002133E+03  0.7818608E-02  0.1284412E+00
          2   -1    0    0  502    0  0.00000000000E+00  0.00000000000E+00  0.70154637281E+03  0.70154637281E+03  0.00000000000E+00 0. -1.
          1   -1    0    0  501    0 -0.00000000000E+00 -0.00000000000E+00 -0.11205734334E+03  0.11205734334E+03  0.00000000000E+00 0. -1.
         25    2    1    2    0    0  0.73240607582E+02  0.22246609185E+02  0.43223508218E+01  0.14664009846E+03  0.12500215014E+03 0.  0.
          2    1    1    2  501    0 -0.14575029462E+03  0.46927450965E+02  0.12989650895E+03  0.20079451455E+03  0.00000000000E+00 0. -1.
          1    1    1    2  502    0  0.72509687041E+02 -0.69174060150E+02  0.45527016969E+03  0.46616910314E+03  0.00000000000E+00 0. -1.
         22    1    3    3    0    0  0.10712629270E+03  0.25105094189E+02 -0.83607357255E+01  0.11034586645E+03  0.00000000000E+00 0. -1.
         22    1    3    3    0    0 -0.33885685118E+02 -0.28584850033E+01  0.12683086547E+02  0.36294232004E+02  0.00000000000E+00 0. -1.
</event>
<event>
 7    1  0.5537228E-006  0.6653714E+02  0.7818608E-02  0.1514816E+00
          2   -1    0    0  502    0  0.00000000000E+00  0.00000000000E+00  0.32226137663E+03  0.32226137663E+03  0.00000000000E+00 0. -1.
          1   -1    0    0  501    0 -0.00000000000E+00 -0.00000000000E+00 -0.38760432345E+03  0.38760432345E+03  0.00000000000E+00 0. -1.
         25    2    1    2    0    0  0.37430225854E+02 -0.44761512713E+02 -0.50050956349E+02  0.14674753902E+03  0.12500050860E+03 0.  0.
          2    1    1    2  501    0 -0.57990156023E+02  0.34460378060E+02 -0.28477518281E+03  0.29265556649E+03  0.00000000000E+00 0. -1.
          1    1    1    2  502    0  0.20559930170E+02  0.10301134653E+02  0.26948319234E+03  0.27046259456E+03  0.00000000000E+00 0. -1.
         22    1    3    3    0    0  0.73459673931E+02  0.55771686360E+01 -0.40625761204E+02  0.84130143097E+02  0.00000000000E+00 0.  1.
         22    1    3    3    0    0 -0.36029448077E+02 -0.50338681349E+02 -0.94251951447E+01  0.62617395923E+02  0.00000000000E+00 0.  1.
</event>
<event>
 7    1  0.5537228E-006  0.3732381E+02  0.7818608E-02  0.1541773E+00
          2   -1    0    0  502    0  0.00000000000E+00  0.00000000000E+00  0.27299217280E+04  0.27299217280E+04  0.00000000000E+00 0. -1.
          1   -1    0    0  501    0 -0.00000000000E+00 -0.00000000000E+00 -0.16201920845E+02  0.16201920845E+02  0.00000000000E+00 0. -1.
         25    2    1    2    0    0 -0.35448666138E+02  0.11914446820E+01  0.42894074395E+03  0.44818981032E+03  0.12500366705E+03 0.  0.
          2    1    1    2  501    0  0.13330779174E+02 -0.31605471189E+02  0.39398843859E+02  0.52238724907E+02  0.00000000000E+00 0. -1.
          1    1    1    2  502    0  0.22117886964E+02  0.30414026507E+02  0.22453802193E+04  0.22456951136E+04  0.00000000000E+00 0. -1.
         22    1    3    3    0    0 -0.78847269133E+02 -0.12475049575E+02  0.21205739878E+03  0.22658521375E+03  0.00000000000E+00 0. -1.
         22    1    3    3    0    0  0.43398602995E+02  0.13666494257E+02  0.21688334517E+03  0.22160459657E+03  0.00000000000E+00 0. -1.
</event>
<event>
 7    1  0.5537228E-006  0.8817478E+02  0.7818608E-02  0.1335313E+00
          2   -1    0    0  502    0  0.00000000000E+00  0.00000000000E+00  0.22347285890E+04  0.22347285890E+04  0.00000000000E+00 0. -1.
          1   -1    0    0  501    0 -0.00000000000E+00 -0.00000000000E+00 -0.48683349494E+03  0.48683349494E+03  0.00000000000E+00 0. -1.
         25    2    1    2    0    0  0.18960699730E+02  0.45654389579E+02  0.40040504374E+03  0.42236691088E+03  0.12500310769E+03 0.  0.
          2    1    1    2  501    0 -0.55034255242E+02  0.41131272112E+02 -0.47215341465E+03  0.47712618641E+03  0.00000000000E+00 0. -1.
          1    1    1    2  502    0  0.36073555512E+02 -0.86785661691E+02  0.18196434650E+04  0.18220689866E+04  0.00000000000E+00 0. -1.
         22    1    3    3    0    0  0.61396128744E+02  0.56279024077E+02  0.32186024027E+03  0.33246176840E+03  0.00000000000E+00 0. -1.
         22    1    3    3    0    0 -0.42435429014E+02 -0.10624634499E+02  0.78544803464E+02  0.89905142484E+02  0.00000000000E+00 0. -1.
</event>
<event>
 7    1  0.5537228E-006  0.3582974E+02  0.7818608E-02  0.1630466E+00
          2   -1    0    0  502    0  0.00000000000E+00  0.00000000000E+00  0.18267282573E+03  0.18267282573E+03  0.00000000000E+00 0. -1.
          1   -1    0    0  501    0 -0.00000000000E+00 -0.00000000000E+00 -0.53108052887E+03  0.53108052887E+03  0.00000000000E+00 0. -1.
         25    2    1    2    0    0 -0.42621575389E+02  0.18545559775E+02 -0.32250625718E+02  0.13721017699E+03  0.12500397327E+03 0.  0.
          2    1    1    2  501    0  0.35728838133E+02  0.10215338058E+01 -0.44480221030E+03  0.44623603585E+03  0.00000000000E+00 0. -1.
          1    1    1    2  502    0  0.68927372555E+01 -0.19567093580E+02  0.12864513288E+03  0.13030714175E+03  0.00000000000E+00 0. -1.
         22    1    3    3    0    0  0.27907833354E+02  0.32948671944E+02  0.20664001729E+02  0.47869229290E+02  0.00000000000E+00 0.  1.
         22    1    3    3    0    0 -0.70529408743E+02 -0.14403112170E+02 -0.52914627447E+02  0.89340947698E+02  0.00000000000E+00 0.  1.
</event>
<event>
 7    1  0.5537228E-006  0.6037826E+02  0.7818608E-02  0.1431880E+00
          2   -1    0    0  502    0  0.00000000000E+00  0.00000000000E+00  0.36171897929E+03  0.36171897929E+03  0.00000000000E+00 0. -1.
          1   -1    0    0  501    0 -0.00000000000E+00 -0.00000000000E+00 -0.14612797137E+03  0.14612797137E+03  0.00000000000E+00 0. -1.
         25    2    1    2    0    0 -0.62040016391E+02  0.53356554325E+02  0.46816295572E+02  0.15656564394E+03  0.12500059923E+03 0.  0.
          2    1    1    2  501    0  0.16400278038E+02 -0.57144826320E+02 -0.79246047767E+02  0.99067837271E+02  0.00000000000E+00 0. -1.
          1    1    1    2  502    0  0.45639738353E+02  0.37882719947E+01  0.24802076011E+03  0.25221346944E+03  0.00000000000E+00 0. -1.
         22    1    3    3    0    0 -0.12767404315E+02  0.81781529839E+02 -0.19094748735E+00  0.82772348624E+02  0.00000000000E+00 0. -1.
         22    1    3    3    0    0 -0.49272612076E+02 -0.28424975514E+02  0.47007243059E+02  0.73793295317E+02  0.00000000000E+00 0. -1.
</event>
<event>
 7    1  0.5537228E-006  0.8030216E+02  0.7818608E-02  0.1417020E+00
          2   -1    0    0  502    0  0.00000000000E+00  0.00000000000E+00  0.25664693145E+03  0.25664693145E+03  0.00000000000E+00 0. -1.
          1   -1    0    0  501    0 -0.00000000000E+00 -0.00000000000E+00 -0.69172384903E+03  0.69172384903E+03  0.00000000000E+00 0. -1.
         25    2    1    2    0    0  0.42892360502E+02  0.47762277435E+00 -0.45494280775E+03  0.47374900967E+03  0.12500073250E+03 0.  0.
          2    1    1    2  501    0  0.37279703425E+02  0.99114543850E+01 -0.21903886077E+03  0.22240961253E+03  0.00000000000E+00 0. -1.
          1    1    1    2  502    0 -0.80172063927E+02 -0.10389077159E+02  0.23890475095E+03  0.25221215828E+03  0.00000000000E+00 0. -1.
         22    1    3    3    0    0 -0.26103525484E+02  0.26080596713E+02 -0.29950801608E+03  0.30177250250E+03  0.00000000000E+00 0.  1.
         22    1    3    3    0    0  0.68995885986E+02 -0.25602973938E+02 -0.15543479167E+03  0.17197650717E+03  0.00000000000E+00 0.  1.
</event>
<event>
 7    1  0.5537228E-006  0.1336405E+03  0.7818608E-02  0.1324098E+00
          2   -1    0    0  502    0  0.00000000000E+00  0.00000000000E+00  0.26017944078E+03  0.26017944078E+03  0.00000000000E+00 0. -1.
          1   -1    0    0  501    0 -0.00000000000E+00 -0.00000000000E+00 -0.38516490662E+03  0.38516490662E+03  0.00000000000E+00 0. -1.
         25    2    1    2    0    0  0.97005112118E+02 -0.10098390664E+03 -0.12875122853E+03  0.22761728730E+03  0.12500003782E+03 0.  0.
          2    1    1    2  501    0  0.24058985734E+02  0.43869792383E+02 -0.18200249607E+03  0.18875460804E+03  0.00000000000E+00 0. -1.
          1    1    1    2  502    0 -0.12106409785E+03  0.57114114258E+02  0.18576825877E+03  0.22897245206E+03  0.00000000000E+00 0. -1.
         22    1    3    3    0    0  0.83923251991E+02 -0.40796814471E+02 -0.10006304891E+02  0.93848912797E+02  0.00000000000E+00 0.  1.
         22    1    3    3    0    0  0.13081860127E+02 -0.60187092170E+02 -0.11874492364E+03  0.13376837451E+03  0.00000000000E+00 0.  1.
</event>
<event>
 7    1  0.5537228E-006  0.1200508E+03  0.7818608E-02  0.1281777E+00
          2   -1    0    0  502    0  0.00000000000E+00  0.00000000000E+00  0.90450977802E+03  0.90450977802E+03  0.00000000000E+00 0. -1.
          1   -1    0    0  501    0 -0.00000000000E+00 -0.00000000000E+00 -0.28043668846E+03  0.28043668846E+03  0.00000000000E+00 0. -1.
         25    2    1    2    0    0  0.32144513126E+02  0.23101646702E+02  0.48208820387E+03  0.49960260022E+03  0.12500706391E+03 0.  0.
          2    1    1    2  501    0  0.94096628901E+02  0.74552123743E+02 -0.24165329641E+03  0.26983052161E+03  0.00000000000E+00 0. -1.
          1    1    1    2  502    0 -0.12624114203E+03 -0.97653770445E+02  0.38363818209E+03  0.41551334465E+03  0.00000000000E+00 0. -1.
         22    1    3    3    0    0  0.69809134355E+02 -0.26099147680E+01  0.16395200444E+03  0.17821444009E+03  0.00000000000E+00 0.  1.
         22    1    3    3    0    0 -0.37664621229E+02  0.25711561470E+02  0.31813619943E+03  0.32138816013E+03  0.00000000000E+00 0.  1.
</event>
<event>
 7    1  0.5537228E-006  0.3571020E+03  0.7818608E-02  0.1228322E+00
          2   -1    0    0  502    0  0.00000000000E+00  0.00000000000E+00  0.50553248889E+03  0.50553248889E+03  0.00000000000E+00 0. -1.
          1   -1    0    0  501    0 -0.00000000000E+00 -0.00000000000E+00 -0.61121429802E+03  0.61121429802E+03  0.00000000000E+00 0. -1.
         25    2    1    2    0    0  0.33859521371E+03  0.19648276110E+02  0.29584425846E+02  0.36267483130E+03  0.12500008603E+03 0.  0.
          2    1    1    2  501    0  0.26549580230E+02  0.38664729574E+02 -0.33194885232E+03  0.33524600233E+03  0.00000000000E+00 0. -1.
          1    1    1    2  502    0 -0.36514479394E+03 -0.58313005684E+02  0.19668261735E+03  0.41882595328E+03  0.00000000000E+00 0. -1.
         22    1    3    3    0    0  0.34716682550E+03  0.29199886547E+02  0.26060166754E+02  0.34936595483E+03  0.00000000000E+00 0.  1.
         22    1    3    3    0    0 -0.85716117972E+01 -0.95516104368E+01  0.35242590918E+01  0.13308876470E+02  0.00000000000E+00 0.  1.
</event>
<event>
 7    1  0.5537228E-006  0.8973750E+02  0.7818608E-02  0.1328609E+00
          2   -1    0    0  502    0  0.00000000000E+00  0.00000000000E+00  0.40083193744E+04  0.40083193744E+04  0.00000000000E+00 0. -1.
          1   -1    0    0  501    0 -0.00000000000E+00 -0.00000000000E+00 -0.81657147911E+03  0.81657147911E+03  0.00000000000E+00 0. -1.
         25    2    1    2    0    0 -0.45079146975E+02 -0.11348996719E+03  0.16881449391E+03  0.24296020151E+03  0.12497689395E+03 0.  0.
          2    1    1    2  501    0  0.75299904175E+02  0.48582529214E+02 -0.77658476139E+03  0.78173795439E+03  0.00000000000E+00 0. -1.
          1    1    1    2  502    0 -0.30220757200E+02  0.64907437974E+02  0.37995181628E+04  0.38001926976E+04  0.00000000000E+00 0. -1.
         22    1    3    3    0    0 -0.25867275716E+02 -0.13500716973E+03  0.10515827476E+03  0.17307314807E+03  0.00000000000E+00 0.  1.
         22    1    3    3    0    0 -0.19211871259E+02  0.21517202542E+02  0.63656219154E+02  0.69887053447E+02  0.00000000000E+00 0.  1.
</event>
<event>
 7    1  0.5537228E-006  0.4960135E+02  0.7818608E-02  0.1544532E+00
          2   -1    0    0  502    0  0.00000000000E+00  0.00000000000E+00  0.12191061204E+04  0.12191061204E+04  0.00000000000E+00 0. -1.
          1   -1    0    0  501    0 -0.00000000000E+00 -0.00000000000E+00 -0.18912658600E+03  0.18912658600E+03  0.00000000000E+00 0. -1.
         25    2    1    2    0    0  0.14962467223E+02  0.62906395042E+02  0.14987849585E+02  0.14154064262E+03  0.12501211108E+03 0.  0.
          2    1    1    2  501    0 -0.21268379150E+02 -0.13801171790E+02 -0.12403003559E+03  0.12659488940E+03  0.00000000000E+00 0. -1.
          1    1    1    2  502    0  0.63059119269E+01 -0.49105223252E+02  0.11390217204E+04  0.11400971744E+04  0.00000000000E+00 0. -1.
         22    1    3    3    0    0  0.27901444232E+02  0.95520701247E+02  0.29164148173E+02  0.10369784229E+03  0.00000000000E+00 0. -1.
         22    1    3    3    0    0 -0.12938977009E+02 -0.32614306206E+02 -0.14176298587E+02  0.37842800332E+02  0.00000000000E+00 0. -1.
</event>
<event>
 7    1  0.5537228E-006  0.1320955E+03  0.7818608E-02  0.1369047E+00
          2   -1    0    0  502    0  0.00000000000E+00  0.00000000000E+00  0.43523798354E+03  0.43523798354E+03  0.00000000000E+00 0. -1.
          1   -1    0    0  501    0 -0.00000000000E+00 -0.00000000000E+00 -0.18602337791E+04  0.18602337791E+04  0.00000000000E+00 0. -1.
         25    2    1    2    0    0  0.12026161106E+03 -0.87364415484E+02  0.10675789121E+03  0.22162627943E+03  0.12500225682E+03 0.  0.
          2    1    1    2  501    0 -0.87697520869E+02  0.98525278600E+02 -0.17992826633E+04  0.18041109135E+04  0.00000000000E+00 0. -1.
          1    1    1    2  502    0 -0.32564090191E+02 -0.11160863116E+02  0.26752897652E+03  0.26973456974E+03  0.00000000000E+00 0. -1.
         22    1    3    3    0    0  0.99711231739E+02  0.45856290438E+01  0.59732704478E+02  0.11632434703E+03  0.00000000000E+00 0. -1.
         22    1    3    3    0    0  0.20550379321E+02 -0.91950044527E+02  0.47025186737E+02  0.10530193240E+03  0.00000000000E+00 0. -1.
</event>
<event>
 7    1  0.5537228E-006  0.5812571E+02  0.7818608E-02  0.1453697E+00
          2   -1    0    0  502    0  0.00000000000E+00  0.00000000000E+00  0.12698895870E+04  0.12698895870E+04  0.00000000000E+00 0. -1.
          1   -1    0    0  501    0 -0.00000000000E+00 -0.00000000000E+00 -0.77045953809E+02  0.77045953809E+02  0.00000000000E+00 0. -1.
         25    2    1    2    0    0 -0.92293872962E+01 -0.41921739683E+02  0.54715838820E+03  0.56289637794E+03  0.12500966630E+03 0.  0.
          2    1    1    2  501    0 -0.30335513591E+02  0.50292880187E+02 -0.56022321957E+02  0.81167220846E+02  0.00000000000E+00 0. -1.
          1    1    1    2  502    0  0.39564900887E+02 -0.83711405046E+01  0.70170756694E+03  0.70287194202E+03  0.00000000000E+00 0. -1.
         22    1    3    3    0    0 -0.44431102470E+02 -0.26156165349E+01  0.70821603955E+02  0.83646063287E+02  0.00000000000E+00 0. -1.
         22    1    3    3    0    0  0.35201715174E+02 -0.39306123148E+02  0.47633678425E+03  0.47925031466E+03  0.00000000000E+00 0. -1.
</event>
<event>
 7    1  0.5537228E-006  0.8857154E+02  0.7818608E-02  0.1438677E+00
          2   -1    0    0  502    0  0.00000000000E+00  0.00000000000E+00  0.14233526823E+04  0.14233526823E+04  0.00000000000E+00 0. -1.
          1   -1    0    0  501    0 -0.00000000000E+00 -0.00000000000E+00 -0.53745060245E+03  0.53745060245E+03  0.00000000000E+00 0. -1.
         25    2    1    2    0    0  0.24134640334E+02 -0.76101853964E+02  0.14799527884E+03  0.20953217934E+03  0.12500863403E+03 0.  0.
          2    1    1    2  501    0  0.26642584443E+01  0.88818132590E+02 -0.50260767668E+03  0.51040203331E+03  0.00000000000E+00 0. -1.
          1    1    1    2  502    0 -0.26798898778E+02 -0.12716278627E+02  0.12405144777E+04  0.12408690721E+04  0.00000000000E+00 0. -1.
         22    1    3    3    0    0  0.10534488703E+02  0.14917923738E+02 -0.14141374561E+02  0.23097583756E+02  0.00000000000E+00 0.  1.
         22    1    3    3    0    0  0.13600151631E+02 -0.91019777702E+02  0.16213665340E+03  0.18643459559E+03  0.00000000000E+00 0.  1.
</event>
<event>
 7    1  0.5537228E-006  0.9443673E+02  0.7818608E-02  0.1315126E+00
          2   -1    0    0  502    0  0.00000000000E+00  0.00000000000E+00  0.19111655819E+04  0.19111655819E+04  0.00000000000E+00 0. -1.
          1   -1    0    0  501    0 -0.00000000000E+00 -0.00000000000E+00 -0.19863082412E+04  0.19863082412E+04  0.00000000000E+00 0. -1.
         25    2    1    2    0    0 -0.95093428134E+02 -0.10864702650E+03  0.25985181530E+03  0.32247191383E+03  0.12497292848E+03 0.  0.
          2    1    1    2  501    0  0.74593577274E+02  0.17927593394E+02 -0.19529095080E+04  0.19544158071E+04  0.00000000000E+00 0. -1.
          1    1    1    2  502    0  0.20499850860E+02  0.90719433108E+02  0.16179150334E+04  0.16205861023E+04  0.00000000000E+00 0. -1.
         22    1    3    3    0    0 -0.11596108849E+01 -0.33729790548E+02 -0.25748011969E+01  0.33847792675E+02  0.00000000000E+00 0.  1.
         22    1    3    3    0    0 -0.93933817249E+02 -0.74917235954E+02  0.26242661650E+03  0.28862412116E+03  0.00000000000E+00 0.  1.
</event>
<event>
 7    1  0.5537228E-006  0.9420914E+02  0.7818608E-02  0.1310850E+00
          2   -1    0    0  502    0  0.00000000000E+00  0.00000000000E+00  0.37536376722E+04  0.37536376722E+04  0.00000000000E+00 0. -1.
          1   -1    0    0  501    0 -0.00000000000E+00 -0.00000000000E+00 -0.20701476944E+02  0.20701476944E+02  0.00000000000E+00 0. -1.
         25    2    1    2    0    0  0.10951790094E+03 -0.10461946516E+03  0.18545708277E+04  0.18649387489E+04  0.12499671699E+03 0.  0.
          2    1    1    2  501    0 -0.32020735512E+02  0.85043747419E+02  0.12673471024E+03  0.15594695655E+03  0.00000000000E+00 0. -1.
          1    1    1    2  502    0 -0.77497165431E+02  0.19575717741E+02  0.17516306573E+04  0.17534534437E+04  0.00000000000E+00 0. -1.
         22    1    3    3    0    0  0.76532542426E+02 -0.13140094032E+03  0.15451041806E+04  0.15525689569E+04  0.00000000000E+00 0.  1.
         22    1    3    3    0    0  0.32985358517E+02  0.26781475159E+02  0.30946664708E+03  0.31236979198E+03  0.00000000000E+00 0.  1.
</event>
<event>
 7    1  0.5537228E-006  0.1176557E+03  0.7818608E-02  0.1293233E+00
          2   -1    0    0  502    0  0.00000000000E+00  0.00000000000E+00  0.75315372098E+03  0.75315372098E+03  0.00000000000E+00 0. -1.
          1   -1    0    0  501    0 -0.00000000000E+00 -0.00000000000E+00 -0.79534974650E+03  0.79534974650E+03  0.00000000000E+00 0. -1.
         25    2    1    2    0    0 -0.12509612372E+03 -0.12746200262E+03 -0.16965151235E+03  0.27622987153E+03  0.12500281596E+03 0.  0.
          2    1    1    2  501    0  0.71266232693E+02  0.24155614000E+02 -0.56505015752E+03  0.57003863915E+03  0.00000000000E+00 0. -1.
          1    1    1    2  502    0  0.53829891027E+02  0.10330638862E+03  0.69250564436E+03  0.70223495681E+03  0.00000000000E+00 0. -1.
         22    1    3    3    0    0 -0.14116083730E+03 -0.13443329165E+03 -0.17009776097E+03  0.25871207969E+03  0.00000000000E+00 0. -1.
         22    1    3    3    0    0  0.16064713577E+02  0.69712890278E+01  0.44624861647E+00  0.17517791837E+02  0.00000000000E+00 0. -1.
</event>
<event>
 7    1  0.5537228E-006  0.5914292E+02  0.7818608E-02  0.1522327E+00
          2   -1    0    0  502    0  0.00000000000E+00  0.00000000000E+00  0.33986648844E+04  0.33986648844E+04  0.00000000000E+00 0. -1.
          1   -1    0    0  501    0 -0.00000000000E+00 -0.00000000000E+00 -0.15858976262E+03  0.15858976262E+03  0.00000000000E+00 0. -1.
         25    2    1    2    0    0 -0.20022406140E+02 -0.49344719849E+02  0.49085625546E+03  0.50931179522E+03  0.12499137211E+03 0.  0.
          2    1    1    2  501    0  0.22433911560E+02 -0.10097399700E+02 -0.14804152068E+03  0.15007174855E+03  0.00000000000E+00 0. -1.
          1    1    1    2  502    0 -0.24115054202E+01  0.59442119549E+02  0.28972603870E+04  0.28978711032E+04  0.00000000000E+00 0. -1.
         22    1    3    3    0    0  0.37256261962E+02  0.10519522163E+02  0.66539897508E+02  0.76982123654E+02  0.00000000000E+00 0.  1.
         22    1    3    3    0    0 -0.57278668102E+02 -0.59864242012E+02  0.42431635795E+03  0.43232967156E+03  0.00000000000E+00 0.  1.
</event>
<event>
 7    1  0.5537228E-006  0.1112939E+03  0.7818608E-02  0.1275818E+00
          2   -1    0    0  502    0  0.00000000000E+00  0.00000000000E+00  0.53763051642E+03  0.53763051642E+03  0.00000000000E+00 0. -1.
          1   -1    0    0  501    0 -0.00000000000E+00 -0.00000000000E+00 -0.12767564077E+03  0.12767564077E+03  0.00000000000E+00 0. -1.
         25    2    1    2    0    0  0.79951643921E+02  0.87885921694E+02  0.41357251330E+02  0.17734417481E+03  0.12499733398E+03 0.  0.
          2    1    1    2  501    0  0.78002232083E+01 -0.12095324158E+03  0.14986165953E+02  0.12212745515E+03  0.00000000000E+00 0. -1.
          1    1    1    2  502    0 -0.87751867129E+02  0.33067319884E+02  0.35361145836E+03  0.36583452723E+03  0.00000000000E+00 0. -1.
         22    1    3    3    0    0  0.86659511075E+02  0.83718515220E+02  0.75570969656E+02  0.14223091121E+03  0.00000000000E+00 0. -1.
         22    1    3    3    0    0 -0.67078671537E+01  0.41674064741E+01 -0.34213718326E+02  0.35113263593E+02  0.00000000000E+00 0. -1.
</event>
<event>
 7    1  0.5537228E-006  0.4254148E+02  0.7818608E-02  0.1581775E+00
          2   -1    0    0  502    0  0.00000000000E+00  0.00000000000E+00  0.67053745737E+03  0.67053745737E+03  0.00000000000E+00 0. -1.
          1   -1    0    0  501    0 -0.00000000000E+00 -0.00000000000E+00 -0.50631814706E+03  0.50631814706E+03  0.00000000000E+00 0. -1.
         25    2    1    2    0    0 -0.16809084001E+02 -0.46614639516E+02 -0.13197179520E+03  0.18840694476E+03  0.12500060873E+03 0.  0.
          2    1    1    2  501    0  0.22926253444E+02  0.45205890156E+01 -0.34502892539E+03  0.34581932881E+03  0.00000000000E+00 0. -1.
          1    1    1    2  502    0 -0.61171694431E+01  0.42094050500E+02  0.64122003090E+03  0.64262933086E+03  0.00000000000E+00 0. -1.
         22    1    3    3    0    0 -0.38222599433E+02 -0.83169484176E+02 -0.98055903114E+02  0.13413832540E+03  0.00000000000E+00 0. -1.
         22    1    3    3    0    0  0.21413515432E+02  0.36554844660E+02 -0.33915892081E+02  0.54268619357E+02  0.00000000000E+00 0. -1.
</event>
<event>
 7    1  0.5537228E-006  0.1808345E+03  0.7818608E-02  0.1172264E+00
          2   -1    0    0  502    0  0.00000000000E+00  0.00000000000E+00  0.28924781335E+03  0.28924781335E+03  0.00000000000E+00 0. -1.
          1   -1    0    0  501    0 -0.00000000000E+00 -0.00000000000E+00 -0.26312262969E+04  0.26312262969E+04  0.00000000000E+00 0. -1.
         25    2    1    2    0    0  0.12228592996E+03 -0.11451762632E+03 -0.15526310826E+04  0.15666384920E+04  0.12499900262E+03 0.  0.
          2    1    1    2  501    0 -0.24956670529E+03  0.14352241320E+01 -0.10295750316E+04  0.10593914979E+04  0.00000000000E+00 0. -1.
          1    1    1    2  502    0  0.12728077533E+03  0.11308240219E+03  0.24022763063E+03  0.29444412028E+03  0.00000000000E+00 0. -1.
         22    1    3    3    0    0  0.10195491943E+03 -0.14193764817E+03 -0.12775690062E+04  0.12894664273E+04  0.00000000000E+00 0.  1.
         22    1    3    3    0    0  0.20331010534E+02  0.27420021847E+02 -0.27506207639E+03  0.27717206471E+03  0.00000000000E+00 0.  1.
</event>
<event>
 7    1  0.5537228E-006  0.9155667E+02  0.7818608E-02  0.1304674E+00
          2   -1    0    0  502    0  0.00000000000E+00  0.00000000000E+00  0.14439818246E+04  0.14439818246E+04  0.00000000000E+00 0. -1.
          1   -1    0    0  501    0 -0.00000000000E+00 -0.00000000000E+00 -0.14288172015E+04  0.14288172015E+04  0.00000000000E+00 0. -1.
         25    2    1    2    0    0  0.22644203339E+02  0.12883620462E+03 -0.78924217363E+02  0.19739354018E+03  0.12499460009E+03 0.  0.
          2    1    1    2  501    0  0.48971781049E+02 -0.71913556720E+02 -0.12876778003E+04  0.12906137735E+04  0.00000000000E+00 0. -1.
          1    1    1    2  502    0 -0.71615984388E+02 -0.56922647899E+02  0.13817666408E+04  0.13847917124E+04  0.00000000000E+00 0. -1.
         22    1    3    3    0    0  0.28718490574E+01  0.11791826324E+03 -0.10844125612E+03  0.16022630979E+03  0.00000000000E+00 0.  1.
         22    1    3    3    0    0  0.19772354282E+02  0.10917941382E+02  0.29517038752E+02  0.37167230386E+02  0.00000000000E+00 0.  1.
</event>
<event>
 7    1  0.5537228E-006  0.6947663E+02  0.7818608E-02  0.1458022E+00
          2   -1    0    0  502    0  0.00000000000E+00  0.00000000000E+00  0.12330455493E+04  0.12330455493E+04  0.00000000000E+00 0. -1.
          1   -1    0    0  501    0 -0.00000000000E+00 -0.00000000000E+00 -0.20907285491E+04  0.20907285491E+04  0.00000000000E+00 0. -1.
         25    2    1    2    0    0 -0.71294103137E+02  0.63783967595E+02 -0.52660907320E+01  0.15749754295E+03  0.12500600249E+03 0.  0.
          2    1    1    2  501    0  0.39192582968E+02 -0.57143425858E+02 -0.20085169459E+04  0.20097118579E+04  0.00000000000E+00 0. -1.
          1    1    1    2  502    0  0.32101520169E+02 -0.66405417373E+01  0.11561000369E+04  0.11565646976E+04  0.00000000000E+00 0. -1.
         22    1    3    3    0    0  0.19737576360E+02 -0.17917197848E+01  0.33393710331E+02  0.38831972266E+02  0.00000000000E+00 0.  1.
         22    1    3    3    0    0 -0.91031679497E+02  0.65575687380E+02 -0.38659801063E+02  0.11866557068E+03  0.00000000000E+00 0.  1.
</event>
<event>
 7    1  0.5537228E-006  0.7307155E+02  0.7818608E-02  0.1496530E+00
          2   -1    0    0  502    0  0.00000000000E+00  0.00000000000E+00  0.97633894306E+03  0.97633894306E+03  0.00000000000E+00 0. -1.
          1   -1    0    0  501    0 -0.00000000000E+00 -0.00000000000E+00 -0.26158202873E+03  0.26158202873E+03  0.00000000000E+00 0. -1.
         25    2    1    2    0    0  0.37570943654E+02  0.38414375778E+02  0.13835590712E+03  0.19404809467E+03  0.12500026374E+03 0.  0.
          2    1    1    2  501    0  0.36065894335E+01  0.23444397404E+02 -0.23142437504E+03  0.23263681699E+03  0.00000000000E+00 0. -1.
          1    1    1    2  502    0 -0.41177533088E+02 -0.61858773182E+02  0.80782538225E+03  0.81123606013E+03  0.00000000000E+00 0. -1.
         22    1    3    3    0    0  0.99768934431E+01  0.80621764060E+02  0.10816499028E+03  0.13527406390E+03  0.00000000000E+00 0.  1.
         22    1    3    3    0    0  0.27594050211E+02 -0.42207388282E+02  0.30190916842E+02  0.58774030766E+02  0.00000000000E+00 0.  1.
</event>
<event>
 7    1  0.5537228E-006  0.2558059E+03  0.7818608E-02  0.1352979E+00
          2   -1    0    0  502    0  0.00000000000E+00  0.00000000000E+00  0.89448092770E+03  0.89448092770E+03  0.00000000000E+00 0. -1.
          1   -1    0    0  501    0 -0.00000000000E+00 -0.00000000000E+00 -0.14845745614E+03  0.14845745614E+03  0.00000000000E+00 0. -1.
         25    2    1    2    0    0 -0.12067490732E+03 -0.22430393350E+03  0.31681401510E+03  0.42529094776E+03  0.12500632883E+03 0.  0.
          2    1    1    2  501    0  0.17296972752E+02 -0.10704905998E+02 -0.60984939767E+02  0.64287970548E+02  0.00000000000E+00 0. -1.
          1    1    1    2  502    0  0.10337793456E+03  0.23500883949E+03  0.49019439623E+03  0.55335946553E+03  0.00000000000E+00 0. -1.
         22    1    3    3    0    0  0.25178975807E+02 -0.19575419425E+02  0.43773417660E+02  0.54159855631E+02  0.00000000000E+00 0. -1.
         22    1    3    3    0    0 -0.14585388312E+03 -0.20472851407E+03  0.27304059744E+03  0.37113109213E+03  0.00000000000E+00 0. -1.
</event>
<event>
 7    1  0.5537228E-006  0.6376461E+02  0.7818608E-02  0.1436623E+00
          2   -1    0    0  502    0  0.00000000000E+00  0.00000000000E+00  0.15397406164E+04  0.15397406164E+04  0.00000000000E+00 0. -1.
          1   -1    0    0  501    0 -0.00000000000E+00 -0.00000000000E+00 -0.89859342653E+02  0.89859342653E+02  0.00000000000E+00 0. -1.
         25    2    1    2    0    0  0.34572046689E+02  0.48243871005E+02  0.28660314730E+02  0.14131363767E+03  0.12500173218E+03 0.  0.
          2    1    1    2  501    0  0.27254190386E+02 -0.31748746595E+02 -0.19487359559E+02  0.46157675272E+02  0.00000000000E+00 0. -1.
          1    1    1    2  502    0 -0.61826237074E+02 -0.16495124410E+02  0.14407083186E+04  0.14421286461E+04  0.00000000000E+00 0. -1.
         22    1    3    3    0    0  0.42375532779E+02  0.48630586237E+02 -0.37554899343E+02  0.74639065916E+02  0.00000000000E+00 0.  1.
         22    1    3    3    0    0 -0.78034860900E+01 -0.38671523198E+00  0.66215214073E+02  0.66674571754E+02  0.00000000000E+00 0.  1.
</event>
<event>
 7    1  0.5537228E-006  0.9275615E+02  0.7818608E-02  0.1337905E+00
          2   -1    0    0  502    0  0.00000000000E+00  0.00000000000E+00  0.44380382089E+02  0.44380382089E+02  0.00000000000E+00 0. -1.
          1   -1    0    0  501    0 -0.00000000000E+00 -0.00000000000E+00 -0.12554021857E+04  0.12554021857E+04  0.00000000000E+00 0. -1.
         25    2    1    2    0    0 -0.39566972957E+02  0.14413304309E+02 -0.66394835515E+03  0.67692336706E+03  0.12499815148E+03 0.  0.
          2    1    1    2  501    0  0.56460522185E+02  0.76791467801E+02 -0.51646030101E+03  0.52518183766E+03  0.00000000000E+00 0. -1.
          1    1    1    2  502    0 -0.16893549229E+02 -0.91204772110E+02 -0.30613147470E+02  0.97677363084E+02  0.00000000000E+00 0. -1.
         22    1    3    3    0    0  0.10222344533E+02 -0.32078342809E+02 -0.57275131195E+02  0.66437617797E+02  0.00000000000E+00 0.  1.
         22    1    3    3    0    0 -0.49789317490E+02  0.46491647118E+02 -0.60667322396E+03  0.61048574926E+03  0.00000000000E+00 0.  1.
</event>
<event>
 7    1  0.5537228E-006  0.4662780E+02  0.7818608E-02  0.1480058E+00
          2   -1    0    0  502    0  0.00000000000E+00  0.00000000000E+00  0.34952505758E+04  0.34952505758E+04  0.00000000000E+00 0. -1.
          1   -1    0    0  501    0 -0.00000000000E+00 -0.00000000000E+00 -0.47924501492E+01  0.47924501492E+01  0.00000000000E+00 0. -1.
         25    2    1    2    0    0  0.70521668332E+02  0.43515658738E+01  0.21152780762E+04  0.21201458493E+04  0.12499936340E+03 0.  0.
          2    1    1    2  501    0 -0.38793254495E+02  0.22713491647E+02  0.25437967866E+03  0.25832119583E+03  0.00000000000E+00 0. -1.
          1    1    1    2  502    0 -0.31728413837E+02 -0.27065057521E+02  0.11208003708E+04  0.11215759808E+04  0.00000000000E+00 0. -1.
         22    1    3    3    0    0 -0.12783441279E+02  0.47879589962E+02  0.75364434940E+03  0.75527192248E+03  0.00000000000E+00 0. -1.
         22    1    3    3    0    0  0.83305109611E+02 -0.43528024089E+02  0.13616337268E+04  0.13648739268E+04  0.00000000000E+00 0. -1.
</event>
<event>
 7    1  0.5537228E-006  0.9124608E+02  0.7818608E-02  0.1433217E+00
          2   -1    0    0  502    0  0.00000000000E+00  0.00000000000E+00  0.27147923510E+03  0.27147923510E+03  0.00000000000E+00 0. -1.
          1   -1    0    0  501    0 -0.00000000000E+00 -0.00000000000E+00 -0.12376463043E+04  0.12376463043E+04  0.00000000000E+00 0. -1.
         25    2    1    2    0    0  0.77308634840E+02 -0.75532648254E+02 -0.49004087348E+00  0.16524859128E+03  0.12500020323E+03 0.  0.
          2    1    1    2  501    0 -0.47382585020E+02  0.77632948008E+02 -0.11517830974E+04  0.11553684639E+04  0.00000000000E+00 0. -1.
          1    1    1    2  502    0 -0.29926049820E+02 -0.21002997534E+01  0.18610606901E+03  0.18850848426E+03  0.00000000000E+00 0. -1.
         22    1    3    3    0    0  0.23486156248E+02 -0.20663684517E+02  0.59850316637E+02  0.67532568400E+02  0.00000000000E+00 0.  1.
         22    1    3    3    0    0  0.53822478592E+02 -0.54868963737E+02 -0.60340357511E+02  0.97716022882E+02  0.00000000000E+00 0.  1.
</event>
<event>
 7    1  0.5537228E-006  0.7111120E+02  0.7818608E-02  0.1511646E+00
          2   -1    0    0  502    0  0.00000000000E+00  0.00000000000E+00  0.90785474476E+03  0.90785474476E+03  0.00000000000E+00 0. -1.
          1   -1    0    0  501    0 -0.00000000000E+00 -0.00000000000E+00 -0.50846613980E+02  0.50846613980E+02  0.00000000000E+00 0. -1.
         25    2    1    2    0    0  0.76869154142E+02 -0.28396543581E+02  0.72636837473E+03  0.74158729146E+03  0.12500185799E+03 0.  0.
          2    1    1    2  501    0 -0.70385510088E+02  0.73922318289E+01 -0.12867585472E+02  0.71932884536E+02  0.00000000000E+00 0. -1.
          1    1    1    2  502    0 -0.64836440540E+01  0.21004311752E+02  0.14350734152E+03  0.14518118274E+03  0.00000000000E+00 0. -1.
         22    1    3    3    0    0  0.85238457379E+02  0.93939604796E+01  0.65326299621E+03  0.65886750058E+03  0.00000000000E+00 0. -1.
         22    1    3    3    0    0 -0.83693032371E+01 -0.37790504061E+02  0.73105378528E+02  0.82719790882E+02  0.00000000000E+00 0. -1.
</event>
<event>
 7    1  0.5537228E-006  0.2564343E+02  0.7818608E-02  0.1689228E+00
          2   -1    0    0  502    0  0.00000000000E+00  0.00000000000E+00  0.43927733531E+03  0.43927733531E+03  0.00000000000E+00 0. -1.
          1   -1    0    0  501    0 -0.00000000000E+00 -0.00000000000E+00 -0.85607902806E+02  0.85607902806E+02  0.00000000000E+00 0. -1.
         25    2    1    2    0    0 -0.21703514776E+02  0.41017529928E+02  0.41020642251E+03  0.43133311554E+03  0.12500186871E+03 0.  0.
          2    1    1    2  501    0  0.12194144401E+02 -0.22424670381E+02 -0.65896137454E+02  0.70667276237E+02  0.00000000000E+00 0. -1.
          1    1    1    2  502    0  0.95093703750E+01 -0.18592859547E+02  0.93591474538E+01  0.22884846343E+02  0.00000000000E+00 0. -1.
         22    1    3    3    0    0  0.30411425333E+01  0.33713832815E+02  0.18113573182E+02  0.38392350858E+02  0.00000000000E+00 0. -1.
         22    1    3    3    0    0 -0.24744657309E+02  0.73036971126E+01  0.39209284933E+03  0.39294076468E+03  0.00000000000E+00 0. -1.
</event>
<event>
 7    1  0.5537228E-006  0.1171610E+03  0.7818608E-02  0.1384287E+00
          2   -1    0    0  502    0  0.00000000000E+00  0.00000000000E+00  0.14994182350E+04  0.14994182350E+04  0.00000000000E+00 0. -1.
          1   -1    0    0  501    0 -0.00000000000E+00 -0.00000000000E+00 -0.10666616505E+04  0.10666616505E+04  0.00000000000E+00 0. -1.
         25    2    1    2    0    0  0.48018315863E+02 -0.72586511960E+02  0.36088021104E+03  0.39170663537E+03  0.12500000439E+03 0.  0.
          2    1    1    2  501    0 -0.79246487980E+02  0.86662912184E+02 -0.10477061325E+04  0.10542668573E+04  0.00000000000E+00 0. -1.
          1    1    1    2  502    0  0.31228172117E+02 -0.14076400224E+02  0.11195825060E+04  0.11201063929E+04  0.00000000000E+00 0. -1.
         22    1    3    3    0    0 -0.18439596514E+02 -0.13423162239E+02  0.24273307799E+03  0.24380227061E+03  0.00000000000E+00 0.  1.
         22    1    3    3    0    0  0.66457912376E+02 -0.59163349721E+02  0.11814713305E+03  0.14790436476E+03  0.00000000000E+00 0.  1.
</event>
<event>
 7    1  0.5537228E-006  0.9902556E+02  0.7818608E-02  0.1288018E+00
          2   -1    0    0  502    0  0.00000000000E+00  0.00000000000E+00  0.35105530932E+03  0.35105530932E+03  0.00000000000E+00 0. -1.
          1   -1    0    0  501    0 -0.00000000000E+00 -0.00000000000E+00 -0.15200966797E+04  0.15200966797E+04  0.00000000000E+00 0. -1.
         25    2    1    2    0    0  0.54700307890E+02  0.80242282193E+02 -0.12689941272E+03  0.20287678270E+03  0.12499832189E+03 0.  0.
          2    1    1    2  501    0 -0.10120693476E+03  0.13041974135E+01 -0.13462284490E+04  0.13500279928E+04  0.00000000000E+00 0. -1.
          1    1    1    2  502    0  0.46506626873E+02 -0.81546479606E+02  0.30408649133E+03  0.31824721348E+03  0.00000000000E+00 0. -1.
         22    1    3    3    0    0  0.41186013339E+02  0.92388470312E+02 -0.14528318551E+03  0.17702858846E+03  0.00000000000E+00 0. -1.
         22    1    3    3    0    0  0.13514294551E+02 -0.12146188119E+02  0.18383772792E+02  0.25848194233E+02  0.00000000000E+00 0. -1.
</event>
<event>
 7    1  0.5537228E-006  0.1129715E+03  0.7818608E-02  0.1342738E+00
          2   -1    0    0  502    0  0.00000000000E+00  0.00000000000E+00  0.13594741809E+04  0.13594741809E+04  0.00000000000E+00 0. -1.
          1   -1    0    0  501    0 -0.00000000000E+00 -0.00000000000E+00 -0.32907995659E+03  0.32907995659E+03  0.00000000000E+00 0. -1.
         25    2    1    2    0    0 -0.58903689657E+02 -0.34428579075E+02  0.25941754096E+03  0.29593363264E+03  0.12499713058E+03 0.  0.
          2    1    1    2  501    0  0.10917612908E+03  0.35297720276E+02 -0.29962260867E+03  0.32084118165E+03  0.00000000000E+00 0. -1.
          1    1    1    2  502    0 -0.50272439426E+02 -0.86914120101E+00  0.10705992920E+04  0.10717793232E+04  0.00000000000E+00 0. -1.
         22    1    3    3    0    0 -0.65205837728E+02  0.20087325705E+02  0.21426792624E+03  0.22486895326E+03  0.00000000000E+00 0.  1.
         22    1    3    3    0    0  0.63021480706E+01 -0.54515904779E+02  0.45149614728E+02  0.71064679372E+02  0.00000000000E+00 0.  1.
</event>
<event>
 7    1  0.5537228E-006  0.4102198E+02  0.7818608E-02  0.1523219E+00
          2   -1    0    0  502    0  0.00000000000E+00  0.00000000000E+00  0.21984775468E+03  0.21984775468E+03  0.00000000000E+00 0. -1.
          1   -1    0    0  501    0 -0.00000000000E+00 -0.00000000000E+00 -0.87978324104E+02  0.87978324104E+02  0.00000000000E+00 0. -1.
         25    2    1    2    0    0  0.52380387363E+02  0.44426082406E+02  0.94875589591E+02  0.17130053927E+03  0.12500046190E+03 0.  0.
          2    1    1    2  501    0 -0.18407612301E+02 -0.34989905531E+02 -0.37259036783E+02  0.54326508278E+02  0.00000000000E+00 0. -1.
          1    1    1    2  502    0 -0.33972775061E+02 -0.94361768759E+01  0.74252877768E+02  0.82199031236E+02  0.00000000000E+00 0. -1.
         22    1    3    3    0    0 -0.27394348541E+02  0.55680608351E+02  0.40395948612E+02  0.74044669913E+02  0.00000000000E+00 0.  1.
         22    1    3    3    0    0  0.79774735904E+02 -0.11254525945E+02  0.54479640979E+02  0.97255869355E+02  0.00000000000E+00 0.  1.
</event>
<event>
 7    1  0.5537228E-006  0.9528438E+02  0.7818608E-02  0.1297396E+00
          2   -1    0    0  502    0  0.00000000000E+00  0.00000000000E+00  0.13136707132E+04  0.13136707132E+04  0.00000000000E+00 0. -1.
          1   -1    0    0  501    0 -0.00000000000E+00 -0.00000000000E+00 -0.98869030285E+02  0.98869030285E+02  0.00000000000E+00 0. -1.
         25    2    1    2    0    0 -0.55820116937E+02  0.16111218902E+02  0.46623070521E+02  0.14551623519E+03  0.12500322863E+03 0.  0.
          2    1    1    2  501    0  0.64450159638E+02 -0.11100397199E+03  0.39454420027E+02  0.13428460870E+03  0.00000000000E+00 0. -1.
          1    1    1    2  502    0 -0.86300427007E+01  0.94892753087E+02  0.11287241924E+04  0.11327388996E+04  0.00000000000E+00 0. -1.
         22    1    3    3    0    0 -0.23099875235E+01  0.82186339957E+01  0.80986012120E+02  0.81434735502E+02  0.00000000000E+00 0.  1.
         22    1    3    3    0    0 -0.53510129414E+02  0.78925849066E+01 -0.34362941599E+02  0.64081499684E+02  0.00000000000E+00 0.  1.
</event>
<event>
 7    1  0.5537228E-006  0.3148932E+03  0.7818608E-02  0.1246513E+00
          2   -1    0    0  502    0  0.00000000000E+00  0.00000000000E+00  0.28266079386E+04  0.28266079386E+04  0.00000000000E+00 0. -1.
          1   -1    0    0  501    0 -0.00000000000E+00 -0.00000000000E+00 -0.38368475172E+03  0.38368475172E+03  0.00000000000E+00 0. -1.
         25    2    1    2    0    0 -0.89425786768E+02 -0.26529315271E+03  0.90382643435E+03  0.95441281494E+03  0.12499667869E+03 0.  0.
          2    1    1    2  501    0  0.12447774552E+03  0.29219071318E+03 -0.28770890047E+03  0.42854000211E+03  0.00000000000E+00 0. -1.
          1    1    1    2  502    0 -0.35051958753E+02 -0.26897560473E+02  0.18268056530E+04  0.18273398733E+04  0.00000000000E+00 0. -1.
         22    1    3    3    0    0 -0.15590963357E+01 -0.19175597487E+03  0.58444661862E+03  0.61510213355E+03  0.00000000000E+00 0. -1.
         22    1    3    3    0    0 -0.87866690432E+02 -0.73537177837E+02  0.31937981573E+03  0.33931068139E+03  0.00000000000E+00 0. -1.
</event>
<event>
 7    1  0.5537228E-006  0.1007198E+03  0.7818608E-02  0.1342955E+00
          2   -1    0    0  502    0  0.00000000000E+00  0.00000000000E+00  0.22613012126E+04  0.22613012126E+04  0.00000000000E+00 0. -1.
          1   -1    0    0  501    0 -0.00000000000E+00 -0.00000000000E+00 -0.53111311391E+03  0.53111311391E+03  0.00000000000E+00 0. -1.
         25    2    1    2    0    0  0.14420340571E+03  0.11049571345E+02  0.12595535916E+04  0.12739767475E+04  0.12499915170E+03 0.  0.
          2    1    1    2  501    0 -0.56285643251E+02  0.73156760023E+00 -0.52040285996E+03  0.52343838748E+03  0.00000000000E+00 0. -1.
          1    1    1    2  502    0 -0.87917762458E+02 -0.11781138946E+02  0.99103736711E+03  0.99499919155E+03  0.00000000000E+00 0. -1.
         22    1    3    3    0    0  0.13492873375E+03 -0.14223926321E+02  0.65908655330E+03  0.67290650763E+03  0.00000000000E+00 0.  1.
         22    1    3    3    0    0  0.92746719547E+01  0.25273497666E+02  0.60046703828E+03  0.60107023989E+03  0.00000000000E+00 0.  1.
</event>
<event>
 7    1  0.5537228E-006  0.3625448E+03  0.7818608E-02  0.1295588E+00
          2   -1    0    0  502    0  0.00000000000E+00  0.00000000000E+00  0.12870134447E+04  0.12870134447E+04  0.00000000000E+00 0. -1.
          1   -1    0    0  501    0 -0.00000000000E+00 -0.00000000000E+00 -0.50069967033E+03  0.50069967033E+03  0.00000000000E+00 0. -1.
         25    2    1    2    0    0  0.30575349157E+03  0.16659803021E+03 -0.17254560833E+03  0.40821379137E+03  0.12500564481E+03 0.  0.
          2    1    1    2  501    0  0.22227823547E+02 -0.87582852338E+01 -0.18118813695E+03  0.18275646273E+03  0.00000000000E+00 0. -1.
          1    1    1    2  502    0 -0.32798131511E+03 -0.15783974498E+03  0.11400475196E+04  0.11967428609E+04  0.00000000000E+00 0. -1.
         22    1    3    3    0    0  0.24220890763E+03  0.17112167325E+03 -0.17521352832E+03  0.34445255478E+03  0.00000000000E+00 0.  1.
         22    1    3    3    0    0  0.63544583939E+02 -0.45236430341E+01  0.26679199902E+01  0.63761236589E+02  0.00000000000E+00 0.  1.
</event>
<event>
 7    1  0.5537228E-006  0.7513873E+02  0.7818608E-02  0.1366038E+00
          2   -1    0    0  502    0  0.00000000000E+00  0.00000000000E+00  0.10746329358E+04  0.10746329358E+04  0.00000000000E+00 0. -1.
          1   -1    0    0  501    0 -0.00000000000E+00 -0.00000000000E+00 -0.27666322492E+02  0.27666322492E+02  0.00000000000E+00 0. -1.
         25    2    1    2    0    0 -0.52588700628E+02 -0.94666743396E+01  0.28351214874E+03  0.31441948263E+03  0.12500113287E+03 0.  0.
          2    1    1    2  501    0  0.19967586373E+02  0.77154872833E+02  0.15015315021E+03  0.16999278639E+03  0.00000000000E+00 0. -1.
          1    1    1    2  502    0  0.32621114255E+02 -0.67688198494E+02  0.61330131441E+03  0.61788698932E+03  0.00000000000E+00 0. -1.
         22    1    3    3    0    0 -0.78534370318E+01 -0.51838364466E+02  0.21908384312E+03  0.22527011080E+03  0.00000000000E+00 0.  1.
         22    1    3    3    0    0 -0.44735263597E+02  0.42371690126E+02  0.64428305620E+02  0.89149371833E+02  0.00000000000E+00 0.  1.
</event>
<event>
 7    1  0.5537228E-006  0.3029638E+02  0.7818608E-02  0.1641043E+00
          2   -1    0    0  502    0  0.00000000000E+00  0.00000000000E+00  0.98042310054E+03  0.98042310054E+03  0.00000000000E+00 0. -1.
          1   -1    0    0  501    0 -0.00000000000E+00 -0.00000000000E+00 -0.15953095346E+02  0.15953095346E+02  0.00000000000E+00 0. -1.
         25    2    1    2    0    0  0.16360231386E+02 -0.21103696400E+02  0.40781742455E+03  0.42737943687E+03  0.12500043248E+03 0.  0.
          2    1    1    2  501    0 -0.31223347725E+02  0.34369988917E+01  0.35777601294E+02  0.47610368187E+02  0.00000000000E+00 0. -1.
          1    1    1    2  502    0  0.14863116340E+02  0.17666697508E+02  0.52087497935E+03  0.52138639082E+03  0.00000000000E+00 0. -1.
         22    1    3    3    0    0  0.20163251979E+00 -0.69815313759E+02  0.29934469078E+03  0.30737837040E+03  0.00000000000E+00 0. -1.
         22    1    3    3    0    0  0.16158598866E+02  0.48711617359E+02  0.10847273377E+03  0.12000106648E+03  0.00000000000E+00 0. -1.
</event>
<event>
 7    1  0.6263272E-006  0.1150109E+03  0.7818608E-02  0.1268493E+00
          2   -1    0    0  502    0  0.00000000000E+00  0.00000000000E+00  0.62949373738E+03  0.62949373738E+03  0.00000000000E+00 0. -1.
          1   -1    0    0  501    0 -0.00000000000E+00 -0.00000000000E+00 -0.14513358706E+04  0.14513358706E+04  0.00000000000E+00 0. -1.
         25    2    1    2    0    0 -0.22971746749E+02 -0.60273473702E+02 -0.19040344554E+03  0.23672466586E+03  0.12499801027E+03 0.  0.
          2    1    1    2  501    0  0.11826634476E+03  0.40217348695E+02 -0.12306794674E+04  0.12370029567E+04  0.00000000000E+00 0. -1.
          1    1    1    2  502    0 -0.95294598009E+02  0.20056125007E+02  0.59924077974E+03  0.60710198539E+03  0.00000000000E+00 0. -1.
         22    1    3    3    0    0  0.30591029205E+01 -0.62206252668E+00 -0.16779779795E+03  0.16782683358E+03  0.00000000000E+00 0.  1.
         22    1    3    3    0    0 -0.26030849669E+02 -0.59651411176E+02 -0.22605647590E+02  0.68897832279E+02  0.00000000000E+00 0.  1.
</event>
<event>
 7    1  0.5537228E-006  0.4363319E+02  0.7818608E-02  0.1484965E+00
          2   -1    0    0  502    0  0.00000000000E+00  0.00000000000E+00  0.15861387842E+04  0.15861387842E+04  0.00000000000E+00 0. -1.
          1   -1    0    0  501    0 -0.00000000000E+00 -0.00000000000E+00 -0.10937555177E+02  0.10937555177E+02  0.00000000000E+00 0. -1.
         25    2    1    2    0    0 -0.57177521054E+02 -0.14833398316E+02  0.64529852196E+03  0.65994429368E+03  0.12500795853E+03 0.  0.
          2    1    1    2  501    0  0.20105084056E+02  0.38070149049E+02  0.15144267981E+03  0.15744343721E+03  0.00000000000E+00 0. -1.
          1    1    1    2  502    0  0.37072436998E+02 -0.23236750733E+02  0.77846002722E+03  0.77968860846E+03  0.00000000000E+00 0. -1.
         22    1    3    3    0    0 -0.38686236151E+01 -0.47397413614E+02  0.96286460096E+02  0.10738977355E+03  0.00000000000E+00 0. -1.
         22    1    3    3    0    0 -0.53308897439E+02  0.32564015298E+02  0.54901206186E+03  0.55255452012E+03  0.00000000000E+00 0. -1.
</event>
<event>
 7    1  0.5537228E-006  0.7084614E+02  0.7818608E-02  0.1390487E+00
          2   -1    0    0  502    0  0.00000000000E+00  0.00000000000E+00  0.11911474516E+04  0.11911474516E+04  0.00000000000E+00 0. -1.
          1   -1    0    0  501    0 -0.00000000000E+00 -0.00000000000E+00 -0.11602792131E+04  0.11602792131E+04  0.00000000000E+00 0. -1.
         25    2    1    2    0    0  0.92794955182E+02 -0.80929395031E+02  0.98108495750E+02  0.20102360348E+03  0.12499896611E+03 0.  0.
          2    1    1    2  501    0 -0.43766042699E+02  0.31432759556E+02 -0.11070006082E+04  0.11083112521E+04  0.00000000000E+00 0. -1.
          1    1    1    2  502    0 -0.49028912483E+02  0.49496635475E+02  0.10397603510E+04  0.10420918091E+04  0.00000000000E+00 0. -1.
         22    1    3    3    0    0  0.97973966305E+02 -0.47346311835E+02  0.11890876531E+03  0.16118270932E+03  0.00000000000E+00 0.  1.
         22    1    3    3    0    0 -0.51790111223E+01 -0.33583083196E+02 -0.20800269559E+02  0.39840894153E+02  0.00000000000E+00 0.  1.
</event>
<event>
 7    1  0.5537228E-006  0.8097568E+02  0.7818608E-02  0.1349182E+00
          2   -1    0    0  502    0  0.00000000000E+00  0.00000000000E+00  0.32516066752E+03  0.32516066752E+03  0.00000000000E+00 0. -1.
          1   -1    0    0  501    0 -0.00000000000E+00 -0.00000000000E+00 -0.11775668983E+03  0.11775668983E+03  0.00000000000E+00 0. -1.
         25    2    1    2    0    0  0.32288737323E+02 -0.52530982844E+02  0.75175863705E+02  0.15836360424E+03  0.12500221578E+03 0.  0.
          2    1    1    2  501    0 -0.88444684308E+02  0.17150648386E+02 -0.41046607714E+02  0.99002176376E+02  0.00000000000E+00 0. -1.
          1    1    1    2  502    0  0.56155946984E+02  0.35380334458E+02  0.17327472169E+03  0.18555157673E+03  0.00000000000E+00 0. -1.
         22    1    3    3    0    0  0.71124665003E+02 -0.24723313398E+02  0.80588810495E+02  0.11029286729E+03  0.00000000000E+00 0. -1.
         22    1    3    3    0    0 -0.38835927679E+02 -0.27807669446E+02 -0.54129467903E+01  0.48070736958E+02  0.00000000000E+00 0. -1.
</event>
<event>
 7    1  0.5537228E-006  0.1313566E+03  0.7818608E-02  0.1384641E+00
          2   -1    0    0  502    0  0.00000000000E+00  0.00000000000E+00  0.33806189578E+04  0.33806189578E+04  0.00000000000E+00 0. -1.
          1   -1    0    0  501    0 -0.00000000000E+00 -0.00000000000E+00 -0.96303346985E+03  0.96303346985E+03  0.00000000000E+00 0. -1.
         25    2    1    2    0    0  0.10531819113E+03  0.39062894059E+02  0.20436440523E+03  0.26458849745E+03  0.12499772712E+03 0.  0.
          2    1    1    2  501    0  0.25179427179E+02 -0.17149536819E+02 -0.93128085894E+03  0.93177902337E+03  0.00000000000E+00 0. -1.
          1    1    1    2  502    0 -0.13049761831E+03 -0.21913357239E+02  0.31445019417E+04  0.31472849068E+04  0.00000000000E+00 0. -1.
         22    1    3    3    0    0  0.97946136796E+02  0.23706859420E+01  0.58745265174E+02  0.11423691192E+03  0.00000000000E+00 0. -1.
         22    1    3    3    0    0  0.73720543312E+01  0.36692208117E+02  0.14561914005E+03  0.15035158553E+03  0.00000000000E+00 0. -1.
</event>
<event>
 7    1  0.5537228E-006  0.1582621E+03  0.7818608E-02  0.1284218E+00
          2   -1    0    0  502    0  0.00000000000E+00  0.00000000000E+00  0.51472779344E+03  0.51472779344E+03  0.00000000000E+00 0. -1.
          1   -1    0    0  501    0 -0.00000000000E+00 -0.00000000000E+00 -0.32579533272E+03  0.32579533272E+03  0.00000000000E+00 0. -1.
         25    2    1    2    0    0  0.15321906966E+03 -0.10398076836E+02  0.22256905363E+03  0.29790193900E+03  0.12499751323E+03 0.  0.
          2    1    1    2  501    0 -0.14319201249E+03  0.70446433984E+02 -0.26172938596E+03  0.30654351074E+03  0.00000000000E+00 0. -1.
          1    1    1    2  502    0 -0.10027057167E+02 -0.60048357148E+02  0.22809279304E+03  0.23607767643E+03  0.00000000000E+00 0. -1.
         22    1    3    3    0    0  0.47439014876E+02 -0.42620600406E+02  0.19517151014E+02  0.66692540026E+02  0.00000000000E+00 0. -1.
         22    1    3    3    0    0  0.10578005478E+03  0.32222523570E+02  0.20305190262E+03  0.23120939897E+03  0.00000000000E+00 0. -1.
</event>
<event>
 7    1  0.5537228E-006  0.1034253E+03  0.7818608E-02  0.1279342E+00
          2   -1    0    0  502    0  0.00000000000E+00  0.00000000000E+00  0.11220229942E+04  0.11220229942E+04  0.00000000000E+00 0. -1.
          1   -1    0    0  501    0 -0.00000000000E+00 -0.00000000000E+00 -0.26292386167E+04  0.26292386167E+04  0.00000000000E+00 0. -1.
         25    2    1    2    0    0  0.10327291827E+03  0.13052314932E+03  0.15254097670E+03  0.25806164019E+03  0.12500188962E+03 0.  0.
          2    1    1    2  501    0 -0.92941904608E+02 -0.29693271010E+02 -0.25727490520E+04  0.25745985265E+04  0.00000000000E+00 0. -1.
          1    1    1    2  502    0 -0.10331013663E+02 -0.10082987831E+03  0.91299245290E+03  0.91860144418E+03  0.00000000000E+00 0. -1.
         22    1    3    3    0    0  0.45294902708E+02  0.13615503185E+03  0.13552844760E+03  0.19737725558E+03  0.00000000000E+00 0.  1.
         22    1    3    3    0    0  0.57978015563E+02 -0.56318825336E+01  0.17012529097E+02  0.60684384613E+02  0.00000000000E+00 0.  1.
</event>
<event>
 7    1  0.5582759E-006  0.7467768E+02  0.7818608E-02  0.1375623E+00
          2   -1    0    0  502    0  0.00000000000E+00  0.00000000000E+00  0.10584125772E+04  0.10584125772E+04  0.00000000000E+00 0. -1.
          1   -1    0    0  501    0 -0.00000000000E+00 -0.00000000000E+00 -0.18128763214E+04  0.18128763214E+04  0.00000000000E+00 0. -1.
         25    2    1    2    0    0  0.26521615196E+02  0.17347834646E+02 -0.49213612059E+02  0.13802583903E+03  0.12499923675E+03 0.  0.
          2    1    1    2  501    0  0.47298278368E+02 -0.33005209578E+02 -0.17173678541E+04  0.17183360606E+04  0.00000000000E+00 0. -1.
          1    1    1    2  502    0 -0.73819893564E+02  0.15657374932E+02  0.10121177219E+04  0.10149269989E+04  0.00000000000E+00 0. -1.
         22    1    3    3    0    0 -0.31906529258E+02  0.24661664163E+02 -0.65511017001E+02  0.76928002945E+02  0.00000000000E+00 0.  1.
         22    1    3    3    0    0  0.58428144454E+02 -0.73138295167E+01  0.16297404942E+02  0.61097836086E+02  0.00000000000E+00 0.  1.
</event>
<event>
 7    1  0.5537228E-006  0.7192273E+02  0.7818608E-02  0.1476383E+00
          2   -1    0    0  502    0  0.00000000000E+00  0.00000000000E+00  0.12224715777E+03  0.12224715777E+03  0.00000000000E+00 0. -1.
          1   -1    0    0  501    0 -0.00000000000E+00 -0.00000000000E+00 -0.78953079042E+03  0.78953079042E+03  0.00000000000E+00 0. -1.
         25    2    1    2    0    0  0.67461546465E+02 -0.10998631365E+02 -0.66636445372E+02  0.15731058812E+03  0.12503669517E+03 0.  0.
          2    1    1    2  501    0 -0.70358031250E+02 -0.16599301204E+02 -0.67305411105E+03  0.67692512567E+03  0.00000000000E+00 0. -1.
          1    1    1    2  502    0  0.28964847843E+01  0.27597932569E+02  0.72406923772E+02  0.77542234404E+02  0.00000000000E+00 0. -1.
         22    1    3    3    0    0  0.10326299985E+03 -0.11362019132E+02 -0.35267748282E+02  0.10970941931E+03  0.00000000000E+00 0. -1.
         22    1    3    3    0    0 -0.35801453384E+02  0.36338776689E+00 -0.31368697089E+02  0.47601168811E+02  0.00000000000E+00 0. -1.
</event>
<event>
 7    1  0.5537228E-006  0.5466819E+02  0.7818608E-02  0.1504311E+00
          2   -1    0    0  502    0  0.00000000000E+00  0.00000000000E+00  0.89603444114E+03  0.89603444114E+03  0.00000000000E+00 0. -1.
          1   -1    0    0  501    0 -0.00000000000E+00 -0.00000000000E+00 -0.68903968460E+03  0.68903968460E+03  0.00000000000E+00 0. -1.
         25    2    1    2    0    0  0.12562460905E+01  0.61196275869E+02  0.29773741576E+01  0.13921205125E+03  0.12499827248E+03 0.  0.
          2    1    1    2  501    0 -0.27799134997E+02 -0.47095946968E+02 -0.61944346862E+03  0.62185290137E+03  0.00000000000E+00 0. -1.
          1    1    1    2  502    0  0.26542888907E+02 -0.14100328901E+02  0.82346085101E+03  0.82400917311E+03  0.00000000000E+00 0. -1.
         22    1    3    3    0    0 -0.16102985155E+02  0.84904651351E+02 -0.33225262326E+02  0.92585225649E+02  0.00000000000E+00 0. -1.
         22    1    3    3    0    0  0.17359231245E+02 -0.23708375481E+02  0.36202636484E+02  0.46626825603E+02  0.00000000000E+00 0. -1.
</event>
<event>
 7    1  0.5537228E-006  0.7358916E+02  0.7818608E-02  0.1436885E+00
          2   -1    0    0  502    0  0.00000000000E+00  0.00000000000E+00  0.10704962358E+04  0.10704962358E+04  0.00000000000E+00 0. -1.
          1   -1    0    0  501    0 -0.00000000000E+00 -0.00000000000E+00 -0.67641049861E+02  0.67641049861E+02  0.00000000000E+00 0. -1.
         25    2    1    2    0    0 -0.46825853251E+02  0.83668739338E+01  0.10715918868E+03  0.17136869530E+03  0.12498589080E+03 0.  0.
          2    1    1    2  501    0  0.78943217334E+02 -0.25035092191E+02  0.13595597917E+02  0.83926322968E+02  0.00000000000E+00 0. -1.
          1    1    1    2  502    0 -0.32117364084E+02  0.16668218257E+02  0.88210039938E+03  0.88284226743E+03  0.00000000000E+00 0. -1.
         22    1    3    3    0    0  0.27099309651E+02  0.33731355861E+02  0.75550117235E+02  0.87063179163E+02  0.00000000000E+00 0. -1.
         22    1    3    3    0    0 -0.73925162901E+02 -0.25364481927E+02  0.31609071442E+02  0.84305516135E+02  0.00000000000E+00 0. -1.
</event>
<event>
 7    1  0.5537228E-006  0.1029410E+03  0.7818608E-02  0.1299218E+00
          2   -1    0    0  502    0  0.00000000000E+00  0.00000000000E+00  0.12020774876E+04  0.12020774876E+04  0.00000000000E+00 0. -1.
          1   -1    0    0  501    0 -0.00000000000E+00 -0.00000000000E+00 -0.15970281237E+04  0.15970281237E+04  0.00000000000E+00 0. -1.
         25    2    1    2    0    0 -0.13447366269E+03  0.58801701642E+02  0.46956522119E+03  0.50759926260E+03  0.12499883344E+03 0.  0.
          2    1    1    2  501    0  0.78377332534E+02  0.21833450005E+02 -0.15735742881E+04  0.15756762821E+04  0.00000000000E+00 0. -1.
          1    1    1    2  502    0  0.56096330158E+02 -0.80635151647E+02  0.70905843077E+03  0.71583006656E+03  0.00000000000E+00 0. -1.
         22    1    3    3    0    0 -0.17857335596E+02  0.14525412435E+02  0.13562562933E+01  0.23058869706E+02  0.00000000000E+00 0. -1.
         22    1    3    3    0    0 -0.11661632710E+03  0.44276289206E+02  0.46820896490E+03  0.48454039289E+03  0.00000000000E+00 0. -1.
</event>
<event>
 7    1  0.5537228E-006  0.1144883E+03  0.7818608E-02  0.1423634E+00
          2   -1    0    0  502    0  0.00000000000E+00  0.00000000000E+00  0.36047781935E+03  0.36047781935E+03  0.00000000000E+00 0. -1.
          1   -1    0    0  501    0 -0.00000000000E+00 -0.00000000000E+00 -0.15414144963E+03  0.15414144963E+03  0.00000000000E+00 0. -1.
         25    2    1    2    0    0  0.90541490524E+02  0.29098205236E+02  0.66404458795E+02  0.17052722926E+03  0.12500206685E+03 0.  0.
          2    1    1    2  501    0 -0.11282014810E+03 -0.41940825203E+02 -0.65517196931E+02  0.13703985453E+03  0.00000000000E+00 0. -1.
          1    1    1    2  502    0  0.22278657576E+02  0.12842619967E+02  0.20544910786E+03  0.20705218519E+03  0.00000000000E+00 0. -1.
         22    1    3    3    0    0  0.46041930544E+02 -0.29189661149E+02 -0.19208987838E+02  0.57800353805E+02  0.00000000000E+00 0. -1.
         22    1    3    3    0    0  0.44499559981E+02  0.58287866385E+02  0.85613446632E+02  0.11272687546E+03  0.00000000000E+00 0. -1.
</event>
<event>
 7    1  0.5537228E-006  0.3515969E+02  0.7818608E-02  0.1603735E+00
          2   -1    0    0  502    0  0.00000000000E+00  0.00000000000E+00  0.44086240739E+03  0.44086240739E+03  0.00000000000E+00 0. -1.
          1   -1    0    0  501    0 -0.00000000000E+00 -0.00000000000E+00 -0.17136828323E+03  0.17136828323E+03  0.00000000000E+00 0. -1.
         25    2    1    2    0    0  0.21494987893E+02 -0.15432530461E+02  0.31459921332E+03  0.33955865803E+03  0.12500887858E+03 0.  0.
          2    1    1    2  501    0  0.17288290217E+02  0.17701803194E+02 -0.15455945003E+03  0.15652751326E+03  0.00000000000E+00 0. -1.
          1    1    1    2  502    0 -0.38783278110E+02 -0.22692727329E+01  0.10945436087E+03  0.11614451934E+03  0.00000000000E+00 0. -1.
         22    1    3    3    0    0 -0.12850713865E+01 -0.21983939367E+02 -0.19643560555E+01  0.22108905293E+02  0.00000000000E+00 0. -1.
         22    1    3    3    0    0  0.22780059279E+02  0.65514089060E+01  0.31656356937E+03  0.31744975274E+03  0.00000000000E+00 0. -1.
</event>
<event>
 7    1  0.5537228E-006  0.1364661E+03  0.7818608E-02  0.1343742E+00
          2   -1    0    0  502    0  0.00000000000E+00  0.00000000000E+00  0.26635379526E+03  0.26635379526E+03  0.00000000000E+00 0. -1.
          1   -1    0    0  501    0 -0.00000000000E+00 -0.00000000000E+00 -0.34737724847E+03  0.34737724847E+03  0.00000000000E+00 0. -1.
         25    2    1    2    0    0 -0.35163079590E+02  0.12985356145E+03  0.19850480007E+02  0.18471358914E+03  0.12500671530E+03 0.  0.
          2    1    1    2  501    0 -0.39260385379E+02 -0.12705026463E+02 -0.23345804527E+03  0.23707689567E+03  0.00000000000E+00 0. -1.
          1    1    1    2  502    0  0.74423464969E+02 -0.11714853499E+03  0.13258411206E+03  0.19194055892E+03  0.00000000000E+00 0. -1.
         22    1    3    3    0    0 -0.36285913167E+02 -0.14011619322E+02  0.11676595000E+02  0.40612015970E+02  0.00000000000E+00 0.  1.
         22    1    3    3    0    0  0.11228335772E+01  0.14386518077E+03  0.81738850068E+01  0.14410157317E+03  0.00000000000E+00 0.  1.
</event>
<event>
 7    1  0.5537228E-006  0.1757686E+03  0.7818608E-02  0.1355605E+00
          2   -1    0    0  502    0  0.00000000000E+00  0.00000000000E+00  0.35709365835E+03  0.35709365835E+03  0.00000000000E+00 0. -1.
          1   -1    0    0  501    0 -0.00000000000E+00 -0.00000000000E+00 -0.17831666294E+04  0.17831666294E+04  0.00000000000E+00 0. -1.
         25    2    1    2    0    0 -0.49967636828E+02  0.19450029156E+03 -0.25361659094E+03  0.34680537622E+03  0.12500186252E+03 0.  0.
          2    1    1    2  501    0  0.50462205806E+02 -0.16555192846E+03 -0.14772175308E+04  0.14873215888E+04  0.00000000000E+00 0. -1.
          1    1    1    2  502    0 -0.49456897817E+00 -0.28948363098E+02  0.30476115067E+03  0.30613332273E+03  0.00000000000E+00 0. -1.
         22    1    3    3    0    0  0.51091938930E+00  0.79573457434E+01  0.14353890144E+02  0.16419943732E+02  0.00000000000E+00 0. -1.
         22    1    3    3    0    0 -0.50478556217E+02  0.18654294581E+03 -0.26797048108E+03  0.33038543249E+03  0.00000000000E+00 0. -1.
</event>
<event>
 7    1  0.5537228E-006  0.1022083E+03  0.7818608E-02  0.1409793E+00
          2   -1    0    0  502    0  0.00000000000E+00  0.00000000000E+00  0.11674113445E+04  0.11674113445E+04  0.00000000000E+00 0. -1.
          1   -1    0    0  501    0 -0.00000000000E+00 -0.00000000000E+00 -0.11652452221E+03  0.11652452221E+03  0.00000000000E+00 0. -1.
         25    2    1    2    0    0 -0.77226348462E+02 -0.10418581562E+03  0.18513919161E+03  0.25830237348E+03  0.12500001120E+03 0.  0.
          2    1    1    2  501    0  0.89284672805E+01  0.30787816861E+02 -0.73951815880E+02  0.80600733663E+02  0.00000000000E+00 0. -1.
          1    1    1    2  502    0  0.68297881181E+02  0.73397998758E+02  0.93969944654E+03  0.94503275955E+03  0.00000000000E+00 0. -1.
         22    1    3    3    0    0 -0.19867983256E+02  0.28974723380E+02  0.35957930462E+02  0.50271702942E+02  0.00000000000E+00 0.  1.
         22    1    3    3    0    0 -0.57358365206E+02 -0.13316053900E+03  0.14918126115E+03  0.20803067054E+03  0.00000000000E+00 0.  1.
</event>
<event>
 7    1  0.5537228E-006  0.7527601E+02  0.7818608E-02  0.1351247E+00
          2   -1    0    0  502    0  0.00000000000E+00  0.00000000000E+00  0.13980923707E+04  0.13980923707E+04  0.00000000000E+00 0. -1.
          1   -1    0    0  501    0 -0.00000000000E+00 -0.00000000000E+00 -0.14236142028E+03  0.14236142028E+03  0.00000000000E+00 0. -1.
         25    2    1    2    0    0 -0.35067353150E+02  0.83122880375E+02 -0.11944977383E+02  0.15461704725E+03  0.12499846526E+03 0.  0.
          2    1    1    2  501    0  0.73948944933E+02 -0.24732484263E+02 -0.31987571339E+02  0.84281355914E+02  0.00000000000E+00 0. -1.
          1    1    1    2  502    0 -0.38881591784E+02 -0.58390396112E+02  0.12996634992E+04  0.13015553878E+04  0.00000000000E+00 0. -1.
         22    1    3    3    0    0  0.45003291906E+02  0.40870983391E+02 -0.19303794865E+02  0.63783775852E+02  0.00000000000E+00 0. -1.
         22    1    3    3    0    0 -0.80070645056E+02  0.42251896983E+02  0.73588174812E+01  0.90833271399E+02  0.00000000000E+00 0. -1.
</event>
<event>
 7    1  0.5537228E-006  0.7487739E+02  0.7818608E-02  0.1398922E+00
          2   -1    0    0  502    0  0.00000000000E+00  0.00000000000E+00  0.11230468095E+04  0.11230468095E+04  0.00000000000E+00 0. -1.
          1   -1    0    0  501    0 -0.00000000000E+00 -0.00000000000E+00 -0.11056420500E+03  0.11056420500E+03  0.00000000000E+00 0. -1.
         25    2    1    2    0    0 -0.11778605254E+03 -0.14991173761E+02  0.20510546890E+03  0.26792877150E+03  0.12497713297E+03 0.  0.
          2    1    1    2  501    0  0.47493164794E+02 -0.40340860761E+01 -0.70329686001E+02  0.84959633272E+02  0.00000000000E+00 0. -1.
          1    1    1    2  502    0  0.70292887743E+02  0.19025259837E+02  0.87770682159E+03  0.88072260970E+03  0.00000000000E+00 0. -1.
         22    1    3    3    0    0 -0.65231465074E+02  0.87790887465E+01  0.12661187736E+02  0.67026279248E+02  0.00000000000E+00 0. -1.
         22    1    3    3    0    0 -0.52554587462E+02 -0.23770262507E+02  0.19244428116E+03  0.20090249225E+03  0.00000000000E+00 0. -1.
</event>
<event>
 7    1  0.5537228E-006  0.1586605E+03  0.7818608E-02  0.1318329E+00
          2   -1    0    0  502    0  0.00000000000E+00  0.00000000000E+00  0.42920454601E+03  0.42920454601E+03  0.00000000000E+00 0. -1.
          1   -1    0    0  501    0 -0.00000000000E+00 -0.00000000000E+00 -0.85025931054E+03  0.85025931054E+03  0.00000000000E+00 0. -1.
         25    2    1    2    0    0  0.16641651421E+03  0.91816822463E+02 -0.61619416373E+03  0.65684512227E+03  0.12500192857E+03 0.  0.
          2    1    1    2  501    0 -0.16821210392E+02 -0.41056405978E+02 -0.19590739948E+03  0.20086883970E+03  0.00000000000E+00 0. -1.
          1    1    1    2  502    0 -0.14959530382E+03 -0.50760416485E+02  0.39104679869E+03  0.42174989457E+03  0.00000000000E+00 0. -1.
         22    1    3    3    0    0  0.43872698776E+02  0.62630405208E+01 -0.33938625712E+03  0.34226754286E+03  0.00000000000E+00 0.  1.
         22    1    3    3    0    0  0.12254381543E+03  0.85553781942E+02 -0.27680790661E+03  0.31457757941E+03  0.00000000000E+00 0.  1.
</event>
<event>
 7    1  0.5537228E-006  0.4464209E+02  0.7818608E-02  0.1559601E+00
          2   -1    0    0  502    0  0.00000000000E+00  0.00000000000E+00  0.22079435697E+04  0.22079435697E+04  0.00000000000E+00 0. -1.
          1   -1    0    0  501    0 -0.00000000000E+00 -0.00000000000E+00 -0.91525296413E+01  0.91525296413E+01  0.00000000000E+00 0. -1.
         25    2    1    2    0    0  0.32823989030E+02  0.31589956050E+02  0.90715557633E+03  0.91685958675E+03  0.12499969022E+03 0.  0.
          2    1    1    2  501    0 -0.44516863859E+02 -0.88405953912E+01  0.11960221234E+03  0.12792418259E+03  0.00000000000E+00 0. -1.
          1    1    1    2  502    0  0.11692874829E+02 -0.22749360659E+02  0.11720332514E+04  0.11723123300E+04  0.00000000000E+00 0. -1.
         22    1    3    3    0    0  0.18991149782E+02  0.59395223063E+02  0.21124659153E+03  0.22025798221E+03  0.00000000000E+00 0.  1.
         22    1    3    3    0    0  0.13832839248E+02 -0.27805267013E+02  0.69590898480E+03  0.69660160454E+03  0.00000000000E+00 0.  1.
</event>
<event>
 7    1  0.5537228E-006  0.5706893E+03  0.7818608E-02  0.1212468E+00
          2   -1    0    0  502    0  0.00000000000E+00  0.00000000000E+00  0.33925224761E+04  0.33925224761E+04  0.00000000000E+00 0. -1.
          1   -1    0    0  501    0 -0.00000000000E+00 -0.00000000000E+00 -0.16328372913E+04  0.16328372913E+04  0.00000000000E+00 0. -1.
         25    2    1    2    0    0 -0.11223432163E+03 -0.59199019416E+03  0.29601052580E+04  0.30233916714E+04  0.12500050792E+03 0.  0.
          2    1    1    2  501    0  0.94374040063E+02  0.56228608151E+03 -0.15495541251E+04  0.16511178285E+04  0.00000000000E+00 0. -1.
          1    1    1    2  502    0  0.17860281571E+02  0.29704112658E+02  0.34913405191E+03  0.35085026745E+03  0.00000000000E+00 0. -1.
         22    1    3    3    0    0 -0.63052996075E+02 -0.92264739726E+02  0.62417107434E+03  0.63409620134E+03  0.00000000000E+00 0. -1.
         22    1    3    3    0    0 -0.49181325559E+02 -0.49972545444E+03  0.23359341837E+04  0.23892954700E+04  0.00000000000E+00 0. -1.
</event>
<event>
 7    1  0.5537228E-006  0.9815614E+02  0.7818608E-02  0.1345949E+00
          2   -1    0    0  502    0  0.00000000000E+00  0.00000000000E+00  0.17334268739E+04  0.17334268739E+04  0.00000000000E+00 0. -1.
          1   -1    0    0  501    0 -0.00000000000E+00 -0.00000000000E+00 -0.46308765302E+03  0.46308765302E+03  0.00000000000E+00 0. -1.
         25    2    1    2    0    0 -0.14519722985E+02  0.50863897654E+02  0.40565886330E+03  0.42776480802E+03  0.12500263666E+03 0.  0.
          2    1    1    2  501    0  0.53426096119E+01  0.56037775319E+02 -0.44808494164E+03  0.45160700910E+03  0.00000000000E+00 0. -1.
          1    1    1    2  502    0  0.91771133729E+01 -0.10690167297E+03  0.13127652992E+04  0.13171427098E+04  0.00000000000E+00 0. -1.
         22    1    3    3    0    0 -0.19417813161E+02  0.26792812553E+02  0.14993342053E+02  0.36327765943E+02  0.00000000000E+00 0. -1.
         22    1    3    3    0    0  0.48980901765E+01  0.24071085101E+02  0.39066552124E+03  0.39143704208E+03  0.00000000000E+00 0. -1.
</event>
<event>
 7    1  0.5537228E-006  0.8711326E+02  0.7818608E-02  0.1327375E+00
          2   -1    0    0  502    0  0.00000000000E+00  0.00000000000E+00  0.63836243141E+03  0.63836243141E+03  0.00000000000E+00 0. -1.
          1   -1    0    0  501    0 -0.00000000000E+00 -0.00000000000E+00 -0.16743087936E+03  0.16743087936E+03  0.00000000000E+00 0. -1.
         25    2    1    2    0    0  0.47807875127E+02  0.48275227352E+01  0.14885518522E+03  0.20021819860E+03  0.12498225066E+03 0.  0.
          2    1    1    2  501    0  0.11001960159E+02  0.73745868133E+02 -0.12625435016E+03  0.14662761380E+03  0.00000000000E+00 0. -1.
          1    1    1    2  502    0 -0.58809835286E+02 -0.78573390868E+02  0.44833071698E+03  0.45894749838E+03  0.00000000000E+00 0. -1.
         22    1    3    3    0    0 -0.10778123679E+02 -0.19136079988E+02 -0.13623817163E+02  0.25845036302E+02  0.00000000000E+00 0.  1.
         22    1    3    3    0    0  0.58585998806E+02  0.23963602723E+02  0.16247900239E+03  0.17437316229E+03  0.00000000000E+00 0.  1.
</event>
<event>
 7    1  0.5537228E-006  0.1509933E+03  0.7818608E-02  0.1253596E+00
          2   -1    0    0  502    0  0.00000000000E+00  0.00000000000E+00  0.28514848567E+04  0.28514848567E+04  0.00000000000E+00 0. -1.
          1   -1    0    0  501    0 -0.00000000000E+00 -0.00000000000E+00 -0.28222679415E+03  0.28222679415E+03  0.00000000000E+00 0. -1.
         25    2    1    2    0    0 -0.70295457039E+02 -0.15228383872E+03  0.36191922708E+03  0.41802285019E+03  0.12500303011E+03 0.  0.
          2    1    1    2  501    0  0.12462067492E+03  0.85809606815E+02 -0.23083483682E+03  0.27600420853E+03  0.00000000000E+00 0. -1.
          1    1    1    2  502    0 -0.54325217878E+02  0.66474231902E+02  0.24381736723E+04  0.24396845921E+04  0.00000000000E+00 0. -1.
         22    1    3    3    0    0  0.40064029311E+01 -0.42794694923E+02  0.21931017491E+03  0.22348241541E+03  0.00000000000E+00 0.  1.
         22    1    3    3    0    0 -0.74301859970E+02 -0.10948914379E+03  0.14260905217E+03  0.19454043478E+03  0.00000000000E+00 0.  1.
</event>
<event>
 7    1  0.5537228E-006  0.5371607E+02  0.7818608E-02  0.1553091E+00
          2   -1    0    0  502    0  0.00000000000E+00  0.00000000000E+00  0.62534332460E+02  0.62534332460E+02  0.00000000000E+00 0. -1.
          1   -1    0    0  501    0 -0.00000000000E+00 -0.00000000000E+00 -0.34591560613E+04  0.34591560613E+04  0.00000000000E+00 0. -1.
         25    2    1    2    0    0  0.37487379863E+02 -0.30097394809E+02 -0.39518204947E+03  0.41725984986E+03  0.12500309298E+03 0.  0.
          2    1    1    2  501    0 -0.52202325622E+02  0.13531720371E+02 -0.30503022254E+04  0.30507788934E+04  0.00000000000E+00 0. -1.
          1    1    1    2  502    0  0.14714945759E+02  0.16565674438E+02  0.48862546015E+02  0.53651650500E+02  0.00000000000E+00 0. -1.
         22    1    3    3    0    0 -0.13591133375E+01  0.44628645496E+02 -0.19568168164E+03  0.20071094568E+03  0.00000000000E+00 0.  1.
         22    1    3    3    0    0  0.38846493201E+02 -0.74726040305E+02 -0.19950036783E+03  0.21654890417E+03  0.00000000000E+00 0.  1.
</event>
<event>
 7    1  0.5537228E-006  0.1795013E+03  0.7818608E-02  0.1241976E+00
          2   -1    0    0  502    0  0.00000000000E+00  0.00000000000E+00  0.20141437523E+03  0.20141437523E+03  0.00000000000E+00 0. -1.
          1   -1    0    0  501    0 -0.00000000000E+00 -0.00000000000E+00 -0.75854123385E+03  0.75854123385E+03  0.00000000000E+00 0. -1.
         25    2    1    2    0    0  0.12558752261E+03  0.18143748601E+02 -0.81740601512E+02  0.19597968411E+03  0.12500035680E+03 0.  0.
          2    1    1    2  501    0 -0.19327824459E+03  0.26591088706E+02 -0.59120477680E+03  0.62256457813E+03  0.00000000000E+00 0. -1.
          1    1    1    2  502    0  0.67690721981E+02 -0.44734837307E+02  0.11581851969E+03  0.14141134684E+03  0.00000000000E+00 0. -1.
         22    1    3    3    0    0  0.69147601588E+02  0.56337069586E+02 -0.90744379498E+02  0.12723913952E+03  0.00000000000E+00 0.  1.
         22    1    3    3    0    0  0.56439921023E+02 -0.38193320985E+02  0.90037779862E+01  0.68740544594E+02  0.00000000000E+00 0.  1.
</event>
<event>
 7    1  0.5537228E-006  0.1815344E+03  0.7818608E-02  0.1208830E+00
          2   -1    0    0  502    0  0.00000000000E+00  0.00000000000E+00  0.22987828150E+04  0.22987828150E+04  0.00000000000E+00 0. -1.
          1   -1    0    0  501    0 -0.00000000000E+00 -0.00000000000E+00 -0.58484301385E+02  0.58484301385E+02  0.00000000000E+00 0. -1.
         25    2    1    2    0    0  0.21395689893E+02  0.16094819095E+03  0.11494749352E+04  0.11675956463E+04  0.12499948407E+03 0.  0.
          2    1    1    2  501    0 -0.10487695932E+03  0.42791631433E+02  0.46591169794E+02  0.12247872231E+03  0.00000000000E+00 0. -1.
          1    1    1    2  502    0  0.83481269424E+02 -0.20373982238E+03  0.10442324086E+04  0.10671927477E+04  0.00000000000E+00 0. -1.
         22    1    3    3    0    0  0.56757005763E+02  0.81992056505E+02  0.36541403260E+03  0.37877627995E+03  0.00000000000E+00 0.  1.
         22    1    3    3    0    0 -0.35361315871E+02  0.78956134445E+02  0.78406090255E+03  0.78881936636E+03  0.00000000000E+00 0.  1.
</event>
<event>
 7    1  0.5537228E-006  0.8558697E+02  0.7818608E-02  0.1353520E+00
          2   -1    0    0  502    0  0.00000000000E+00  0.00000000000E+00  0.97861588245E+02  0.97861588245E+02  0.00000000000E+00 0. -1.
          1   -1    0    0  501    0 -0.00000000000E+00 -0.00000000000E+00 -0.25102282373E+04  0.25102282373E+04  0.00000000000E+00 0. -1.
         25    2    1    2    0    0 -0.30365367934E+02  0.10532580566E+02 -0.63185353599E+03  0.64490171465E+03  0.12500535903E+03 0.  0.
          2    1    1    2  501    0 -0.30512171752E+02  0.52264493151E+02 -0.18503042711E+04  0.18512937275E+04  0.00000000000E+00 0. -1.
          1    1    1    2  502    0  0.60877539685E+02 -0.62797073717E+02  0.69791158004E+02  0.11189438342E+03  0.00000000000E+00 0. -1.
         22    1    3    3    0    0  0.33958066797E+01  0.21536458452E+02 -0.13743910919E+02  0.25772963218E+02  0.00000000000E+00 0. -1.
         22    1    3    3    0    0 -0.33761174614E+02 -0.11003877886E+02 -0.61810962507E+03  0.61912875143E+03  0.00000000000E+00 0. -1.
</event>
<event>
 7    1  0.5537228E-006  0.7491877E+02  0.7818608E-02  0.1436928E+00
          2   -1    0    0  502    0  0.00000000000E+00  0.00000000000E+00  0.13835518634E+04  0.13835518634E+04  0.00000000000E+00 0. -1.
          1   -1    0    0  501    0 -0.00000000000E+00 -0.00000000000E+00 -0.52177313204E+03  0.52177313204E+03  0.00000000000E+00 0. -1.
         25    2    1    2    0    0 -0.89110683643E+02  0.29706685145E+02 -0.57668118242E+02  0.16665901049E+03  0.12500565121E+03 0.  0.
          2    1    1    2  501    0  0.57748641436E+02 -0.46406996457E+02 -0.40601969730E+03  0.41272328443E+03  0.00000000000E+00 0. -1.
          1    1    1    2  502    0  0.31362042206E+02  0.16700311312E+02  0.13254665469E+04  0.13259427005E+04  0.00000000000E+00 0. -1.
         22    1    3    3    0    0 -0.39216221664E+02  0.58897880073E+02  0.16467417472E+02  0.72650176579E+02  0.00000000000E+00 0.  1.
         22    1    3    3    0    0 -0.49894461978E+02 -0.29191194928E+02 -0.74135535713E+02  0.94008833909E+02  0.00000000000E+00 0.  1.
</event>
<event>
 7    1  0.5537228E-006  0.1643272E+03  0.7818608E-02  0.1346645E+00
          2   -1    0    0  502    0  0.00000000000E+00  0.00000000000E+00  0.86172537658E+03  0.86172537658E+03  0.00000000000E+00 0. -1.
          1   -1    0    0  501    0 -0.00000000000E+00 -0.00000000000E+00 -0.98497585733E+03  0.98497585733E+03  0.00000000000E+00 0. -1.
         25    2    1    2    0    0  0.54617023768E+02  0.15697415844E+03 -0.72944546442E+02  0.22038614372E+03  0.12500095914E+03 0.  0.
          2    1    1    2  501    0 -0.32883403834E+02  0.59875159221E+01 -0.82939514704E+03  0.83006835774E+03  0.00000000000E+00 0. -1.
          1    1    1    2  502    0 -0.21733619933E+02 -0.16296167436E+03  0.77908921273E+03  0.79624673245E+03  0.00000000000E+00 0. -1.
         22    1    3    3    0    0  0.85350590260E+02  0.15391764652E+03 -0.53752302941E+02  0.18402357251E+03  0.00000000000E+00 0. -1.
         22    1    3    3    0    0 -0.30733566493E+02  0.30565119209E+01 -0.19192243501E+02  0.36362571211E+02  0.00000000000E+00 0. -1.
</event>
<event>
 7    1  0.5537228E-006  0.8316808E+02  0.7818608E-02  0.1375677E+00
          2   -1    0    0  502    0  0.00000000000E+00  0.00000000000E+00  0.91363211821E+02  0.91363211821E+02  0.00000000000E+00 0. -1.
          1   -1    0    0  501    0 -0.00000000000E+00 -0.00000000000E+00 -0.17673363136E+04  0.17673363136E+04  0.00000000000E+00 0. -1.
         25    2    1    2    0    0 -0.24820005212E+02  0.23232139088E+02 -0.80216502401E+03  0.81255717406E+03  0.12499868175E+03 0.  0.
          2    1    1    2  501    0 -0.47766990287E+02  0.19947638409E+02 -0.93839280921E+03  0.93981948161E+03  0.00000000000E+00 0. -1.
          1    1    1    2  502    0  0.72586995499E+02 -0.43179777497E+02  0.64584731425E+02  0.10632286976E+03  0.00000000000E+00 0. -1.
         22    1    3    3    0    0  0.15620179677E+02  0.93715340077E+00 -0.70292501472E+03  0.70309917123E+03  0.00000000000E+00 0. -1.
         22    1    3    3    0    0 -0.40440184890E+02  0.22294985687E+02 -0.99240009287E+02  0.10945800283E+03  0.00000000000E+00 0. -1.
</event>
<event>
 7    1  0.5537228E-006  0.1095107E+03  0.7818608E-02  0.1275838E+00
          2   -1    0    0  502    0  0.00000000000E+00  0.00000000000E+00  0.14952586029E+04  0.14952586029E+04  0.00000000000E+00 0. -1.
          1   -1    0    0  501    0 -0.00000000000E+00 -0.00000000000E+00 -0.45970987979E+03  0.45970987979E+03  0.00000000000E+00 0. -1.
         25    2    1    2    0    0 -0.17035303847E+03  0.18925521314E+01  0.32734089706E+03  0.38961878361E+03  0.12500797648E+03 0.  0.
          2    1    1    2  501    0  0.93887265507E+02  0.54959690287E+02 -0.41962548688E+03  0.43349848375E+03  0.00000000000E+00 0. -1.
          1    1    1    2  502    0  0.76465772958E+02 -0.56852242418E+02  0.11278333129E+04  0.11318512153E+04  0.00000000000E+00 0. -1.
         22    1    3    3    0    0 -0.12473795656E+03  0.54292223247E+02  0.25681498691E+03  0.29062198955E+03  0.00000000000E+00 0. -1.
         22    1    3    3    0    0 -0.45615081903E+02 -0.52399671116E+02  0.70525910153E+02  0.98996794054E+02  0.00000000000E+00 0. -1.
</event>
<event>
 7    1  0.5537228E-006  0.3367112E+02  0.7818608E-02  0.1628390E+00
          2   -1    0    0  502    0  0.00000000000E+00  0.00000000000E+00  0.51985789516E+02  0.51985789516E+02  0.00000000000E+00 0. -1.
          1   -1    0    0  501    0 -0.00000000000E+00 -0.00000000000E+00 -0.92560204799E+03  0.92560204799E+03  0.00000000000E+00 0. -1.
         25    2    1    2    0    0 -0.19660534433E+01  0.21856371564E+02 -0.62276233105E+02  0.14136755312E+03  0.12499955808E+03 0.  0.
          2    1    1    2  501    0  0.24241829574E+02 -0.23585476398E+02 -0.81310477770E+03  0.81380791377E+03  0.00000000000E+00 0. -1.
          1    1    1    2  502    0 -0.22275776130E+02  0.17291048335E+01  0.17647523322E+01  0.22412370614E+02  0.00000000000E+00 0. -1.
         22    1    3    3    0    0 -0.17716730110E+01 -0.45081277191E+02  0.62809616189E+01  0.45551189417E+02  0.00000000000E+00 0. -1.
         22    1    3    3    0    0 -0.19438043237E+00  0.66937648755E+02 -0.68557194724E+02  0.95816363702E+02  0.00000000000E+00 0. -1.
</event>
<event>
 7    1  0.5537228E-006  0.2340329E+03  0.7818608E-02  0.1310488E+00
          2   -1    0    0  502    0  0.00000000000E+00  0.00000000000E+00  0.19401565621E+04  0.19401565621E+04  0.00000000000E+00 0. -1.
          1   -1    0    0  501    0 -0.00000000000E+00 -0.00000000000E+00 -0.78928118636E+02  0.78928118636E+02  0.00000000000E+00 0. -1.
         25    2    1    2    0    0 -0.13502792893E+03 -0.15773904679E+03  0.99828150831E+03  0.10272800237E+04  0.12499651477E+03 0.  0.
          2    1    1    2  501    0  0.15721602530E+03  0.18118676551E+03  0.16052495330E+03  0.28864127085E+03  0.00000000000E+00 0. -1.
          1    1    1    2  502    0 -0.22188096374E+02 -0.23447718722E+02  0.70242198184E+03  0.70316338621E+03  0.00000000000E+00 0. -1.
         22    1    3    3    0    0 -0.20397447871E+02 -0.11430787048E+03  0.57496455340E+03  0.58657189057E+03  0.00000000000E+00 0.  1.
         22    1    3    3    0    0 -0.11463048105E+03 -0.43431176309E+02  0.42331695491E+03  0.44070813310E+03  0.00000000000E+00 0.  1.
</event>
<event>
 7    1  0.5537228E-006  0.1121711E+03  0.7818608E-02  0.1365186E+00
          2   -1    0    0  502    0  0.00000000000E+00  0.00000000000E+00  0.87689443565E+03  0.87689443565E+03  0.00000000000E+00 0. -1.
          1   -1    0    0  501    0 -0.00000000000E+00 -0.00000000000E+00 -0.40723901624E+03  0.40723901624E+03  0.00000000000E+00 0. -1.
         25    2    1    2    0    0 -0.11362095009E+03 -0.45800715303E+02  0.74565480738E+02  0.19024719161E+03  0.12500622855E+03 0.  0.
          2    1    1    2  501    0  0.11186307198E+03  0.39773007070E+01 -0.33982242850E+03  0.35778268363E+03  0.00000000000E+00 0. -1.
          1    1    1    2  502    0  0.17578781172E+01  0.41823414596E+02  0.73491236717E+03  0.73610357665E+03  0.00000000000E+00 0. -1.
         22    1    3    3    0    0 -0.36799728658E+02  0.19526794327E+02  0.78995717340E+02  0.89307553343E+02  0.00000000000E+00 0.  1.
         22    1    3    3    0    0 -0.76821221435E+02 -0.65327509630E+02 -0.44302366020E+01  0.10093963827E+03  0.00000000000E+00 0.  1.
</event>
<event>
 7    1  0.5537228E-006  0.3992689E+02  0.7818608E-02  0.1556422E+00
          2   -1    0    0  502    0  0.00000000000E+00  0.00000000000E+00  0.55574873241E+03  0.55574873241E+03  0.00000000000E+00 0. -1.
          1   -1    0    0  501    0 -0.00000000000E+00 -0.00000000000E+00 -0.79278621295E+03  0.79278621295E+03  0.00000000000E+00 0. -1.
         25    2    1    2    0    0  0.53935289811E+02 -0.33881159123E+02  0.14926071731E+03  0.20484366165E+03  0.12500086222E+03 0.  0.
          2    1    1    2  501    0 -0.28944745562E+02  0.37187157977E+01 -0.76370243174E+03  0.76425979312E+03  0.00000000000E+00 0. -1.
          1    1    1    2  502    0 -0.24990544249E+02  0.30162443325E+02  0.37740423389E+03  0.37943149058E+03  0.00000000000E+00 0. -1.
         22    1    3    3    0    0  0.69076324582E+02  0.27874415590E+02  0.62244809678E+02  0.97071818743E+02  0.00000000000E+00 0. -1.
         22    1    3    3    0    0 -0.15141034771E+02 -0.61755574713E+02  0.87015907632E+02  0.10777184290E+03  0.00000000000E+00 0. -1.
</event>
<event>
 7    1  0.5537228E-006  0.1469051E+03  0.7818608E-02  0.1404970E+00
          2   -1    0    0  502    0  0.00000000000E+00  0.00000000000E+00  0.56287156195E+03  0.56287156195E+03  0.00000000000E+00 0. -1.
          1   -1    0    0  501    0 -0.00000000000E+00 -0.00000000000E+00 -0.46769851055E+03  0.46769851055E+03  0.00000000000E+00 0. -1.
         25    2    1    2    0    0 -0.13025417464E+03 -0.99254999403E+02  0.96156927330E+02  0.22735082824E+03  0.12499815803E+03 0.  0.
          2    1    1    2  501    0  0.97639871297E+01  0.21002991383E+02 -0.38888108823E+03  0.38957022714E+03  0.00000000000E+00 0. -1.
          1    1    1    2  502    0  0.12049018751E+03  0.78252008020E+02  0.38789721230E+03  0.41364901711E+03  0.00000000000E+00 0. -1.
         22    1    3    3    0    0 -0.14313968024E+02  0.13899214808E+01 -0.26958203024E+02  0.30554316759E+02  0.00000000000E+00 0. -1.
         22    1    3    3    0    0 -0.11594020662E+03 -0.10064492088E+03  0.12311513035E+03  0.19679651148E+03  0.00000000000E+00 0. -1.
</event>
<event>
 7    1  0.5537228E-006  0.8882227E+02  0.7818608E-02  0.1319594E+00
          2   -1    0    0  502    0  0.00000000000E+00  0.00000000000E+00  0.50491641080E+03  0.50491641080E+03  0.00000000000E+00 0. -1.
          1   -1    0    0  501    0 -0.00000000000E+00 -0.00000000000E+00 -0.57905293954E+03  0.57905293954E+03  0.00000000000E+00 0. -1.
         25    2    1    2    0    0 -0.57929328794E+02  0.59775579211E+02 -0.47530427369E+02  0.15752276784E+03  0.12500141542E+03 0.  0.
          2    1    1    2  501    0  0.91112030858E+02  0.11214527265E+02 -0.46862678241E+03  0.47753348467E+03  0.00000000000E+00 0. -1.
          1    1    1    2  502    0 -0.33182702063E+02 -0.70990106476E+02  0.44202068104E+03  0.44891309783E+03  0.00000000000E+00 0. -1.
         22    1    3    3    0    0  0.33776835015E+02  0.21875329788E+02 -0.41958641281E+02  0.58137184444E+02  0.00000000000E+00 0.  1.
         22    1    3    3    0    0 -0.91706163809E+02  0.37900249423E+02 -0.55717860876E+01  0.99385583397E+02  0.00000000000E+00 0.  1.
</event>
<event>
 7    1  0.5537228E-006  0.1182266E+03  0.7818608E-02  0.1339272E+00
          2   -1    0    0  502    0  0.00000000000E+00  0.00000000000E+00  0.33034032777E+04  0.33034032777E+04  0.00000000000E+00 0. -1.
          1   -1    0    0  501    0 -0.00000000000E+00 -0.00000000000E+00 -0.12458257268E+02  0.12458257268E+02  0.00000000000E+00 0. -1.
         25    2    1    2    0    0  0.10122449593E+03 -0.65315043563E+02  0.19933225638E+04  0.20008680633E+04  0.12500283943E+03 0.  0.
          2    1    1    2  501    0 -0.65792744434E+02  0.99891572328E+02  0.44074858488E+03  0.45669062451E+03  0.00000000000E+00 0. -1.
          1    1    1    2  502    0 -0.35431751498E+02 -0.34576528765E+02  0.85687387171E+03  0.85830284712E+03  0.00000000000E+00 0. -1.
         22    1    3    3    0    0  0.93421894118E+02 -0.35007897644E+02  0.18963108565E+04  0.18989334027E+04  0.00000000000E+00 0.  1.
         22    1    3    3    0    0  0.78026018135E+01 -0.30307145919E+02  0.97011707316E+02  0.10193466067E+03  0.00000000000E+00 0.  1.
</event>
<event>
 7    1  0.6609333E-006  0.8270319E+02  0.7818608E-02  0.1368015E+00
          2   -1    0    0  502    0  0.00000000000E+00  0.00000000000E+00  0.18651397375E+04  0.18651397375E+04  0.00000000000E+00 0. -1.
          1   -1    0    0  501    0 -0.00000000000E+00 -0.00000000000E+00 -0.44877296937E+03  0.44877296937E+03  0.00000000000E+00 0. -1.
         25    2    1    2    0    0  0.32237675632E+02  0.23643561123E+02 -0.20137049857E+03  0.24036079134E+03  0.12499978643E+03 0.  0.
          2    1    1    2  501    0  0.50669881397E+02 -0.22534270744E+02 -0.22358718046E+03  0.23036157992E+03  0.00000000000E+00 0. -1.
          1    1    1    2  502    0 -0.82907557028E+02 -0.11092903790E+01  0.18413244472E+04  0.18431903356E+04  0.00000000000E+00 0. -1.
         22    1    3    3    0    0 -0.44424669647E+02 -0.26088100874E+01 -0.40217188363E+02  0.59981492172E+02  0.00000000000E+00 0.  1.
         22    1    3    3    0    0  0.76662345279E+02  0.26252371211E+02 -0.16115331021E+03  0.18037929917E+03  0.00000000000E+00 0.  1.
</event>
<event>
 7    1  0.5537228E-006  0.1772179E+03  0.7818608E-02  0.1396103E+00
          2   -1    0    0  502    0  0.00000000000E+00  0.00000000000E+00  0.33869731473E+03  0.33869731473E+03  0.00000000000E+00 0. -1.
          1   -1    0    0  501    0 -0.00000000000E+00 -0.00000000000E+00 -0.86578435146E+03  0.86578435146E+03  0.00000000000E+00 0. -1.
         25    2    1    2    0    0 -0.72598347215E+02  0.15468500280E+03 -0.24504328663E+03  0.32383588916E+03  0.12500200269E+03 0.  0.
          2    1    1    2  501    0 -0.20373437383E+02 -0.30146650838E+01 -0.55470214404E+03  0.55508434832E+03  0.00000000000E+00 0. -1.
          1    1    1    2  502    0  0.92971784598E+02 -0.15167033772E+03  0.27265839394E+03  0.32556142870E+03  0.00000000000E+00 0. -1.
         22    1    3    3    0    0 -0.18420859176E+02  0.15636154972E+03 -0.18586258404E+03  0.24358399461E+03  0.00000000000E+00 0.  1.
         22    1    3    3    0    0 -0.54177488039E+02 -0.16765469201E+01 -0.59180702589E+02  0.80251894549E+02  0.00000000000E+00 0.  1.
</event>
<event>
 7    1  0.5537228E-006  0.5983980E+02  0.7818608E-02  0.1440608E+00
          2   -1    0    0  502    0  0.00000000000E+00  0.00000000000E+00  0.25521519341E+04  0.25521519341E+04  0.00000000000E+00 0. -1.
          1   -1    0    0  501    0 -0.00000000000E+00 -0.00000000000E+00 -0.10399052144E+04  0.10399052144E+04  0.00000000000E+00 0. -1.
         25    2    1    2    0    0 -0.36554245629E+02 -0.31424044355E+02  0.41061783703E+03  0.43192154615E+03  0.12500212199E+03 0.  0.
          2    1    1    2  501    0  0.59671102363E+02 -0.51602464684E+01 -0.10281620348E+04  0.10299050628E+04  0.00000000000E+00 0. -1.
          1    1    1    2  502    0 -0.23116856735E+02  0.36584290823E+02  0.21297909175E+04  0.21302305395E+04  0.00000000000E+00 0. -1.
         22    1    3    3    0    0 -0.48520908291E+02 -0.39300729506E+02  0.82372399931E+02  0.10336362103E+03  0.00000000000E+00 0.  1.
         22    1    3    3    0    0  0.11966662662E+02  0.78766851511E+01  0.32824543710E+03  0.32855792512E+03  0.00000000000E+00 0.  1.
</event>
<event>
 7    1  0.5537228E-006  0.9959940E+02  0.7818608E-02  0.1402463E+00
          2   -1    0    0  502    0  0.00000000000E+00  0.00000000000E+00  0.96063944250E+03  0.96063944250E+03  0.00000000000E+00 0. -1.
          1   -1    0    0  501    0 -0.00000000000E+00 -0.00000000000E+00 -0.50569064998E+03  0.50569064998E+03  0.00000000000E+00 0. -1.
         25    2    1    2    0    0  0.69611259681E+02 -0.15899545333E+02 -0.14079862931E+03  0.20136513023E+03  0.12500055456E+03 0.  0.
          2    1    1    2  501    0  0.30457352692E+02  0.16924473764E+02 -0.33100055155E+03  0.33282946575E+03  0.00000000000E+00 0. -1.
          1    1    1    2  502    0 -0.10006861237E+03 -0.10249284318E+01  0.92674797339E+03  0.93213549650E+03  0.00000000000E+00 0. -1.
         22    1    3    3    0    0  0.47162697063E+02  0.13871730265E+01  0.97446119216E+01  0.48178851219E+02  0.00000000000E+00 0.  1.
         22    1    3    3    0    0  0.22448562618E+02 -0.17286718359E+02 -0.15054324124E+03  0.15318627901E+03  0.00000000000E+00 0.  1.
</event>
<event>
 7    1  0.5537228E-006  0.4758008E+02  0.7818608E-02  0.1469182E+00
          2   -1    0    0  502    0  0.00000000000E+00  0.00000000000E+00  0.20585244320E+04  0.20585244320E+04  0.00000000000E+00 0. -1.
          1   -1    0    0  501    0 -0.00000000000E+00 -0.00000000000E+00 -0.76220051631E+02  0.76220051631E+02  0.00000000000E+00 0. -1.
         25    2    1    2    0    0 -0.56155787154E+02  0.36799466401E+02  0.13461970356E+04  0.13536540922E+04  0.12500107796E+03 0.  0.
          2    1    1    2  501    0  0.12919147303E+02 -0.45773121855E+02 -0.63919045597E+02  0.79672626675E+02  0.00000000000E+00 0. -1.
          1    1    1    2  502    0  0.43236639850E+02  0.89736554535E+01  0.70002639035E+03  0.70141776475E+03  0.00000000000E+00 0. -1.
         22    1    3    3    0    0  0.24597042008E+02 -0.72333004848E+01  0.77571977587E+02  0.81699123730E+02  0.00000000000E+00 0.  1.
         22    1    3    3    0    0 -0.80752829162E+02  0.44032766886E+02  0.12686250580E+04  0.12719549685E+04  0.00000000000E+00 0.  1.
</event>
<event>
 7    1  0.5537228E-006  0.1058545E+03  0.7818608E-02  0.1371691E+00
          2   -1    0    0  502    0  0.00000000000E+00  0.00000000000E+00  0.32771699641E+04  0.32771699641E+04  0.00000000000E+00 0. -1.
          1   -1    0    0  501    0 -0.00000000000E+00 -0.00000000000E+00 -0.36918705861E+03  0.36918705861E+03  0.00000000000E+00 0. -1.
         25    2    1    2    0    0 -0.82896130866E+02 -0.26882033492E+02  0.16181968134E+04  0.16253554428E+04  0.12499990431E+03 0.  0.
          2    1    1    2  501    0 -0.15251848151E+02 -0.39162420276E+02 -0.36227784118E+03  0.36470748312E+03  0.00000000000E+00 0. -1.
          1    1    1    2  502    0  0.98147979017E+02  0.66044453768E+02  0.16520639332E+04  0.16562940968E+04  0.00000000000E+00 0. -1.
         22    1    3    3    0    0 -0.71845051753E+01 -0.43166315422E+02  0.18647940156E+03  0.19154507331E+03  0.00000000000E+00 0.  1.
         22    1    3    3    0    0 -0.75711625691E+02  0.16284281930E+02  0.14317174119E+04  0.14338103695E+04  0.00000000000E+00 0.  1.
</event>
<event>
 7    1  0.5537228E-006  0.2676359E+03  0.7818608E-02  0.1207941E+00
          2   -1    0    0  502    0  0.00000000000E+00  0.00000000000E+00  0.16613644239E+04  0.16613644239E+04  0.00000000000E+00 0. -1.
          1   -1    0    0  501    0 -0.00000000000E+00 -0.00000000000E+00 -0.10882364886E+04  0.10882364886E+04  0.00000000000E+00 0. -1.
         25    2    1    2    0    0 -0.10241628734E+03 -0.18358027539E+03 -0.86970586764E+02  0.25959455838E+03  0.12503854748E+03 0.  0.
          2    1    1    2  501    0 -0.74031335941E+02 -0.23145185393E+02 -0.90155137689E+03  0.90488188372E+03  0.00000000000E+00 0. -1.
          1    1    1    2  502    0  0.17644762328E+03  0.20672546078E+03  0.15616498989E+04  0.15851244704E+04  0.00000000000E+00 0. -1.
         22    1    3    3    0    0 -0.24999003649E+02 -0.80089773509E+02 -0.99026648163E+02  0.12979059693E+03  0.00000000000E+00 0. -1.
         22    1    3    3    0    0 -0.77417283687E+02 -0.10349050188E+03  0.12056061399E+02  0.12980396145E+03  0.00000000000E+00 0. -1.
</event>
<event>
 7    1  0.5537228E-006  0.1167059E+03  0.7818608E-02  0.1270243E+00
          2   -1    0    0  502    0  0.00000000000E+00  0.00000000000E+00  0.80114200250E+02  0.80114200250E+02  0.00000000000E+00 0. -1.
          1   -1    0    0  501    0 -0.00000000000E+00 -0.00000000000E+00 -0.14348106393E+04  0.14348106393E+04  0.00000000000E+00 0. -1.
         25    2    1    2    0    0  0.26064896175E+02 -0.28253850776E+02 -0.20095820796E+03  0.23976427808E+03  0.12500019521E+03 0.  0.
          2    1    1    2  501    0 -0.68415031612E+02  0.11257094595E+03 -0.11717247283E+04  0.11791063028E+04  0.00000000000E+00 0. -1.
          1    1    1    2  502    0  0.42350135437E+02 -0.84317095176E+02  0.17986497268E+02  0.96054258596E+02  0.00000000000E+00 0. -1.
         22    1    3    3    0    0 -0.19396433728E+02  0.42366385892E+02 -0.78049082498E+02  0.90899898645E+02  0.00000000000E+00 0.  1.
         22    1    3    3    0    0  0.45461329903E+02 -0.70620236668E+02 -0.12290912546E+03  0.14886437944E+03  0.00000000000E+00 0.  1.
</event>
<event>
 7    1  0.5537228E-006  0.7736813E+02  0.7818608E-02  0.1440407E+00
          2   -1    0    0  502    0  0.00000000000E+00  0.00000000000E+00  0.52665567969E+03  0.52665567969E+03  0.00000000000E+00 0. -1.
          1   -1    0    0  501    0 -0.00000000000E+00 -0.00000000000E+00 -0.17971671704E+03  0.17971671704E+03  0.00000000000E+00 0. -1.
         25    2    1    2    0    0  0.99508139791E+02 -0.17401542699E+02 -0.56270094522E+02  0.17028302883E+03  0.12500121118E+03 0.  0.
          2    1    1    2  501    0 -0.69892764803E+02  0.16970131269E+01 -0.47251311016E+02  0.84383439241E+02  0.00000000000E+00 0. -1.
          1    1    1    2  502    0 -0.29615374988E+02  0.15704529572E+02  0.45046036819E+03  0.45170592867E+03  0.00000000000E+00 0. -1.
         22    1    3    3    0    0  0.93043177413E+02 -0.64472565144E+02 -0.40325520081E+02  0.12016610208E+03  0.00000000000E+00 0. -1.
         22    1    3    3    0    0  0.64649623788E+01  0.47071022444E+02 -0.15944574441E+02  0.50116926748E+02  0.00000000000E+00 0. -1.
</event>
<event>
 7    1  0.5537228E-006  0.6387705E+02  0.7818608E-02  0.1496464E+00
          2   -1    0    0  502    0  0.00000000000E+00  0.00000000000E+00  0.34349731362E+04  0.34349731362E+04  0.00000000000E+00 0. -1.
          1   -1    0    0  501    0 -0.00000000000E+00 -0.00000000000E+00 -0.62599365064E+03  0.62599365064E+03  0.00000000000E+00 0. -1.
         25    2    1    2    0    0 -0.88564620240E+02  0.46967289655E+01  0.82268390722E+03  0.83683949031E+03  0.12500308047E+03 0.  0.
          2    1    1    2  501    0  0.26713238873E+02  0.48331108532E+01 -0.61824213029E+03  0.61883785255E+03  0.00000000000E+00 0. -1.
          1    1    1    2  502    0  0.61851381367E+02 -0.95298398187E+01  0.26045377086E+04  0.26052894439E+04  0.00000000000E+00 0. -1.
         22    1    3    3    0    0 -0.40010932085E+02 -0.56479100085E+02  0.27314143633E+03  0.28177474633E+03  0.00000000000E+00 0.  1.
         22    1    3    3    0    0 -0.48553688155E+02  0.61175829050E+02  0.54954247090E+03  0.55506474398E+03  0.00000000000E+00 0.  1.
</event>
<event>
 7    1  0.5537228E-006  0.8645974E+02  0.7818608E-02  0.1352775E+00
          2   -1    0    0  502    0  0.00000000000E+00  0.00000000000E+00  0.45639761689E+03  0.45639761689E+03  0.00000000000E+00 0. -1.
          1   -1    0    0  501    0 -0.00000000000E+00 -0.00000000000E+00 -0.14840356071E+03  0.14840356071E+03  0.00000000000E+00 0. -1.
         25    2    1    2    0    0 -0.36625710890E+02  0.11326885996E+03  0.79906999807E+02  0.19021257462E+03  0.12499767034E+03 0.  0.
          2    1    1    2  501    0  0.60257531114E+02 -0.57805314709E+02 -0.70926288175E+02  0.10955803402E+03  0.00000000000E+00 0. -1.
          1    1    1    2  502    0 -0.23631820224E+02 -0.55463545252E+02  0.29901334455E+03  0.30503056896E+03  0.00000000000E+00 0. -1.
         22    1    3    3    0    0  0.45385001654E+02  0.34326060572E+02  0.40129217398E+02  0.69630674982E+02  0.00000000000E+00 0.  1.
         22    1    3    3    0    0 -0.82010712544E+02  0.78942799389E+02  0.39777782409E+02  0.12058189964E+03  0.00000000000E+00 0.  1.
</event>
<event>
 7    1  0.5537228E-006  0.1068147E+03  0.7818608E-02  0.1364319E+00
          2   -1    0    0  502    0  0.00000000000E+00  0.00000000000E+00  0.62936045564E+03  0.62936045564E+03  0.00000000000E+00 0. -1.
          1   -1    0    0  501    0 -0.00000000000E+00 -0.00000000000E+00 -0.47299908363E+03  0.47299908363E+03  0.00000000000E+00 0. -1.
         25    2    1    2    0    0  0.34562398884E+01  0.64982903433E+02 -0.28603052444E+02  0.14378868682E+03  0.12498931361E+03 0.  0.
          2    1    1    2  501    0  0.27221133657E+01  0.44194746965E+02 -0.38027837283E+03  0.38284752370E+03  0.00000000000E+00 0. -1.
          1    1    1    2  502    0 -0.61783532541E+01 -0.10917765040E+03  0.56524279728E+03  0.57572332875E+03  0.00000000000E+00 0. -1.
         22    1    3    3    0    0 -0.51983390004E+02 -0.37334596710E+01 -0.16524672231E+02  0.54674275028E+02  0.00000000000E+00 0. -1.
         22    1    3    3    0    0  0.55439629893E+02  0.68716363104E+02 -0.12078380213E+02  0.89114411794E+02  0.00000000000E+00 0. -1.
</event>
<event>
 7    1  0.5537228E-006  0.5850155E+02  0.7818608E-02  0.1499163E+00
          2   -1    0    0  502    0  0.00000000000E+00  0.00000000000E+00  0.32776976539E+03  0.32776976539E+03  0.00000000000E+00 0. -1.
          1   -1    0    0  501    0 -0.00000000000E+00 -0.00000000000E+00 -0.53735292868E+03  0.53735292868E+03  0.00000000000E+00 0. -1.
         25    2    1    2    0    0  0.43965910793E+02 -0.35928231135E+02 -0.75690832344E+02  0.15677361596E+03  0.12500010182E+03 0.  0.
          2    1    1    2  501    0 -0.58004431697E+02  0.10444061686E+02 -0.41831281135E+03  0.42244431664E+03  0.00000000000E+00 0. -1.
          1    1    1    2  502    0  0.14038520904E+02  0.25484169449E+02  0.28442048040E+03  0.28590476148E+03  0.00000000000E+00 0. -1.
         22    1    3    3    0    0 -0.82567822759E+01 -0.56322022304E+02  0.64880067049E+01  0.57292572651E+02  0.00000000000E+00 0.  1.
         22    1    3    3    0    0  0.52222693068E+02  0.20393791169E+02 -0.82178839049E+02  0.99481043305E+02  0.00000000000E+00 0.  1.
</event>
<event>
 7    1  0.5537228E-006  0.1076431E+03  0.7818608E-02  0.1340138E+00
          2   -1    0    0  502    0  0.00000000000E+00  0.00000000000E+00  0.26067596237E+03  0.26067596237E+03  0.00000000000E+00 0. -1.
          1   -1    0    0  501    0 -0.00000000000E+00 -0.00000000000E+00 -0.13883469172E+04  0.13883469172E+04  0.00000000000E+00 0. -1.
         25    2    1    2    0    0 -0.60290564029E+02  0.17396942401E+02 -0.10639968484E+03  0.17573804545E+03  0.12500144787E+03 0.  0.
          2    1    1    2  501    0 -0.36200669269E+02  0.40025796526E+02 -0.12327047180E+04  0.12338855193E+04  0.00000000000E+00 0. -1.
          1    1    1    2  502    0  0.96491233298E+02 -0.57422738927E+02  0.21143344798E+03  0.23939931490E+03  0.00000000000E+00 0. -1.
         22    1    3    3    0    0  0.24935825924E+02  0.70079124656E+01 -0.82712284796E+02  0.86673111792E+02  0.00000000000E+00 0.  1.
         22    1    3    3    0    0 -0.85226389953E+02  0.10389029936E+02 -0.23687400042E+02  0.89064933662E+02  0.00000000000E+00 0.  1.
</event>
<event>
 7    1  0.5537228E-006  0.7628275E+02  0.7818608E-02  0.1370182E+00
          2   -1    0    0  502    0  0.00000000000E+00  0.00000000000E+00  0.17479321685E+04  0.17479321685E+04  0.00000000000E+00 0. -1.
          1   -1    0    0  501    0 -0.00000000000E+00 -0.00000000000E+00 -0.75739616462E+02  0.75739616462E+02  0.00000000000E+00 0. -1.
         25    2    1    2    0    0 -0.87195556498E+02  0.44042188815E+02  0.11265437964E+03  0.19457310938E+03  0.12499962470E+03 0.  0.
          2    1    1    2  501    0  0.32787012457E+02 -0.66995667842E+02  0.64263034221E+01  0.74864578214E+02  0.00000000000E+00 0. -1.
          1    1    1    2  502    0  0.54408544041E+02  0.22953479027E+02  0.15531118690E+04  0.15542340974E+04  0.00000000000E+00 0. -1.
         22    1    3    3    0    0 -0.51941125289E+02  0.68927224016E+02  0.14719816166E+02  0.87552930818E+02  0.00000000000E+00 0.  1.
         22    1    3    3    0    0 -0.35254431209E+02 -0.24885035200E+02  0.97934563478E+02  0.10702017857E+03  0.00000000000E+00 0.  1.
</event>
<event>
 7    1  0.5537228E-006  0.9231320E+02  0.7818608E-02  0.1340485E+00
          2   -1    0    0  502    0  0.00000000000E+00  0.00000000000E+00  0.24809657921E+03  0.24809657921E+03  0.00000000000E+00 0. -1.
          1   -1    0    0  501    0 -0.00000000000E+00 -0.00000000000E+00 -0.24247947355E+04  0.24247947355E+04  0.00000000000E+00 0. -1.
         25    2    1    2    0    0 -0.54125001441E+02 -0.91502752107E+02 -0.44170837521E+03  0.47120658005E+03  0.12500833142E+03 0.  0.
          2    1    1    2  501    0 -0.86118472102E+01  0.92266465509E+02 -0.19630069640E+04  0.19651930199E+04  0.00000000000E+00 0. -1.
          1    1    1    2  502    0  0.62736848652E+02 -0.76371340149E+00  0.22801718295E+03  0.23649171478E+03  0.00000000000E+00 0. -1.
         22    1    3    3    0    0 -0.92424961012E+02 -0.48657176028E+02 -0.31993907127E+03  0.33655742976E+03  0.00000000000E+00 0. -1.
         22    1    3    3    0    0  0.38299959571E+02 -0.42845576079E+02 -0.12176930394E+03  0.13464915029E+03  0.00000000000E+00 0. -1.
</event>
<event>
 7    1  0.5537228E-006  0.4782477E+02  0.7818608E-02  0.1544580E+00
          2   -1    0    0  502    0  0.00000000000E+00  0.00000000000E+00  0.94482563701E+03  0.94482563701E+03  0.00000000000E+00 0. -1.
          1   -1    0    0  501    0 -0.00000000000E+00 -0.00000000000E+00 -0.39759177343E+02  0.39759177343E+02  0.00000000000E+00 0. -1.
         25    2    1    2    0    0  0.19156771772E+02 -0.49779137582E+02  0.23713455936E+03  0.27331730046E+03  0.12499841216E+03 0.  0.
          2    1    1    2  501    0 -0.36973791894E+02  0.30450765625E+02  0.53865664040E+01  0.48200887043E+02  0.00000000000E+00 0. -1.
          1    1    1    2  502    0  0.17817020121E+02  0.19328371956E+02  0.66254533390E+03  0.66306662685E+03  0.00000000000E+00 0. -1.
         22    1    3    3    0    0 -0.20177579054E+02  0.32134885241E+02  0.34679411284E+02  0.51404738234E+02  0.00000000000E+00 0. -1.
         22    1    3    3    0    0  0.39334350826E+02 -0.81914022823E+02  0.20245514808E+03  0.22191256223E+03  0.00000000000E+00 0. -1.
</event>
<event>
 7    1  0.5537228E-006  0.8804467E+02  0.7818608E-02  0.1330568E+00
          2   -1    0    0  502    0  0.00000000000E+00  0.00000000000E+00  0.17659726247E+04  0.17659726247E+04  0.00000000000E+00 0. -1.
          1   -1    0    0  501    0 -0.00000000000E+00 -0.00000000000E+00 -0.47394188744E+02  0.47394188744E+02  0.00000000000E+00 0. -1.
         25    2    1    2    0    0  0.16233908032E+01  0.23265534834E+02  0.58244388520E+02  0.13986578199E+03  0.12500443059E+03 0.  0.
          2    1    1    2  501    0  0.51415819450E+02  0.50011776590E+02  0.24511777711E+03  0.25539672853E+03  0.00000000000E+00 0. -1.
          1    1    1    2  502    0 -0.53039210253E+02 -0.73277311424E+02  0.14152162703E+04  0.14181043029E+04  0.00000000000E+00 0. -1.
         22    1    3    3    0    0  0.17266837238E+02  0.43761074304E+02  0.88431465890E+02  0.10016635888E+03  0.00000000000E+00 0.  1.
         22    1    3    3    0    0 -0.15643446435E+02 -0.20495539470E+02 -0.30187077370E+02  0.39699423103E+02  0.00000000000E+00 0.  1.
</event>
<event>
 7    1  0.5537228E-006  0.1575729E+03  0.7818608E-02  0.1332095E+00
          2   -1    0    0  502    0  0.00000000000E+00  0.00000000000E+00  0.10472534401E+04  0.10472534401E+04  0.00000000000E+00 0. -1.
          1   -1    0    0  501    0 -0.00000000000E+00 -0.00000000000E+00 -0.19718548521E+04  0.19718548521E+04  0.00000000000E+00 0. -1.
         25    2    1    2    0    0  0.10109370582E+03 -0.64989588792E+02  0.70948665649E+03  0.73036651722E+03  0.12498139752E+03 0.  0.
          2    1    1    2  501    0 -0.13980918854E+03  0.73042695163E+02 -0.19570355362E+04  0.19633822691E+04  0.00000000000E+00 0. -1.
          1    1    1    2  502    0  0.38715482727E+02 -0.80531063709E+01  0.32294746780E+03  0.32535950591E+03  0.00000000000E+00 0. -1.
         22    1    3    3    0    0  0.12103189189E+03 -0.43471043890E+02  0.66329436512E+03  0.67564625753E+03  0.00000000000E+00 0.  1.
         22    1    3    3    0    0 -0.19938186070E+02 -0.21518544902E+02  0.46192291368E+02  0.54720259688E+02  0.00000000000E+00 0.  1.
</event>
<event>
 7    1  0.5537228E-006  0.4316393E+02  0.7818608E-02  0.1561194E+00
          2   -1    0    0  502    0  0.00000000000E+00  0.00000000000E+00  0.54063527018E+03  0.54063527018E+03  0.00000000000E+00 0. -1.
          1   -1    0    0  501    0 -0.00000000000E+00 -0.00000000000E+00 -0.81854780125E+03  0.81854780125E+03  0.00000000000E+00 0. -1.
         25    2    1    2    0    0 -0.17703311456E+02 -0.10459480992E+02 -0.22757147037E+03  0.26046211512E+03  0.12501572424E+03 0.  0.
          2    1    1    2  501    0  0.43743360087E+02  0.76739584435E+01 -0.57334463261E+03  0.57506211746E+03  0.00000000000E+00 0. -1.
          1    1    1    2  502    0 -0.26040048631E+02  0.27855225483E+01  0.52300357192E+03  0.52365883885E+03  0.00000000000E+00 0. -1.
         22    1    3    3    0    0  0.25016040452E+02 -0.40927654862E+02 -0.31248628163E+02  0.57248161320E+02  0.00000000000E+00 0. -1.
         22    1    3    3    0    0 -0.42719351907E+02  0.30468173870E+02 -0.19632284221E+03  0.20321395380E+03  0.00000000000E+00 0. -1.
</event>
<event>
 7    1  0.5537228E-006  0.1316893E+03  0.7818608E-02  0.1268715E+00
          2   -1    0    0  502    0  0.00000000000E+00  0.00000000000E+00  0.29608333448E+04  0.29608333448E+04  0.00000000000E+00 0. -1.
          1   -1    0    0  501    0 -0.00000000000E+00 -0.00000000000E+00 -0.15230050032E+03  0.15230050032E+03  0.00000000000E+00 0. -1.
         25    2    1    2    0    0  0.16761256450E+03  0.13184342391E+03  0.14351883702E+04  0.14563197791E+04  0.12499992380E+03 0.  0.
          2    1    1    2  501    0 -0.10965775587E+03 -0.69848282057E+02 -0.11044950278E+03  0.17059513062E+03  0.00000000000E+00 0. -1.
          1    1    1    2  502    0 -0.57954808626E+02 -0.61995141855E+02  0.14837939771E+04  0.14862189354E+04  0.00000000000E+00 0. -1.
         22    1    3    3    0    0  0.12492972162E+03  0.98129160834E+02  0.64551651916E+03  0.66477691300E+03  0.00000000000E+00 0.  1.
         22    1    3    3    0    0  0.42682842876E+02  0.33714263078E+02  0.78967185104E+03  0.79154286614E+03  0.00000000000E+00 0.  1.
</event>
<event>
 7    1  0.5537228E-006  0.8569459E+02  0.7818608E-02  0.1418317E+00
          2   -1    0    0  502    0  0.00000000000E+00  0.00000000000E+00  0.64430645507E+03  0.64430645507E+03  0.00000000000E+00 0. -1.
          1   -1    0    0  501    0 -0.00000000000E+00 -0.00000000000E+00 -0.33161362561E+03  0.33161362561E+03  0.00000000000E+00 0. -1.
         25    2    1    2    0    0 -0.92376575058E+02 -0.41956873006E+01  0.40614327582E+03  0.43488847617E+03  0.12499836319E+03 0.  0.
          2    1    1    2  501    0  0.77435951038E+02  0.36715227871E+02 -0.30995753770E+03  0.32158670626E+03  0.00000000000E+00 0. -1.
          1    1    1    2  502    0  0.14940624020E+02 -0.32519540570E+02  0.21650709135E+03  0.21944489825E+03  0.00000000000E+00 0. -1.
         22    1    3    3    0    0 -0.92692462421E+02  0.35737142392E+02  0.18324579810E+03  0.20844197864E+03  0.00000000000E+00 0.  1.
         22    1    3    3    0    0  0.31588736223E+00 -0.39932829693E+02  0.22289747771E+03  0.22644649753E+03  0.00000000000E+00 0.  1.
</event>
<event>
 7    1  0.5537228E-006  0.1163830E+03  0.7818608E-02  0.1423484E+00
          2   -1    0    0  502    0  0.00000000000E+00  0.00000000000E+00  0.22350741956E+04  0.22350741956E+04  0.00000000000E+00 0. -1.
          1   -1    0    0  501    0 -0.00000000000E+00 -0.00000000000E+00 -0.82919184508E+03  0.82919184508E+03  0.00000000000E+00 0. -1.
         25    2    1    2    0    0 -0.66529040483E+02 -0.69929988561E+02  0.37045624367E+03  0.40271581902E+03  0.12500354349E+03 0.  0.
          2    1    1    2  501    0  0.91775004099E+02  0.71937183896E+02 -0.80879368104E+03  0.81715655067E+03  0.00000000000E+00 0. -1.
          1    1    1    2  502    0 -0.25245963616E+02 -0.20071953358E+01  0.18442197879E+04  0.18443936710E+04  0.00000000000E+00 0. -1.
         22    1    3    3    0    0 -0.76850749606E+02 -0.99277185521E+02  0.31555901504E+03  0.33961667988E+03  0.00000000000E+00 0. -1.
         22    1    3    3    0    0  0.10321709123E+02  0.29347196960E+02  0.54897228634E+02  0.63099139141E+02  0.00000000000E+00 0. -1.
</event>
<event>
 7    1  0.5537228E-006  0.3851541E+02  0.7818608E-02  0.1534021E+00
          2   -1    0    0  502    0  0.00000000000E+00  0.00000000000E+00  0.27029990527E+04  0.27029990527E+04  0.00000000000E+00 0. -1.
          1   -1    0    0  501    0 -0.00000000000E+00 -0.00000000000E+00 -0.44023856660E+02  0.44023856660E+02  0.00000000000E+00 0. -1.
         25    2    1    2    0    0 -0.35926892631E+02  0.30366261759E+02  0.89285333088E+02  0.16065551720E+03  0.12500189213E+03 0.  0.
          2    1    1    2  501    0  0.34008205572E+02  0.81273071414E+01  0.29115789842E+02  0.45500993239E+02  0.00000000000E+00 0. -1.
          1    1    1    2  502    0  0.19186870590E+01 -0.38493568901E+02  0.25405740731E+04  0.25408663989E+04  0.00000000000E+00 0. -1.
         22    1    3    3    0    0 -0.24293569866E+02 -0.47547424530E+02  0.47589269683E+02  0.71523937987E+02  0.00000000000E+00 0.  1.
         22    1    3    3    0    0 -0.11633322765E+02  0.77913686289E+02  0.41696063405E+02  0.89131579214E+02  0.00000000000E+00 0.  1.
</event>
<event>
 7    1  0.5537228E-006  0.8971061E+02  0.7818608E-02  0.1311779E+00
          2   -1    0    0  502    0  0.00000000000E+00  0.00000000000E+00  0.12383818785E+04  0.12383818785E+04  0.00000000000E+00 0. -1.
          1   -1    0    0  501    0 -0.00000000000E+00 -0.00000000000E+00 -0.13477512586E+03  0.13477512586E+03  0.00000000000E+00 0. -1.
         25    2    1    2    0    0 -0.56337018588E+02 -0.19719558562E+02  0.12731760640E+03  0.18814194022E+03  0.12499958448E+03 0.  0.
          2    1    1    2  501    0  0.21959986087E+02  0.95525191652E+02 -0.79343526585E+02  0.12610590169E+03  0.00000000000E+00 0. -1.
          1    1    1    2  502    0  0.34377032501E+02 -0.75805633090E+02  0.10556326728E+04  0.10589091625E+04  0.00000000000E+00 0. -1.
         22    1    3    3    0    0  0.38670426432E+01  0.46476804234E+02  0.27721039165E+02  0.54254063101E+02  0.00000000000E+00 0.  1.
         22    1    3    3    0    0 -0.60204061231E+02 -0.66196362796E+02  0.99596567230E+02  0.13388787712E+03  0.00000000000E+00 0.  1.
</event>
<event>
 7    1  0.5537228E-006  0.8269874E+02  0.7818608E-02  0.1330782E+00
          2   -1    0    0  502    0  0.00000000000E+00  0.00000000000E+00  0.10763698401E+04  0.10763698401E+04  0.00000000000E+00 0. -1.
          1   -1    0    0  501    0 -0.00000000000E+00 -0.00000000000E+00 -0.18283615404E+03  0.18283615404E+03  0.00000000000E+00 0. -1.
         25    2    1    2    0    0  0.58194850616E+02 -0.55206043223E+01  0.23403678590E+03  0.27169058981E+03  0.12500176690E+03 0.  0.
          2    1    1    2  501    0 -0.37547818082E+01  0.76127248830E+02 -0.15258035624E+03  0.17055855743E+03  0.00000000000E+00 0. -1.
          1    1    1    2  502    0 -0.54440068808E+02 -0.70606644508E+02  0.81207725645E+03  0.81695684695E+03  0.00000000000E+00 0. -1.
         22    1    3    3    0    0 -0.10538785576E+02  0.46692668419E+02  0.11576388873E+03  0.12526990548E+03  0.00000000000E+00 0. -1.
         22    1    3    3    0    0  0.68733636192E+02 -0.52213272741E+02  0.11827289717E+03  0.14642068433E+03  0.00000000000E+00 0. -1.
</event>
<event>
 7    1  0.5537228E-006  0.5203630E+02  0.7818608E-02  0.1478667E+00
          2   -1    0    0  502    0  0.00000000000E+00  0.00000000000E+00  0.34960334431E+03  0.34960334431E+03  0.00000000000E+00 0. -1.
          1   -1    0    0  501    0 -0.00000000000E+00 -0.00000000000E+00 -0.35935153918E+03  0.35935153918E+03  0.00000000000E+00 0. -1.
         25    2    1    2    0    0  0.14683015058E+02  0.79267624551E+02 -0.42671418442E+02  0.15474095987E+03  0.12499986991E+03 0.  0.
          2    1    1    2  501    0  0.12588656000E+02 -0.35576993055E+02 -0.25699772771E+03  0.25975378485E+03  0.00000000000E+00 0. -1.
          1    1    1    2  502    0 -0.27271671058E+02 -0.43690631496E+02  0.28992095129E+03  0.29446013876E+03  0.00000000000E+00 0. -1.
         22    1    3    3    0    0  0.92854558732E+01  0.88717810523E+02  0.19762729261E+02  0.91365393134E+02  0.00000000000E+00 0. -1.
         22    1    3    3    0    0  0.53975591848E+01 -0.94501859725E+01 -0.62434147702E+02  0.63375566738E+02  0.00000000000E+00 0. -1.
</event>
<event>
 7    1  0.5537228E-006  0.1235838E+03  0.7818608E-02  0.1412776E+00
          2   -1    0    0  502    0  0.00000000000E+00  0.00000000000E+00  0.31237628261E+04  0.31237628261E+04  0.00000000000E+00 0. -1.
          1   -1    0    0  501    0 -0.00000000000E+00 -0.00000000000E+00 -0.13341363071E+02  0.13341363071E+02  0.00000000000E+00 0. -1.
         25    2    1    2    0    0  0.46542718776E+02  0.11700911332E+03  0.10770391819E+04  0.10915568008E+04  0.12500197112E+03 0.  0.
          2    1    1    2  501    0 -0.25471501753E+02  0.47078272314E+01  0.36007694189E+02  0.44356680214E+02  0.00000000000E+00 0. -1.
          1    1    1    2  502    0 -0.21071217022E+02 -0.12171694055E+03  0.19973745869E+04  0.20011907081E+04  0.00000000000E+00 0. -1.
         22    1    3    3    0    0 -0.31623821784E+02 -0.43890549942E+01  0.15198875104E+03  0.15530586064E+03  0.00000000000E+00 0. -1.
         22    1    3    3    0    0  0.78166540560E+02  0.12139816831E+03  0.92505043088E+03  0.93625094019E+03  0.00000000000E+00 0. -1.
</event>
<event>
 7    1  0.5537228E-006  0.4614291E+02  0.7818608E-02  0.1514920E+00
          2   -1    0    0  502    0  0.00000000000E+00  0.00000000000E+00  0.14393436441E+04  0.14393436441E+04  0.00000000000E+00 0. -1.
          1   -1    0    0  501    0 -0.00000000000E+00 -0.00000000000E+00 -0.22207296534E+02  0.22207296534E+02  0.00000000000E+00 0. -1.
         25    2    1    2    0    0  0.47526865085E+01  0.24622603153E+02  0.59398881965E+03  0.60751726066E+03  0.12500257403E+03 0.  0.
          2    1    1    2  501    0  0.23742250190E+02 -0.41536375990E+02  0.22795939225E+02  0.52996413271E+02  0.00000000000E+00 0. -1.
          1    1    1    2  502    0 -0.28494936698E+02  0.16913772837E+02  0.80035158865E+03  0.80103726666E+03  0.00000000000E+00 0. -1.
         22    1    3    3    0    0  0.46793404707E+02  0.56591539980E+02  0.30274035807E+03  0.31151877877E+03  0.00000000000E+00 0. -1.
         22    1    3    3    0    0 -0.42040718198E+02 -0.31968936828E+02  0.29124846158E+03  0.29599848189E+03  0.00000000000E+00 0. -1.
</event>
<event>
 7    1  0.5537228E-006  0.3410537E+02  0.7818608E-02  0.1574764E+00
          2   -1    0    0  502    0  0.00000000000E+00  0.00000000000E+00  0.64040547443E+03  0.64040547443E+03  0.00000000000E+00 0. -1.
          1   -1    0    0  501    0 -0.00000000000E+00 -0.00000000000E+00 -0.16159971816E+02  0.16159971816E+02  0.00000000000E+00 0. -1.
         25    2    1    2    0    0 -0.68042327519E+01 -0.48559362842E+01  0.36260024136E+03  0.38363237790E+03  0.12499995455E+03 0.  0.
          2    1    1    2  501    0 -0.18703954015E+02 -0.24015843325E+02  0.56273082781E+02  0.63978578228E+02  0.00000000000E+00 0. -1.
          1    1    1    2  502    0  0.25508186767E+02  0.28871779609E+02  0.20537217847E+03  0.20895449012E+03  0.00000000000E+00 0. -1.
         22    1    3    3    0    0 -0.17866318071E+02  0.70979166941E+00 -0.27340865346E+01  0.18088238024E+02  0.00000000000E+00 0.  1.
         22    1    3    3    0    0  0.11062085319E+02 -0.55657279536E+01  0.36533432789E+03  0.36554413987E+03  0.00000000000E+00 0.  1.
</event>
<event>
 7    1  0.5537228E-006  0.8542730E+02  0.7818608E-02  0.1361695E+00
          2   -1    0    0  502    0  0.00000000000E+00  0.00000000000E+00  0.29533108996E+03  0.29533108996E+03  0.00000000000E+00 0. -1.
          1   -1    0    0  501    0 -0.00000000000E+00 -0.00000000000E+00 -0.21997724295E+04  0.21997724295E+04  0.00000000000E+00 0. -1.
         25    2    1    2    0    0  0.45235855539E+01  0.55954691207E+02  0.97501463938E+02  0.16819366243E+03  0.12502472682E+03 0.  0.
          2    1    1    2  501    0 -0.42830751291E+02  0.36990162410E+02 -0.21484684235E+04  0.21492136497E+04  0.00000000000E+00 0. -1.
          1    1    1    2  502    0  0.38307165737E+02 -0.92944853617E+02  0.14652562003E+03  0.17769620729E+03  0.00000000000E+00 0. -1.
         22    1    3    3    0    0  0.34975218513E+02 -0.24935557842E+02  0.78547623557E+01  0.43666294170E+02  0.00000000000E+00 0. -1.
         22    1    3    3    0    0 -0.30451632959E+02  0.80890249049E+02  0.89646701583E+02  0.12452736826E+03  0.00000000000E+00 0. -1.
</event>
<event>
 7    1  0.5537228E-006  0.7412169E+02  0.7818608E-02  0.1404636E+00
          2   -1    0    0  502    0  0.00000000000E+00  0.00000000000E+00  0.11259663872E+03  0.11259663872E+03  0.00000000000E+00 0. -1.
          1   -1    0    0  501    0 -0.00000000000E+00 -0.00000000000E+00 -0.83256950547E+03  0.83256950547E+03  0.00000000000E+00 0. -1.
         25    2    1    2    0    0  0.21526808294E+02 -0.37695510286E+02 -0.11576147121E+03  0.17581461484E+03  0.12500282238E+03 0.  0.
          2    1    1    2  501    0 -0.20734660884E+02 -0.41090868185E+02 -0.66701022591E+03  0.66859631100E+03  0.00000000000E+00 0. -1.
          1    1    1    2  502    0 -0.79214740987E+00  0.78786378471E+02  0.62798830366E+02  0.10075521835E+03  0.00000000000E+00 0. -1.
         22    1    3    3    0    0  0.92701579144E+01 -0.68548474766E+02 -0.16450500690E+02  0.71101675040E+02  0.00000000000E+00 0. -1.
         22    1    3    3    0    0  0.12256650380E+02  0.30852964480E+02 -0.99310970520E+02  0.10471293980E+03  0.00000000000E+00 0. -1.
</event>
<event>
 7    1  0.5537228E-006  0.6249948E+02  0.7818608E-02  0.1414741E+00
          2   -1    0    0  502    0  0.00000000000E+00  0.00000000000E+00  0.79117051795E+03  0.79117051795E+03  0.00000000000E+00 0. -1.
          1   -1    0    0  501    0 -0.00000000000E+00 -0.00000000000E+00 -0.24284192176E+03  0.24284192176E+03  0.00000000000E+00 0. -1.
         25    2    1    2    0    0  0.61773595539E+02  0.18975769375E+00 -0.45208893393E+02  0.14657849634E+03  0.12500159373E+03 0.  0.
          2    1    1    2  501    0 -0.19715153134E+02  0.46431823522E+02 -0.14124039413E+03  0.14997816652E+03  0.00000000000E+00 0. -1.
          1    1    1    2  502    0 -0.42058442405E+02 -0.46621581216E+02  0.73477788372E+03  0.73745577685E+03  0.00000000000E+00 0. -1.
         22    1    3    3    0    0  0.19693624001E+02 -0.20854130266E+02  0.40013096768E+02  0.49231915344E+02  0.00000000000E+00 0.  1.
         22    1    3    3    0    0  0.42079971538E+02  0.21043887960E+02 -0.85221990161E+02  0.97346580998E+02  0.00000000000E+00 0.  1.
</event>
<event>
 7    1  0.5537228E-006  0.7313243E+02  0.7818608E-02  0.1445844E+00
          2   -1    0    0  502    0  0.00000000000E+00  0.00000000000E+00  0.54385334249E+03  0.54385334249E+03  0.00000000000E+00 0. -1.
          1   -1    0    0  501    0 -0.00000000000E+00 -0.00000000000E+00 -0.11713787452E+03  0.11713787452E+03  0.00000000000E+00 0. -1.
         25    2    1    2    0    0  0.53647905959E+02 -0.80279938897E+02  0.17956816386E+03  0.23914725251E+03  0.12499486591E+03 0.  0.
          2    1    1    2  501    0 -0.35512869790E+00  0.34055519666E+02 -0.80120665755E+02  0.87058748079E+02  0.00000000000E+00 0. -1.
          1    1    1    2  502    0 -0.53292777261E+02  0.46224419231E+02  0.32726796986E+03  0.33478521643E+03  0.00000000000E+00 0. -1.
         22    1    3    3    0    0  0.29805116681E+02  0.31360746061E+02  0.40937033811E+02  0.59562421972E+02  0.00000000000E+00 0.  1.
         22    1    3    3    0    0  0.23842789279E+02 -0.11164068496E+03  0.13863113005E+03  0.17958483054E+03  0.00000000000E+00 0.  1.
</event>
<event>
 7    1  0.5537228E-006  0.2494974E+03  0.7818608E-02  0.1264756E+00
          2   -1    0    0  502    0  0.00000000000E+00  0.00000000000E+00  0.12478469674E+04  0.12478469674E+04  0.00000000000E+00 0. -1.
          1   -1    0    0  501    0 -0.00000000000E+00 -0.00000000000E+00 -0.72643013820E+03  0.72643013820E+03  0.00000000000E+00 0. -1.
         25    2    1    2    0    0 -0.94790828209E+02 -0.19837257276E+03  0.13002164506E+03  0.28437289054E+03  0.12500133582E+03 0.  0.
          2    1    1    2  501    0  0.14034606171E+02 -0.44385018622E+02 -0.63266241080E+03  0.63437270282E+03  0.00000000000E+00 0. -1.
          1    1    1    2  502    0  0.80756222038E+02  0.24275759138E+03  0.10240575949E+04  0.10555315122E+04  0.00000000000E+00 0. -1.
         22    1    3    3    0    0 -0.40404752742E+02 -0.18588768957E+03  0.70727631999E+02  0.20295116434E+03  0.00000000000E+00 0. -1.
         22    1    3    3    0    0 -0.54386075466E+02 -0.12484883187E+02  0.59294013061E+02  0.81421726202E+02  0.00000000000E+00 0. -1.
</event>
<event>
 7    1  0.5537228E-006  0.1507436E+03  0.7818608E-02  0.1217359E+00
          2   -1    0    0  502    0  0.00000000000E+00  0.00000000000E+00  0.32062281049E+03  0.32062281049E+03  0.00000000000E+00 0. -1.
          1   -1    0    0  501    0 -0.00000000000E+00 -0.00000000000E+00 -0.51123247917E+03  0.51123247917E+03  0.00000000000E+00 0. -1.
         25    2    1    2    0    0 -0.21330789864E+02 -0.25809965672E+03 -0.42344684885E+02  0.29066609148E+03  0.12499307583E+03 0.  0.
          2    1    1    2  501    0 -0.10970471993E+02  0.13776498950E+03 -0.30860137713E+03  0.33813363268E+03  0.00000000000E+00 0. -1.
          1    1    1    2  502    0  0.32301261857E+02  0.12033466721E+03  0.16033639333E+03  0.20305556549E+03  0.00000000000E+00 0. -1.
         22    1    3    3    0    0 -0.32109761725E+02 -0.25853864889E+03 -0.62399755576E+02  0.26789363424E+03  0.00000000000E+00 0. -1.
         22    1    3    3    0    0  0.10778971861E+02  0.43899217578E+00  0.20055070691E+02  0.22772457244E+02  0.00000000000E+00 0. -1.
</event>
<event>
 7    1  0.5537228E-006  0.4965072E+02  0.7818608E-02  0.1457376E+00
          2   -1    0    0  502    0  0.00000000000E+00  0.00000000000E+00  0.14008155783E+04  0.14008155783E+04  0.00000000000E+00 0. -1.
          1   -1    0    0  501    0 -0.00000000000E+00 -0.00000000000E+00 -0.33288508599E+02  0.33288508599E+02  0.00000000000E+00 0. -1.
         25    2    1    2    0    0  0.93155965208E+01 -0.41299432865E+01  0.61581757676E+03  0.62845859100E+03  0.12500030396E+03 0.  0.
          2    1    1    2  501    0  0.38391662594E+02 -0.25498010838E+02 -0.54477318886E+01  0.46408470091E+02  0.00000000000E+00 0. -1.
          1    1    1    2  502    0 -0.47707259115E+02  0.29627954125E+02  0.75715722485E+03  0.75923702583E+03  0.00000000000E+00 0. -1.
         22    1    3    3    0    0  0.39918241530E+02 -0.50854719607E+02  0.24180849865E+03  0.25030185483E+03  0.00000000000E+00 0. -1.
         22    1    3    3    0    0 -0.30602645009E+02  0.46724776321E+02  0.37400907811E+03  0.37815673617E+03  0.00000000000E+00 0. -1.
</event>
<event>
 7    1  0.5537228E-006  0.1733793E+03  0.7818608E-02  0.1331784E+00
          2   -1    0    0  502    0  0.00000000000E+00  0.00000000000E+00  0.44265477502E+03  0.44265477502E+03  0.00000000000E+00 0. -1.
          1   -1    0    0  501    0 -0.00000000000E+00 -0.00000000000E+00 -0.80240406686E+03  0.80240406686E+03  0.00000000000E+00 0. -1.
         25    2    1    2    0    0 -0.17431838537E+03 -0.13638711840E+02 -0.40959448702E+03  0.46256473106E+03  0.12500229070E+03 0.  0.
          2    1    1    2  501    0  0.16685033593E+03  0.48893623365E+02 -0.34482683711E+03  0.38618022813E+03  0.00000000000E+00 0. -1.
          1    1    1    2  502    0  0.74680494379E+01 -0.35254911525E+02  0.39467203229E+03  0.39631388270E+03  0.00000000000E+00 0. -1.
         22    1    3    3    0    0 -0.15419732664E+03 -0.56381154446E+02 -0.27944677409E+03  0.32410823759E+03  0.00000000000E+00 0.  1.
         22    1    3    3    0    0 -0.20121058735E+02  0.42742442606E+02 -0.13014771293E+03  0.13845649347E+03  0.00000000000E+00 0.  1.
</event>
<event>
 7    1  0.5537228E-006  0.1057190E+03  0.7818608E-02  0.1271364E+00
          2   -1    0    0  502    0  0.00000000000E+00  0.00000000000E+00  0.19079847089E+04  0.19079847089E+04  0.00000000000E+00 0. -1.
          1   -1    0    0  501    0 -0.00000000000E+00 -0.00000000000E+00 -0.29399483107E+03  0.29399483107E+03  0.00000000000E+00 0. -1.
         25    2    1    2    0    0 -0.62786451379E+02  0.25262527265E+02  0.78145231466E+02  0.16221324892E+03  0.12500450857E+03 0.  0.
          2    1    1    2  501    0 -0.65655750303E+01 -0.10551495260E+03 -0.23921811201E+03  0.26153741054E+03  0.00000000000E+00 0. -1.
          1    1    1    2  502    0  0.69352026410E+02  0.80252425335E+02  0.17750627584E+04  0.17782288805E+04  0.00000000000E+00 0. -1.
         22    1    3    3    0    0 -0.74330714638E+02  0.27203694105E+02  0.10582982330E+03  0.13215539191E+03  0.00000000000E+00 0.  1.
         22    1    3    3    0    0  0.11544263259E+02 -0.19411668396E+01 -0.27684591834E+02  0.30057857008E+02  0.00000000000E+00 0.  1.
</event>
<event>
 7    1  0.5537228E-006  0.1068490E+03  0.7818608E-02  0.1318880E+00
          2   -1    0    0  502    0  0.00000000000E+00  0.00000000000E+00  0.45663880430E+03  0.45663880430E+03  0.00000000000E+00 0. -1.
          1   -1    0    0  501    0 -0.00000000000E+00 -0.00000000000E+00 -0.85405645569E+03  0.85405645569E+03  0.00000000000E+00 0. -1.
         25    2    1    2    0    0 -0.14952338005E+03  0.82634315892E+01  0.49053149789E+02  0.20114091748E+03  0.12500372674E+03 0.  0.
          2    1    1    2  501    0  0.95615140620E+02 -0.45571268829E+02 -0.77111562906E+03  0.77835615822E+03  0.00000000000E+00 0. -1.
          1    1    1    2  502    0  0.53908239428E+02  0.37307837240E+02  0.32464482789E+03  0.33119818428E+03  0.00000000000E+00 0. -1.
         22    1    3    3    0    0 -0.38074369985E+02 -0.54987023744E+02  0.18739393499E+02  0.69457867076E+02  0.00000000000E+00 0. -1.
         22    1    3    3    0    0 -0.11144901006E+03  0.63250455333E+02  0.30313756290E+02  0.13168305041E+03  0.00000000000E+00 0. -1.
</event>
<event>
 7    1  0.5537228E-006  0.1462831E+03  0.7818608E-02  0.1389199E+00
          2   -1    0    0  502    0  0.00000000000E+00  0.00000000000E+00  0.38022964338E+03  0.38022964338E+03  0.00000000000E+00 0. -1.
          1   -1    0    0  501    0 -0.00000000000E+00 -0.00000000000E+00 -0.16165827776E+04  0.16165827776E+04  0.00000000000E+00 0. -1.
         25    2    1    2    0    0  0.10772224908E+03 -0.58845784256E+02  0.28646339811E+02  0.17751575850E+03  0.12499728981E+03 0.  0.
          2    1    1    2  501    0 -0.13403159729E+03  0.60602841129E+02 -0.15380037821E+04  0.15450219439E+04  0.00000000000E+00 0. -1.
          1    1    1    2  502    0  0.26309348211E+02 -0.17570568721E+01  0.27300430804E+03  0.27427471860E+03  0.00000000000E+00 0. -1.
         22    1    3    3    0    0 -0.89414550594E+01 -0.13813371463E+02 -0.33907870456E+02  0.37689554635E+02  0.00000000000E+00 0. -1.
         22    1    3    3    0    0  0.11666370413E+03 -0.45032412793E+02  0.62554210267E+02  0.13982620386E+03  0.00000000000E+00 0. -1.
</event>
<event>
 7    1  0.5537228E-006  0.5100758E+02  0.7818608E-02  0.1509242E+00
          2   -1    0    0  502    0  0.00000000000E+00  0.00000000000E+00  0.47107143447E+03  0.47107143447E+03  0.00000000000E+00 0. -1.
          1   -1    0    0  501    0 -0.00000000000E+00 -0.00000000000E+00 -0.44876218499E+03  0.44876218499E+03  0.00000000000E+00 0. -1.
         25    2    1    2    0    0 -0.87536577283E+01  0.20918731332E+02 -0.80974825878E+02  0.15060848448E+03  0.12494708211E+03 0.  0.
          2    1    1    2  501    0  0.31153094557E+02 -0.42564358327E+02 -0.33031936386E+03  0.33450429301E+03  0.00000000000E+00 0. -1.
          1    1    1    2  502    0 -0.22399436829E+02  0.21645626995E+02  0.43360343922E+03  0.43472084197E+03  0.00000000000E+00 0. -1.
         22    1    3    3    0    0  0.27261126197E+02  0.64325419645E+02 -0.36779494572E+02  0.78953529592E+02  0.00000000000E+00 0. -1.
         22    1    3    3    0    0 -0.36014783926E+02 -0.43406688313E+02 -0.44195331306E+02  0.71654954893E+02  0.00000000000E+00 0. -1.
</event>
<event>
 7    1  0.5537228E-006  0.1092022E+03  0.7818608E-02  0.1458248E+00
          2   -1    0    0  502    0  0.00000000000E+00  0.00000000000E+00  0.22064919502E+03  0.22064919502E+03  0.00000000000E+00 0. -1.
          1   -1    0    0  501    0 -0.00000000000E+00 -0.00000000000E+00 -0.10484251243E+04  0.10484251243E+04  0.00000000000E+00 0. -1.
         25    2    1    2    0    0 -0.45781639992E+02  0.10822640774E+03 -0.39303906393E+03  0.42885155839E+03  0.12500015789E+03 0.  0.
          2    1    1    2  501    0  0.20706542525E+02 -0.21880995063E+01 -0.62265289523E+03  0.62300094432E+03  0.00000000000E+00 0. -1.
          1    1    1    2  502    0  0.25075097467E+02 -0.10603830823E+03  0.18791602988E+03  0.21722181661E+03  0.00000000000E+00 0. -1.
         22    1    3    3    0    0  0.29892528889E+02 -0.96672971894E+01 -0.76290852492E+02  0.82506448792E+02  0.00000000000E+00 0.  1.
         22    1    3    3    0    0 -0.75674168881E+02  0.11789370493E+03 -0.31674821144E+03  0.34634510960E+03  0.00000000000E+00 0.  1.
</event>
<event>
 7    1  0.5537228E-006  0.7656424E+02  0.7818608E-02  0.1457315E+00
          2   -1    0    0  502    0  0.00000000000E+00  0.00000000000E+00  0.49664148996E+02  0.49664148996E+02  0.00000000000E+00 0. -1.
          1   -1    0    0  501    0 -0.00000000000E+00 -0.00000000000E+00 -0.19221922992E+04  0.19221922992E+04  0.00000000000E+00 0. -1.
         25    2    1    2    0    0 -0.78755821762E+02  0.21197120962E+02 -0.44492692574E+03  0.46929453371E+03  0.12500237084E+03 0.  0.
          2    1    1    2  501    0  0.61510855630E+02 -0.45623257422E+02 -0.14579489571E+04  0.14599589818E+04  0.00000000000E+00 0. -1.
          1    1    1    2  502    0  0.17244966132E+02  0.24426136460E+02  0.30347732637E+02  0.42602932710E+02  0.00000000000E+00 0. -1.
         22    1    3    3    0    0 -0.45527643813E+02  0.64665109070E+02 -0.15243012023E+03  0.17172444274E+03  0.00000000000E+00 0. -1.
         22    1    3    3    0    0 -0.33228177949E+02 -0.43467988107E+02 -0.29249680551E+03  0.29757009096E+03  0.00000000000E+00 0. -1.
</event>
<event>
 7    1  0.5537228E-006  0.7418651E+02  0.7818608E-02  0.1349944E+00
          2   -1    0    0  502    0  0.00000000000E+00  0.00000000000E+00  0.29544079331E+04  0.29544079331E+04  0.00000000000E+00 0. -1.
          1   -1    0    0  501    0 -0.00000000000E+00 -0.00000000000E+00 -0.25294312029E+02  0.25294312029E+02  0.00000000000E+00 0. -1.
         25    2    1    2    0    0  0.55877744906E+01 -0.73458311612E+01  0.78845025826E+03  0.79835176869E+03  0.12500620927E+03 0.  0.
          2    1    1    2  501    0 -0.60408034166E+02  0.53986439042E+02  0.63489590719E+02  0.10293004577E+03  0.00000000000E+00 0. -1.
          1    1    1    2  502    0  0.54820259675E+02 -0.46640607881E+02  0.20771737720E+04  0.20784204306E+04  0.00000000000E+00 0. -1.
         22    1    3    3    0    0 -0.33661211562E+02 -0.51982384146E+01  0.70793386965E+03  0.70875275142E+03  0.00000000000E+00 0. -1.
         22    1    3    3    0    0  0.39248986053E+02 -0.21475927467E+01  0.80516388615E+02  0.89599017273E+02  0.00000000000E+00 0. -1.
</event>
<event>
 7    1  0.5537228E-006  0.1008564E+03  0.7818608E-02  0.1363183E+00
          2   -1    0    0  502    0  0.00000000000E+00  0.00000000000E+00  0.11985332314E+04  0.11985332314E+04  0.00000000000E+00 0. -1.
          1   -1    0    0  501    0 -0.00000000000E+00 -0.00000000000E+00 -0.12409961645E+04  0.12409961645E+04  0.00000000000E+00 0. -1.
         25    2    1    2    0    0  0.38276031864E+02  0.13143265863E+03  0.88621907581E+03  0.90540007894E+03  0.12500181692E+03 0.  0.
          2    1    1    2  501    0 -0.22148153657E+01 -0.10075962986E+03 -0.12274767649E+04  0.12316073306E+04  0.00000000000E+00 0. -1.
          1    1    1    2  502    0 -0.36061216498E+02 -0.30673028762E+02  0.29879475596E+03  0.30252198634E+03  0.00000000000E+00 0. -1.
         22    1    3    3    0    0  0.71019203905E+02  0.27320552446E+02  0.34652920999E+03  0.35478533409E+03  0.00000000000E+00 0. -1.
         22    1    3    3    0    0 -0.32743172041E+02  0.10411210618E+03  0.53968986583E+03  0.55061474485E+03  0.00000000000E+00 0. -1.
</event>
<event>
 7    1  0.5537228E-006  0.1473305E+03  0.7818608E-02  0.1304827E+00
          2   -1    0    0  502    0  0.00000000000E+00  0.00000000000E+00  0.21474080151E+03  0.21474080151E+03  0.00000000000E+00 0. -1.
          1   -1    0    0  501    0 -0.00000000000E+00 -0.00000000000E+00 -0.17616599379E+04  0.17616599379E+04  0.00000000000E+00 0. -1.
         25    2    1    2    0    0  0.54233259468E+02  0.14387300095E+03 -0.12913230264E+03  0.23652227545E+03  0.12500779322E+03 0.  0.
          2    1    1    2  501    0  0.42957571771E+02 -0.32708498699E+02 -0.15444145638E+04  0.15453580633E+04  0.00000000000E+00 0. -1.
          1    1    1    2  502    0 -0.97190831239E+02 -0.11116450225E+03  0.12662773009E+03  0.19452040064E+03  0.00000000000E+00 0. -1.
         22    1    3    3    0    0  0.94489957377E+02  0.10506001128E+03 -0.10263427328E+03  0.17464178213E+03  0.00000000000E+00 0.  1.
         22    1    3    3    0    0 -0.40256697910E+02  0.38812989673E+02 -0.26498029358E+02  0.61880493323E+02  0.00000000000E+00 0.  1.
</event>
<event>
 7    1  0.5537228E-006  0.8002844E+02  0.7818608E-02  0.1497088E+00
          2   -1    0    0  502    0  0.00000000000E+00  0.00000000000E+00  0.46937492859E+03  0.46937492859E+03  0.00000000000E+00 0. -1.
          1   -1    0    0  501    0 -0.00000000000E+00 -0.00000000000E+00 -0.20492528654E+03  0.20492528654E+03  0.00000000000E+00 0. -1.
         25    2    1    2    0    0  0.30074811097E+02  0.79860704929E+02 -0.85806633323E+02  0.17397922574E+03  0.12499506476E+03 0.  0.
          2    1    1    2  501    0 -0.21571959858E+02 -0.36289890010E+00 -0.69627276542E+02  0.72893338422E+02  0.00000000000E+00 0. -1.
          1    1    1    2  502    0 -0.85028512384E+01 -0.79497806029E+02  0.41988355191E+03  0.42742765096E+03  0.00000000000E+00 0. -1.
         22    1    3    3    0    0  0.33876964204E+02  0.91455300870E+02 -0.10957116297E+02  0.98141628061E+02  0.00000000000E+00 0.  1.
         22    1    3    3    0    0 -0.38021531075E+01 -0.11594595941E+02 -0.74849517026E+02  0.75837597682E+02  0.00000000000E+00 0.  1.
</event>
<event>
 7    1  0.5537228E-006  0.6159678E+02  0.7818608E-02  0.1404233E+00
          2   -1    0    0  502    0  0.00000000000E+00  0.00000000000E+00  0.15521629506E+04  0.15521629506E+04  0.00000000000E+00 0. -1.
          1   -1    0    0  501    0 -0.00000000000E+00 -0.00000000000E+00 -0.59538429149E+03  0.59538429149E+03  0.00000000000E+00 0. -1.
         25    2    1    2    0    0 -0.27086736797E+02 -0.34608382333E+02  0.14428246271E+03  0.19589333128E+03  0.12500134703E+03 0.  0.
          2    1    1    2  501    0 -0.35005287972E+02  0.43145959568E+02 -0.56751095916E+03  0.57022419519E+03  0.00000000000E+00 0. -1.
          1    1    1    2  502    0  0.62092024769E+02 -0.85375772350E+01  0.13800071555E+04  0.13814297156E+04  0.00000000000E+00 0. -1.
         22    1    3    3    0    0 -0.44607153429E+02 -0.16110289490E+02 -0.19408641196E+01  0.47466899182E+02  0.00000000000E+00 0. -1.
         22    1    3    3    0    0  0.17520416632E+02 -0.18498092843E+02  0.14622332683E+03  0.14842643210E+03  0.00000000000E+00 0. -1.
</event>
<event>
 7    1  0.5537228E-006  0.6301957E+02  0.7818608E-02  0.1424545E+00
          2   -1    0    0  502    0  0.00000000000E+00  0.00000000000E+00  0.13322148825E+04  0.13322148825E+04  0.00000000000E+00 0. -1.
          1   -1    0    0  501    0 -0.00000000000E+00 -0.00000000000E+00 -0.15441866806E+04  0.15441866806E+04  0.00000000000E+00 0. -1.
         25    2    1    2    0    0 -0.34953908670E+02  0.51646599885E+02  0.86214665274E+01  0.13996103239E+03  0.12500245554E+03 0.  0.
          2    1    1    2  501    0 -0.10186787253E+02 -0.62352437321E+02 -0.14774137919E+04  0.14787640479E+04  0.00000000000E+00 0. -1.
          1    1    1    2  502    0  0.45140695924E+02  0.10705837436E+02  0.12568205272E+04  0.12576764827E+04  0.00000000000E+00 0. -1.
         22    1    3    3    0    0 -0.73962541161E+02  0.50516154279E+02 -0.19742105574E+02  0.91717446926E+02  0.00000000000E+00 0. -1.
         22    1    3    3    0    0  0.39008632490E+02  0.11304456063E+01  0.28363572102E+02  0.48243585464E+02  0.00000000000E+00 0. -1.
</event>
<event>
 7    1  0.5537228E-006  0.5456224E+02  0.7818608E-02  0.1458557E+00
          2   -1    0    0  502    0  0.00000000000E+00  0.00000000000E+00  0.25537520896E+02  0.25537520896E+02  0.00000000000E+00 0. -1.
          1   -1    0    0  501    0 -0.00000000000E+00 -0.00000000000E+00 -0.14768153106E+04  0.14768153106E+04  0.00000000000E+00 0. -1.
         25    2    1    2    0    0  0.89208165713E+01  0.52895391532E+02 -0.22269778172E+03  0.26095352348E+03  0.12499974408E+03 0.  0.
          2    1    1    2  501    0  0.31892632560E+02 -0.44950237697E+02 -0.11592311832E+04  0.11605406498E+04  0.00000000000E+00 0. -1.
          1    1    1    2  502    0 -0.40813449131E+02 -0.79451538349E+01 -0.69348824783E+02  0.80858658153E+02  0.00000000000E+00 0. -1.
         22    1    3    3    0    0  0.51203977279E+01 -0.17240812317E+02  0.80849489527E+01  0.19718784998E+02  0.00000000000E+00 0.  1.
         22    1    3    3    0    0  0.38004188434E+01  0.70136203849E+02 -0.23078273068E+03  0.24123473848E+03  0.00000000000E+00 0.  1.
</event>
<event>
 7    1  0.5537228E-006  0.5732683E+02  0.7818608E-02  0.1479884E+00
          2   -1    0    0  502    0  0.00000000000E+00  0.00000000000E+00  0.72254227801E+03  0.72254227801E+03  0.00000000000E+00 0. -1.
          1   -1    0    0  501    0 -0.00000000000E+00 -0.00000000000E+00 -0.20502621823E+03  0.20502621823E+03  0.00000000000E+00 0. -1.
         25    2    1    2    0    0  0.19071825379E+02  0.69172775588E+02  0.17038030612E+03  0.22316294857E+03  0.12499458186E+03 0.  0.
          2    1    1    2  501    0  0.12174834145E+02 -0.55865852692E+02 -0.17349212433E+03  0.18267111783E+03  0.00000000000E+00 0. -1.
          1    1    1    2  502    0 -0.31246659524E+02 -0.13306922896E+02  0.52062787800E+03  0.52173442983E+03  0.00000000000E+00 0. -1.
         22    1    3    3    0    0  0.30637458144E+02 -0.25898489136E+02  0.19877137159E+02  0.44771488279E+02  0.00000000000E+00 0.  1.
         22    1    3    3    0    0 -0.11565632766E+02  0.95071264723E+02  0.15050316896E+03  0.17839146029E+03  0.00000000000E+00 0.  1.
</event>
<event>
 7    1  0.5537228E-006  0.1233496E+03  0.7818608E-02  0.1263597E+00
          2   -1    0    0  502    0  0.00000000000E+00  0.00000000000E+00  0.29785980135E+03  0.29785980135E+03  0.00000000000E+00 0. -1.
          1   -1    0    0  501    0 -0.00000000000E+00 -0.00000000000E+00 -0.23095322413E+04  0.23095322413E+04  0.00000000000E+00 0. -1.
         25    2    1    2    0    0  0.38249071467E+02  0.58128254604E+02 -0.60541833216E+03  0.62208509817E+03  0.12496650349E+03 0.  0.
          2    1    1    2  501    0  0.85704764524E+02 -0.41513935394E+02 -0.16808643077E+04  0.16835597804E+04  0.00000000000E+00 0. -1.
          1    1    1    2  502    0 -0.12395383599E+03 -0.16614319210E+02  0.27461019994E+03  0.30174716398E+03  0.00000000000E+00 0. -1.
         22    1    3    3    0    0  0.25178720604E+01 -0.20050903731E+02 -0.14315744850E+02  0.24765277523E+02  0.00000000000E+00 0.  1.
         22    1    3    3    0    0  0.35731199407E+02  0.78179158335E+02 -0.59110258731E+03  0.59731982064E+03  0.00000000000E+00 0.  1.
</event>
<event>
 7    1  0.5537228E-006  0.6159874E+02  0.7818608E-02  0.1526993E+00
          2   -1    0    0  502    0  0.00000000000E+00  0.00000000000E+00  0.15829250320E+03  0.15829250320E+03  0.00000000000E+00 0. -1.
          1   -1    0    0  501    0 -0.00000000000E+00 -0.00000000000E+00 -0.19641020086E+03  0.19641020086E+03  0.00000000000E+00 0. -1.
         25    2    1    2    0    0  0.53621518397E+02  0.15384911858E+02  0.52880029056E+01  0.13698608565E+03  0.12500104775E+03 0.  0.
          2    1    1    2  501    0 -0.31793729598E+01  0.22677786343E+02 -0.11785826010E+03  0.12006231665E+03  0.00000000000E+00 0. -1.
          1    1    1    2  502    0 -0.50442145438E+02 -0.38062698202E+02  0.74452559535E+02  0.97654301759E+02  0.00000000000E+00 0. -1.
         22    1    3    3    0    0  0.52079088609E+02  0.94348070205E+01  0.61100364067E+02  0.80836263787E+02  0.00000000000E+00 0.  1.
         22    1    3    3    0    0  0.15424297886E+01  0.59501048376E+01 -0.55812361161E+02  0.56149821867E+02  0.00000000000E+00 0.  1.
</event>
<event>
 7    1  0.5537228E-006  0.1629816E+03  0.7818608E-02  0.1313087E+00
          2   -1    0    0  502    0  0.00000000000E+00  0.00000000000E+00  0.25913304478E+04  0.25913304478E+04  0.00000000000E+00 0. -1.
          1   -1    0    0  501    0 -0.00000000000E+00 -0.00000000000E+00 -0.67423633679E+03  0.67423633679E+03  0.00000000000E+00 0. -1.
         25    2    1    2    0    0  0.19974648114E+03 -0.55211802309E+02 -0.54795102426E+02  0.24814104815E+03  0.12499790672E+03 0.  0.
          2    1    1    2  501    0 -0.44576294726E+02  0.79363764081E+01 -0.51914496374E+03  0.52111565463E+03  0.00000000000E+00 0. -1.
          1    1    1    2  502    0 -0.15517018641E+03  0.47275425901E+02  0.24910341772E+04  0.24963100818E+04  0.00000000000E+00 0. -1.
         22    1    3    3    0    0 -0.52141412455E+00  0.21241363303E+02  0.10973174672E+02  0.23913969768E+02  0.00000000000E+00 0.  1.
         22    1    3    3    0    0  0.20026789526E+03 -0.76453165612E+02 -0.65768277098E+02  0.22422707838E+03  0.00000000000E+00 0.  1.
</event>
<event>
 7    1  0.5537228E-006  0.3406653E+02  0.7818608E-02  0.1566032E+00
          2   -1    0    0  502    0  0.00000000000E+00  0.00000000000E+00  0.29423243813E+03  0.29423243813E+03  0.00000000000E+00 0. -1.
          1   -1    0    0  501    0 -0.00000000000E+00 -0.00000000000E+00 -0.10707879030E+04  0.10707879030E+04  0.00000000000E+00 0. -1.
         25    2    1    2    0    0 -0.34111425667E+00  0.35802376038E+02 -0.38814001574E+02  0.13568902691E+03  0.12499223503E+03 0.  0.
          2    1    1    2  501    0  0.28083525835E+02 -0.15722238706E+02 -0.98207856604E+03  0.98260581266E+03  0.00000000000E+00 0. -1.
          1    1    1    2  502    0 -0.27742411578E+02 -0.20080137332E+02  0.24433710277E+03  0.24672550153E+03  0.00000000000E+00 0. -1.
         22    1    3    3    0    0  0.13093155516E+02 -0.17956749852E+01  0.42820723385E+02  0.44813720234E+02  0.00000000000E+00 0.  1.
         22    1    3    3    0    0 -0.13434269773E+02  0.37598051023E+02 -0.81634724959E+02  0.90875306680E+02  0.00000000000E+00 0.  1.
</event>
<event>
 7    1  0.5537228E-006  0.1701386E+03  0.7818608E-02  0.1197520E+00
          2   -1    0    0  502    0  0.00000000000E+00  0.00000000000E+00  0.37924083320E+03  0.37924083320E+03  0.00000000000E+00 0. -1.
          1   -1    0    0  501    0 -0.00000000000E+00 -0.00000000000E+00 -0.10574484699E+04  0.10574484699E+04  0.00000000000E+00 0. -1.
         25    2    1    2    0    0  0.48041739178E+02 -0.28034141956E+02 -0.38778780464E+02  0.14220665831E+03  0.12500007214E+03 0.  0.
          2    1    1    2  501    0 -0.15179757011E+03  0.11682586266E+03 -0.94265728193E+03  0.96192179290E+03  0.00000000000E+00 0. -1.
          1    1    1    2  502    0  0.10375583093E+03 -0.88791720704E+02  0.30322842565E+03  0.33256085194E+03  0.00000000000E+00 0. -1.
         22    1    3    3    0    0  0.25491627609E+01 -0.60891709262E+02  0.16806427396E+02  0.63219889983E+02  0.00000000000E+00 0. -1.
         22    1    3    3    0    0  0.45492576417E+02  0.32857567306E+02 -0.55585207860E+02  0.78986768330E+02  0.00000000000E+00 0. -1.
</event>
<event>
 7    1  0.5537228E-006  0.1970256E+03  0.7818608E-02  0.1242524E+00
          2   -1    0    0  502    0  0.00000000000E+00  0.00000000000E+00  0.26901525450E+04  0.26901525450E+04  0.00000000000E+00 0. -1.
          1   -1    0    0  501    0 -0.00000000000E+00 -0.00000000000E+00 -0.22942431182E+03  0.22942431182E+03  0.00000000000E+00 0. -1.
         25    2    1    2    0    0  0.21670968913E+03  0.21492634576E+02  0.16255303241E+02  0.25162334166E+03  0.12500019393E+03 0.  0.
          2    1    1    2  501    0 -0.18367468803E+03  0.44178025309E+02 -0.30956784328E+02  0.19143252451E+03  0.00000000000E+00 0. -1.
          1    1    1    2  502    0 -0.33035001098E+02 -0.65670659885E+02  0.24754297142E+04  0.24765209906E+04  0.00000000000E+00 0. -1.
         22    1    3    3    0    0  0.72260698077E+02 -0.50994266885E+02 -0.51688051837E+01  0.88593116486E+02  0.00000000000E+00 0. -1.
         22    1    3    3    0    0  0.14444899105E+03  0.72486901461E+02  0.21424108425E+02  0.16303022518E+03  0.00000000000E+00 0. -1.
</event>
<event>
 7    1  0.5537228E-006  0.1206376E+03  0.7818608E-02  0.1373797E+00
          2   -1    0    0  502    0  0.00000000000E+00  0.00000000000E+00  0.78830379464E+03  0.78830379464E+03  0.00000000000E+00 0. -1.
          1   -1    0    0  501    0 -0.00000000000E+00 -0.00000000000E+00 -0.32619853745E+03  0.32619853745E+03  0.00000000000E+00 0. -1.
         25    2    1    2    0    0 -0.14243044495E+03  0.30511333025E+02 -0.14527170178E+03  0.24071992720E+03  0.12499937168E+03 0.  0.
          2    1    1    2  501    0  0.32091090660E+02  0.16843182740E+02 -0.12575986311E+03  0.13087808860E+03  0.00000000000E+00 0. -1.
          1    1    1    2  502    0  0.11033935429E+03 -0.47354515765E+02  0.73313682208E+03  0.74290431629E+03  0.00000000000E+00 0. -1.
         22    1    3    3    0    0 -0.10383669791E+02 -0.29481610850E+02 -0.71427512875E+02  0.77967144184E+02  0.00000000000E+00 0. -1.
         22    1    3    3    0    0 -0.13204677516E+03  0.59992943875E+02 -0.73844188905E+02  0.16275278302E+03  0.00000000000E+00 0. -1.
</event>
<event>
 7    1  0.5537228E-006  0.1397353E+03  0.7818608E-02  0.1367852E+00
          2   -1    0    0  502    0  0.00000000000E+00  0.00000000000E+00  0.22438267265E+04  0.22438267265E+04  0.00000000000E+00 0. -1.
          1   -1    0    0  501    0 -0.00000000000E+00 -0.00000000000E+00 -0.33905649063E+03  0.33905649063E+03  0.00000000000E+00 0. -1.
         25    2    1    2    0    0 -0.12866899089E+03 -0.79468957325E+02  0.67742971545E+03  0.70527389765E+03  0.12501690657E+03 0.  0.
          2    1    1    2  501    0  0.28929037444E+02 -0.15596773428E+02 -0.32123701525E+03  0.32291387166E+03  0.00000000000E+00 0. -1.
          1    1    1    2  502    0  0.99739953449E+02  0.95065730753E+02  0.15485775356E+04  0.15546954478E+04  0.00000000000E+00 0. -1.
         22    1    3    3    0    0 -0.77478169805E+02 -0.10812669299E+03  0.53381102904E+03  0.55013495004E+03  0.00000000000E+00 0.  1.
         22    1    3    3    0    0 -0.51190821088E+02  0.28657735665E+02  0.14361868641E+03  0.15513894761E+03  0.00000000000E+00 0.  1.
</event>
<event>
 7    1  0.5537228E-006  0.8892898E+02  0.7818608E-02  0.1368909E+00
          2   -1    0    0  502    0  0.00000000000E+00  0.00000000000E+00  0.34255066331E+03  0.34255066331E+03  0.00000000000E+00 0. -1.
          1   -1    0    0  501    0 -0.00000000000E+00 -0.00000000000E+00 -0.14679544776E+03  0.14679544776E+03  0.00000000000E+00 0. -1.
         25    2    1    2    0    0 -0.25817469144E+02  0.62794616384E+02  0.13520082130E+03  0.19625138942E+03  0.12500256080E+03 0.  0.
          2    1    1    2  501    0  0.33008044344E+02  0.39128398887E+02 -0.94457454143E+02  0.10743729908E+03  0.00000000000E+00 0. -1.
          1    1    1    2  502    0 -0.71905752006E+01 -0.10192301527E+03  0.15501184839E+03  0.18565742257E+03  0.00000000000E+00 0. -1.
         22    1    3    3    0    0  0.41664004811E+02 -0.94640252968E+01  0.32389655514E+02  0.53614800718E+02  0.00000000000E+00 0. -1.
         22    1    3    3    0    0 -0.67481473955E+02  0.72258641681E+02  0.10281116579E+03  0.14263658870E+03  0.00000000000E+00 0. -1.
</event>
<event>
 7    1  0.5537228E-006  0.3181735E+03  0.7818608E-02  0.1244803E+00
          2   -1    0    0  502    0  0.00000000000E+00  0.00000000000E+00  0.90768374681E+03  0.90768374681E+03  0.00000000000E+00 0. -1.
          1   -1    0    0  501    0 -0.00000000000E+00 -0.00000000000E+00 -0.83001527828E+03  0.83001527828E+03  0.00000000000E+00 0. -1.
         25    2    1    2    0    0  0.17541858180E+03 -0.22347638290E+03 -0.29008891208E+03  0.42484063793E+03  0.12499847267E+03 0.  0.
          2    1    1    2  501    0  0.42779458638E+02 -0.12203143682E+02 -0.44070004085E+03  0.44293964013E+03  0.00000000000E+00 0. -1.
          1    1    1    2  502    0 -0.21819804044E+03  0.23567952658E+03  0.80845742146E+03  0.86991874702E+03  0.00000000000E+00 0. -1.
         22    1    3    3    0    0  0.28363008599E+02  0.82139448489E+01 -0.59418823937E+02  0.66351531895E+02  0.00000000000E+00 0.  1.
         22    1    3    3    0    0  0.14705557320E+03 -0.23169032775E+03 -0.23067008815E+03  0.35848910604E+03  0.00000000000E+00 0.  1.
</event>
<event>
 7    1  0.5537228E-006  0.8586689E+02  0.7818608E-02  0.1381999E+00
          2   -1    0    0  502    0  0.00000000000E+00  0.00000000000E+00  0.46539959492E+03  0.46539959492E+03  0.00000000000E+00 0. -1.
          1   -1    0    0  501    0 -0.00000000000E+00 -0.00000000000E+00 -0.23835080488E+03  0.23835080488E+03  0.00000000000E+00 0. -1.
         25    2    1    2    0    0  0.34134602652E+01  0.46071404200E+02  0.16225774313E+03  0.20996928051E+03  0.12500119022E+03 0.  0.
          2    1    1    2  501    0 -0.37061995365E+02 -0.79759314242E+02 -0.20329271518E+03  0.22150184594E+03  0.00000000000E+00 0. -1.
          1    1    1    2  502    0  0.33648535100E+02  0.33687910042E+02  0.26808376209E+03  0.27227927334E+03  0.00000000000E+00 0. -1.
         22    1    3    3    0    0 -0.19826087098E+02  0.50263673884E+02  0.88473876947E+01  0.54752049376E+02  0.00000000000E+00 0. -1.
         22    1    3    3    0    0  0.23239547363E+02 -0.41922696830E+01  0.15341035543E+03  0.15521723113E+03  0.00000000000E+00 0. -1.
</event>
<event>
 7    1  0.5537228E-006  0.5283319E+02  0.7818608E-02  0.1548132E+00
          2   -1    0    0  502    0  0.00000000000E+00  0.00000000000E+00  0.12979209261E+04  0.12979209261E+04  0.00000000000E+00 0. -1.
          1   -1    0    0  501    0 -0.00000000000E+00 -0.00000000000E+00 -0.46932293101E+02  0.46932293101E+02  0.00000000000E+00 0. -1.
         25    2    1    2    0    0  0.10378095833E+02 -0.73453350986E+02  0.48862185737E+03  0.50978229170E+03  0.12499426302E+03 0.  0.
          2    1    1    2  501    0 -0.13146138791E+02  0.50362475805E+02 -0.17457779672E+02  0.54899672179E+02  0.00000000000E+00 0. -1.
          1    1    1    2  502    0  0.27680429585E+01  0.23090875181E+02  0.77982455527E+03  0.78017125529E+03  0.00000000000E+00 0. -1.
         22    1    3    3    0    0  0.30933930992E+02 -0.55926493478E+02  0.47545384975E+03  0.47973017833E+03  0.00000000000E+00 0.  1.
         22    1    3    3    0    0 -0.20555835160E+02 -0.17526857509E+02  0.13168007618E+02  0.30052113368E+02  0.00000000000E+00 0.  1.
</event>
<event>
 7    1  0.5537228E-006  0.8172014E+02  0.7818608E-02  0.1335048E+00
          2   -1    0    0  502    0  0.00000000000E+00  0.00000000000E+00  0.34542903043E+04  0.34542903043E+04  0.00000000000E+00 0. -1.
          1   -1    0    0  501    0 -0.00000000000E+00 -0.00000000000E+00 -0.54018994213E+03  0.54018994213E+03  0.00000000000E+00 0. -1.
         25    2    1    2    0    0 -0.45015485815E+02 -0.36398597607E+02 -0.31047509075E+03  0.33966303403E+03  0.12499977137E+03 0.  0.
          2    1    1    2  501    0  0.11336354440E+03  0.72495277958E+01 -0.19969364652E+03  0.22974203209E+03  0.00000000000E+00 0. -1.
          1    1    1    2  502    0 -0.68348058582E+02  0.29149069811E+02  0.34242690995E+04  0.34250751803E+04  0.00000000000E+00 0. -1.
         22    1    3    3    0    0 -0.59415209982E+02 -0.55506372166E+02 -0.10500716189E+03  0.13280673392E+03  0.00000000000E+00 0. -1.
         22    1    3    3    0    0  0.14399724167E+02  0.19107774559E+02 -0.20546792886E+03  0.20685630011E+03  0.00000000000E+00 0. -1.
</event>
<event>
 7    1  0.5537228E-006  0.7631645E+02  0.7818608E-02  0.1425478E+00
          2   -1    0    0  502    0  0.00000000000E+00  0.00000000000E+00  0.53871211930E+02  0.53871211930E+02  0.00000000000E+00 0. -1.
          1   -1    0    0  501    0 -0.00000000000E+00 -0.00000000000E+00 -0.16420616768E+04  0.16420616768E+04  0.00000000000E+00 0. -1.
         25    2    1    2    0    0 -0.34379463496E+02 -0.26221817278E+02 -0.83468805084E+02  0.15641533343E+03  0.12501673448E+03 0.  0.
          2    1    1    2  501    0  0.72409758185E+02  0.26969241507E+02 -0.14990726534E+04  0.15010627346E+04  0.00000000000E+00 0. -1.
          1    1    1    2  502    0 -0.38030294689E+02 -0.74742422983E+00 -0.56490063296E+01  0.38454820629E+02  0.00000000000E+00 0. -1.
         22    1    3    3    0    0 -0.60394305484E+02 -0.39750597456E+01 -0.10116001124E+03  0.11788393066E+03  0.00000000000E+00 0. -1.
         22    1    3    3    0    0  0.26014841988E+02 -0.22246757532E+02  0.17691206154E+02  0.38531402771E+02  0.00000000000E+00 0. -1.
</event>
<event>
 7    1  0.5537228E-006  0.1312682E+03  0.7818608E-02  0.1357605E+00
          2   -1    0    0  502    0  0.00000000000E+00  0.00000000000E+00  0.10220803535E+04  0.10220803535E+04  0.00000000000E+00 0. -1.
          1   -1    0    0  501    0 -0.00000000000E+00 -0.00000000000E+00 -0.17276735837E+03  0.17276735837E+03  0.00000000000E+00 0. -1.
         25    2    1    2    0    0  0.26298614962E+02 -0.12683570377E+03  0.29090087674E+03  0.34209292132E+03  0.12500133530E+03 0.  0.
          2    1    1    2  501    0 -0.62836343994E+02  0.11597345324E+03 -0.11697119641E+03  0.17629664992E+03  0.00000000000E+00 0. -1.
          1    1    1    2  502    0  0.36537729031E+02  0.10862250530E+02  0.67538331484E+03  0.67645814068E+03  0.00000000000E+00 0. -1.
         22    1    3    3    0    0 -0.13625682967E+02 -0.80160055791E+02  0.26178211585E+03  0.27411889749E+03  0.00000000000E+00 0. -1.
         22    1    3    3    0    0  0.39924297929E+02 -0.46675647982E+02  0.29118760885E+02  0.67974023826E+02  0.00000000000E+00 0. -1.
</event>
<event>
 7    1  0.5824267E-006  0.1406951E+03  0.7818608E-02  0.1266664E+00
          2   -1    0    0  502    0  0.00000000000E+00  0.00000000000E+00  0.10991723505E+04  0.10991723505E+04  0.00000000000E+00 0. -1.
          1   -1    0    0  501    0 -0.00000000000E+00 -0.00000000000E+00 -0.19625587175E+04  0.19625587175E+04  0.00000000000E+00 0. -1.
         25    2    1    2    0    0 -0.20693040159E+03  0.31393743598E+02 -0.70120085931E+03  0.74237009054E+03  0.12499979196E+03 0.  0.
          2    1    1    2  501    0  0.12590656486E+03 -0.30370517093E+02 -0.12358624976E+04  0.12426306548E+04  0.00000000000E+00 0. -1.
          1    1    1    2  502    0  0.81023836726E+02 -0.10232265049E+01  0.10736769899E+04  0.10767303227E+04  0.00000000000E+00 0. -1.
         22    1    3    3    0    0  0.17250590729E+02 -0.49986174173E+00 -0.44753451944E+02  0.47965656496E+02  0.00000000000E+00 0.  1.
         22    1    3    3    0    0 -0.22418099231E+03  0.31893605340E+02 -0.65644740737E+03  0.69440443404E+03  0.00000000000E+00 0.  1.
</event>
<event>
 7    1  0.5537228E-006  0.8660426E+02  0.7818608E-02  0.1412400E+00
          2   -1    0    0  502    0  0.00000000000E+00  0.00000000000E+00  0.82827994972E+03  0.82827994972E+03  0.00000000000E+00 0. -1.
          1   -1    0    0  501    0 -0.00000000000E+00 -0.00000000000E+00 -0.18461988857E+03  0.18461988857E+03  0.00000000000E+00 0. -1.
         25    2    1    2    0    0 -0.81656927098E+02 -0.78303144116E+02 -0.72479429870E+02  0.18352172518E+03  0.12501087847E+03 0.  0.
          2    1    1    2  501    0  0.36766365517E+02  0.47478158841E+01 -0.47857766324E+02  0.60536544223E+02  0.00000000000E+00 0. -1.
          1    1    1    2  502    0  0.44890561582E+02  0.73555328232E+02  0.76399725734E+03  0.76884156889E+03  0.00000000000E+00 0. -1.
         22    1    3    3    0    0 -0.76188695001E+02 -0.11102220318E+03 -0.64991077948E+02  0.14951417009E+03  0.00000000000E+00 0. -1.
         22    1    3    3    0    0 -0.54682320980E+01  0.32719059067E+02 -0.74883519215E+01  0.34007555087E+02  0.00000000000E+00 0. -1.
</event>
<event>
 7    1  0.5537228E-006  0.1742043E+03  0.7818608E-02  0.1362055E+00
          2   -1    0    0  502    0  0.00000000000E+00  0.00000000000E+00  0.44178570005E+03  0.44178570005E+03  0.00000000000E+00 0. -1.
          1   -1    0    0  501    0 -0.00000000000E+00 -0.00000000000E+00 -0.59388940165E+03  0.59388940165E+03  0.00000000000E+00 0. -1.
         25    2    1    2    0    0  0.17234175255E+03  0.73153924584E+02 -0.32574565834E+03  0.39596401265E+03  0.12499635609E+03 0.  0.
          2    1    1    2  501    0 -0.14486657633E+03 -0.76420367903E+02 -0.20368591259E+03  0.26137013708E+03  0.00000000000E+00 0. -1.
          1    1    1    2  502    0 -0.27475176216E+02  0.32664433190E+01  0.37732786933E+03  0.37834095197E+03  0.00000000000E+00 0. -1.
         22    1    3    3    0    0  0.16673548147E+03  0.98347503149E+02 -0.25158007674E+03  0.31743580007E+03  0.00000000000E+00 0. -1.
         22    1    3    3    0    0  0.56062710755E+01 -0.25193578565E+02 -0.74165581603E+02  0.78528212578E+02  0.00000000000E+00 0. -1.
</event>
<event>
 7    1  0.5537228E-006  0.8392874E+02  0.7818608E-02  0.1330580E+00
          2   -1    0    0  502    0  0.00000000000E+00  0.00000000000E+00  0.76227694680E+03  0.76227694680E+03  0.00000000000E+00 0. -1.
          1   -1    0    0  501    0 -0.00000000000E+00 -0.00000000000E+00 -0.76659117732E+03  0.76659117732E+03  0.00000000000E+00 0. -1.
         25    2    1    2    0    0  0.14008279660E+02 -0.17352893882E+02  0.38168665109E+03  0.40225266669E+03  0.12500061365E+03 0.  0.
          2    1    1    2  501    0  0.28575276810E+02  0.79378383056E+02 -0.75009737841E+03  0.75482683526E+03  0.00000000000E+00 0. -1.
          1    1    1    2  502    0 -0.42583556470E+02 -0.62025489174E+02  0.36409649680E+03  0.37178862217E+03  0.00000000000E+00 0. -1.
         22    1    3    3    0    0 -0.90203874891E+01  0.15694511635E+02 -0.34309829265E+00  0.18105325248E+02  0.00000000000E+00 0. -1.
         22    1    3    3    0    0  0.23028667149E+02 -0.33047405517E+02  0.38202974938E+03  0.38414734144E+03  0.00000000000E+00 0. -1.
</event>
<event>
 7    1  0.5537228E-006  0.7659275E+02  0.7818608E-02  0.1407567E+00
          2   -1    0    0  502    0  0.00000000000E+00  0.00000000000E+00  0.14016693049E+04  0.14016693049E+04  0.00000000000E+00 0. -1.
          1   -1    0    0  501    0 -0.00000000000E+00 -0.00000000000E+00 -0.82032114162E+02  0.82032114162E+02  0.00000000000E+00 0. -1.
         25    2    1    2    0    0 -0.20806263081E+02 -0.97660125241E+02  0.37322271011E+03  0.40606861856E+03  0.12500452390E+03 0.  0.
          2    1    1    2  501    0 -0.15777668383E+02  0.74073985605E+02 -0.43113863004E+02  0.87147549284E+02  0.00000000000E+00 0. -1.
          1    1    1    2  502    0  0.36583931464E+02  0.23586139636E+02  0.98952834367E+03  0.99048525125E+03  0.00000000000E+00 0. -1.
         22    1    3    3    0    0 -0.60573510104E+02 -0.71972303106E+02  0.14396713617E+03  0.17197586702E+03  0.00000000000E+00 0.  1.
         22    1    3    3    0    0  0.39767247023E+02 -0.25687822135E+02  0.22925557394E+03  0.23409275154E+03  0.00000000000E+00 0.  1.
</event>
<event>
 7    1  0.5537228E-006  0.3777646E+02  0.7818608E-02  0.1539846E+00
          2   -1    0    0  502    0  0.00000000000E+00  0.00000000000E+00  0.29353809973E+04  0.29353809973E+04  0.00000000000E+00 0. -1.
          1   -1    0    0  501    0 -0.00000000000E+00 -0.00000000000E+00 -0.10827522525E+02  0.10827522525E+02  0.00000000000E+00 0. -1.
         25    2    1    2    0    0  0.48921352071E+02 -0.19565353117E+02  0.88111492408E+03  0.89149581777E+03  0.12500072771E+03 0.  0.
          2    1    1    2  501    0 -0.17443515849E+02  0.33235891063E+02  0.58683594888E+02  0.69661072407E+02  0.00000000000E+00 0. -1.
          1    1    1    2  502    0 -0.31477836222E+02 -0.13670537946E+02  0.19847549558E+04  0.19850516297E+04  0.00000000000E+00 0. -1.
         22    1    3    3    0    0  0.53747977039E+02 -0.65267916402E+02  0.67771100926E+03  0.68296482927E+03  0.00000000000E+00 0.  1.
         22    1    3    3    0    0 -0.48266249681E+01  0.45702563285E+02  0.20340391482E+03  0.20853098850E+03  0.00000000000E+00 0.  1.
</event>
<event>
 7    1  0.5537228E-006  0.2349679E+03  0.7818608E-02  0.1176313E+00
          2   -1    0    0  502    0  0.00000000000E+00  0.00000000000E+00  0.37399462299E+03  0.37399462299E+03  0.00000000000E+00 0. -1.
          1   -1    0    0  501    0 -0.00000000000E+00 -0.00000000000E+00 -0.15834810171E+04  0.15834810171E+04  0.00000000000E+00 0. -1.
         25    2    1    2    0    0  0.86159519726E+02  0.25426822853E+03 -0.13978737339E+03  0.32747387022E+03  0.12499132386E+03 0.  0.
          2    1    1    2  501    0  0.36880339358E+02 -0.23140538348E+03 -0.13250622087E+04  0.13456219632E+04  0.00000000000E+00 0. -1.
          1    1    1    2  502    0 -0.12303985908E+03 -0.22862845053E+02  0.25536318803E+03  0.28437980661E+03  0.00000000000E+00 0. -1.
         22    1    3    3    0    0  0.86010355084E+02  0.14054464524E+03 -0.26388848727E+02  0.16687405378E+03  0.00000000000E+00 0.  1.
         22    1    3    3    0    0  0.14916464171E+00  0.11372358329E+03 -0.11339852467E+03  0.16059981645E+03  0.00000000000E+00 0.  1.
</event>
<event>
 7    1  0.5537228E-006  0.1684851E+03  0.7818608E-02  0.1276726E+00
          2   -1    0    0  502    0  0.00000000000E+00  0.00000000000E+00  0.78860272861E+03  0.78860272861E+03  0.00000000000E+00 0. -1.
          1   -1    0    0  501    0 -0.00000000000E+00 -0.00000000000E+00 -0.48317898729E+03  0.48317898729E+03  0.00000000000E+00 0. -1.
         25    2    1    2    0    0  0.12042240175E+02 -0.13669455339E+03 -0.19446691624E+03  0.26883411501E+03  0.12499593357E+03 0.  0.
          2    1    1    2  501    0  0.58709058259E+02 -0.18005040522E+02 -0.23795258037E+03  0.24574858191E+03  0.00000000000E+00 0. -1.
          1    1    1    2  502    0 -0.70751298433E+02  0.15469959391E+03  0.73784323793E+03  0.75719901898E+03  0.00000000000E+00 0. -1.
         22    1    3    3    0    0  0.32539801846E+02  0.95908261964E+01 -0.17028961394E+02  0.37957979102E+02  0.00000000000E+00 0.  1.
         22    1    3    3    0    0 -0.20497561672E+02 -0.14628537958E+03 -0.17743795484E+03  0.23087613591E+03  0.00000000000E+00 0.  1.
</event>
<event>
 7    1  0.5537228E-006  0.9495223E+02  0.7818608E-02  0.1412813E+00
          2   -1    0    0  502    0  0.00000000000E+00  0.00000000000E+00  0.35443548108E+03  0.35443548108E+03  0.00000000000E+00 0. -1.
          1   -1    0    0  501    0 -0.00000000000E+00 -0.00000000000E+00 -0.29004520501E+03  0.29004520501E+03  0.00000000000E+00 0. -1.
         25    2    1    2    0    0 -0.94407412084E+02  0.68340597993E+02 -0.27758487094E+02  0.17313928083E+03  0.12499392053E+03 0.  0.
          2    1    1    2  501    0  0.60712421490E+02 -0.69114336839E+02 -0.17732546399E+03  0.19976763967E+03  0.00000000000E+00 0. -1.
          1    1    1    2  502    0  0.33694990594E+02  0.77373884642E+00  0.26947422715E+03  0.27157376560E+03  0.00000000000E+00 0. -1.
         22    1    3    3    0    0 -0.72814685670E+02  0.43335346025E+01  0.35025449992E+02  0.80916871656E+02  0.00000000000E+00 0. -1.
         22    1    3    3    0    0 -0.21592726413E+02  0.64007063391E+02 -0.62783937086E+02  0.92222409174E+02  0.00000000000E+00 0. -1.
</event>
<event>
 7    1  0.5537228E-006  0.5658164E+02  0.7818608E-02  0.1498708E+00
          2   -1    0    0  502    0  0.00000000000E+00  0.00000000000E+00  0.16753209480E+04  0.16753209480E+04  0.00000000000E+00 0. -1.
          1   -1    0    0  501    0 -0.00000000000E+00 -0.00000000000E+00 -0.13161025358E+03  0.13161025358E+03  0.00000000000E+00 0. -1.
         25    2    1    2    0    0  0.36159831262E+01  0.42742406867E+02  0.47673213581E+03  0.49471060668E+03  0.12500026547E+03 0.  0.
          2    1    1    2  501    0 -0.33633517713E+02 -0.45836413983E+02 -0.11582842325E+03  0.12902873320E+03  0.00000000000E+00 0. -1.
          1    1    1    2  502    0  0.30017534587E+02  0.30940071164E+01  0.11828069819E+04  0.11831918617E+04  0.00000000000E+00 0. -1.
         22    1    3    3    0    0 -0.70510303673E+01 -0.40705519553E+02  0.23872166249E+03  0.24226986708E+03  0.00000000000E+00 0.  1.
         22    1    3    3    0    0  0.10667013494E+02  0.83447926420E+02  0.23801047332E+03  0.25244073960E+03  0.00000000000E+00 0.  1.
</event>
<event>
 7    1  0.5537228E-006  0.1149748E+03  0.7818608E-02  0.1365136E+00
          2   -1    0    0  502    0  0.00000000000E+00  0.00000000000E+00  0.10318300212E+04  0.10318300212E+04  0.00000000000E+00 0. -1.
          1   -1    0    0  501    0 -0.00000000000E+00 -0.00000000000E+00 -0.20063405098E+03  0.20063405098E+03  0.00000000000E+00 0. -1.
         25    2    1    2    0    0  0.78563664513E+02  0.21076116261E+02  0.43137250254E+03  0.45642450215E+03  0.12499855262E+03 0.  0.
          2    1    1    2  501    0 -0.11629419805E+03 -0.54024083803E+01 -0.16929237097E+03  0.20545907959E+03  0.00000000000E+00 0. -1.
          1    1    1    2  502    0  0.37730533534E+02 -0.15673707881E+02  0.56911583863E+03  0.57058049043E+03  0.00000000000E+00 0. -1.
         22    1    3    3    0    0  0.24388452079E+02  0.49237896677E+02  0.65513024575E+02  0.85505107760E+02  0.00000000000E+00 0.  1.
         22    1    3    3    0    0  0.54175212434E+02 -0.28161780416E+02  0.36585947796E+03  0.37091939439E+03  0.00000000000E+00 0.  1.
</event>
<event>
 7    1  0.5537228E-006  0.7385867E+02  0.7818608E-02  0.1393604E+00
          2   -1    0    0  502    0  0.00000000000E+00  0.00000000000E+00  0.77485363378E+02  0.77485363378E+02  0.00000000000E+00 0. -1.
          1   -1    0    0  501    0 -0.00000000000E+00 -0.00000000000E+00 -0.10414127788E+04  0.10414127788E+04  0.00000000000E+00 0. -1.
         25    2    1    2    0    0 -0.99013134894E+02  0.65028036796E+02 -0.26675551074E+03  0.31751538315E+03  0.12500107831E+03 0.  0.
          2    1    1    2  501    0  0.47311147094E+02 -0.17406203564E+02 -0.72428936040E+03  0.72604159533E+03  0.00000000000E+00 0. -1.
          1    1    1    2  502    0  0.51701987800E+02 -0.47621833232E+02  0.27117455713E+02  0.75341163697E+02  0.00000000000E+00 0. -1.
         22    1    3    3    0    0  0.15256514681E+02  0.51269644378E+02 -0.11693830236E+03  0.12859200688E+03  0.00000000000E+00 0.  1.
         22    1    3    3    0    0 -0.11426964957E+03  0.13758392419E+02 -0.14981720838E+03  0.18892337627E+03  0.00000000000E+00 0.  1.
</event>
<event>
 7    1  0.5537228E-006  0.4749316E+02  0.7818608E-02  0.1540714E+00
          2   -1    0    0  502    0  0.00000000000E+00  0.00000000000E+00  0.12040748645E+03  0.12040748645E+03  0.00000000000E+00 0. -1.
          1   -1    0    0  501    0 -0.00000000000E+00 -0.00000000000E+00 -0.15685110470E+04  0.15685110470E+04  0.00000000000E+00 0. -1.
         25    2    1    2    0    0 -0.44209364851E+02 -0.39893524066E+02 -0.97928270387E+03  0.98902251628E+03  0.12499984965E+03 0.  0.
          2    1    1    2  501    0  0.26805982154E+02 -0.42647702439E+01 -0.57915245963E+03  0.57978816860E+03  0.00000000000E+00 0. -1.
          1    1    1    2  502    0  0.17403382697E+02  0.44158294310E+02  0.11033160293E+03  0.12010784858E+03  0.00000000000E+00 0. -1.
         22    1    3    3    0    0 -0.57314963580E+02  0.18011108336E+02 -0.74189061370E+03  0.74431921094E+03  0.00000000000E+00 0.  1.
         22    1    3    3    0    0  0.13105598729E+02 -0.57904632402E+02 -0.23739209016E+03  0.24470330534E+03  0.00000000000E+00 0.  1.
</event>
<event>
 7    1  0.5778425E-006  0.1969710E+03  0.7818608E-02  0.1284421E+00
          2   -1    0    0  502    0  0.00000000000E+00  0.00000000000E+00  0.14946995843E+04  0.14946995843E+04  0.00000000000E+00 0. -1.
          1   -1    0    0  501    0 -0.00000000000E+00 -0.00000000000E+00 -0.91475832673E+03  0.91475832673E+03  0.00000000000E+00 0. -1.
         25    2    1    2    0    0  0.93088621521E+02 -0.21537569385E+03 -0.25537665815E+03  0.36863908470E+03  0.12500142514E+03 0.  0.
          2    1    1    2  501    0 -0.41233777355E+02  0.26140900869E+02 -0.59505328279E+03  0.59705274512E+03  0.00000000000E+00 0. -1.
          1    1    1    2  502    0 -0.51854844166E+02  0.18923479299E+03  0.14303711985E+04  0.14437660813E+04  0.00000000000E+00 0. -1.
         22    1    3    3    0    0 -0.28354477485E+01 -0.14938943588E+03 -0.14491061341E+03  0.20814497158E+03  0.00000000000E+00 0. -1.
         22    1    3    3    0    0  0.95924069270E+02 -0.65986257972E+02 -0.11046604474E+03  0.16049411312E+03  0.00000000000E+00 0. -1.
</event>
<event>
 7    1  0.1071746E-005  0.7692878E+02  0.7818608E-02  0.1409879E+00
          2   -1    0    0  502    0  0.00000000000E+00  0.00000000000E+00  0.21703617198E+04  0.21703617198E+04  0.00000000000E+00 0. -1.
          1   -1    0    0  501    0 -0.00000000000E+00 -0.00000000000E+00 -0.58501438265E+03  0.58501438265E+03  0.00000000000E+00 0. -1.
         25    2    1    2    0    0  0.13637854120E+02  0.78134815917E+02 -0.15067960386E+03  0.21123216950E+03  0.12499458344E+03 0.  0.
          2    1    1    2  501    0  0.28549647444E+02 -0.72503129112E+02 -0.40008778669E+03  0.40760522956E+03  0.00000000000E+00 0. -1.
          1    1    1    2  502    0 -0.42187501565E+02 -0.56316868057E+01  0.21361147277E+04  0.21365387034E+04  0.00000000000E+00 0. -1.
         22    1    3    3    0    0  0.66815869363E+02  0.36444249153E+02 -0.10494398758E+03  0.12963712518E+03  0.00000000000E+00 0.  1.
         22    1    3    3    0    0 -0.53178015242E+02  0.41690566764E+02 -0.45735616284E+02  0.81595044329E+02  0.00000000000E+00 0.  1.
</event>
<event>
 7    1  0.5537228E-006  0.1006608E+03  0.7818608E-02  0.1462258E+00
          2   -1    0    0  502    0  0.00000000000E+00  0.00000000000E+00  0.15782959774E+04  0.15782959774E+04  0.00000000000E+00 0. -1.
          1   -1    0    0  501    0 -0.00000000000E+00 -0.00000000000E+00 -0.24513575829E+03  0.24513575829E+03  0.00000000000E+00 0. -1.
         25    2    1    2    0    0  0.69017191210E+02 -0.59549126624E+02  0.76617937631E+03  0.78164257380E+03  0.12499922131E+03 0.  0.
          2    1    1    2  501    0 -0.21486632235E+01 -0.21834935674E+02 -0.23343934148E+03  0.23446813711E+03  0.00000000000E+00 0. -1.
          1    1    1    2  502    0 -0.66868527986E+02  0.81384062299E+02  0.80042018424E+03  0.80732102473E+03  0.00000000000E+00 0. -1.
         22    1    3    3    0    0  0.14565496084E+02 -0.49637596143E+02  0.94884186816E+02  0.10806966982E+03  0.00000000000E+00 0. -1.
         22    1    3    3    0    0  0.54451695126E+02 -0.99115304811E+01  0.67129518950E+03  0.67357290398E+03  0.00000000000E+00 0. -1.
</event>
<event>
 7    1  0.5537228E-006  0.7082166E+02  0.7818608E-02  0.1372166E+00
          2   -1    0    0  502    0  0.00000000000E+00  0.00000000000E+00  0.29676553094E+03  0.29676553094E+03  0.00000000000E+00 0. -1.
          1   -1    0    0  501    0 -0.00000000000E+00 -0.00000000000E+00 -0.26981513288E+03  0.26981513288E+03  0.00000000000E+00 0. -1.
         25    2    1    2    0    0 -0.69827193314E+02  0.21299968625E+02 -0.66992563153E+02  0.15950647625E+03  0.12499914742E+03 0.  0.
          2    1    1    2  501    0  0.29221185939E+02 -0.68905926706E+02 -0.14332684453E+03  0.16169257499E+03  0.00000000000E+00 0. -1.
          1    1    1    2  502    0  0.40606007375E+02  0.47605958081E+02  0.23726980574E+03  0.24538161259E+03  0.00000000000E+00 0. -1.
         22    1    3    3    0    0 -0.76218285745E+02  0.58718838858E+02 -0.18589649453E+02  0.97993388479E+02  0.00000000000E+00 0. -1.
         22    1    3    3    0    0  0.63910924311E+01 -0.37418870233E+02 -0.48402913700E+02  0.61513087767E+02  0.00000000000E+00 0. -1.
</event>
<event>
 7    1  0.5537228E-006  0.1559173E+03  0.7818608E-02  0.1315454E+00
          2   -1    0    0  502    0  0.00000000000E+00  0.00000000000E+00  0.15924952225E+03  0.15924952225E+03  0.00000000000E+00 0. -1.
          1   -1    0    0  501    0 -0.00000000000E+00 -0.00000000000E+00 -0.27049960622E+04  0.27049960622E+04  0.00000000000E+00 0. -1.
         25    2    1    2    0    0  0.57891625358E+02  0.14755518753E+03 -0.20327666161E+03  0.28647982174E+03  0.12500125381E+03 0.  0.
          2    1    1    2  501    0 -0.96851603676E+02 -0.12248383520E+03 -0.24529758413E+04  0.24579408050E+04  0.00000000000E+00 0. -1.
          1    1    1    2  502    0  0.38959978318E+02 -0.25071352331E+02  0.11050596299E+03  0.11982495765E+03  0.00000000000E+00 0. -1.
         22    1    3    3    0    0  0.34447701427E+02 -0.14725893424E+02 -0.30753581842E+02  0.48469360083E+02  0.00000000000E+00 0.  1.
         22    1    3    3    0    0  0.23443923931E+02  0.16228108096E+03 -0.17252307977E+03  0.23801046166E+03  0.00000000000E+00 0.  1.
</event>
<event>
 7    1  0.5537228E-006  0.7424910E+02  0.7818608E-02  0.1443130E+00
          2   -1    0    0  502    0  0.00000000000E+00  0.00000000000E+00  0.52520631851E+03  0.52520631851E+03  0.00000000000E+00 0. -1.
          1   -1    0    0  501    0 -0.00000000000E+00 -0.00000000000E+00 -0.44506082605E+03  0.44506082605E+03  0.00000000000E+00 0. -1.
         25    2    1    2    0    0  0.12498686834E+02 -0.39935908041E+02  0.18519181998E+02  0.13311883875E+03  0.12500628467E+03 0.  0.
          2    1    1    2  501    0  0.98275874721E+01 -0.32786916364E+02 -0.38377443537E+03  0.38529778173E+03  0.00000000000E+00 0. -1.
          1    1    1    2  502    0 -0.22326274306E+02  0.72722824405E+02  0.44540074584E+03  0.45185052407E+03  0.00000000000E+00 0. -1.
         22    1    3    3    0    0  0.19929380810E+02 -0.33140851249E+02 -0.50366999605E+02  0.63500636927E+02  0.00000000000E+00 0.  1.
         22    1    3    3    0    0 -0.74306939760E+01 -0.67950567928E+01  0.68886181604E+02  0.69618201828E+02  0.00000000000E+00 0.  1.
</event>
<event>
 7    1  0.5537228E-006  0.1160861E+03  0.7818608E-02  0.1263764E+00
          2   -1    0    0  502    0  0.00000000000E+00  0.00000000000E+00  0.23257869587E+04  0.23257869587E+04  0.00000000000E+00 0. -1.
          1   -1    0    0  501    0 -0.00000000000E+00 -0.00000000000E+00 -0.53100577289E+03  0.53100577289E+03  0.00000000000E+00 0. -1.
         25    2    1    2    0    0 -0.18895913388E+02  0.96464743111E+02  0.10850929551E+03  0.19251339693E+03  0.12499855431E+03 0.  0.
          2    1    1    2  501    0  0.10045062192E+03 -0.10740477706E+02 -0.48215601333E+03  0.49262572659E+03  0.00000000000E+00 0. -1.
          1    1    1    2  502    0 -0.81554708527E+02 -0.85724265405E+02  0.21684279036E+04  0.21716536080E+04  0.00000000000E+00 0. -1.
         22    1    3    3    0    0 -0.23700925120E+02 -0.18882485851E+02  0.60139425374E+02  0.67342650733E+02  0.00000000000E+00 0. -1.
         22    1    3    3    0    0  0.48050117320E+01  0.11534722896E+03  0.48369870132E+02  0.12517074620E+03  0.00000000000E+00 0. -1.
</event>
<event>
 7    1  0.5537228E-006  0.2094879E+03  0.7818608E-02  0.1242287E+00
          2   -1    0    0  502    0  0.00000000000E+00  0.00000000000E+00  0.22497255987E+04  0.22497255987E+04  0.00000000000E+00 0. -1.
          1   -1    0    0  501    0 -0.00000000000E+00 -0.00000000000E+00 -0.31631820321E+03  0.31631820321E+03  0.00000000000E+00 0. -1.
         25    2    1    2    0    0 -0.22676329600E+03  0.34364371425E+02  0.62957279363E+03  0.68160790595E+03  0.12499973013E+03 0.  0.
          2    1    1    2  501    0  0.22669035374E+02 -0.65492011349E+02 -0.27936438074E+03  0.28783249633E+03  0.00000000000E+00 0. -1.
          1    1    1    2  502    0  0.20409426063E+03  0.31127639924E+02  0.15831989826E+04  0.15966033996E+04  0.00000000000E+00 0. -1.
         22    1    3    3    0    0 -0.77481378149E+02 -0.47393758744E+02  0.23099212077E+03  0.24820735724E+03  0.00000000000E+00 0.  1.
         22    1    3    3    0    0 -0.14928191785E+03  0.81758130169E+02  0.39858067286E+03  0.43340054871E+03  0.00000000000E+00 0.  1.
</event>
<event>
 7    1  0.5537228E-006  0.7174686E+02  0.7818608E-02  0.1409189E+00
          2   -1    0    0  502    0  0.00000000000E+00  0.00000000000E+00  0.12377169190E+04  0.12377169190E+04  0.00000000000E+00 0. -1.
          1   -1    0    0  501    0 -0.00000000000E+00 -0.00000000000E+00 -0.22153123691E+04  0.22153123691E+04  0.00000000000E+00 0. -1.
         25    2    1    2    0    0  0.30063086508E+02 -0.10711302339E+03  0.22873540037E+03  0.28340405369E+03  0.12498394023E+03 0.  0.
          2    1    1    2  501    0 -0.26972453934E+02  0.37117128490E+02 -0.21864868684E+04  0.21869682257E+04  0.00000000000E+00 0. -1.
          1    1    1    2  502    0 -0.30906325741E+01  0.69995894904E+02  0.98015601790E+03  0.98265700870E+03  0.00000000000E+00 0. -1.
         22    1    3    3    0    0  0.63937206236E+01  0.12677978547E+02  0.11709912334E+03  0.11795683741E+03  0.00000000000E+00 0.  1.
         22    1    3    3    0    0  0.23669365885E+02 -0.11979100194E+03  0.11163627703E+03  0.16544721629E+03  0.00000000000E+00 0.  1.
</event>
<event>
 7    1  0.5537228E-006  0.1440475E+03  0.7818608E-02  0.1273758E+00
          2   -1    0    0  502    0  0.00000000000E+00  0.00000000000E+00  0.31170118822E+02  0.31170118822E+02  0.00000000000E+00 0. -1.
          1   -1    0    0  501    0 -0.00000000000E+00 -0.00000000000E+00 -0.18270889836E+04  0.18270889836E+04  0.00000000000E+00 0. -1.
         25    2    1    2    0    0 -0.10969747710E+03  0.37207420832E+02 -0.96018105321E+03  0.97518622685E+03  0.12499037340E+03 0.  0.
          2    1    1    2  501    0  0.17906117200E+03 -0.62699046405E+02 -0.72877044883E+03  0.75306071524E+03  0.00000000000E+00 0. -1.
          1    1    1    2  502    0 -0.69363694908E+02  0.25491625573E+02 -0.10696736274E+03  0.13001216035E+03  0.00000000000E+00 0. -1.
         22    1    3    3    0    0 -0.27328116961E+02 -0.25513460772E+02 -0.73311989256E+02  0.82294656119E+02  0.00000000000E+00 0.  1.
         22    1    3    3    0    0 -0.82369360135E+02  0.62720881604E+02 -0.88686906396E+03  0.89289157073E+03  0.00000000000E+00 0.  1.
</event>
<event>
 7    1  0.5537228E-006  0.9134582E+02  0.7818608E-02  0.1355280E+00
          2   -1    0    0  502    0  0.00000000000E+00  0.00000000000E+00  0.21889908318E+02  0.21889908318E+02  0.00000000000E+00 0. -1.
          1   -1    0    0  501    0 -0.00000000000E+00 -0.00000000000E+00 -0.22554416672E+04  0.22554416672E+04  0.00000000000E+00 0. -1.
         25    2    1    2    0    0  0.12687187164E+03  0.32975891231E+02 -0.15150146100E+04  0.15258049481E+04  0.12501035868E+03 0.  0.
          2    1    1    2  501    0 -0.71535309664E+02 -0.25315331505E+02 -0.67866176391E+03  0.68289088172E+03  0.00000000000E+00 0. -1.
          1    1    1    2  502    0 -0.55336561977E+02 -0.76605597256E+01 -0.39875384958E+02  0.68635745733E+02  0.00000000000E+00 0. -1.
         22    1    3    3    0    0  0.11513212603E+03  0.60939112637E+02 -0.83368757575E+03  0.84380326846E+03  0.00000000000E+00 0. -1.
         22    1    3    3    0    0  0.11739745611E+02 -0.27963221406E+02 -0.68132703425E+03  0.68200167960E+03  0.00000000000E+00 0. -1.
</event>
<event>
 7    1  0.5537228E-006  0.1294119E+03  0.7818608E-02  0.1338438E+00
          2   -1    0    0  502    0  0.00000000000E+00  0.00000000000E+00  0.43163852685E+03  0.43163852685E+03  0.00000000000E+00 0. -1.
          1   -1    0    0  501    0 -0.00000000000E+00 -0.00000000000E+00 -0.33916763569E+03  0.33916763569E+03  0.00000000000E+00 0. -1.
         25    2    1    2    0    0  0.50253437735E+02 -0.79949011917E+02 -0.26199894519E+02  0.15884756886E+03  0.12501545164E+03 0.  0.
          2    1    1    2  501    0 -0.72545480937E+02  0.11967911356E+03 -0.22516734538E+03  0.26511557942E+03  0.00000000000E+00 0. -1.
          1    1    1    2  502    0  0.22292043202E+02 -0.39730101640E+02  0.34383813106E+03  0.34684301425E+03  0.00000000000E+00 0. -1.
         22    1    3    3    0    0  0.79826774702E+02 -0.10473506470E+02 -0.62747714490E+01  0.80755068286E+02  0.00000000000E+00 0.  1.
         22    1    3    3    0    0 -0.29573336967E+02 -0.69475505447E+02 -0.19925123070E+02  0.78092500574E+02  0.00000000000E+00 0.  1.
</event>
<event>
 7    1  0.5537228E-006  0.1111661E+03  0.7818608E-02  0.1289867E+00
          2   -1    0    0  502    0  0.00000000000E+00  0.00000000000E+00  0.18005736405E+04  0.18005736405E+04  0.00000000000E+00 0. -1.
          1   -1    0    0  501    0 -0.00000000000E+00 -0.00000000000E+00 -0.61030531297E+03  0.61030531297E+03  0.00000000000E+00 0. -1.
         25    2    1    2    0    0  0.85181421717E+02  0.57034357563E+02  0.36022838458E+02  0.16562115103E+03  0.12499571285E+03 0.  0.
          2    1    1    2  501    0 -0.23130537143E+02 -0.11092382401E+03 -0.53861445122E+03  0.55040407297E+03  0.00000000000E+00 0. -1.
          1    1    1    2  502    0 -0.62050884574E+02  0.53889466445E+02  0.16928599403E+04  0.16948537295E+04  0.00000000000E+00 0. -1.
         22    1    3    3    0    0  0.56810213808E+02  0.96981606146E+02  0.20717827134E+02  0.11428937258E+03  0.00000000000E+00 0. -1.
         22    1    3    3    0    0  0.28371207909E+02 -0.39947248583E+02  0.15305011324E+02  0.51331778453E+02  0.00000000000E+00 0. -1.
</event>
