<event>
 7    1  0.6888820E-006  0.4831180E+02  0.7818608E-02  0.1523944E+00
          2   -1    0    0  502    0  0.00000000000E+00  0.00000000000E+00  0.54116631875E+03  0.54116631875E+03  0.00000000000E+00 0. -1.
          1   -1    0    0  501    0 -0.00000000000E+00 -0.00000000000E+00 -0.22287321783E+03  0.22287321783E+03  0.00000000000E+00 0. -1.
         25    2    1    2    0    0  0.32810128860E+02  0.49913788533E+02  0.11214669991E+03  0.17824588561E+03  0.12500729017E+03 0.  0.
          2    1    1    2  501    0  0.10068694508E+02 -0.28041558417E+02 -0.18717817495E+03  0.18953463215E+03  0.00000000000E+00 0. -1.
          1    1    1    2  502    0 -0.42878823368E+02 -0.21872230116E+02  0.39332457596E+03  0.39625901882E+03  0.00000000000E+00 0. -1.
         22    1    3    3    0    0  0.65697240500E+02  0.58117287647E+02  0.35846895484E+02  0.94756247544E+02  0.00000000000E+00 0.  1.
         22    1    3    3    0    0 -0.32887111640E+02 -0.82034991137E+01  0.76299804424E+02  0.83489638069E+02  0.00000000000E+00 0.  1.
</event>
<event>
 7    1  0.6888820E-006  0.6266384E+02  0.7818608E-02  0.1476698E+00
          2   -1    0    0  502    0  0.00000000000E+00  0.00000000000E+00  0.10581444195E+03  0.10581444195E+03  0.00000000000E+00 0. -1.
          1   -1    0    0  501    0 -0.00000000000E+00 -0.00000000000E+00 -0.56554139210E+03  0.56554139210E+03  0.00000000000E+00 0. -1.
         25    2    1    2    0    0 -0.23201989274E+02  0.67667238141E+02  0.22866367261E+02  0.14581933578E+03  0.12499288184E+03 0.  0.
          2    1    1    2  501    0  0.44490908754E+02 -0.44073685270E+02 -0.48910475079E+03  0.49309774684E+03  0.00000000000E+00 0. -1.
          1    1    1    2  502    0 -0.21288919480E+02 -0.23593552871E+02  0.65114333791E+01  0.32438751430E+02  0.00000000000E+00 0. -1.
         22    1    3    3    0    0 -0.15933888147E+02  0.95968469407E+02  0.46888822788E+02  0.10799258129E+03  0.00000000000E+00 0. -1.
         22    1    3    3    0    0 -0.72681011268E+01 -0.28301231266E+02 -0.24022455527E+02  0.37826754483E+02  0.00000000000E+00 0. -1.
</event>
<event>
 7    1  0.6888820E-006  0.8293436E+02  0.7818608E-02  0.1435521E+00
          2   -1    0    0  502    0  0.00000000000E+00  0.00000000000E+00  0.34865127208E+02  0.34865127208E+02  0.00000000000E+00 0. -1.
          1   -1    0    0  501    0 -0.00000000000E+00 -0.00000000000E+00 -0.18831122922E+04  0.18831122922E+04  0.00000000000E+00 0. -1.
         25    2    1    2    0    0  0.53408625766E+02  0.54612992559E+02 -0.49800000233E+03  0.51909910049E+03  0.12499925420E+03 0.  0.
          2    1    1    2  501    0 -0.77653612276E+02 -0.33062631387E+02 -0.13618235261E+04  0.13644363442E+04  0.00000000000E+00 0. -1.
          1    1    1    2  502    0  0.24244986511E+02 -0.21550361172E+02  0.11576363386E+02  0.34441974781E+02  0.00000000000E+00 0. -1.
         22    1    3    3    0    0  0.66501630783E+02 -0.17488347631E+02 -0.30500178382E+03  0.31265699630E+03  0.00000000000E+00 0.  1.
         22    1    3    3    0    0 -0.13093005017E+02  0.72101340190E+02 -0.19299821851E+03  0.20644210419E+03  0.00000000000E+00 0.  1.
</event>
<event>
 7    1  0.6888820E-006  0.1300471E+03  0.7818608E-02  0.1278115E+00
          2   -1    0    0  502    0  0.00000000000E+00  0.00000000000E+00  0.31462399124E+04  0.31462399124E+04  0.00000000000E+00 0. -1.
          1   -1    0    0  501    0 -0.00000000000E+00 -0.00000000000E+00 -0.47374361231E+04  0.47374361231E+04  0.00000000000E+00 0. -1.
         25    2    1    2    0    0 -0.68525307479E+02 -0.69894226798E+02  0.15367811407E+04  0.15449586226E+04  0.12497980021E+03 0.  0.
          2    1    1    2  501    0 -0.77810522154E+02 -0.10453913189E+02 -0.47286805317E+04  0.47293322291E+04  0.00000000000E+00 0. -1.
          1    1    1    2  502    0  0.14633582963E+03  0.80348139987E+02  0.16007031803E+04  0.16093851839E+04  0.00000000000E+00 0. -1.
         22    1    3    3    0    0 -0.13893386704E+02 -0.15222570170E+02  0.11672185976E+04  0.11674005343E+04  0.00000000000E+00 0.  1.
         22    1    3    3    0    0 -0.54631920775E+02 -0.54671656629E+02  0.36956254308E+03  0.37755808831E+03  0.00000000000E+00 0.  1.
</event>
<event>
 7    1  0.6888820E-006  0.3763500E+02  0.7818608E-02  0.1568527E+00
          2   -1    0    0  502    0  0.00000000000E+00  0.00000000000E+00  0.98596918786E+03  0.98596918786E+03  0.00000000000E+00 0. -1.
          1   -1    0    0  501    0 -0.00000000000E+00 -0.00000000000E+00 -0.36398566574E+03  0.36398566574E+03  0.00000000000E+00 0. -1.
         25    2    1    2    0    0  0.39029272884E+02  0.51068840553E+02 -0.16224654894E+03  0.21466325240E+03  0.12500023468E+03 0.  0.
          2    1    1    2  501    0 -0.19709941785E+02 -0.29871455380E+02 -0.17348969850E+03  0.17714248823E+03  0.00000000000E+00 0. -1.
          1    1    1    2  502    0 -0.19319331099E+02 -0.21197385173E+02  0.95771976955E+03  0.95814911297E+03  0.00000000000E+00 0. -1.
         22    1    3    3    0    0  0.73804330076E+02 -0.47778209492E+01 -0.74326007248E+02  0.10485352671E+03  0.00000000000E+00 0. -1.
         22    1    3    3    0    0 -0.34775057192E+02  0.55846661502E+02 -0.87920541690E+02  0.10980972568E+03  0.00000000000E+00 0. -1.
</event>
<event>
 7    1  0.6888820E-006  0.4495810E+02  0.7818608E-02  0.1530440E+00
          2   -1    0    0  502    0  0.00000000000E+00  0.00000000000E+00  0.29992906271E+03  0.29992906271E+03  0.00000000000E+00 0. -1.
          1   -1    0    0  501    0 -0.00000000000E+00 -0.00000000000E+00 -0.12345220531E+04  0.12345220531E+04  0.00000000000E+00 0. -1.
         25    2    1    2    0    0 -0.45826270259E+02 -0.27287045636E+02  0.18709396106E+02  0.13718617283E+03  0.12500149842E+03 0.  0.
          2    1    1    2  501    0  0.27407296542E+02 -0.13763444575E+02 -0.11728012135E+04  0.11732021474E+04  0.00000000000E+00 0. -1.
          1    1    1    2  502    0  0.18418973717E+02  0.41050490212E+02  0.21949882696E+03  0.22406279561E+03  0.00000000000E+00 0. -1.
         22    1    3    3    0    0  0.34513252133E+02 -0.99535517584E+01 -0.25320326762E+02  0.43947203697E+02  0.00000000000E+00 0.  1.
         22    1    3    3    0    0 -0.80339522393E+02 -0.17333493878E+02  0.44029722869E+02  0.93238969129E+02  0.00000000000E+00 0.  1.
</event>
<event>
 7    1  0.6888820E-006  0.1777827E+03  0.7818608E-02  0.1224130E+00
          2   -1    0    0  502    0  0.00000000000E+00  0.00000000000E+00  0.31549323028E+04  0.31549323028E+04  0.00000000000E+00 0. -1.
          1   -1    0    0  501    0 -0.00000000000E+00 -0.00000000000E+00 -0.68639955878E+03  0.68639955878E+03  0.00000000000E+00 0. -1.
         25    2    1    2    0    0  0.18312025365E+02  0.11760841569E+03  0.12723083833E+04  0.12839628903E+04  0.12500004675E+03 0.  0.
          2    1    1    2  501    0  0.67895437544E+02 -0.16506023792E+03 -0.66755052467E+03  0.69099810099E+03  0.00000000000E+00 0. -1.
          1    1    1    2  502    0 -0.86207462909E+02  0.47451822229E+02  0.18637748854E+04  0.18663708703E+04  0.00000000000E+00 0. -1.
         22    1    3    3    0    0 -0.84277561992E+01  0.11162172801E+03  0.55736914133E+03  0.56849872203E+03  0.00000000000E+00 0. -1.
         22    1    3    3    0    0  0.26739781564E+02  0.59866876811E+01  0.71493924196E+03  0.71546416825E+03  0.00000000000E+00 0. -1.
</event>
<event>
 7    1  0.6888820E-006  0.1731131E+03  0.7818608E-02  0.1270479E+00
          2   -1    0    0  502    0  0.00000000000E+00  0.00000000000E+00  0.17568930956E+04  0.17568930956E+04  0.00000000000E+00 0. -1.
          1   -1    0    0  501    0 -0.00000000000E+00 -0.00000000000E+00 -0.26318358094E+03  0.26318358094E+03  0.00000000000E+00 0. -1.
         25    2    1    2    0    0  0.17738559233E+03 -0.32184947363E+02  0.57450673750E+03  0.61496825580E+03  0.12500577990E+03 0.  0.
          2    1    1    2  501    0 -0.14880026901E+03  0.88849031537E+02 -0.21104201547E+03  0.27308314257E+03  0.00000000000E+00 0. -1.
          1    1    1    2  502    0 -0.28585323315E+02 -0.56664084174E+02  0.11302447926E+04  0.11320252782E+04  0.00000000000E+00 0. -1.
         22    1    3    3    0    0  0.37122676143E+02 -0.96705324184E+01  0.32974114642E+03  0.33196511251E+03  0.00000000000E+00 0.  1.
         22    1    3    3    0    0  0.14026291618E+03 -0.22514414944E+02  0.24476559108E+03  0.28300314329E+03  0.00000000000E+00 0.  1.
</event>
<event>
 7    1  0.6888820E-006  0.5794971E+02  0.7818608E-02  0.1453301E+00
          2   -1    0    0  502    0  0.00000000000E+00  0.00000000000E+00  0.17293547435E+03  0.17293547435E+03  0.00000000000E+00 0. -1.
          1   -1    0    0  501    0 -0.00000000000E+00 -0.00000000000E+00 -0.16617160734E+03  0.16617160734E+03  0.00000000000E+00 0. -1.
         25    2    1    2    0    0  0.54637541494E+01  0.21406672402E+02 -0.21078101047E+02  0.12867673783E+03  0.12500127312E+03 0.  0.
          2    1    1    2  501    0 -0.28965446665E+01  0.40578446328E+02 -0.77871445621E+02  0.87857625283E+02  0.00000000000E+00 0. -1.
          1    1    1    2  502    0 -0.25672094829E+01 -0.61985118730E+02  0.10571341368E+03  0.12257271858E+03  0.00000000000E+00 0. -1.
         22    1    3    3    0    0 -0.22866343645E+01 -0.52506380050E+02 -0.67175143496E+01  0.52983711098E+02  0.00000000000E+00 0.  1.
         22    1    3    3    0    0  0.77503885139E+01  0.73913052452E+02 -0.14360586697E+02  0.75693026728E+02  0.00000000000E+00 0.  1.
</event>
<event>
 7    1  0.6888820E-006  0.5231389E+02  0.7818608E-02  0.1470413E+00
          2   -1    0    0  502    0  0.00000000000E+00  0.00000000000E+00  0.16561822174E+04  0.16561822174E+04  0.00000000000E+00 0. -1.
          1   -1    0    0  501    0 -0.00000000000E+00 -0.00000000000E+00 -0.76879942859E+02  0.76879942859E+02  0.00000000000E+00 0. -1.
         25    2    1    2    0    0  0.27612621286E+02 -0.11232372959E+02  0.51145471355E+03  0.52735092488E+03  0.12499780358E+03 0.  0.
          2    1    1    2  501    0 -0.47598107066E+02 -0.23197247358E+02 -0.58359647450E+02  0.78800637889E+02  0.00000000000E+00 0. -1.
          1    1    1    2  502    0  0.19985485780E+02  0.34429620317E+02  0.11262072084E+04  0.11269105975E+04  0.00000000000E+00 0. -1.
         22    1    3    3    0    0  0.31842242290E+02  0.53196502905E+02  0.20508842756E+03  0.21425466024E+03  0.00000000000E+00 0. -1.
         22    1    3    3    0    0 -0.42296210040E+01 -0.64428875864E+02  0.30636628599E+03  0.31309626464E+03  0.00000000000E+00 0. -1.
</event>
<event>
 7    1  0.6888820E-006  0.6814104E+02  0.7818608E-02  0.1395533E+00
          2   -1    0    0  502    0  0.00000000000E+00  0.00000000000E+00  0.31445501576E+02  0.31445501576E+02  0.00000000000E+00 0. -1.
          1   -1    0    0  501    0 -0.00000000000E+00 -0.00000000000E+00 -0.15586947517E+04  0.15586947517E+04  0.00000000000E+00 0. -1.
         25    2    1    2    0    0  0.15540709938E+02 -0.10541793866E+03 -0.58801056520E+03  0.61052232441E+03  0.12500651329E+03 0.  0.
          2    1    1    2  501    0 -0.34545498191E+02  0.55079033363E+02 -0.92027231001E+03  0.92256610383E+03  0.00000000000E+00 0. -1.
          1    1    1    2  502    0  0.19004788253E+02  0.50338905298E+02 -0.18966374927E+02  0.57051825045E+02  0.00000000000E+00 0. -1.
         22    1    3    3    0    0  0.57640698108E+02 -0.14756249572E+02 -0.29470095627E+03  0.30064738583E+03  0.00000000000E+00 0. -1.
         22    1    3    3    0    0 -0.42099988170E+02 -0.90661689089E+02 -0.29330960893E+03  0.30987493859E+03  0.00000000000E+00 0. -1.
</event>
<event>
 7    1  0.6888820E-006  0.8810566E+02  0.7818608E-02  0.1342736E+00
          2   -1    0    0  502    0  0.00000000000E+00  0.00000000000E+00  0.14095178935E+04  0.14095178935E+04  0.00000000000E+00 0. -1.
          1   -1    0    0  501    0 -0.00000000000E+00 -0.00000000000E+00 -0.58711327273E+03  0.58711327273E+03  0.00000000000E+00 0. -1.
         25    2    1    2    0    0 -0.24702179085E+02 -0.15365638398E+02  0.33555775979E+02  0.13265189609E+03  0.12499693972E+03 0.  0.
          2    1    1    2  501    0 -0.64412468843E+02  0.27544268607E+01 -0.53409765837E+03  0.53797477793E+03  0.00000000000E+00 0. -1.
          1    1    1    2  502    0  0.89114647929E+02  0.12611211538E+02  0.13229465031E+04  0.13260044922E+04  0.00000000000E+00 0. -1.
         22    1    3    3    0    0 -0.12521310690E+02 -0.54030452141E+02 -0.25482124327E+02  0.61036150274E+02  0.00000000000E+00 0.  1.
         22    1    3    3    0    0 -0.12180868395E+02  0.38664813743E+02  0.59037900306E+02  0.71615745819E+02  0.00000000000E+00 0.  1.
</event>
<event>
 7    1  0.6888820E-006  0.6874054E+02  0.7818608E-02  0.1370659E+00
          2   -1    0    0  502    0  0.00000000000E+00  0.00000000000E+00  0.54387188806E+03  0.54387188806E+03  0.00000000000E+00 0. -1.
          1   -1    0    0  501    0 -0.00000000000E+00 -0.00000000000E+00 -0.16288719746E+03  0.16288719746E+03  0.00000000000E+00 0. -1.
         25    2    1    2    0    0  0.42119149764E+01 -0.58951626145E+02  0.11267169971E+03  0.17836788843E+03  0.12500862872E+03 0.  0.
          2    1    1    2  501    0  0.60065079862E+02  0.25549001273E+02 -0.11826652564E+03  0.13508344225E+03  0.00000000000E+00 0. -1.
          1    1    1    2  502    0 -0.64276994838E+02  0.33402624872E+02  0.38657951653E+03  0.39330775484E+03  0.00000000000E+00 0. -1.
         22    1    3    3    0    0 -0.16068796406E+02 -0.84764889249E+02  0.11687893011E+03  0.14527207912E+03  0.00000000000E+00 0. -1.
         22    1    3    3    0    0  0.20280711382E+02  0.25813263104E+02 -0.42072304027E+01  0.33095809311E+02  0.00000000000E+00 0. -1.
</event>
<event>
 7    1  0.6888820E-006  0.5203898E+02  0.7818608E-02  0.1475325E+00
          2   -1    0    0  502    0  0.00000000000E+00  0.00000000000E+00  0.23728875085E+04  0.23728875085E+04  0.00000000000E+00 0. -1.
          1   -1    0    0  501    0 -0.00000000000E+00 -0.00000000000E+00 -0.15051320593E+03  0.15051320593E+03  0.00000000000E+00 0. -1.
         25    2    1    2    0    0 -0.41226101122E+02 -0.57780463426E+02  0.19412070953E+03  0.24154488476E+03  0.12499163219E+03 0.  0.
          2    1    1    2  501    0  0.38182676807E+02  0.59395596767E+01 -0.12353658811E+03  0.12943911225E+03  0.00000000000E+00 0. -1.
          1    1    1    2  502    0  0.30434243154E+01  0.51840903749E+02  0.21517901812E+04  0.21524167175E+04  0.00000000000E+00 0. -1.
         22    1    3    3    0    0 -0.75134876442E+02 -0.23973641391E+02  0.59888860564E+02  0.99028585566E+02  0.00000000000E+00 0.  1.
         22    1    3    3    0    0  0.33908775320E+02 -0.33806822034E+02  0.13423184896E+03  0.14251629919E+03  0.00000000000E+00 0.  1.
</event>
<event>
 7    1  0.6888820E-006  0.1004416E+03  0.7818608E-02  0.1309682E+00
          2   -1    0    0  502    0  0.00000000000E+00  0.00000000000E+00  0.66965206935E+03  0.66965206935E+03  0.00000000000E+00 0. -1.
          1   -1    0    0  501    0 -0.00000000000E+00 -0.00000000000E+00 -0.97237747880E+02  0.97237747880E+02  0.00000000000E+00 0. -1.
         25    2    1    2    0    0  0.17056078618E+02  0.13303939222E+03  0.28649803085E+03  0.34014052389E+03  0.12499625839E+03 0.  0.
          2    1    1    2  501    0  0.45779957629E+02 -0.60375968040E+02 -0.40902142048E+02  0.86104862008E+02  0.00000000000E+00 0. -1.
          1    1    1    2  502    0 -0.62836036247E+02 -0.72663424179E+02  0.32681843267E+03  0.34064443133E+03  0.00000000000E+00 0. -1.
         22    1    3    3    0    0  0.30092573010E+00 -0.16347569304E+01 -0.12065832860E+02  0.12179791013E+02  0.00000000000E+00 0. -1.
         22    1    3    3    0    0  0.16755152888E+02  0.13467414915E+03  0.29856386371E+03  0.32796073288E+03  0.00000000000E+00 0. -1.
</event>
<event>
 7    1  0.1006098E-005  0.6593205E+02  0.7818608E-02  0.1388383E+00
          2   -1    0    0  502    0  0.00000000000E+00  0.00000000000E+00  0.10926680062E+04  0.10926680062E+04  0.00000000000E+00 0. -1.
          1   -1    0    0  501    0 -0.00000000000E+00 -0.00000000000E+00 -0.20766660474E+04  0.20766660474E+04  0.00000000000E+00 0. -1.
         25    2    1    2    0    0  0.33922367805E+02  0.58681700622E+02 -0.41080188163E+03  0.43470993530E+03  0.12498109008E+03 0.  0.
          2    1    1    2  501    0 -0.58838331909E+02  0.24238526375E+01 -0.16523777794E+04  0.16534267901E+04  0.00000000000E+00 0. -1.
          1    1    1    2  502    0  0.24915964104E+02 -0.61105553259E+02  0.10791816199E+04  0.10811973282E+04  0.00000000000E+00 0. -1.
         22    1    3    3    0    0 -0.31351162978E+02 -0.85508541728E+01 -0.21725780190E+03  0.21967467995E+03  0.00000000000E+00 0. -1.
         22    1    3    3    0    0  0.65273530784E+02  0.67232554795E+02 -0.19354407973E+03  0.21503525535E+03  0.00000000000E+00 0. -1.
</event>
<event>
 7    1  0.6888820E-006  0.1141746E+03  0.7818608E-02  0.1257095E+00
          2   -1    0    0  502    0  0.00000000000E+00  0.00000000000E+00  0.58487835485E+03  0.58487835485E+03  0.00000000000E+00 0. -1.
          1   -1    0    0  501    0 -0.00000000000E+00 -0.00000000000E+00 -0.12583730603E+04  0.12583730603E+04  0.00000000000E+00 0. -1.
         25    2    1    2    0    0  0.11717744768E+03 -0.13589111187E+03  0.85058031994E+02  0.23464129261E+03  0.12499887545E+03 0.  0.
          2    1    1    2  501    0 -0.11050577069E+03  0.26427241038E+02 -0.11737179520E+04  0.11792047131E+04  0.00000000000E+00 0. -1.
          1    1    1    2  502    0 -0.66716769875E+01  0.10946387083E+03  0.41516521457E+03  0.42940540947E+03  0.00000000000E+00 0. -1.
         22    1    3    3    0    0  0.69792952396E+02 -0.74610910440E+02  0.11295806171E+03  0.15230682147E+03  0.00000000000E+00 0.  1.
         22    1    3    3    0    0  0.47384495283E+02 -0.61280201430E+02 -0.27900029716E+02  0.82334471145E+02  0.00000000000E+00 0.  1.
</event>
<event>
 7    1  0.6888820E-006  0.4226388E+02  0.7818608E-02  0.1516394E+00
          2   -1    0    0  502    0  0.00000000000E+00  0.00000000000E+00  0.11757310456E+04  0.11757310456E+04  0.00000000000E+00 0. -1.
          1   -1    0    0  501    0 -0.00000000000E+00 -0.00000000000E+00 -0.39494713747E+03  0.39494713747E+03  0.00000000000E+00 0. -1.
         25    2    1    2    0    0 -0.47421700266E+02 -0.44590210081E+02  0.71866298465E+03  0.73235125489E+03  0.12499908216E+03 0.  0.
          2    1    1    2  501    0  0.84618917241E+01  0.34807280515E+02 -0.38637689845E+03  0.38803383621E+03  0.00000000000E+00 0. -1.
          1    1    1    2  502    0  0.38959808542E+02  0.97829295662E+01  0.44849782197E+03  0.45029309200E+03  0.00000000000E+00 0. -1.
         22    1    3    3    0    0 -0.72586815918E+02  0.96880003206E+01  0.27146179942E+03  0.28116580827E+03  0.00000000000E+00 0. -1.
         22    1    3    3    0    0  0.25165115652E+02 -0.54278210402E+02  0.44720118523E+03  0.45118544662E+03  0.00000000000E+00 0. -1.
</event>
<event>
 7    1  0.6888820E-006  0.1837017E+03  0.7818608E-02  0.1214481E+00
          2   -1    0    0  502    0  0.00000000000E+00  0.00000000000E+00  0.15031951877E+04  0.15031951877E+04  0.00000000000E+00 0. -1.
          1   -1    0    0  501    0 -0.00000000000E+00 -0.00000000000E+00 -0.34577579509E+03  0.34577579509E+03  0.00000000000E+00 0. -1.
         25    2    1    2    0    0 -0.78660497871E+02  0.37846180039E+02  0.28997906098E+03  0.32761567389E+03  0.12499746678E+03 0.  0.
          2    1    1    2  501    0  0.17117148937E+03 -0.88350394057E+02 -0.29599524350E+03  0.35315528465E+03  0.00000000000E+00 0. -1.
          1    1    1    2  502    0 -0.92510991501E+02  0.50504214018E+02  0.11634355751E+04  0.11682000242E+04  0.00000000000E+00 0. -1.
         22    1    3    3    0    0  0.78291435665E+01  0.32853177627E+02  0.11038392260E+02  0.35531294275E+02  0.00000000000E+00 0. -1.
         22    1    3    3    0    0 -0.86489641438E+02  0.49930024125E+01  0.27894066872E+03  0.29208437962E+03  0.00000000000E+00 0. -1.
</event>
<event>
 7    1  0.6888820E-006  0.6633068E+02  0.7818608E-02  0.1528178E+00
          2   -1    0    0  502    0  0.00000000000E+00  0.00000000000E+00  0.67523395485E+03  0.67523395485E+03  0.00000000000E+00 0. -1.
          1   -1    0    0  501    0 -0.00000000000E+00 -0.00000000000E+00 -0.38921432330E+02  0.38921432330E+02  0.00000000000E+00 0. -1.
         25    2    1    2    0    0  0.25447239075E+02 -0.63408016326E+02  0.24293965673E+03  0.28162599419E+03  0.12500154112E+03 0.  0.
          2    1    1    2  501    0 -0.42568853213E+02  0.51076925573E+02  0.38104355535E+02  0.76634858261E+02  0.00000000000E+00 0. -1.
          1    1    1    2  502    0  0.17121614138E+02  0.12331090752E+02  0.35526851025E+03  0.35589453472E+03  0.00000000000E+00 0. -1.
         22    1    3    3    0    0 -0.69452030709E+01 -0.72151323419E+02  0.23663418753E+03  0.24748694516E+03  0.00000000000E+00 0. -1.
         22    1    3    3    0    0  0.32392442146E+02  0.87433070930E+01  0.63054692035E+01  0.34139049034E+02  0.00000000000E+00 0. -1.
</event>
<event>
 7    1  0.6888820E-006  0.6319666E+02  0.7818608E-02  0.1505807E+00
          2   -1    0    0  502    0  0.00000000000E+00  0.00000000000E+00  0.24367524512E+03  0.24367524512E+03  0.00000000000E+00 0. -1.
          1   -1    0    0  501    0 -0.00000000000E+00 -0.00000000000E+00 -0.24647391515E+03  0.24647391515E+03  0.00000000000E+00 0. -1.
         25    2    1    2    0    0  0.28043368178E+02 -0.76387412342E+02  0.14764654783E+03  0.20986898005E+03  0.12499607368E+03 0.  0.
          2    1    1    2  501    0 -0.64011798419E+01  0.62461530313E+02 -0.20798035002E+03  0.21725156816E+03  0.00000000000E+00 0. -1.
          1    1    1    2  502    0 -0.21642188336E+02  0.13925882029E+02  0.57535132153E+02  0.63028612060E+02  0.00000000000E+00 0. -1.
         22    1    3    3    0    0  0.17404296352E+02 -0.90081735474E+02  0.16277825372E+03  0.18685392284E+03  0.00000000000E+00 0. -1.
         22    1    3    3    0    0  0.10639071826E+02  0.13694323132E+02 -0.15131705883E+02  0.23015057208E+02  0.00000000000E+00 0. -1.
</event>
<event>
 7    1  0.6888820E-006  0.7604362E+02  0.7818608E-02  0.1424464E+00
          2   -1    0    0  502    0  0.00000000000E+00  0.00000000000E+00  0.70270325648E+03  0.70270325648E+03  0.00000000000E+00 0. -1.
          1   -1    0    0  501    0 -0.00000000000E+00 -0.00000000000E+00 -0.55221798370E+02  0.55221798370E+02  0.00000000000E+00 0. -1.
         25    2    1    2    0    0  0.45848241248E+02 -0.15982422511E+02  0.14650729061E+03  0.19861046979E+03  0.12499693377E+03 0.  0.
          2    1    1    2  501    0  0.14968417438E+02 -0.35439351504E+02 -0.11918983678E+02  0.40274847331E+02  0.00000000000E+00 0. -1.
          1    1    1    2  502    0 -0.60816658686E+02  0.51421774016E+02  0.51289315118E+03  0.51903973774E+03  0.00000000000E+00 0. -1.
         22    1    3    3    0    0  0.54429868797E+02 -0.40451530230E+02  0.21796124926E+02  0.71232071267E+02  0.00000000000E+00 0.  1.
         22    1    3    3    0    0 -0.85816275484E+01  0.24469107719E+02  0.12471116568E+03  0.12737839852E+03  0.00000000000E+00 0.  1.
</event>
<event>
 7    1  0.6888820E-006  0.1145420E+03  0.7818608E-02  0.1321619E+00
          2   -1    0    0  502    0  0.00000000000E+00  0.00000000000E+00  0.10005366774E+04  0.10005366774E+04  0.00000000000E+00 0. -1.
          1   -1    0    0  501    0 -0.00000000000E+00 -0.00000000000E+00 -0.16739192693E+03  0.16739192693E+03  0.00000000000E+00 0. -1.
         25    2    1    2    0    0  0.80602664354E+02 -0.11015689902E+03  0.43762146771E+03  0.47514984564E+03  0.12499397948E+03 0.  0.
          2    1    1    2  501    0 -0.59662363580E+02  0.13629866556E+01 -0.13669341706E+03  0.14915275937E+03  0.00000000000E+00 0. -1.
          1    1    1    2  502    0 -0.20940300774E+02  0.10879391237E+03  0.53221669984E+03  0.54362599933E+03  0.00000000000E+00 0. -1.
         22    1    3    3    0    0 -0.97663067917E+01 -0.91988893965E+02  0.23476197800E+03  0.25233018780E+03  0.00000000000E+00 0. -1.
         22    1    3    3    0    0  0.90368971146E+02 -0.18168005059E+02  0.20285948971E+03  0.22281965784E+03  0.00000000000E+00 0. -1.
</event>
<event>
 7    1  0.6888820E-006  0.7873266E+02  0.7818608E-02  0.1485236E+00
          2   -1    0    0  502    0  0.00000000000E+00  0.00000000000E+00  0.76479407918E+03  0.76479407918E+03  0.00000000000E+00 0. -1.
          1   -1    0    0  501    0 -0.00000000000E+00 -0.00000000000E+00 -0.80424071714E+03  0.80424071714E+03  0.00000000000E+00 0. -1.
         25    2    1    2    0    0 -0.46670502704E+02 -0.50151380379E+02 -0.23135177266E+03  0.27173854057E+03  0.12499957977E+03 0.  0.
          2    1    1    2  501    0  0.36634000012E+02  0.71747600922E+02 -0.54956786975E+03  0.55544091644E+03  0.00000000000E+00 0. -1.
          1    1    1    2  502    0  0.10036502692E+02 -0.21596220543E+02  0.74147300445E+03  0.74185533931E+03  0.00000000000E+00 0. -1.
         22    1    3    3    0    0 -0.64559459683E+02 -0.70611026066E+02 -0.10316039451E+03  0.14069793116E+03  0.00000000000E+00 0. -1.
         22    1    3    3    0    0  0.17888956979E+02  0.20459645687E+02 -0.12819137814E+03  0.13104060941E+03  0.00000000000E+00 0. -1.
</event>
<event>
 7    1  0.6888820E-006  0.7139867E+02  0.7818608E-02  0.1434335E+00
          2   -1    0    0  502    0  0.00000000000E+00  0.00000000000E+00  0.53934223102E+03  0.53934223102E+03  0.00000000000E+00 0. -1.
          1   -1    0    0  501    0 -0.00000000000E+00 -0.00000000000E+00 -0.34181234268E+03  0.34181234268E+03  0.00000000000E+00 0. -1.
         25    2    1    2    0    0 -0.83654359509E+01  0.10186568046E+03  0.36738749219E+02  0.16559494329E+03  0.12500140868E+03 0.  0.
          2    1    1    2  501    0 -0.13992051219E+02 -0.35348579096E+02 -0.27325020215E+03  0.27588217144E+03  0.00000000000E+00 0. -1.
          1    1    1    2  502    0  0.22357487170E+02 -0.66517101367E+02  0.43404134127E+03  0.43967745898E+03  0.00000000000E+00 0. -1.
         22    1    3    3    0    0 -0.53607265925E+02  0.10290282462E+03  0.29976963070E+02  0.11983884425E+03  0.00000000000E+00 0. -1.
         22    1    3    3    0    0  0.45241829975E+02 -0.10371441587E+01  0.67617861488E+01  0.45756099040E+02  0.00000000000E+00 0. -1.
</event>
<event>
 7    1  0.6888820E-006  0.4617972E+02  0.7818608E-02  0.1493815E+00
          2   -1    0    0  502    0  0.00000000000E+00  0.00000000000E+00  0.10186560195E+04  0.10186560195E+04  0.00000000000E+00 0. -1.
          1   -1    0    0  501    0 -0.00000000000E+00 -0.00000000000E+00 -0.14905648886E+03  0.14905648886E+03  0.00000000000E+00 0. -1.
         25    2    1    2    0    0 -0.40654487947E+02  0.15530666102E+02  0.36399537306E+03  0.38730735559E+03  0.12498146706E+03 0.  0.
          2    1    1    2  501    0 -0.10339866952E+01 -0.38230625398E+02 -0.13384234501E+03  0.13919922114E+03  0.00000000000E+00 0. -1.
          1    1    1    2  502    0  0.41688474642E+02  0.22699959295E+02  0.63944650255E+03  0.64120593158E+03  0.00000000000E+00 0. -1.
         22    1    3    3    0    0 -0.53060148917E+02  0.58257098385E+02  0.15796833888E+03  0.17653120122E+03  0.00000000000E+00 0.  1.
         22    1    3    3    0    0  0.12405660970E+02 -0.42726432283E+02  0.20602703418E+03  0.21077615437E+03  0.00000000000E+00 0.  1.
</event>
<event>
 7    1  0.6888820E-006  0.8739904E+02  0.7818608E-02  0.1413600E+00
          2   -1    0    0  502    0  0.00000000000E+00  0.00000000000E+00  0.51547952660E+03  0.51547952660E+03  0.00000000000E+00 0. -1.
          1   -1    0    0  501    0 -0.00000000000E+00 -0.00000000000E+00 -0.19310029602E+04  0.19310029602E+04  0.00000000000E+00 0. -1.
         25    2    1    2    0    0 -0.11521613659E+03  0.42923123254E+02  0.15722791295E+03  0.23550555567E+03  0.12500039001E+03 0.  0.
          2    1    1    2  501    0  0.79521803080E+02 -0.35823447978E+02 -0.18898174391E+04  0.18918290064E+04  0.00000000000E+00 0. -1.
          1    1    1    2  502    0  0.35694333507E+02 -0.70996752765E+01  0.31706609250E+03  0.31914792471E+03  0.00000000000E+00 0. -1.
         22    1    3    3    0    0 -0.13243641083E+03  0.14999681348E+02  0.90366921107E+02  0.16102972951E+03  0.00000000000E+00 0. -1.
         22    1    3    3    0    0  0.17220274243E+02  0.27923441907E+02  0.66860991844E+02  0.74475826167E+02  0.00000000000E+00 0. -1.
</event>
<event>
 7    1  0.6888820E-006  0.1361530E+03  0.7818608E-02  0.1298975E+00
          2   -1    0    0  502    0  0.00000000000E+00  0.00000000000E+00  0.88259787640E+03  0.88259787640E+03  0.00000000000E+00 0. -1.
          1   -1    0    0  501    0 -0.00000000000E+00 -0.00000000000E+00 -0.28913077767E+03  0.28913077767E+03  0.00000000000E+00 0. -1.
         25    2    1    2    0    0  0.10673798691E+03  0.12663748261E+03 -0.27308455429E+01  0.20751553680E+03  0.12500076258E+03 0.  0.
          2    1    1    2  501    0 -0.45184586906E+02 -0.12313601242E+03 -0.15921689805E+03  0.20628656058E+03  0.00000000000E+00 0. -1.
          1    1    1    2  502    0 -0.61553400000E+02 -0.35014701865E+01  0.75541484232E+03  0.75792655670E+03  0.00000000000E+00 0. -1.
         22    1    3    3    0    0  0.12518241627E+03  0.94743297326E+02 -0.32290602826E+02  0.16027979524E+03  0.00000000000E+00 0.  1.
         22    1    3    3    0    0 -0.18444429367E+02  0.31894185284E+02  0.29559757284E+02  0.47235741555E+02  0.00000000000E+00 0.  1.
</event>
<event>
 7    1  0.6888820E-006  0.2313130E+03  0.7818608E-02  0.1215462E+00
          2   -1    0    0  502    0  0.00000000000E+00  0.00000000000E+00  0.28588014627E+03  0.28588014627E+03  0.00000000000E+00 0. -1.
          1   -1    0    0  501    0 -0.00000000000E+00 -0.00000000000E+00 -0.11746720522E+04  0.11746720522E+04  0.00000000000E+00 0. -1.
         25    2    1    2    0    0  0.57866947485E+01  0.21732171949E+03 -0.16412420711E+02  0.25131165902E+03  0.12500386716E+03 0.  0.
          2    1    1    2  501    0  0.81888120053E+02  0.12519490902E+02 -0.94821048348E+03  0.95182221178E+03  0.00000000000E+00 0. -1.
          1    1    1    2  502    0 -0.87674814801E+02 -0.22984121039E+03  0.75830998232E+02  0.25741832771E+03  0.00000000000E+00 0. -1.
         22    1    3    3    0    0 -0.42044173037E+02  0.53119586730E+02  0.30013081519E+02  0.74095803140E+02  0.00000000000E+00 0. -1.
         22    1    3    3    0    0  0.47830867785E+02  0.16420213276E+03 -0.46425502231E+02  0.17721585588E+03  0.00000000000E+00 0. -1.
</event>
<event>
 7    1  0.6888820E-006  0.6606656E+02  0.7818608E-02  0.1431591E+00
          2   -1    0    0  502    0  0.00000000000E+00  0.00000000000E+00  0.54982322530E+03  0.54982322530E+03  0.00000000000E+00 0. -1.
          1   -1    0    0  501    0 -0.00000000000E+00 -0.00000000000E+00 -0.72807537880E+03  0.72807537880E+03  0.00000000000E+00 0. -1.
         25    2    1    2    0    0 -0.30877522306E+02  0.90496981785E+02  0.15084833730E+03  0.21797589125E+03  0.12496056659E+03 0.  0.
          2    1    1    2  501    0  0.32528410753E+02 -0.26482145124E+02 -0.69106532748E+03  0.69233712046E+03  0.00000000000E+00 0. -1.
          1    1    1    2  502    0 -0.16508884464E+01 -0.64014836661E+02  0.36196483668E+03  0.36758559240E+03  0.00000000000E+00 0. -1.
         22    1    3    3    0    0 -0.19362992538E+02  0.27565938983E+02 -0.17442692150E+02  0.37934864986E+02  0.00000000000E+00 0. -1.
         22    1    3    3    0    0 -0.11514529768E+02  0.62931042802E+02  0.16829102945E+03  0.18004102626E+03  0.00000000000E+00 0. -1.
</event>
<event>
 7    1  0.6888820E-006  0.7819627E+02  0.7818608E-02  0.1341648E+00
          2   -1    0    0  502    0  0.00000000000E+00  0.00000000000E+00  0.15226116081E+04  0.15226116081E+04  0.00000000000E+00 0. -1.
          1   -1    0    0  501    0 -0.00000000000E+00 -0.00000000000E+00 -0.86825410581E+02  0.86825410581E+02  0.00000000000E+00 0. -1.
         25    2    1    2    0    0  0.34786763418E+02 -0.57224450032E+00  0.61761101334E+02  0.14370037798E+03  0.12499967448E+03 0.  0.
          2    1    1    2  501    0 -0.98781621479E+02  0.36370373626E+02  0.16876754512E+02  0.10660880668E+03  0.00000000000E+00 0. -1.
          1    1    1    2  502    0  0.63994858061E+02 -0.35798129126E+02  0.13571483417E+04  0.13591278340E+04  0.00000000000E+00 0. -1.
         22    1    3    3    0    0  0.51657407123E+02  0.52582413637E+02  0.39746425299E+02  0.83744708839E+02  0.00000000000E+00 0.  1.
         22    1    3    3    0    0 -0.16870643705E+02 -0.53154658137E+02  0.22014676035E+02  0.59955669137E+02  0.00000000000E+00 0.  1.
</event>
<event>
 7    1  0.6888820E-006  0.5997390E+02  0.7818608E-02  0.1507464E+00
          2   -1    0    0  502    0  0.00000000000E+00  0.00000000000E+00  0.67107077758E+03  0.67107077758E+03  0.00000000000E+00 0. -1.
          1   -1    0    0  501    0 -0.00000000000E+00 -0.00000000000E+00 -0.33579346715E+03  0.33579346715E+03  0.00000000000E+00 0. -1.
         25    2    1    2    0    0  0.35094928650E+02 -0.21623126856E+02 -0.14349060572E+02  0.13239338534E+03  0.12499159695E+03 0.  0.
          2    1    1    2  501    0  0.10379397438E+01 -0.26794015647E+02 -0.26024087035E+03  0.26161862929E+03  0.00000000000E+00 0. -1.
          1    1    1    2  502    0 -0.36132868394E+02  0.48417142503E+02  0.60986724135E+03  0.61285223010E+03  0.00000000000E+00 0. -1.
         22    1    3    3    0    0  0.93247266138E+01 -0.73286834549E+02 -0.83773405459E+01  0.74351129644E+02  0.00000000000E+00 0. -1.
         22    1    3    3    0    0  0.25770202037E+02  0.51663707694E+02 -0.59717200263E+01  0.58042255691E+02  0.00000000000E+00 0. -1.
</event>
<event>
 7    1  0.6888820E-006  0.3374947E+03  0.7818608E-02  0.1292456E+00
          2   -1    0    0  502    0  0.00000000000E+00  0.00000000000E+00  0.96271904045E+03  0.96271904045E+03  0.00000000000E+00 0. -1.
          1   -1    0    0  501    0 -0.00000000000E+00 -0.00000000000E+00 -0.10031543780E+04  0.10031543780E+04  0.00000000000E+00 0. -1.
         25    2    1    2    0    0  0.28559993873E+03 -0.13321306517E+03 -0.16636149464E+03  0.37764247223E+03  0.12499857678E+03 0.  0.
          2    1    1    2  501    0  0.26260503908E+02 -0.29305129830E+01 -0.69711702550E+03  0.69761762392E+03  0.00000000000E+00 0. -1.
          1    1    1    2  502    0 -0.31186044263E+03  0.13614357816E+03  0.82304318256E+03  0.89061332233E+03  0.00000000000E+00 0. -1.
         22    1    3    3    0    0  0.25390358620E+02  0.34967187719E+01 -0.59670538935E+02  0.64942055479E+02  0.00000000000E+00 0. -1.
         22    1    3    3    0    0  0.26020958011E+03 -0.13670978394E+03 -0.10669095570E+03  0.31270041675E+03  0.00000000000E+00 0. -1.
</event>
<event>
 7    1  0.6888820E-006  0.1141985E+03  0.7818608E-02  0.1271025E+00
          2   -1    0    0  502    0  0.00000000000E+00  0.00000000000E+00  0.30319571531E+04  0.30319571531E+04  0.00000000000E+00 0. -1.
          1   -1    0    0  501    0 -0.00000000000E+00 -0.00000000000E+00 -0.25482990468E+03  0.25482990468E+03  0.00000000000E+00 0. -1.
         25    2    1    2    0    0  0.17273411016E+03  0.11070757289E+03  0.12049790159E+03  0.26877214167E+03  0.12500192136E+03 0.  0.
          2    1    1    2  501    0 -0.68953457933E+02 -0.66364544494E+02 -0.16681408651E+03  0.19231685206E+03  0.00000000000E+00 0. -1.
          1    1    1    2  502    0 -0.10378065223E+03 -0.44343028399E+02  0.28234434333E+04  0.28256980640E+04  0.00000000000E+00 0. -1.
         22    1    3    3    0    0  0.13907499948E+03  0.12089400992E+03  0.51510950756E+02  0.19133895359E+03  0.00000000000E+00 0. -1.
         22    1    3    3    0    0  0.33659110681E+02 -0.10186437025E+02  0.68986950834E+02  0.77433188082E+02  0.00000000000E+00 0. -1.
</event>
<event>
 7    1  0.6888820E-006  0.8862775E+02  0.7818608E-02  0.1336282E+00
          2   -1    0    0  502    0  0.00000000000E+00  0.00000000000E+00  0.17407964971E+04  0.17407964971E+04  0.00000000000E+00 0. -1.
          1   -1    0    0  501    0 -0.00000000000E+00 -0.00000000000E+00 -0.37450511039E+03  0.37450511039E+03  0.00000000000E+00 0. -1.
         25    2    1    2    0    0 -0.27788272330E+02 -0.60856752062E+02 -0.15046028132E+03  0.20673790385E+03  0.12500612898E+03 0.  0.
          2    1    1    2  501    0  0.64758806560E+02 -0.20010840476E+02 -0.18885037612E+03  0.20064546175E+03  0.00000000000E+00 0. -1.
          1    1    1    2  502    0 -0.36970534230E+02  0.80867592538E+02  0.17056020441E+04  0.17079182419E+04  0.00000000000E+00 0. -1.
         22    1    3    3    0    0 -0.24327154858E+02  0.21351014266E+02 -0.11073659925E+03  0.11537014643E+03  0.00000000000E+00 0.  1.
         22    1    3    3    0    0 -0.34611174726E+01 -0.82207766328E+02 -0.39723682069E+02  0.91367757420E+02  0.00000000000E+00 0.  1.
</event>
<event>
 7    1  0.6888820E-006  0.5860441E+02  0.7818608E-02  0.1441339E+00
          2   -1    0    0  502    0  0.00000000000E+00  0.00000000000E+00  0.10974755754E+04  0.10974755754E+04  0.00000000000E+00 0. -1.
          1   -1    0    0  501    0 -0.00000000000E+00 -0.00000000000E+00 -0.23852696256E+03  0.23852696256E+03  0.00000000000E+00 0. -1.
         25    2    1    2    0    0  0.68469671644E+02  0.29422056812E+02  0.56871261603E+02  0.15624955802E+03  0.12500332245E+03 0.  0.
          2    1    1    2  501    0 -0.29818293247E+02 -0.50338540667E+02 -0.18380470939E+03  0.19289186215E+03  0.00000000000E+00 0. -1.
          1    1    1    2  502    0 -0.38651378396E+02  0.20916483854E+02  0.98588206061E+03  0.98686111778E+03  0.00000000000E+00 0. -1.
         22    1    3    3    0    0  0.50496831766E+02  0.69263719033E+02  0.69939658047E+02  0.11062978153E+03  0.00000000000E+00 0. -1.
         22    1    3    3    0    0  0.17972839877E+02 -0.39841662221E+02 -0.13068396445E+02  0.45619776494E+02  0.00000000000E+00 0. -1.
</event>
<event>
 7    1  0.6888820E-006  0.6085572E+02  0.7818608E-02  0.1426527E+00
          2   -1    0    0  502    0  0.00000000000E+00  0.00000000000E+00  0.23109047923E+04  0.23109047923E+04  0.00000000000E+00 0. -1.
          1   -1    0    0  501    0 -0.00000000000E+00 -0.00000000000E+00 -0.44700522483E+03  0.44700522483E+03  0.00000000000E+00 0. -1.
         25    2    1    2    0    0 -0.29793228465E+02  0.54105304861E+02  0.13419928115E+03  0.19351889143E+03  0.12500037521E+03 0.  0.
          2    1    1    2  501    0  0.58766334095E+02 -0.16690493266E+02 -0.41484741468E+03  0.41932139470E+03  0.00000000000E+00 0. -1.
          1    1    1    2  502    0 -0.28973105630E+02 -0.37414811595E+02  0.21445477010E+04  0.21450697310E+04  0.00000000000E+00 0. -1.
         22    1    3    3    0    0  0.19541766663E+02 -0.17300637665E+02 -0.76732312608E+01  0.27204249409E+02  0.00000000000E+00 0. -1.
         22    1    3    3    0    0 -0.49334995128E+02  0.71405942526E+02  0.14187251241E+03  0.16631464202E+03  0.00000000000E+00 0. -1.
</event>
<event>
 7    1  0.6888820E-006  0.1303570E+03  0.7818608E-02  0.1384511E+00
          2   -1    0    0  502    0  0.00000000000E+00  0.00000000000E+00  0.14729658395E+03  0.14729658395E+03  0.00000000000E+00 0. -1.
          1   -1    0    0  501    0 -0.00000000000E+00 -0.00000000000E+00 -0.14720710561E+04  0.14720710561E+04  0.00000000000E+00 0. -1.
         25    2    1    2    0    0  0.69595676774E+02  0.95336241866E+02  0.12406842384E+02  0.17237189203E+03  0.12500232872E+03 0.  0.
          2    1    1    2  501    0  0.27890120794E+02  0.12904402125E+02 -0.12949690676E+04  0.12953336514E+04  0.00000000000E+00 0. -1.
          1    1    1    2  502    0 -0.97485797568E+02 -0.10824064399E+03 -0.42212246864E+02  0.15166209653E+03  0.00000000000E+00 0. -1.
         22    1    3    3    0    0  0.80524630695E+02  0.85047642391E+02  0.53397784229E+02  0.12871923316E+03  0.00000000000E+00 0. -1.
         22    1    3    3    0    0 -0.10928953921E+02  0.10288599474E+02 -0.40990941845E+02  0.43652658869E+02  0.00000000000E+00 0. -1.
</event>
<event>
 7    1  0.6888820E-006  0.1157878E+03  0.7818608E-02  0.1306898E+00
          2   -1    0    0  502    0  0.00000000000E+00  0.00000000000E+00  0.72700546374E+03  0.72700546374E+03  0.00000000000E+00 0. -1.
          1   -1    0    0  501    0 -0.00000000000E+00 -0.00000000000E+00 -0.11049766755E+04  0.11049766755E+04  0.00000000000E+00 0. -1.
         25    2    1    2    0    0  0.12665358388E+03  0.25025524229E+02 -0.26987972388E+03  0.32423457107E+03  0.12500233817E+03 0.  0.
          2    1    1    2  501    0 -0.85675623008E+02 -0.78554784623E+02 -0.80209696932E+03  0.81047561022E+03  0.00000000000E+00 0. -1.
          1    1    1    2  502    0 -0.40977960873E+02  0.53529260395E+02  0.69400548147E+03  0.69727195792E+03  0.00000000000E+00 0. -1.
         22    1    3    3    0    0  0.12890455875E+03  0.60510947313E+02 -0.19626891525E+03  0.24248597301E+03  0.00000000000E+00 0. -1.
         22    1    3    3    0    0 -0.22509748719E+01 -0.35485423085E+02 -0.73610808621E+02  0.81748598062E+02  0.00000000000E+00 0. -1.
</event>
<event>
 7    1  0.6888820E-006  0.6829799E+02  0.7818608E-02  0.1457757E+00
          2   -1    0    0  502    0  0.00000000000E+00  0.00000000000E+00  0.16841003017E+04  0.16841003017E+04  0.00000000000E+00 0. -1.
          1   -1    0    0  501    0 -0.00000000000E+00 -0.00000000000E+00 -0.11955432490E+03  0.11955432490E+03  0.00000000000E+00 0. -1.
         25    2    1    2    0    0  0.11169544937E+02 -0.35265559002E+02  0.14322036072E+03  0.19365958309E+03  0.12499417590E+03 0.  0.
          2    1    1    2  501    0  0.20533831861E+02 -0.26356729399E+02 -0.90557527920E+02  0.96524511387E+02  0.00000000000E+00 0. -1.
          1    1    1    2  502    0 -0.31703376798E+02  0.61622288400E+02  0.15118831440E+04  0.15134705321E+04  0.00000000000E+00 0. -1.
         22    1    3    3    0    0 -0.56776410881E+02 -0.11039519330E+02  0.56456535921E+02  0.80825566918E+02  0.00000000000E+00 0. -1.
         22    1    3    3    0    0  0.67945955818E+02 -0.24226039671E+02  0.86763824803E+02  0.11283401617E+03  0.00000000000E+00 0. -1.
</event>
<event>
 7    1  0.6888820E-006  0.4623707E+02  0.7818608E-02  0.1488384E+00
          2   -1    0    0  502    0  0.00000000000E+00  0.00000000000E+00  0.29842748489E+03  0.29842748489E+03  0.00000000000E+00 0. -1.
          1   -1    0    0  501    0 -0.00000000000E+00 -0.00000000000E+00 -0.10308068579E+03  0.10308068579E+03  0.00000000000E+00 0. -1.
         25    2    1    2    0    0 -0.73868935522E+01  0.15352515294E+02  0.24076191122E+02  0.12843229216E+03  0.12499969907E+03 0.  0.
          2    1    1    2  501    0  0.45982294029E+02 -0.24513748155E+02 -0.35164805784E+02  0.62863811359E+02  0.00000000000E+00 0. -1.
          1    1    1    2  502    0 -0.38595400477E+02  0.91612328604E+01  0.20643541377E+03  0.21021206717E+03  0.00000000000E+00 0. -1.
         22    1    3    3    0    0 -0.48111131679E+02  0.13728926009E+02  0.57141754285E+02  0.75949618060E+02  0.00000000000E+00 0. -1.
         22    1    3    3    0    0  0.40724238127E+02  0.16235892857E+01 -0.33065563163E+02  0.52482674098E+02  0.00000000000E+00 0. -1.
</event>
<event>
 7    1  0.6888820E-006  0.1578793E+03  0.7818608E-02  0.1294685E+00
          2   -1    0    0  502    0  0.00000000000E+00  0.00000000000E+00  0.61530406539E+03  0.61530406539E+03  0.00000000000E+00 0. -1.
          1   -1    0    0  501    0 -0.00000000000E+00 -0.00000000000E+00 -0.66670629643E+03  0.66670629643E+03  0.00000000000E+00 0. -1.
         25    2    1    2    0    0 -0.24452675860E+02 -0.16626700023E+03 -0.18987724777E+03  0.28270088428E+03  0.12499508801E+03 0.  0.
          2    1    1    2  501    0 -0.29520909713E+02  0.15411621439E+03 -0.41468937537E+03  0.44338535124E+03  0.00000000000E+00 0. -1.
          1    1    1    2  502    0  0.53973585573E+02  0.12150785840E+02  0.55316439209E+03  0.55592412631E+03  0.00000000000E+00 0. -1.
         22    1    3    3    0    0 -0.16717037708E+02 -0.13278616862E+03 -0.57025348594E+02  0.14547685833E+03  0.00000000000E+00 0.  1.
         22    1    3    3    0    0 -0.77356381517E+01 -0.33480831611E+02 -0.13285189918E+03  0.13722402595E+03  0.00000000000E+00 0.  1.
</event>
<event>
 7    1  0.6888820E-006  0.9852197E+02  0.7818608E-02  0.1309765E+00
          2   -1    0    0  502    0  0.00000000000E+00  0.00000000000E+00  0.43808311637E+03  0.43808311637E+03  0.00000000000E+00 0. -1.
          1   -1    0    0  501    0 -0.00000000000E+00 -0.00000000000E+00 -0.46679964927E+03  0.46679964927E+03  0.00000000000E+00 0. -1.
         25    2    1    2    0    0  0.67478398558E+02 -0.97128385331E+02 -0.30972937127E+02  0.17483430264E+03  0.12498181082E+03 0.  0.
          2    1    1    2  501    0 -0.95789330320E+02  0.25320076895E+02 -0.35292898614E+03  0.36657273679E+03  0.00000000000E+00 0. -1.
          1    1    1    2  502    0  0.28310931762E+02  0.71808308436E+02  0.35518539037E+03  0.36347572622E+03  0.00000000000E+00 0. -1.
         22    1    3    3    0    0  0.80630404744E+02 -0.12063632716E+03 -0.27319478994E+02  0.14765073495E+03  0.00000000000E+00 0.  1.
         22    1    3    3    0    0 -0.13152006186E+02  0.23507941828E+02 -0.36534581326E+01  0.27183567684E+02  0.00000000000E+00 0.  1.
</event>
<event>
 7    1  0.6888820E-006  0.1122756E+03  0.7818608E-02  0.1283215E+00
          2   -1    0    0  502    0  0.00000000000E+00  0.00000000000E+00  0.27862043257E+04  0.27862043257E+04  0.00000000000E+00 0. -1.
          1   -1    0    0  501    0 -0.00000000000E+00 -0.00000000000E+00 -0.15497091611E+04  0.15497091611E+04  0.00000000000E+00 0. -1.
         25    2    1    2    0    0  0.17146032795E+02 -0.89844243655E+02  0.17199640983E+03  0.23145857074E+03  0.12499732163E+03 0.  0.
          2    1    1    2  501    0  0.80933321623E+02  0.30905746949E+02 -0.15174754581E+04  0.15199464246E+04  0.00000000000E+00 0. -1.
          1    1    1    2  502    0 -0.98079354418E+02  0.58938496706E+02  0.25819742129E+04  0.25845084914E+04  0.00000000000E+00 0. -1.
         22    1    3    3    0    0  0.42785941057E+01 -0.11157141186E+03  0.83480305423E+02  0.13941107454E+03  0.00000000000E+00 0. -1.
         22    1    3    3    0    0  0.12867438689E+02  0.21727168202E+02  0.88516104404E+02  0.92047496193E+02  0.00000000000E+00 0. -1.
</event>
<event>
 7    1  0.6888820E-006  0.9325820E+02  0.7818608E-02  0.1346033E+00
          2   -1    0    0  502    0  0.00000000000E+00  0.00000000000E+00  0.34007657548E+03  0.34007657548E+03  0.00000000000E+00 0. -1.
          1   -1    0    0  501    0 -0.00000000000E+00 -0.00000000000E+00 -0.25317476962E+04  0.25317476962E+04  0.00000000000E+00 0. -1.
         25    2    1    2    0    0 -0.12207812135E+03 -0.67635808502E+01  0.13287711442E+03  0.21961434576E+03  0.12500127835E+03 0.  0.
          2    1    1    2  501    0  0.41536239938E+02  0.42191004110E+02 -0.24761854908E+04  0.24768932002E+04  0.00000000000E+00 0. -1.
          1    1    1    2  502    0  0.80541881414E+02 -0.35427423260E+02  0.15163725574E+03  0.17531672570E+03  0.00000000000E+00 0. -1.
         22    1    3    3    0    0 -0.22176398273E+01 -0.11381194860E+02  0.92243438470E+02  0.92969357660E+02  0.00000000000E+00 0. -1.
         22    1    3    3    0    0 -0.11986048152E+03  0.46176140098E+01  0.40633675954E+02  0.12664498810E+03  0.00000000000E+00 0. -1.
</event>
<event>
 7    1  0.6888820E-006  0.7598774E+02  0.7818608E-02  0.1471882E+00
          2   -1    0    0  502    0  0.00000000000E+00  0.00000000000E+00  0.33080448955E+04  0.33080448955E+04  0.00000000000E+00 0. -1.
          1   -1    0    0  501    0 -0.00000000000E+00 -0.00000000000E+00 -0.65667488883E+03  0.65667488883E+03  0.00000000000E+00 0. -1.
         25    2    1    2    0    0  0.84563109471E+02  0.52205017274E+02  0.26653716242E+03  0.31071479427E+03  0.12500136446E+03 0.  0.
          2    1    1    2  501    0 -0.26900019297E+02 -0.34524330123E+01 -0.63382394606E+03  0.63440391308E+03  0.00000000000E+00 0. -1.
          1    1    1    2  502    0 -0.57663090174E+02 -0.48752584262E+02  0.30186567903E+04  0.30196010770E+04  0.00000000000E+00 0. -1.
         22    1    3    3    0    0  0.33843897697E+02  0.85875419125E+02  0.20147406908E+03  0.22161181722E+03  0.00000000000E+00 0. -1.
         22    1    3    3    0    0  0.50719211774E+02 -0.33670401850E+02  0.65063093334E+02  0.89102977043E+02  0.00000000000E+00 0. -1.
</event>
<event>
 7    1  0.6888820E-006  0.5304470E+02  0.7818608E-02  0.1552937E+00
          2   -1    0    0  502    0  0.00000000000E+00  0.00000000000E+00  0.15441603058E+04  0.15441603058E+04  0.00000000000E+00 0. -1.
          1   -1    0    0  501    0 -0.00000000000E+00 -0.00000000000E+00 -0.64838579624E+03  0.64838579624E+03  0.00000000000E+00 0. -1.
         25    2    1    2    0    0  0.12944252016E+02 -0.68500989994E+02  0.10881357176E+03  0.17979334017E+03  0.12500124992E+03 0.  0.
          2    1    1    2  501    0  0.91597056018E+01  0.20507317911E+02 -0.61219128764E+03  0.61260315291E+03  0.00000000000E+00 0. -1.
          1    1    1    2  502    0 -0.22103957618E+02  0.47993672083E+02  0.13991522255E+04  0.14001496090E+04  0.00000000000E+00 0. -1.
         22    1    3    3    0    0  0.17127130904E+02  0.25604930671E+02  0.72614612452E+02  0.78878596775E+02  0.00000000000E+00 0.  1.
         22    1    3    3    0    0 -0.41828788886E+01 -0.94105920665E+02  0.36198959311E+02  0.10091474340E+03  0.00000000000E+00 0.  1.
</event>
<event>
 7    1  0.6888820E-006  0.1480492E+03  0.7818608E-02  0.1268664E+00
          2   -1    0    0  502    0  0.00000000000E+00  0.00000000000E+00  0.10996681512E+04  0.10996681512E+04  0.00000000000E+00 0. -1.
          1   -1    0    0  501    0 -0.00000000000E+00 -0.00000000000E+00 -0.10922294554E+03  0.10922294554E+03  0.00000000000E+00 0. -1.
         25    2    1    2    0    0 -0.23251416393E+02  0.19195591867E+03  0.56384617906E+03  0.60904437940E+03  0.12499935744E+03 0.  0.
          2    1    1    2  501    0  0.43991894907E+02 -0.61390308189E+02 -0.59464446571E+02  0.96125320094E+02  0.00000000000E+00 0. -1.
          1    1    1    2  502    0 -0.20740478514E+02 -0.13056561048E+03  0.48606347318E+03  0.50372139725E+03  0.00000000000E+00 0. -1.
         22    1    3    3    0    0 -0.13835096593E+02  0.19594943793E+03  0.56553318836E+03  0.59867802637E+03  0.00000000000E+00 0.  1.
         22    1    3    3    0    0 -0.94163197997E+01 -0.39935192607E+01 -0.16870093027E+01  0.10366353025E+02  0.00000000000E+00 0.  1.
</event>
<event>
 7    1  0.6888820E-006  0.3882157E+02  0.7818608E-02  0.1532490E+00
          2   -1    0    0  502    0  0.00000000000E+00  0.00000000000E+00  0.18884831474E+03  0.18884831474E+03  0.00000000000E+00 0. -1.
          1   -1    0    0  501    0 -0.00000000000E+00 -0.00000000000E+00 -0.77384624525E+03  0.77384624525E+03  0.00000000000E+00 0. -1.
         25    2    1    2    0    0  0.18843584985E+02  0.60573266031E+02 -0.84113768083E+02  0.16347919782E+03  0.12500448346E+03 0.  0.
          2    1    1    2  501    0 -0.27838142744E+02 -0.26706637750E+02 -0.64740977767E+03  0.64855811375E+03  0.00000000000E+00 0. -1.
          1    1    1    2  502    0  0.89945577595E+01 -0.33866628281E+02  0.14652561524E+03  0.15065724842E+03  0.00000000000E+00 0. -1.
         22    1    3    3    0    0 -0.44364166239E+02  0.57926928004E+02 -0.64112955001E+02  0.97129703145E+02  0.00000000000E+00 0. -1.
         22    1    3    3    0    0  0.63207751223E+02  0.26463380276E+01 -0.20000813082E+02  0.66349494675E+02  0.00000000000E+00 0. -1.
</event>
<event>
 7    1  0.6888820E-006  0.5233702E+02  0.7818608E-02  0.1526030E+00
          2   -1    0    0  502    0  0.00000000000E+00  0.00000000000E+00  0.48768742704E+03  0.48768742704E+03  0.00000000000E+00 0. -1.
          1   -1    0    0  501    0 -0.00000000000E+00 -0.00000000000E+00 -0.64691885236E+03  0.64691885236E+03  0.00000000000E+00 0. -1.
         25    2    1    2    0    0  0.17221645552E+02 -0.75170838201E+02 -0.11880695652E+03  0.18890996867E+03  0.12499857341E+03 0.  0.
          2    1    1    2  501    0 -0.18253240062E+02  0.48065849119E+02 -0.49131134987E+03  0.49399428047E+03  0.00000000000E+00 0. -1.
          1    1    1    2  502    0  0.10315945092E+01  0.27104989083E+02  0.45088688107E+03  0.45170203026E+03  0.00000000000E+00 0. -1.
         22    1    3    3    0    0 -0.23623414863E+01 -0.56291313390E+02  0.10035123337E+02  0.57227583566E+02  0.00000000000E+00 0.  1.
         22    1    3    3    0    0  0.19583987039E+02 -0.18879524811E+02 -0.12884207985E+03  0.13168238510E+03  0.00000000000E+00 0.  1.
</event>
<event>
 7    1  0.6888820E-006  0.9912563E+02  0.7818608E-02  0.1421212E+00
          2   -1    0    0  502    0  0.00000000000E+00  0.00000000000E+00  0.59446683397E+03  0.59446683397E+03  0.00000000000E+00 0. -1.
          1   -1    0    0  501    0 -0.00000000000E+00 -0.00000000000E+00 -0.71904967763E+03  0.71904967763E+03  0.00000000000E+00 0. -1.
         25    2    1    2    0    0 -0.11708435738E+03  0.45094916085E+02  0.39775822208E+02  0.18151827233E+03  0.12499787581E+03 0.  0.
          2    1    1    2  501    0  0.23178628962E+02 -0.19448357379E+02 -0.64292259172E+03  0.64363417125E+03  0.00000000000E+00 0. -1.
          1    1    1    2  502    0  0.93905728420E+02 -0.25646558706E+02  0.47856392586E+03  0.48836406802E+03  0.00000000000E+00 0. -1.
         22    1    3    3    0    0 -0.59791827501E+02  0.25727436385E+02 -0.43726631856E+02  0.78415444603E+02  0.00000000000E+00 0.  1.
         22    1    3    3    0    0 -0.57292529882E+02  0.19367479700E+02  0.83502454065E+02  0.10310282773E+03  0.00000000000E+00 0.  1.
</event>
<event>
 7    1  0.6888820E-006  0.8104101E+02  0.7818608E-02  0.1413766E+00
          2   -1    0    0  502    0  0.00000000000E+00  0.00000000000E+00  0.12190463380E+04  0.12190463380E+04  0.00000000000E+00 0. -1.
          1   -1    0    0  501    0 -0.00000000000E+00 -0.00000000000E+00 -0.61951783948E+02  0.61951783948E+02  0.00000000000E+00 0. -1.
         25    2    1    2    0    0  0.19711619897E+02  0.54053290557E+02  0.10444130029E+03  0.17275743625E+03  0.12500736136E+03 0.  0.
          2    1    1    2  501    0 -0.19900948289E+02 -0.93250956901E+02  0.55519497773E+02  0.11033677238E+03  0.00000000000E+00 0. -1.
          1    1    1    2  502    0  0.18932839144E+00  0.39197666344E+02  0.99713375597E+03  0.99790391330E+03  0.00000000000E+00 0. -1.
         22    1    3    3    0    0 -0.29859899263E+02 -0.27409074035E+02  0.44163523895E+02  0.59944038622E+02  0.00000000000E+00 0. -1.
         22    1    3    3    0    0  0.49571519160E+02  0.81462364592E+02  0.60277776394E+02  0.11281339763E+03  0.00000000000E+00 0. -1.
</event>
<event>
 7    1  0.6888820E-006  0.6852646E+02  0.7818608E-02  0.1379524E+00
          2   -1    0    0  502    0  0.00000000000E+00  0.00000000000E+00  0.22671328049E+04  0.22671328049E+04  0.00000000000E+00 0. -1.
          1   -1    0    0  501    0 -0.00000000000E+00 -0.00000000000E+00 -0.11267579305E+03  0.11267579305E+03  0.00000000000E+00 0. -1.
         25    2    1    2    0    0  0.84447309733E+02 -0.17893840349E+02  0.72141674981E+03  0.73723669704E+03  0.12499713166E+03 0.  0.
          2    1    1    2  501    0 -0.37944857159E+02  0.57183199906E+02 -0.92854653540E+02  0.11546305565E+03  0.00000000000E+00 0. -1.
          1    1    1    2  502    0 -0.46502452574E+02 -0.39289359557E+02  0.15258949156E+04  0.15271088453E+04  0.00000000000E+00 0. -1.
         22    1    3    3    0    0  0.14875412519E+02 -0.21229863248E+02  0.56976733499E+03  0.57035673137E+03  0.00000000000E+00 0. -1.
         22    1    3    3    0    0  0.69571897214E+02  0.33360228990E+01  0.15164941481E+03  0.16687996568E+03  0.00000000000E+00 0. -1.
</event>
<event>
 7    1  0.6888820E-006  0.6305223E+02  0.7818608E-02  0.1477596E+00
          2   -1    0    0  502    0  0.00000000000E+00  0.00000000000E+00  0.27587854592E+04  0.27587854592E+04  0.00000000000E+00 0. -1.
          1   -1    0    0  501    0 -0.00000000000E+00 -0.00000000000E+00 -0.27638797307E+02  0.27638797307E+02  0.00000000000E+00 0. -1.
         25    2    1    2    0    0  0.22791815816E+02 -0.24783935466E+02  0.80819590746E+03  0.81849573203E+03  0.12498371168E+03 0.  0.
          2    1    1    2  501    0 -0.48051884114E+02  0.43406069448E+02  0.24523854187E+02  0.69242254845E+02  0.00000000000E+00 0. -1.
          1    1    1    2  502    0  0.25260068298E+02 -0.18622133982E+02  0.18984269002E+04  0.18986862696E+04  0.00000000000E+00 0. -1.
         22    1    3    3    0    0  0.45685168914E+01  0.16243912503E+02  0.71347820451E+03  0.71367771743E+03  0.00000000000E+00 0. -1.
         22    1    3    3    0    0  0.18223298924E+02 -0.41027847969E+02  0.94717702948E+02  0.10481801460E+03  0.00000000000E+00 0. -1.
</event>
<event>
 7    1  0.6888820E-006  0.1107444E+03  0.7818608E-02  0.1341489E+00
          2   -1    0    0  502    0  0.00000000000E+00  0.00000000000E+00  0.47415358645E+03  0.47415358645E+03  0.00000000000E+00 0. -1.
          1   -1    0    0  501    0 -0.00000000000E+00 -0.00000000000E+00 -0.34012500492E+03  0.34012500492E+03  0.00000000000E+00 0. -1.
         25    2    1    2    0    0 -0.19502972850E+02 -0.85691008164E+02  0.69891004821E+02  0.16802515815E+03  0.12499754552E+03 0.  0.
          2    1    1    2  501    0 -0.25925889079E+02  0.11067764424E+03 -0.27793058493E+03  0.30027837534E+03  0.00000000000E+00 0. -1.
          1    1    1    2  502    0  0.45428861929E+02 -0.24986636079E+02  0.34206816164E+03  0.34597505789E+03  0.00000000000E+00 0. -1.
         22    1    3    3    0    0 -0.40103726476E+02 -0.11090719694E+03  0.66227544582E+02  0.13525828208E+03  0.00000000000E+00 0. -1.
         22    1    3    3    0    0  0.20600753627E+02  0.25216188773E+02  0.36634602383E+01  0.32766876066E+02  0.00000000000E+00 0. -1.
</event>
<event>
 7    1  0.6888820E-006  0.7099609E+02  0.7818608E-02  0.1478983E+00
          2   -1    0    0  502    0  0.00000000000E+00  0.00000000000E+00  0.54090339341E+03  0.54090339341E+03  0.00000000000E+00 0. -1.
          1   -1    0    0  501    0 -0.00000000000E+00 -0.00000000000E+00 -0.18986807722E+04  0.18986807722E+04  0.00000000000E+00 0. -1.
         25    2    1    2    0    0  0.40191041659E+02 -0.25287465927E+02 -0.93172597362E+03  0.94127125636E+03  0.12499404933E+03 0.  0.
          2    1    1    2  501    0  0.27395106618E+02  0.33449487272E+01 -0.95962835720E+03  0.96002513743E+03  0.00000000000E+00 0. -1.
          1    1    1    2  502    0 -0.67586148277E+02  0.21942517199E+02  0.53357695206E+03  0.53828777180E+03  0.00000000000E+00 0. -1.
         22    1    3    3    0    0  0.56295132810E+02 -0.97139781117E+01 -0.17247106918E+03  0.18168591869E+03  0.00000000000E+00 0.  1.
         22    1    3    3    0    0 -0.16104091151E+02 -0.15573487815E+02 -0.75925490444E+03  0.75958533767E+03  0.00000000000E+00 0.  1.
</event>
<event>
 7    1  0.8739357E-006  0.9008708E+02  0.7818608E-02  0.1400605E+00
          2   -1    0    0  502    0  0.00000000000E+00  0.00000000000E+00  0.21372821225E+04  0.21372821225E+04  0.00000000000E+00 0. -1.
          1   -1    0    0  501    0 -0.00000000000E+00 -0.00000000000E+00 -0.13928911763E+04  0.13928911763E+04  0.00000000000E+00 0. -1.
         25    2    1    2    0    0 -0.72493116219E+02 -0.82341310338E+02 -0.26693815564E+03  0.31450772809E+03  0.12499515513E+03 0.  0.
          2    1    1    2  501    0  0.33401237757E+02  0.82529438497E+02 -0.11001890271E+04  0.11037855980E+04  0.00000000000E+00 0. -1.
          1    1    1    2  502    0  0.39091878462E+02 -0.18812815827E+00  0.21115181290E+04  0.21118799728E+04  0.00000000000E+00 0. -1.
         22    1    3    3    0    0 -0.70259501494E+02 -0.36369157322E+02 -0.51946142714E+02  0.94644148775E+02  0.00000000000E+00 0.  1.
         22    1    3    3    0    0 -0.22336147246E+01 -0.45972153016E+02 -0.21499201292E+03  0.21986357931E+03  0.00000000000E+00 0.  1.
</event>
<event>
 7    1  0.6888820E-006  0.9420205E+02  0.7818608E-02  0.1375280E+00
          2   -1    0    0  502    0  0.00000000000E+00  0.00000000000E+00  0.32260056461E+03  0.32260056461E+03  0.00000000000E+00 0. -1.
          1   -1    0    0  501    0 -0.00000000000E+00 -0.00000000000E+00 -0.10424274709E+04  0.10424274709E+04  0.00000000000E+00 0. -1.
         25    2    1    2    0    0  0.12724328575E+03 -0.47603389043E+02  0.25430885942E+02  0.18634896084E+03  0.12498907483E+03 0.  0.
          2    1    1    2  501    0 -0.81435353286E+02  0.45617919981E+02 -0.95724743486E+03  0.96178758722E+03  0.00000000000E+00 0. -1.
          1    1    1    2  502    0 -0.45807932464E+02  0.19854690616E+01  0.21198964261E+03  0.21689148747E+03  0.00000000000E+00 0. -1.
         22    1    3    3    0    0  0.53931596512E+02 -0.83070011364E+02 -0.55940483760E+01  0.99199482194E+02  0.00000000000E+00 0. -1.
         22    1    3    3    0    0  0.73311689239E+02  0.35466622322E+02  0.31024934318E+02  0.87149478641E+02  0.00000000000E+00 0. -1.
</event>
<event>
 7    1  0.6888820E-006  0.1490784E+03  0.7818608E-02  0.1312504E+00
          2   -1    0    0  502    0  0.00000000000E+00  0.00000000000E+00  0.46872794319E+03  0.46872794319E+03  0.00000000000E+00 0. -1.
          1   -1    0    0  501    0 -0.00000000000E+00 -0.00000000000E+00 -0.14431455321E+04  0.14431455321E+04  0.00000000000E+00 0. -1.
         25    2    1    2    0    0  0.60854341088E+02  0.85246941678E+02 -0.38678435860E+02  0.16761808950E+03  0.12501804123E+03 0.  0.
          2    1    1    2  501    0 -0.72773433375E+02 -0.13355993639E+03 -0.13341283066E+04  0.13427704821E+04  0.00000000000E+00 0. -1.
          1    1    1    2  502    0  0.11919092287E+02  0.48312994713E+02  0.39838915354E+03  0.40148490367E+03  0.00000000000E+00 0. -1.
         22    1    3    3    0    0  0.84180748215E+02  0.58109332413E+02 -0.66745234996E+02  0.12213934370E+03  0.00000000000E+00 0. -1.
         22    1    3    3    0    0 -0.23326407128E+02  0.27137609265E+02  0.28066799137E+02  0.45478745804E+02  0.00000000000E+00 0. -1.
</event>
<event>
 7    1  0.6888820E-006  0.8434336E+02  0.7818608E-02  0.1378307E+00
          2   -1    0    0  502    0  0.00000000000E+00  0.00000000000E+00  0.99487849345E+02  0.99487849345E+02  0.00000000000E+00 0. -1.
          1   -1    0    0  501    0 -0.00000000000E+00 -0.00000000000E+00 -0.59922408338E+03  0.59922408338E+03  0.00000000000E+00 0. -1.
         25    2    1    2    0    0  0.72134284991E+02  0.28873287883E+02 -0.52407862818E+02  0.15623253410E+03  0.12499999521E+03 0.  0.
          2    1    1    2  501    0 -0.19752611029E+02  0.45884627056E+02 -0.44841585894E+03  0.45118992363E+03  0.00000000000E+00 0. -1.
          1    1    1    2  502    0 -0.52381673962E+02 -0.74757914939E+02  0.10874877238E+01  0.91289474983E+02  0.00000000000E+00 0. -1.
         22    1    3    3    0    0  0.76257047089E+02  0.38325050555E+02  0.16186492495E+02  0.86867423526E+02  0.00000000000E+00 0.  1.
         22    1    3    3    0    0 -0.41227620973E+01 -0.94517626718E+01 -0.68594355312E+02  0.69365110579E+02  0.00000000000E+00 0.  1.
</event>
<event>
 7    1  0.6888820E-006  0.6798953E+02  0.7818608E-02  0.1390258E+00
          2   -1    0    0  502    0  0.00000000000E+00  0.00000000000E+00  0.15868526110E+02  0.15868526110E+02  0.00000000000E+00 0. -1.
          1   -1    0    0  501    0 -0.00000000000E+00 -0.00000000000E+00 -0.22676966487E+04  0.22676966487E+04  0.00000000000E+00 0. -1.
         25    2    1    2    0    0 -0.99593183038E+02  0.62830969290E+02 -0.95637268635E+03  0.97166898600E+03  0.12500148139E+03 0.  0.
          2    1    1    2  501    0  0.48079332300E+02 -0.29199245053E+02 -0.11776651213E+04  0.11790077845E+04  0.00000000000E+00 0. -1.
          1    1    1    2  502    0  0.51513850738E+02 -0.33631724236E+02 -0.11779031495E+03  0.13288840427E+03  0.00000000000E+00 0. -1.
         22    1    3    3    0    0  0.18021681605E+02 -0.42548569874E+01 -0.34433653289E+03  0.34483406546E+03  0.00000000000E+00 0. -1.
         22    1    3    3    0    0 -0.11761486464E+03  0.67085826277E+02 -0.61203615346E+03  0.62683492054E+03  0.00000000000E+00 0. -1.
</event>
<event>
 7    1  0.6888820E-006  0.7153520E+02  0.7818608E-02  0.1410422E+00
          2   -1    0    0  502    0  0.00000000000E+00  0.00000000000E+00  0.31795763692E+03  0.31795763692E+03  0.00000000000E+00 0. -1.
          1   -1    0    0  501    0 -0.00000000000E+00 -0.00000000000E+00 -0.42272883728E+03  0.42272883728E+03  0.00000000000E+00 0. -1.
         25    2    1    2    0    0 -0.24496625382E+02 -0.21236642326E+02 -0.44902073564E+02  0.13671639981E+03  0.12499639248E+03 0.  0.
          2    1    1    2  501    0 -0.86350080673E+01 -0.44751734227E+02 -0.32529119421E+03  0.32846863185E+03  0.00000000000E+00 0. -1.
          1    1    1    2  502    0  0.33131633449E+02  0.65988376553E+02  0.26542206741E+03  0.27550144254E+03  0.00000000000E+00 0. -1.
         22    1    3    3    0    0 -0.32273750939E+02 -0.13054133658E+02 -0.86695934289E+02  0.93424784867E+02  0.00000000000E+00 0.  1.
         22    1    3    3    0    0  0.77771255567E+01 -0.81825086678E+01  0.41793860725E+02  0.43291614942E+02  0.00000000000E+00 0.  1.
</event>
<event>
 7    1  0.6888820E-006  0.1102213E+03  0.7818608E-02  0.1273719E+00
          2   -1    0    0  502    0  0.00000000000E+00  0.00000000000E+00  0.30384476047E+04  0.30384476047E+04  0.00000000000E+00 0. -1.
          1   -1    0    0  501    0 -0.00000000000E+00 -0.00000000000E+00 -0.11853425268E+04  0.11853425268E+04  0.00000000000E+00 0. -1.
         25    2    1    2    0    0 -0.11679469951E+03 -0.14674421565E+02 -0.65011906682E+02  0.18360451527E+03  0.12501091766E+03 0.  0.
          2    1    1    2  501    0  0.61130889445E+02  0.93643194818E+02 -0.10573013785E+04  0.10631990588E+04  0.00000000000E+00 0. -1.
          1    1    1    2  502    0  0.55663810065E+02 -0.78968773254E+02  0.29754183632E+04  0.29769865574E+04  0.00000000000E+00 0. -1.
         22    1    3    3    0    0 -0.76321181270E+02 -0.31004365153E+02  0.22859763963E+02  0.85491298841E+02  0.00000000000E+00 0.  1.
         22    1    3    3    0    0 -0.40473518240E+02  0.16329943588E+02 -0.87871670645E+02  0.98113216430E+02  0.00000000000E+00 0.  1.
</event>
<event>
 7    1  0.6888820E-006  0.4409230E+02  0.7818608E-02  0.1534169E+00
          2   -1    0    0  502    0  0.00000000000E+00  0.00000000000E+00  0.95122042246E+02  0.95122042246E+02  0.00000000000E+00 0. -1.
          1   -1    0    0  501    0 -0.00000000000E+00 -0.00000000000E+00 -0.23567800673E+04  0.23567800673E+04  0.00000000000E+00 0. -1.
         25    2    1    2    0    0 -0.18196971687E+02 -0.15901735431E+02 -0.70507860018E+03  0.71648116729E+03  0.12500174272E+03 0.  0.
          2    1    1    2  501    0  0.81945354463E+01  0.44729339760E+02 -0.16430733350E+04  0.16437024817E+04  0.00000000000E+00 0. -1.
          1    1    1    2  502    0  0.10002436240E+02 -0.28827604329E+02  0.86493910156E+02  0.91718460499E+02  0.00000000000E+00 0. -1.
         22    1    3    3    0    0  0.25398880710E+02 -0.31537694832E+02 -0.60332966225E+03  0.60468703532E+03  0.00000000000E+00 0.  1.
         22    1    3    3    0    0 -0.43595852397E+02  0.15635959402E+02 -0.10174893793E+03  0.11179413197E+03  0.00000000000E+00 0.  1.
</event>
<event>
 7    1  0.6888820E-006  0.4483947E+02  0.7818608E-02  0.1499355E+00
          2   -1    0    0  502    0  0.00000000000E+00  0.00000000000E+00  0.26000769002E+04  0.26000769002E+04  0.00000000000E+00 0. -1.
          1   -1    0    0  501    0 -0.00000000000E+00 -0.00000000000E+00 -0.82139939346E+02  0.82139939346E+02  0.00000000000E+00 0. -1.
         25    2    1    2    0    0  0.17617026781E+01  0.77761779231E+02  0.79270203292E+02  0.16720962141E+03  0.12500117783E+03 0.  0.
          2    1    1    2  501    0 -0.14664097796E+02 -0.34958845712E+02 -0.28504717519E+02  0.47430745077E+02  0.00000000000E+00 0. -1.
          1    1    1    2  502    0  0.12902395118E+02 -0.42802933519E+02  0.24671714751E+04  0.24675764731E+04  0.00000000000E+00 0. -1.
         22    1    3    3    0    0 -0.26178610940E+02  0.61905903274E+02 -0.13917874587E+02  0.68639403872E+02  0.00000000000E+00 0.  1.
         22    1    3    3    0    0  0.27940313618E+02  0.15855875957E+02  0.93188077879E+02  0.98570217541E+02  0.00000000000E+00 0.  1.
</event>
<event>
 7    1  0.6888820E-006  0.2209606E+03  0.7818608E-02  0.1343885E+00
          2   -1    0    0  502    0  0.00000000000E+00  0.00000000000E+00  0.56206132000E+03  0.56206132000E+03  0.00000000000E+00 0. -1.
          1   -1    0    0  501    0 -0.00000000000E+00 -0.00000000000E+00 -0.14609797920E+04  0.14609797920E+04  0.00000000000E+00 0. -1.
         25    2    1    2    0    0 -0.76553893893E+02  0.22846008355E+03 -0.53541634027E+02  0.27666968204E+03  0.12499959176E+03 0.  0.
          2    1    1    2  501    0 -0.21378329472E+01 -0.25364038018E+02 -0.12694124099E+04  0.12696675829E+04  0.00000000000E+00 0. -1.
          1    1    1    2  502    0  0.78691726840E+02 -0.20309604553E+03  0.42403557188E+03  0.47670384706E+03  0.00000000000E+00 0. -1.
         22    1    3    3    0    0 -0.52474475078E+02  0.15674504776E+03  0.25510690091E+02  0.16725243150E+03  0.00000000000E+00 0.  1.
         22    1    3    3    0    0 -0.24079418815E+02  0.71715035789E+02 -0.79052324118E+02  0.10941725055E+03  0.00000000000E+00 0.  1.
</event>
<event>
 7    1  0.6888820E-006  0.1147993E+03  0.7818608E-02  0.1253368E+00
          2   -1    0    0  502    0  0.00000000000E+00  0.00000000000E+00  0.14562219942E+03  0.14562219942E+03  0.00000000000E+00 0. -1.
          1   -1    0    0  501    0 -0.00000000000E+00 -0.00000000000E+00 -0.73768134180E+03  0.73768134180E+03  0.00000000000E+00 0. -1.
         25    2    1    2    0    0 -0.52150358672E+02  0.15516356366E+02 -0.16845054866E+03  0.21670330181E+03  0.12499726575E+03 0.  0.
          2    1    1    2  501    0  0.73295997946E+02 -0.12669436951E+03 -0.50591601687E+03  0.52666382323E+03  0.00000000000E+00 0. -1.
          1    1    1    2  502    0 -0.21145639275E+02  0.11117801315E+03  0.82307423152E+02  0.13993641618E+03  0.00000000000E+00 0. -1.
         22    1    3    3    0    0 -0.36261781710E+02  0.62617287457E+02 -0.14432758703E+03  0.16145059268E+03  0.00000000000E+00 0. -1.
         22    1    3    3    0    0 -0.15888576962E+02 -0.47100931091E+02 -0.24122961633E+02  0.55252709123E+02  0.00000000000E+00 0. -1.
</event>
<event>
 7    1  0.6888820E-006  0.8959039E+02  0.7818608E-02  0.1392518E+00
          2   -1    0    0  502    0  0.00000000000E+00  0.00000000000E+00  0.56146052045E+03  0.56146052045E+03  0.00000000000E+00 0. -1.
          1   -1    0    0  501    0 -0.00000000000E+00 -0.00000000000E+00 -0.19328362571E+04  0.19328362571E+04  0.00000000000E+00 0. -1.
         25    2    1    2    0    0 -0.10807187524E+03  0.33189248782E+02 -0.21006539496E+03  0.26932030294E+03  0.12499959585E+03 0.  0.
          2    1    1    2  501    0  0.71237425808E+02 -0.53206153590E+02 -0.16911475829E+04  0.16934833370E+04  0.00000000000E+00 0. -1.
          1    1    1    2  502    0  0.36834449431E+02  0.20016904808E+02  0.52983724121E+03  0.53149313760E+03  0.00000000000E+00 0. -1.
         22    1    3    3    0    0 -0.10436275968E+03  0.69136374974E+02 -0.12505145813E+03  0.17694431647E+03  0.00000000000E+00 0.  1.
         22    1    3    3    0    0 -0.37091155585E+01 -0.35947126191E+02 -0.85013936831E+02  0.92375986463E+02  0.00000000000E+00 0.  1.
</event>
<event>
 7    1  0.6888820E-006  0.1821462E+03  0.7818608E-02  0.1312885E+00
          2   -1    0    0  502    0  0.00000000000E+00  0.00000000000E+00  0.16084396874E+03  0.16084396874E+03  0.00000000000E+00 0. -1.
          1   -1    0    0  501    0 -0.00000000000E+00 -0.00000000000E+00 -0.16117550850E+04  0.16117550850E+04  0.00000000000E+00 0. -1.
         25    2    1    2    0    0  0.13280313823E+03  0.10990220329E+03 -0.23041054100E+03  0.31373385795E+03  0.12499899363E+03 0.  0.
          2    1    1    2  501    0 -0.16396376414E+03 -0.83895368018E+02 -0.13296853625E+04  0.13423806137E+04  0.00000000000E+00 0. -1.
          1    1    1    2  502    0  0.31160625906E+02 -0.26006835275E+02  0.10918478728E+03  0.11648458207E+03  0.00000000000E+00 0. -1.
         22    1    3    3    0    0  0.26903147129E+02  0.43650530242E+02  0.41313857070E+00  0.51276883674E+02  0.00000000000E+00 0.  1.
         22    1    3    3    0    0  0.10589999110E+03  0.66251673051E+02 -0.23082367957E+03  0.26245697428E+03  0.00000000000E+00 0.  1.
</event>
<event>
 7    1  0.6888820E-006  0.9151898E+02  0.7818608E-02  0.1444184E+00
          2   -1    0    0  502    0  0.00000000000E+00  0.00000000000E+00  0.15076261219E+04  0.15076261219E+04  0.00000000000E+00 0. -1.
          1   -1    0    0  501    0 -0.00000000000E+00 -0.00000000000E+00 -0.46673351355E+02  0.46673351355E+02  0.00000000000E+00 0. -1.
         25    2    1    2    0    0 -0.41021297131E+02  0.58278761511E+02  0.35190516275E+03  0.38018605962E+03  0.12500014200E+03 0.  0.
          2    1    1    2  501    0 -0.26389381631E+02  0.79209495617E+01 -0.24358575623E+02  0.36776094290E+02  0.00000000000E+00 0. -1.
          1    1    1    2  502    0  0.67410678762E+02 -0.66199711073E+02  0.11334061834E+04  0.11373373193E+04  0.00000000000E+00 0. -1.
         22    1    3    3    0    0 -0.17977363482E+02  0.95367629604E+02  0.27668212566E+03  0.29320840546E+03  0.00000000000E+00 0. -1.
         22    1    3    3    0    0 -0.23043933649E+02 -0.37088868093E+02  0.75223037092E+02  0.86977654163E+02  0.00000000000E+00 0. -1.
</event>
<event>
 7    1  0.6888820E-006  0.1139797E+03  0.7818608E-02  0.1344173E+00
          2   -1    0    0  502    0  0.00000000000E+00  0.00000000000E+00  0.21087304826E+04  0.21087304826E+04  0.00000000000E+00 0. -1.
          1   -1    0    0  501    0 -0.00000000000E+00 -0.00000000000E+00 -0.67243269203E+03  0.67243269203E+03  0.00000000000E+00 0. -1.
         25    2    1    2    0    0  0.10742024937E+02 -0.84880564168E+02 -0.89392555349E+02  0.17588514342E+03  0.12499781378E+03 0.  0.
          2    1    1    2  501    0  0.27545213118E+02  0.11581564857E+03 -0.53293245006E+03  0.54606684531E+03  0.00000000000E+00 0. -1.
          1    1    1    2  502    0 -0.38287238055E+02 -0.30935084406E+02  0.20586227960E+04  0.20592111859E+04  0.00000000000E+00 0. -1.
         22    1    3    3    0    0 -0.32366854701E+02 -0.67562943646E+02 -0.10310353788E+03  0.12744686799E+03  0.00000000000E+00 0.  1.
         22    1    3    3    0    0  0.43108879638E+02 -0.17317620522E+02  0.13710982530E+02  0.48438275425E+02  0.00000000000E+00 0.  1.
</event>
<event>
 7    1  0.6888820E-006  0.1480848E+03  0.7818608E-02  0.1209607E+00
          2   -1    0    0  502    0  0.00000000000E+00  0.00000000000E+00  0.87658493220E+03  0.87658493220E+03  0.00000000000E+00 0. -1.
          1   -1    0    0  501    0 -0.00000000000E+00 -0.00000000000E+00 -0.75996166888E+03  0.75996166888E+03  0.00000000000E+00 0. -1.
         25    2    1    2    0    0 -0.13836711551E+02 -0.21547323664E+02  0.73451226851E+02  0.14722648718E+03  0.12499925623E+03 0.  0.
          2    1    1    2  501    0  0.14552941519E+03  0.61806138873E+02 -0.70809690165E+03  0.72553430767E+03  0.00000000000E+00 0. -1.
          1    1    1    2  502    0 -0.13169270364E+03 -0.40258815209E+02  0.75126893813E+03  0.76378580622E+03  0.00000000000E+00 0. -1.
         22    1    3    3    0    0  0.44418806559E+02  0.26305993765E+02  0.23020089765E+02  0.56523979132E+02  0.00000000000E+00 0.  1.
         22    1    3    3    0    0 -0.58255518109E+02 -0.47853317429E+02  0.50431137085E+02  0.90702508052E+02  0.00000000000E+00 0.  1.
</event>
<event>
 7    1  0.6888820E-006  0.1146783E+03  0.7818608E-02  0.1275236E+00
          2   -1    0    0  502    0  0.00000000000E+00  0.00000000000E+00  0.46335981746E+03  0.46335981746E+03  0.00000000000E+00 0. -1.
          1   -1    0    0  501    0 -0.00000000000E+00 -0.00000000000E+00 -0.39547467398E+03  0.39547467398E+03  0.00000000000E+00 0. -1.
         25    2    1    2    0    0  0.21793753442E+02 -0.23747194329E+02 -0.73762219077E+02  0.14867364324E+03  0.12499636116E+03 0.  0.
          2    1    1    2  501    0  0.61757084970E+02  0.10229888953E+03 -0.26337568036E+03  0.28921574879E+03  0.00000000000E+00 0. -1.
          1    1    1    2  502    0 -0.83550838413E+02 -0.78551695202E+02  0.40502304292E+03  0.42094509941E+03  0.00000000000E+00 0. -1.
         22    1    3    3    0    0  0.15813136343E+02  0.33371304488E+02  0.17484052961E+02  0.40858185865E+02  0.00000000000E+00 0.  1.
         22    1    3    3    0    0  0.59806170998E+01 -0.57118498818E+02 -0.91246272038E+02  0.10781545737E+03  0.00000000000E+00 0.  1.
</event>
<event>
 7    1  0.9306645E-006  0.4216696E+02  0.7818608E-02  0.1524783E+00
          2   -1    0    0  502    0  0.00000000000E+00  0.00000000000E+00  0.12749130002E+04  0.12749130002E+04  0.00000000000E+00 0. -1.
          1   -1    0    0  501    0 -0.00000000000E+00 -0.00000000000E+00 -0.10831879485E+04  0.10831879485E+04  0.00000000000E+00 0. -1.
         25    2    1    2    0    0 -0.25556465024E+01 -0.86694989766E+01 -0.29949931240E+03  0.32466455921E+03  0.12500218533E+03 0.  0.
          2    1    1    2  501    0  0.61757801388E+01 -0.33380079173E+02 -0.77037935307E+03  0.77112691405E+03  0.00000000000E+00 0. -1.
          1    1    1    2  502    0 -0.36201336364E+01  0.42049578150E+02  0.12616037172E+04  0.12623094754E+04  0.00000000000E+00 0. -1.
         22    1    3    3    0    0 -0.62304387267E+02 -0.16403597368E+02 -0.17126769128E+03  0.18298507250E+03  0.00000000000E+00 0. -1.
         22    1    3    3    0    0  0.59748740765E+02  0.77340983911E+01 -0.12823162112E+03  0.14167948671E+03  0.00000000000E+00 0. -1.
</event>
<event>
 7    1  0.6888820E-006  0.1330477E+03  0.7818608E-02  0.1248363E+00
          2   -1    0    0  502    0  0.00000000000E+00  0.00000000000E+00  0.74369883377E+03  0.74369883377E+03  0.00000000000E+00 0. -1.
          1   -1    0    0  501    0 -0.00000000000E+00 -0.00000000000E+00 -0.11066201547E+04  0.11066201547E+04  0.00000000000E+00 0. -1.
         25    2    1    2    0    0 -0.22529374615E+02  0.65002985980E+02 -0.21606464860E+01  0.14269643674E+03  0.12499857503E+03 0.  0.
          2    1    1    2  501    0  0.80021860345E+02  0.64288495141E+02 -0.10241649277E+04  0.10292960254E+04  0.00000000000E+00 0. -1.
          1    1    1    2  502    0 -0.57492485730E+02 -0.12929148112E+03  0.66340425329E+03  0.67832652631E+03  0.00000000000E+00 0. -1.
         22    1    3    3    0    0  0.13942221126E+02  0.68639171013E+02 -0.47325500629E+02  0.84530611834E+02  0.00000000000E+00 0. -1.
         22    1    3    3    0    0 -0.36471595740E+02 -0.36361850334E+01  0.45164854143E+02  0.58165824908E+02  0.00000000000E+00 0. -1.
</event>
<event>
 7    1  0.6888820E-006  0.2094370E+03  0.7818608E-02  0.1259280E+00
          2   -1    0    0  502    0  0.00000000000E+00  0.00000000000E+00  0.30704101165E+04  0.30704101165E+04  0.00000000000E+00 0. -1.
          1   -1    0    0  501    0 -0.00000000000E+00 -0.00000000000E+00 -0.11338490622E+03  0.11338490622E+03  0.00000000000E+00 0. -1.
         25    2    1    2    0    0 -0.41264098190E+02 -0.22399859113E+03  0.57840850247E+03  0.63408132327E+03  0.12499853662E+03 0.  0.
          2    1    1    2  501    0 -0.14521873509E+02  0.20634989574E+03  0.40404199979E+02  0.21076921895E+03  0.00000000000E+00 0. -1.
          1    1    1    2  502    0  0.55785971699E+02  0.17648695388E+02  0.23382125078E+04  0.23389444805E+04  0.00000000000E+00 0. -1.
         22    1    3    3    0    0 -0.26297299778E+02 -0.15249768387E+03  0.22421091816E+03  0.27242912360E+03  0.00000000000E+00 0. -1.
         22    1    3    3    0    0 -0.14966798412E+02 -0.71500907253E+02  0.35419758431E+03  0.36165219967E+03  0.00000000000E+00 0. -1.
</event>
<event>
 7    1  0.6888820E-006  0.9392721E+02  0.7818608E-02  0.1337409E+00
          2   -1    0    0  502    0  0.00000000000E+00  0.00000000000E+00  0.93950489472E+03  0.93950489472E+03  0.00000000000E+00 0. -1.
          1   -1    0    0  501    0 -0.00000000000E+00 -0.00000000000E+00 -0.10948680910E+04  0.10948680910E+04  0.00000000000E+00 0. -1.
         25    2    1    2    0    0  0.85681099072E+02 -0.84695131453E+02  0.16539825760E+03  0.23978573968E+03  0.12500440515E+03 0.  0.
          2    1    1    2  501    0 -0.22669967711E+02  0.91053171465E+02 -0.10542259929E+04  0.10583936184E+04  0.00000000000E+00 0. -1.
          1    1    1    2  502    0 -0.63011131361E+02 -0.63580400117E+01  0.73346453901E+03  0.73619362761E+03  0.00000000000E+00 0. -1.
         22    1    3    3    0    0  0.13563106318E+02  0.13075957800E+02 -0.13752395241E+02  0.23325241698E+02  0.00000000000E+00 0.  1.
         22    1    3    3    0    0  0.72117992754E+02 -0.97771089254E+02  0.17915065284E+03  0.21646049798E+03  0.00000000000E+00 0.  1.
</event>
<event>
 7    1  0.8200970E-006  0.7553387E+02  0.7818608E-02  0.1343720E+00
          2   -1    0    0  502    0  0.00000000000E+00  0.00000000000E+00  0.51101569843E+03  0.51101569843E+03  0.00000000000E+00 0. -1.
          1   -1    0    0  501    0 -0.00000000000E+00 -0.00000000000E+00 -0.23080899072E+04  0.23080899072E+04  0.00000000000E+00 0. -1.
         25    2    1    2    0    0 -0.61108190355E+02 -0.69737888694E+02 -0.99147325667E+03  0.10036152925E+04  0.12500741027E+03 0.  0.
          2    1    1    2  501    0  0.76628912279E+02 -0.41841783682E+01 -0.13065886583E+04  0.13088404867E+04  0.00000000000E+00 0. -1.
          1    1    1    2  502    0 -0.15520721924E+02  0.73922067062E+02  0.50098770624E+03  0.50664982642E+03  0.00000000000E+00 0. -1.
         22    1    3    3    0    0 -0.26006191607E+02 -0.55820442820E+02 -0.92591023952E+03  0.92795582626E+03  0.00000000000E+00 0. -1.
         22    1    3    3    0    0 -0.35101998749E+02 -0.13917445874E+02 -0.65563017146E+02  0.75659466249E+02  0.00000000000E+00 0. -1.
</event>
<event>
 7    1  0.6888820E-006  0.1030898E+03  0.7818608E-02  0.1337331E+00
          2   -1    0    0  502    0  0.00000000000E+00  0.00000000000E+00  0.87403787376E+03  0.87403787376E+03  0.00000000000E+00 0. -1.
          1   -1    0    0  501    0 -0.00000000000E+00 -0.00000000000E+00 -0.38401289275E+03  0.38401289275E+03  0.00000000000E+00 0. -1.
         25    2    1    2    0    0 -0.10678163585E+03  0.83915091221E+02  0.12474896579E+03  0.22278069578E+03  0.12499949463E+03 0.  0.
          2    1    1    2  501    0  0.57551429647E+02  0.46839204133E+01 -0.32880035970E+03  0.33383196777E+03  0.00000000000E+00 0. -1.
          1    1    1    2  502    0  0.49230206206E+02 -0.88599011635E+02  0.69407637492E+03  0.70143810296E+03  0.00000000000E+00 0. -1.
         22    1    3    3    0    0  0.22210428220E+02  0.43384637752E+02  0.41367836480E+02  0.63928302102E+02  0.00000000000E+00 0.  1.
         22    1    3    3    0    0 -0.12899206407E+03  0.40530453469E+02  0.83381129308E+02  0.15885239368E+03  0.00000000000E+00 0.  1.
</event>
<event>
 7    1  0.6888820E-006  0.1554250E+03  0.7818608E-02  0.1312886E+00
          2   -1    0    0  502    0  0.00000000000E+00  0.00000000000E+00  0.32150208853E+04  0.32150208853E+04  0.00000000000E+00 0. -1.
          1   -1    0    0  501    0 -0.00000000000E+00 -0.00000000000E+00 -0.41907384916E+02  0.41907384916E+02  0.00000000000E+00 0. -1.
         25    2    1    2    0    0 -0.17051979000E+03 -0.87439002030E+02  0.20667243620E+04  0.20793500441E+04  0.12499775749E+03 0.  0.
          2    1    1    2  501    0  0.12304823982E+03  0.90416601847E+02  0.13145822315E+03  0.20148770595E+03  0.00000000000E+00 0. -1.
          1    1    1    2  502    0  0.47471550175E+02 -0.29775998164E+01  0.97493091524E+03  0.97609052022E+03  0.00000000000E+00 0. -1.
         22    1    3    3    0    0 -0.66153946277E+02 -0.47392803599E+02  0.14696611687E+04  0.14719124883E+04  0.00000000000E+00 0. -1.
         22    1    3    3    0    0 -0.10436584372E+03 -0.40046198431E+02  0.59706319328E+03  0.60743755573E+03  0.00000000000E+00 0. -1.
</event>
<event>
 7    1  0.6888820E-006  0.1709022E+03  0.7818608E-02  0.1261607E+00
          2   -1    0    0  502    0  0.00000000000E+00  0.00000000000E+00  0.21272847105E+04  0.21272847105E+04  0.00000000000E+00 0. -1.
          1   -1    0    0  501    0 -0.00000000000E+00 -0.00000000000E+00 -0.76642409603E+02  0.76642409603E+02  0.00000000000E+00 0. -1.
         25    2    1    2    0    0  0.20299317919E+03  0.13771806541E+02  0.29459917802E+03  0.37922289927E+03  0.12500175274E+03 0.  0.
          2    1    1    2  501    0 -0.15221707035E+03  0.34535622340E+02  0.14787949117E+03  0.21501416145E+03  0.00000000000E+00 0. -1.
          1    1    1    2  502    0 -0.50776108842E+02 -0.48307428881E+02  0.16081636317E+04  0.16096900594E+04  0.00000000000E+00 0. -1.
         22    1    3    3    0    0  0.98486267327E+02 -0.27311988476E+02  0.22496431816E+03  0.24709195457E+03  0.00000000000E+00 0. -1.
         22    1    3    3    0    0  0.10450691186E+03  0.41083795017E+02  0.69634859857E+02  0.13213094470E+03  0.00000000000E+00 0. -1.
</event>
<event>
 7    1  0.6888820E-006  0.8002046E+02  0.7818608E-02  0.1335531E+00
          2   -1    0    0  502    0  0.00000000000E+00  0.00000000000E+00  0.26229553268E+04  0.26229553268E+04  0.00000000000E+00 0. -1.
          1   -1    0    0  501    0 -0.00000000000E+00 -0.00000000000E+00 -0.36802968845E+02  0.36802968845E+02  0.00000000000E+00 0. -1.
         25    2    1    2    0    0  0.36437950753E+02 -0.22862695717E+02  0.11196787277E+04  0.11274553945E+04  0.12499914420E+03 0.  0.
          2    1    1    2  501    0 -0.10104780353E+02 -0.74884767185E+02  0.14670197640E+02  0.76974344045E+02  0.00000000000E+00 0. -1.
          1    1    1    2  502    0 -0.26333170400E+02  0.97747462902E+02  0.14518034326E+04  0.14553285571E+04  0.00000000000E+00 0. -1.
         22    1    3    3    0    0 -0.16585763204E+02  0.41660964342E+02  0.27186734534E+03  0.27554051780E+03  0.00000000000E+00 0.  1.
         22    1    3    3    0    0  0.53023713957E+02 -0.64523660059E+02  0.84781138239E+03  0.85191487665E+03  0.00000000000E+00 0.  1.
</event>
<event>
 7    1  0.6888820E-006  0.3858808E+02  0.7818608E-02  0.1541988E+00
          2   -1    0    0  502    0  0.00000000000E+00  0.00000000000E+00  0.13773842729E+04  0.13773842729E+04  0.00000000000E+00 0. -1.
          1   -1    0    0  501    0 -0.00000000000E+00 -0.00000000000E+00 -0.22448176467E+02  0.22448176467E+02  0.00000000000E+00 0. -1.
         25    2    1    2    0    0  0.42486694124E+02 -0.26389203923E+02  0.35995618616E+03  0.38431072630E+03  0.12499907653E+03 0.  0.
          2    1    1    2  501    0 -0.31393093543E+02 -0.10591841455E+02  0.17859348166E+02  0.37638673522E+02  0.00000000000E+00 0. -1.
          1    1    1    2  502    0 -0.11093600581E+02  0.36981045379E+02  0.97712056213E+03  0.97788304957E+03  0.00000000000E+00 0. -1.
         22    1    3    3    0    0 -0.11636677566E+01  0.45949894905E+02  0.17560608285E+03  0.18152201877E+03  0.00000000000E+00 0.  1.
         22    1    3    3    0    0  0.43650361880E+02 -0.72339098829E+02  0.18435010331E+03  0.20278870754E+03  0.00000000000E+00 0.  1.
</event>
<event>
 7    1  0.6888820E-006  0.8402443E+02  0.7818608E-02  0.1360880E+00
          2   -1    0    0  502    0  0.00000000000E+00  0.00000000000E+00  0.51101742710E+03  0.51101742710E+03  0.00000000000E+00 0. -1.
          1   -1    0    0  501    0 -0.00000000000E+00 -0.00000000000E+00 -0.60620498956E+03  0.60620498956E+03  0.00000000000E+00 0. -1.
         25    2    1    2    0    0 -0.41797756181E+02  0.37286241852E+02 -0.23699838276E+03  0.27373394820E+03  0.12499889885E+03 0.  0.
          2    1    1    2  501    0  0.26651347466E+02 -0.93203419226E+02 -0.34238279292E+03  0.35584146549E+03  0.00000000000E+00 0. -1.
          1    1    1    2  502    0  0.15146408716E+02  0.55917177374E+02  0.48419361321E+03  0.48764700296E+03  0.00000000000E+00 0. -1.
         22    1    3    3    0    0 -0.63410068806E+02  0.34658666852E+02 -0.55977790438E+02  0.91408823624E+02  0.00000000000E+00 0.  1.
         22    1    3    3    0    0  0.21612312625E+02  0.26275749996E+01 -0.18102059232E+03  0.18232512458E+03  0.00000000000E+00 0.  1.
</event>
<event>
 7    1  0.6888820E-006  0.9033212E+02  0.7818608E-02  0.1378255E+00
          2   -1    0    0  502    0  0.00000000000E+00  0.00000000000E+00  0.94412467802E+02  0.94412467802E+02  0.00000000000E+00 0. -1.
          1   -1    0    0  501    0 -0.00000000000E+00 -0.00000000000E+00 -0.45730341870E+03  0.45730341870E+03  0.00000000000E+00 0. -1.
         25    2    1    2    0    0 -0.58170571060E+02 -0.12460673617E+02 -0.16809403191E+03  0.21775840897E+03  0.12499614949E+03 0.  0.
          2    1    1    2  501    0  0.95697938099E+02  0.40194668532E+02 -0.24459831579E+03  0.26571044922E+03  0.00000000000E+00 0. -1.
          1    1    1    2  502    0 -0.37527367040E+02 -0.27733994915E+02  0.49801396804E+02  0.68247028320E+02  0.00000000000E+00 0. -1.
         22    1    3    3    0    0 -0.91770238436E+02  0.17091032727E+02 -0.10638092138E+03  0.14153013989E+03  0.00000000000E+00 0. -1.
         22    1    3    3    0    0  0.33599667376E+02 -0.29551706344E+02 -0.61713110529E+02  0.76228269079E+02  0.00000000000E+00 0. -1.
</event>
<event>
 7    1  0.6888820E-006  0.9014609E+02  0.7818608E-02  0.1368981E+00
          2   -1    0    0  502    0  0.00000000000E+00  0.00000000000E+00  0.91503226977E+03  0.91503226977E+03  0.00000000000E+00 0. -1.
          1   -1    0    0  501    0 -0.00000000000E+00 -0.00000000000E+00 -0.55001700951E+03  0.55001700951E+03  0.00000000000E+00 0. -1.
         25    2    1    2    0    0  0.47707764806E+02 -0.14275591282E+02  0.79554404623E+02  0.15631346569E+03  0.12500069173E+03 0.  0.
          2    1    1    2  501    0 -0.90944933727E+02 -0.11758826703E+02 -0.50671897290E+03  0.51494986987E+03  0.00000000000E+00 0. -1.
          1    1    1    2  502    0  0.43237168921E+02  0.26034417985E+02  0.79217982854E+03  0.79378594372E+03  0.00000000000E+00 0. -1.
         22    1    3    3    0    0  0.56946255148E+02 -0.60982463782E+02  0.67177294925E+02  0.10711921311E+03  0.00000000000E+00 0.  1.
         22    1    3    3    0    0 -0.92384903419E+01  0.46706872500E+02  0.12377109698E+02  0.49194252581E+02  0.00000000000E+00 0.  1.
</event>
<event>
 7    1  0.6888820E-006  0.7867434E+02  0.7818608E-02  0.1395575E+00
          2   -1    0    0  502    0  0.00000000000E+00  0.00000000000E+00  0.16982137100E+04  0.16982137100E+04  0.00000000000E+00 0. -1.
          1   -1    0    0  501    0 -0.00000000000E+00 -0.00000000000E+00 -0.14523044530E+03  0.14523044530E+03  0.00000000000E+00 0. -1.
         25    2    1    2    0    0 -0.12253191887E+03 -0.18543610035E+02  0.61878229723E+02  0.18658031048E+03  0.12500144131E+03 0.  0.
          2    1    1    2  501    0  0.44758419867E+02  0.12924898886E+02 -0.75285291665E+02  0.88533859632E+02  0.00000000000E+00 0. -1.
          1    1    1    2  502    0  0.77773499003E+02  0.56187111489E+01  0.15663903267E+04  0.15683299852E+04  0.00000000000E+00 0. -1.
         22    1    3    3    0    0  0.16520474876E+02 -0.47478900983E+00 -0.18618778366E+02  0.24895992099E+02  0.00000000000E+00 0. -1.
         22    1    3    3    0    0 -0.13905239375E+03 -0.18068821025E+02  0.80497008089E+02  0.16168431838E+03  0.00000000000E+00 0. -1.
</event>
<event>
 7    1  0.6888820E-006  0.7427702E+02  0.7818608E-02  0.1411248E+00
          2   -1    0    0  502    0  0.00000000000E+00  0.00000000000E+00  0.18450237213E+03  0.18450237213E+03  0.00000000000E+00 0. -1.
          1   -1    0    0  501    0 -0.00000000000E+00 -0.00000000000E+00 -0.13668682862E+04  0.13668682862E+04  0.00000000000E+00 0. -1.
         25    2    1    2    0    0 -0.37722789064E+02  0.93919437350E+02 -0.70011977543E+03  0.71835647433E+03  0.12499781891E+03 0.  0.
          2    1    1    2  501    0  0.47287714366E+02 -0.51368029254E+02 -0.65302880855E+03  0.65675065829E+03  0.00000000000E+00 0. -1.
          1    1    1    2  502    0 -0.95649253015E+01 -0.42551408096E+02  0.17078266995E+03  0.17626352567E+03  0.00000000000E+00 0. -1.
         22    1    3    3    0    0 -0.73140077868E+02  0.49477167820E+02 -0.26006693801E+03  0.27464936442E+03  0.00000000000E+00 0. -1.
         22    1    3    3    0    0  0.35417288804E+02  0.44442269530E+02 -0.44005283742E+03  0.44370710991E+03  0.00000000000E+00 0. -1.
</event>
<event>
 7    1  0.6888820E-006  0.5904044E+02  0.7818608E-02  0.1416103E+00
          2   -1    0    0  502    0  0.00000000000E+00  0.00000000000E+00  0.25261713877E+02  0.25261713877E+02  0.00000000000E+00 0. -1.
          1   -1    0    0  501    0 -0.00000000000E+00 -0.00000000000E+00 -0.67161161388E+03  0.67161161388E+03  0.00000000000E+00 0. -1.
         25    2    1    2    0    0  0.33308935709E+02  0.29006596777E+02 -0.41535356838E+03  0.43599784197E+03  0.12499865431E+03 0.  0.
          2    1    1    2  501    0 -0.35259296185E+02  0.39354550691E+02 -0.10000420829E+03  0.11310543887E+03  0.00000000000E+00 0. -1.
          1    1    1    2  502    0  0.19503604761E+01 -0.68361147468E+02 -0.13099212333E+03  0.14777004691E+03  0.00000000000E+00 0. -1.
         22    1    3    3    0    0  0.75783799144E+02 -0.60030752902E+01 -0.27253898962E+03  0.28294296597E+03  0.00000000000E+00 0.  1.
         22    1    3    3    0    0 -0.42474863435E+02  0.35009672068E+02 -0.14281457876E+03  0.15305487600E+03  0.00000000000E+00 0.  1.
</event>
<event>
 7    1  0.6888820E-006  0.2820592E+03  0.7818608E-02  0.1187997E+00
          2   -1    0    0  502    0  0.00000000000E+00  0.00000000000E+00  0.17842585469E+04  0.17842585469E+04  0.00000000000E+00 0. -1.
          1   -1    0    0  501    0 -0.00000000000E+00 -0.00000000000E+00 -0.24758268208E+03  0.24758268208E+03  0.00000000000E+00 0. -1.
         25    2    1    2    0    0  0.29978811530E+01 -0.25503791565E+03  0.19922372468E+03  0.34693732068E+03  0.12498834464E+03 0.  0.
          2    1    1    2  501    0  0.89480729198E+02 -0.18960922558E+02 -0.14667896359E+03  0.17286131968E+03  0.00000000000E+00 0. -1.
          1    1    1    2  502    0 -0.92478610351E+02  0.27399883821E+03  0.14841311038E+04  0.15120425887E+04  0.00000000000E+00 0. -1.
         22    1    3    3    0    0 -0.45993734945E+02 -0.48080245547E+02  0.21942727987E+02  0.70061522804E+02  0.00000000000E+00 0.  1.
         22    1    3    3    0    0  0.48991616098E+02 -0.20695767010E+03  0.17728099669E+03  0.27687579788E+03  0.00000000000E+00 0.  1.
</event>
<event>
 7    1  0.6888820E-006  0.1641420E+03  0.7818608E-02  0.1304275E+00
          2   -1    0    0  502    0  0.00000000000E+00  0.00000000000E+00  0.13359015978E+04  0.13359015978E+04  0.00000000000E+00 0. -1.
          1   -1    0    0  501    0 -0.00000000000E+00 -0.00000000000E+00 -0.82555344966E+03  0.82555344966E+03  0.00000000000E+00 0. -1.
         25    2    1    2    0    0  0.17909501311E+03 -0.26582398477E+02  0.44788236963E+03  0.49900488511E+03  0.12500244282E+03 0.  0.
          2    1    1    2  501    0 -0.31685137122E+02 -0.36993447569E+02 -0.79176692594E+03  0.79326371913E+03  0.00000000000E+00 0. -1.
          1    1    1    2  502    0 -0.14740987599E+03  0.63575846046E+02  0.85423270449E+03  0.86918644327E+03  0.00000000000E+00 0. -1.
         22    1    3    3    0    0  0.15172705637E+03 -0.45732806979E+02  0.23450334725E+03  0.28302722332E+03  0.00000000000E+00 0.  1.
         22    1    3    3    0    0  0.27367956742E+02  0.19150408502E+02  0.21337902237E+03  0.21597766179E+03  0.00000000000E+00 0.  1.
</event>
<event>
 7    1  0.6888820E-006  0.5913586E+02  0.7818608E-02  0.1505641E+00
          2   -1    0    0  502    0  0.00000000000E+00  0.00000000000E+00  0.89057152501E+03  0.89057152501E+03  0.00000000000E+00 0. -1.
          1   -1    0    0  501    0 -0.00000000000E+00 -0.00000000000E+00 -0.12905851064E+04  0.12905851064E+04  0.00000000000E+00 0. -1.
         25    2    1    2    0    0  0.52702826570E+02 -0.59476604754E+02 -0.30709478435E+03  0.34095095080E+03  0.12500115935E+03 0.  0.
          2    1    1    2  501    0 -0.31142274545E+01  0.27357115295E+02 -0.96536683848E+03  0.96575941259E+03  0.00000000000E+00 0. -1.
          1    1    1    2  502    0 -0.49588599116E+02  0.32119489460E+02  0.87244804140E+03  0.87444626805E+03  0.00000000000E+00 0. -1.
         22    1    3    3    0    0  0.57528356234E+02 -0.37338584529E+02 -0.31054838647E+03  0.31803141670E+03  0.00000000000E+00 0. -1.
         22    1    3    3    0    0 -0.48255296632E+01 -0.22138020226E+02  0.34536021249E+01  0.22919534107E+02  0.00000000000E+00 0. -1.
</event>
<event>
 7    1  0.6888820E-006  0.8384261E+02  0.7818608E-02  0.1439812E+00
          2   -1    0    0  502    0  0.00000000000E+00  0.00000000000E+00  0.97068859957E+03  0.97068859957E+03  0.00000000000E+00 0. -1.
          1   -1    0    0  501    0 -0.00000000000E+00 -0.00000000000E+00 -0.50460766042E+03  0.50460766042E+03  0.00000000000E+00 0. -1.
         25    2    1    2    0    0 -0.31130810741E+02 -0.53191181988E+02  0.61950687440E+02  0.15251801372E+03  0.12500171045E+03 0.  0.
          2    1    1    2  501    0  0.10495413287E+02 -0.29244729872E+02 -0.45670398870E+03  0.45775969812E+03  0.00000000000E+00 0. -1.
          1    1    1    2  502    0  0.20635397454E+02  0.82435911861E+02  0.86083424041E+03  0.86501854816E+03  0.00000000000E+00 0. -1.
         22    1    3    3    0    0 -0.48285007424E+02 -0.83466871884E+02  0.20832620144E+02  0.98651704021E+02  0.00000000000E+00 0.  1.
         22    1    3    3    0    0  0.17154196684E+02  0.30275689896E+02  0.41118067296E+02  0.53866309700E+02  0.00000000000E+00 0.  1.
</event>
<event>
 7    1  0.6888820E-006  0.3739365E+02  0.7818608E-02  0.1579829E+00
          2   -1    0    0  502    0  0.00000000000E+00  0.00000000000E+00  0.23660512733E+03  0.23660512733E+03  0.00000000000E+00 0. -1.
          1   -1    0    0  501    0 -0.00000000000E+00 -0.00000000000E+00 -0.63057674203E+02  0.63057674203E+02  0.00000000000E+00 0. -1.
         25    2    1    2    0    0  0.51203944853E+02  0.33295389308E+02  0.10338793975E+03  0.17333578345E+03  0.12500320325E+03 0.  0.
          2    1    1    2  501    0 -0.25058886735E+02 -0.97959395459E+01 -0.17354113521E+02  0.32016768920E+02  0.00000000000E+00 0. -1.
          1    1    1    2  502    0 -0.26145058119E+02 -0.23499449762E+02  0.87513626904E+02  0.94310249163E+02  0.00000000000E+00 0. -1.
         22    1    3    3    0    0 -0.37553598238E+00 -0.37051180674E+02  0.71369995427E+02  0.80415217862E+02  0.00000000000E+00 0. -1.
         22    1    3    3    0    0  0.51579480836E+02  0.70346569982E+02  0.32017944321E+02  0.92920565592E+02  0.00000000000E+00 0. -1.
</event>
<event>
 7    1  0.6888820E-006  0.9940864E+02  0.7818608E-02  0.1400987E+00
          2   -1    0    0  502    0  0.00000000000E+00  0.00000000000E+00  0.88876974375E+03  0.88876974375E+03  0.00000000000E+00 0. -1.
          1   -1    0    0  501    0 -0.00000000000E+00 -0.00000000000E+00 -0.89673982037E+03  0.89673982037E+03  0.00000000000E+00 0. -1.
         25    2    1    2    0    0 -0.12029025292E+03  0.48026099869E+02 -0.44783544849E+01  0.18005975141E+03  0.12500082880E+03 0.  0.
          2    1    1    2  501    0  0.35280654784E+02  0.16615307016E+01 -0.80105402139E+03  0.80183229573E+03  0.00000000000E+00 0. -1.
          1    1    1    2  502    0  0.85009598139E+02 -0.49687630570E+02  0.79756229925E+03  0.80361751698E+03  0.00000000000E+00 0. -1.
         22    1    3    3    0    0 -0.11608603690E+03  0.57078389644E+02  0.39268712863E+02  0.13518854367E+03  0.00000000000E+00 0.  1.
         22    1    3    3    0    0 -0.42042160185E+01 -0.90522897757E+01 -0.43747067348E+02  0.44871207740E+02  0.00000000000E+00 0.  1.
</event>
<event>
 7    1  0.6888820E-006  0.9400081E+02  0.7818608E-02  0.1294324E+00
          2   -1    0    0  502    0  0.00000000000E+00  0.00000000000E+00  0.27301100653E+03  0.27301100653E+03  0.00000000000E+00 0. -1.
          1   -1    0    0  501    0 -0.00000000000E+00 -0.00000000000E+00 -0.23196620764E+03  0.23196620764E+03  0.00000000000E+00 0. -1.
         25    2    1    2    0    0  0.18607266534E+01 -0.73943285543E+02  0.88228905777E+02  0.16992849012E+03  0.12498111922E+03 0.  0.
          2    1    1    2  501    0  0.93223637808E+02 -0.12794058133E+01 -0.14964422825E+03  0.17631131153E+03  0.00000000000E+00 0. -1.
          1    1    1    2  502    0 -0.95084364462E+02  0.75222691356E+02  0.10246012137E+03  0.15873741251E+03  0.00000000000E+00 0. -1.
         22    1    3    3    0    0 -0.19676190693E+02  0.17587460592E+02  0.69105412056E+02  0.73973165578E+02  0.00000000000E+00 0. -1.
         22    1    3    3    0    0  0.21536917347E+02 -0.91530746134E+02  0.19123493721E+02  0.95955324546E+02  0.00000000000E+00 0. -1.
</event>
<event>
 7    1  0.6888820E-006  0.8633661E+02  0.7818608E-02  0.1411687E+00
          2   -1    0    0  502    0  0.00000000000E+00  0.00000000000E+00  0.19200719017E+04  0.19200719017E+04  0.00000000000E+00 0. -1.
          1   -1    0    0  501    0 -0.00000000000E+00 -0.00000000000E+00 -0.81776214773E+03  0.81776214773E+03  0.00000000000E+00 0. -1.
         25    2    1    2    0    0  0.11072383079E+03 -0.16885864864E+02  0.49511881091E+03  0.52279535453E+03  0.12500978629E+03 0.  0.
          2    1    1    2  501    0 -0.78461562512E+02  0.35790773804E+02 -0.80136225434E+03  0.80598924246E+03  0.00000000000E+00 0. -1.
          1    1    1    2  502    0 -0.32262268276E+02 -0.18904908940E+02  0.14085531974E+04  0.14090494525E+04  0.00000000000E+00 0. -1.
         22    1    3    3    0    0  0.35741293188E+02 -0.68119848480E+02  0.23628431047E+03  0.24849150724E+03  0.00000000000E+00 0. -1.
         22    1    3    3    0    0  0.74982537600E+02  0.51233983616E+02  0.25883450044E+03  0.27430384729E+03  0.00000000000E+00 0. -1.
</event>
<event>
 7    1  0.6888820E-006  0.9720688E+02  0.7818608E-02  0.1359358E+00
          2   -1    0    0  502    0  0.00000000000E+00  0.00000000000E+00  0.14939311044E+04  0.14939311044E+04  0.00000000000E+00 0. -1.
          1   -1    0    0  501    0 -0.00000000000E+00 -0.00000000000E+00 -0.50204117248E+03  0.50204117248E+03  0.00000000000E+00 0. -1.
         25    2    1    2    0    0  0.68613213083E+02 -0.11472016474E+03  0.90106092109E+02  0.20398100355E+03  0.12498260986E+03 0.  0.
          2    1    1    2  501    0  0.32260540559E+01  0.50617645803E+02 -0.44193069429E+03  0.44483175701E+03  0.00000000000E+00 0. -1.
          1    1    1    2  502    0 -0.71839267139E+02  0.64102518937E+02  0.13437145341E+04  0.13471595163E+04  0.00000000000E+00 0. -1.
         22    1    3    3    0    0  0.99506119725E+02 -0.10764551096E+03  0.90517090344E+02  0.17228571484E+03  0.00000000000E+00 0. -1.
         22    1    3    3    0    0 -0.30892906643E+02 -0.70746537760E+01 -0.41099823488E+00  0.31695288710E+02  0.00000000000E+00 0. -1.
</event>
<event>
 7    1  0.6888820E-006  0.5852058E+02  0.7818608E-02  0.1416468E+00
          2   -1    0    0  502    0  0.00000000000E+00  0.00000000000E+00  0.20442068629E+04  0.20442068629E+04  0.00000000000E+00 0. -1.
          1   -1    0    0  501    0 -0.00000000000E+00 -0.00000000000E+00 -0.35298725652E+03  0.35298725652E+03  0.00000000000E+00 0. -1.
         25    2    1    2    0    0  0.18828172124E+02 -0.62605913354E+02  0.33195655937E+03  0.36068691643E+03  0.12500357564E+03 0.  0.
          2    1    1    2  501    0  0.35564464899E+02  0.39509868529E+02 -0.33601780682E+03  0.34019674803E+03  0.00000000000E+00 0. -1.
          1    1    1    2  502    0 -0.54392637023E+02  0.23096044825E+02  0.16952808538E+04  0.16963104549E+04  0.00000000000E+00 0. -1.
         22    1    3    3    0    0  0.45264644388E+01  0.38266591507E+02  0.76310103173E+02  0.85487149632E+02  0.00000000000E+00 0.  1.
         22    1    3    3    0    0  0.14301707685E+02 -0.10087250486E+03  0.25564645619E+03  0.27519976679E+03  0.00000000000E+00 0.  1.
</event>
<event>
 7    1  0.6888820E-006  0.7113164E+02  0.7818608E-02  0.1408565E+00
          2   -1    0    0  502    0  0.00000000000E+00  0.00000000000E+00  0.27834133779E+04  0.27834133779E+04  0.00000000000E+00 0. -1.
          1   -1    0    0  501    0 -0.00000000000E+00 -0.00000000000E+00 -0.16152552789E+04  0.16152552789E+04  0.00000000000E+00 0. -1.
         25    2    1    2    0    0  0.32587786436E+02  0.82291324088E+02  0.13170142957E+03  0.20200341090E+03  0.12500514238E+03 0.  0.
          2    1    1    2  501    0 -0.44852574778E+02 -0.12287837193E+02 -0.15792793459E+04  0.15799639227E+04  0.00000000000E+00 0. -1.
          1    1    1    2  502    0  0.12264788342E+02 -0.70003486895E+02  0.26157360153E+04  0.26167013232E+04  0.00000000000E+00 0. -1.
         22    1    3    3    0    0 -0.14380027595E+02  0.91772559671E+02  0.12162305788E+03  0.15303972069E+03  0.00000000000E+00 0.  1.
         22    1    3    3    0    0  0.46967814031E+02 -0.94812355837E+01  0.10078371692E+02  0.48963690210E+02  0.00000000000E+00 0.  1.
</event>
<event>
 7    1  0.6888820E-006  0.1015105E+03  0.7818608E-02  0.1320973E+00
          2   -1    0    0  502    0  0.00000000000E+00  0.00000000000E+00  0.30443035716E+03  0.30443035716E+03  0.00000000000E+00 0. -1.
          1   -1    0    0  501    0 -0.00000000000E+00 -0.00000000000E+00 -0.22109725246E+04  0.22109725246E+04  0.00000000000E+00 0. -1.
         25    2    1    2    0    0  0.15922911065E+03 -0.47835274180E+02 -0.29554601901E+03  0.36141720324E+03  0.12503128534E+03 0.  0.
          2    1    1    2  501    0 -0.96294674205E+02  0.22807651102E+02 -0.18769431258E+04  0.18795500394E+04  0.00000000000E+00 0. -1.
          1    1    1    2  502    0 -0.62934436449E+02  0.25027623078E+02  0.26594697739E+03  0.27443563906E+03  0.00000000000E+00 0. -1.
         22    1    3    3    0    0  0.12233930431E+03 -0.49877717597E+02 -0.29634616638E+03  0.32446223574E+03  0.00000000000E+00 0. -1.
         22    1    3    3    0    0  0.36889806345E+02  0.20424434166E+01  0.80014737539E+00  0.36954967502E+02  0.00000000000E+00 0. -1.
</event>
<event>
 7    1  0.6888820E-006  0.2133640E+03  0.7818608E-02  0.1149206E+00
          2   -1    0    0  502    0  0.00000000000E+00  0.00000000000E+00  0.92496778400E+03  0.92496778400E+03  0.00000000000E+00 0. -1.
          1   -1    0    0  501    0 -0.00000000000E+00 -0.00000000000E+00 -0.41081963808E+03  0.41081963808E+03  0.00000000000E+00 0. -1.
         25    2    1    2    0    0 -0.10922498634E+02  0.10298325624E+03  0.74764812310E+02  0.17871718144E+03  0.12500080696E+03 0.  0.
          2    1    1    2  501    0  0.12716145809E+03  0.13936765280E+03 -0.30891131023E+03  0.36196626454E+03  0.00000000000E+00 0. -1.
          1    1    1    2  502    0 -0.11623895946E+03 -0.24235090904E+03  0.74829464385E+03  0.79510397611E+03  0.00000000000E+00 0. -1.
         22    1    3    3    0    0  0.32893453410E+02  0.79192094898E+02  0.92185622488E+02  0.12590296329E+03  0.00000000000E+00 0.  1.
         22    1    3    3    0    0 -0.43815952045E+02  0.23791161339E+02 -0.17420810178E+02  0.52814218149E+02  0.00000000000E+00 0.  1.
</event>
<event>
 7    1  0.6888820E-006  0.1054565E+03  0.7818608E-02  0.1279903E+00
          2   -1    0    0  502    0  0.00000000000E+00  0.00000000000E+00  0.36149040139E+03  0.36149040139E+03  0.00000000000E+00 0. -1.
          1   -1    0    0  501    0 -0.00000000000E+00 -0.00000000000E+00 -0.71532244480E+03  0.71532244480E+03  0.00000000000E+00 0. -1.
         25    2    1    2    0    0  0.87326798741E+02  0.70014361859E+02  0.21571497674E+03  0.27328691472E+03  0.12499922369E+03 0.  0.
          2    1    1    2  501    0  0.12751384524E+02 -0.10468277789E+03 -0.65747027760E+03  0.66587404794E+03  0.00000000000E+00 0. -1.
          1    1    1    2  502    0 -0.10007818326E+03  0.34668416035E+02  0.87923257449E+02  0.13765188352E+03  0.00000000000E+00 0. -1.
         22    1    3    3    0    0  0.31137994526E+02  0.50575096345E+02  0.11373490765E+02  0.60471244121E+02  0.00000000000E+00 0.  1.
         22    1    3    3    0    0  0.56188804215E+02  0.19439265515E+02  0.20434148597E+03  0.21281567060E+03  0.00000000000E+00 0.  1.
</event>
<event>
 7    1  0.6888820E-006  0.9493205E+02  0.7818608E-02  0.1468374E+00
          2   -1    0    0  502    0  0.00000000000E+00  0.00000000000E+00  0.10434365962E+04  0.10434365962E+04  0.00000000000E+00 0. -1.
          1   -1    0    0  501    0 -0.00000000000E+00 -0.00000000000E+00 -0.41916816895E+03  0.41916816895E+03  0.00000000000E+00 0. -1.
         25    2    1    2    0    0  0.86559122631E+02  0.36478236056E+02  0.13153936587E+03  0.20432784304E+03  0.12499647695E+03 0.  0.
          2    1    1    2  501    0 -0.76545181849E+02 -0.56359561740E+02 -0.37672789746E+03  0.38853503547E+03  0.00000000000E+00 0. -1.
          1    1    1    2  502    0 -0.10013940782E+02  0.19881325684E+02  0.86945695883E+03  0.86974188664E+03  0.00000000000E+00 0. -1.
         22    1    3    3    0    0  0.40396824404E+01 -0.29548687647E+01  0.11033007774E+03  0.11044354367E+03  0.00000000000E+00 0.  1.
         22    1    3    3    0    0  0.82519440190E+02  0.39433104821E+02  0.21209288131E+02  0.93884299370E+02  0.00000000000E+00 0.  1.
</event>
<event>
 7    1  0.6888820E-006  0.3918174E+02  0.7818608E-02  0.1542491E+00
          2   -1    0    0  502    0  0.00000000000E+00  0.00000000000E+00  0.58979967331E+02  0.58979967331E+02  0.00000000000E+00 0. -1.
          1   -1    0    0  501    0 -0.00000000000E+00 -0.00000000000E+00 -0.20096993886E+04  0.20096993886E+04  0.00000000000E+00 0. -1.
         25    2    1    2    0    0  0.22483256982E+01  0.71138646338E+02 -0.61268123706E+02  0.15634660500E+03  0.12499886376E+03 0.  0.
          2    1    1    2  501    0  0.25125331454E+01 -0.38965576372E+02 -0.18771572155E+04  0.18775632721E+04  0.00000000000E+00 0. -1.
          1    1    1    2  502    0 -0.47608588436E+01 -0.32173069965E+02 -0.12294082110E+02  0.34769478898E+02  0.00000000000E+00 0. -1.
         22    1    3    3    0    0 -0.29674886781E+01  0.67396329794E+01  0.37558714026E+02  0.38273824490E+02  0.00000000000E+00 0. -1.
         22    1    3    3    0    0  0.52158143763E+01  0.64399013358E+02 -0.98826837732E+02  0.11807278051E+03  0.00000000000E+00 0. -1.
</event>
<event>
 7    1  0.6888820E-006  0.8716288E+02  0.7818608E-02  0.1436811E+00
          2   -1    0    0  502    0  0.00000000000E+00  0.00000000000E+00  0.30870844259E+03  0.30870844259E+03  0.00000000000E+00 0. -1.
          1   -1    0    0  501    0 -0.00000000000E+00 -0.00000000000E+00 -0.21654556416E+03  0.21654556416E+03  0.00000000000E+00 0. -1.
         25    2    1    2    0    0  0.40885316800E+02  0.10164633848E+03 -0.70423772202E+02  0.18052241512E+03  0.12500098965E+03 0.  0.
          2    1    1    2  501    0  0.64443268366E+01 -0.29879766021E+02 -0.80917065706E+02  0.86497984302E+02  0.00000000000E+00 0. -1.
          1    1    1    2  502    0 -0.47329643636E+02 -0.71766572455E+02  0.24350371634E+03  0.25823360734E+03  0.00000000000E+00 0. -1.
         22    1    3    3    0    0  0.19217444278E+02 -0.12971807962E+02  0.21797269277E+02  0.31822930637E+02  0.00000000000E+00 0. -1.
         22    1    3    3    0    0  0.21667872522E+02  0.11461814644E+03 -0.92221041479E+02  0.14869948448E+03  0.00000000000E+00 0. -1.
</event>
<event>
 7    1  0.6888820E-006  0.2736327E+03  0.7818608E-02  0.1321513E+00
          2   -1    0    0  502    0  0.00000000000E+00  0.00000000000E+00  0.14403483438E+04  0.14403483438E+04  0.00000000000E+00 0. -1.
          1   -1    0    0  501    0 -0.00000000000E+00 -0.00000000000E+00 -0.28657646488E+03  0.28657646488E+03  0.00000000000E+00 0. -1.
         25    2    1    2    0    0 -0.12470726381E+03  0.25464346087E+03  0.25889477872E+03  0.40379855339E+03  0.12502628307E+03 0.  0.
          2    1    1    2  501    0  0.24914404266E+02 -0.21246320802E+01 -0.19670169951E+03  0.19828464436E+03  0.00000000000E+00 0. -1.
          1    1    1    2  502    0  0.99792859542E+02 -0.25251882879E+03  0.10915787997E+04  0.11248416109E+04  0.00000000000E+00 0. -1.
         22    1    3    3    0    0 -0.30516872121E+02  0.32517102640E+02  0.11388079905E+03  0.12230076795E+03  0.00000000000E+00 0.  1.
         22    1    3    3    0    0 -0.94190391687E+02  0.22212635823E+03  0.14501397967E+03  0.28149778544E+03  0.00000000000E+00 0.  1.
</event>
<event>
 7    1  0.6888820E-006  0.2812740E+02  0.7818608E-02  0.1637322E+00
          2   -1    0    0  502    0  0.00000000000E+00  0.00000000000E+00  0.42819611092E+03  0.42819611092E+03  0.00000000000E+00 0. -1.
          1   -1    0    0  501    0 -0.00000000000E+00 -0.00000000000E+00 -0.17368604996E+04  0.17368604996E+04  0.00000000000E+00 0. -1.
         25    2    1    2    0    0  0.55378531499E+01 -0.97396091927E+01 -0.24926924826E+02  0.12795218228E+03  0.12499952625E+03 0.  0.
          2    1    1    2  501    0  0.22701766510E+02  0.11399247933E+02 -0.16597925141E+04  0.16599868984E+04  0.00000000000E+00 0. -1.
          1    1    1    2  502    0 -0.28239619660E+02 -0.16596387400E+01  0.37605505023E+03  0.37711752985E+03  0.00000000000E+00 0. -1.
         22    1    3    3    0    0 -0.56511775378E+02  0.14687731378E+02 -0.63833606603E+01  0.58737190116E+02  0.00000000000E+00 0. -1.
         22    1    3    3    0    0  0.62049628528E+02 -0.24427340571E+02 -0.18543564166E+02  0.69214992161E+02  0.00000000000E+00 0. -1.
</event>
<event>
 7    1  0.6888820E-006  0.4915257E+02  0.7818608E-02  0.1463370E+00
          2   -1    0    0  502    0  0.00000000000E+00  0.00000000000E+00  0.73897686442E+03  0.73897686442E+03  0.00000000000E+00 0. -1.
          1   -1    0    0  501    0 -0.00000000000E+00 -0.00000000000E+00 -0.55191736479E+03  0.55191736479E+03  0.00000000000E+00 0. -1.
         25    2    1    2    0    0  0.40721247775E+02  0.81264099954E+02 -0.17795799674E+03  0.23570427906E+03  0.12500153841E+03 0.  0.
          2    1    1    2  501    0 -0.16408480003E+02 -0.43906776429E+02 -0.34279031689E+03  0.34598012167E+03  0.00000000000E+00 0. -1.
          1    1    1    2  502    0 -0.24312767771E+02 -0.37357323525E+02  0.70780781326E+03  0.70920982848E+03  0.00000000000E+00 0. -1.
         22    1    3    3    0    0  0.73418046891E+02  0.68846526261E+02 -0.70994216496E+02  0.12316749800E+03  0.00000000000E+00 0. -1.
         22    1    3    3    0    0 -0.32696799117E+02  0.12417573693E+02 -0.10696378024E+03  0.11253678106E+03  0.00000000000E+00 0. -1.
</event>
<event>
 7    1  0.6888820E-006  0.1007253E+03  0.7818608E-02  0.1318362E+00
          2   -1    0    0  502    0  0.00000000000E+00  0.00000000000E+00  0.36889248237E+04  0.36889248237E+04  0.00000000000E+00 0. -1.
          1   -1    0    0  501    0 -0.00000000000E+00 -0.00000000000E+00 -0.83615917653E+02  0.83615917653E+02  0.00000000000E+00 0. -1.
         25    2    1    2    0    0  0.73072442259E+02 -0.73821517695E+01  0.80210742172E+03  0.81510231052E+03  0.12498552977E+03 0.  0.
          2    1    1    2  501    0  0.15744150354E+01 -0.69850216853E+02 -0.60077358848E+02  0.92145648965E+02  0.00000000000E+00 0. -1.
          1    1    1    2  502    0 -0.74646857295E+02  0.77232368622E+02  0.28632788432E+04  0.28652927819E+04  0.00000000000E+00 0. -1.
         22    1    3    3    0    0  0.36029998547E+02  0.33831134076E+02  0.67030802125E+03  0.67212762909E+03  0.00000000000E+00 0.  1.
         22    1    3    3    0    0  0.37042443712E+02 -0.41213285846E+02  0.13179940047E+03  0.14297468143E+03  0.00000000000E+00 0.  1.
</event>
<event>
 7    1  0.6888820E-006  0.1787265E+03  0.7818608E-02  0.1271523E+00
          2   -1    0    0  502    0  0.00000000000E+00  0.00000000000E+00  0.73508490649E+03  0.73508490649E+03  0.00000000000E+00 0. -1.
          1   -1    0    0  501    0 -0.00000000000E+00 -0.00000000000E+00 -0.21396415451E+03  0.21396415451E+03  0.00000000000E+00 0. -1.
         25    2    1    2    0    0 -0.75959299182E+02 -0.13533202056E+03  0.27651098517E+03  0.34083392511E+03  0.12499947465E+03 0.  0.
          2    1    1    2  501    0  0.13563427107E+03  0.12340126306E+03 -0.13249678116E+03  0.22622980403E+03  0.00000000000E+00 0. -1.
          1    1    1    2  502    0 -0.59674971887E+02  0.11930757492E+02  0.37710654796E+03  0.38198533187E+03  0.00000000000E+00 0. -1.
         22    1    3    3    0    0  0.33776067008E+02 -0.40778613998E+02  0.56632189096E+02  0.77530141906E+02  0.00000000000E+00 0. -1.
         22    1    3    3    0    0 -0.10973536619E+03 -0.94553406558E+02  0.21987879607E+03  0.26330378320E+03  0.00000000000E+00 0. -1.
</event>
<event>
 7    1  0.6888820E-006  0.2594969E+03  0.7818608E-02  0.1143220E+00
          2   -1    0    0  502    0  0.00000000000E+00  0.00000000000E+00  0.12616960536E+04  0.12616960536E+04  0.00000000000E+00 0. -1.
          1   -1    0    0  501    0 -0.00000000000E+00 -0.00000000000E+00 -0.73322219707E+03  0.73322219707E+03  0.00000000000E+00 0. -1.
         25    2    1    2    0    0 -0.12551424690E+03  0.32501793334E+03 -0.17635011852E+03  0.41001910254E+03  0.12500326788E+03 0.  0.
          2    1    1    2  501    0  0.15141476987E+03 -0.69495822001E+02 -0.40911460535E+03  0.44173619064E+03  0.00000000000E+00 0. -1.
          1    1    1    2  502    0 -0.25900522977E+02 -0.25552211134E+03  0.11139385804E+04  0.11431629575E+04  0.00000000000E+00 0. -1.
         22    1    3    3    0    0 -0.12809957955E+03  0.16132240163E+03 -0.88250550362E+02  0.22410394728E+03  0.00000000000E+00 0.  1.
         22    1    3    3    0    0  0.25853326488E+01  0.16369553171E+03 -0.88099568154E+02  0.18591515526E+03  0.00000000000E+00 0.  1.
</event>
<event>
 7    1  0.6888820E-006  0.1168360E+03  0.7818608E-02  0.1278329E+00
          2   -1    0    0  502    0  0.00000000000E+00  0.00000000000E+00  0.81731528054E+03  0.81731528054E+03  0.00000000000E+00 0. -1.
          1   -1    0    0  501    0 -0.00000000000E+00 -0.00000000000E+00 -0.51621064929E+03  0.51621064929E+03  0.00000000000E+00 0. -1.
         25    2    1    2    0    0  0.57833756227E+02 -0.15387455148E+03 -0.31809394707E+03  0.37925057334E+03  0.12500046905E+03 0.  0.
          2    1    1    2  501    0  0.91609151658E+01  0.98043965027E+02 -0.15039069214E+03  0.17976067904E+03  0.00000000000E+00 0. -1.
          1    1    1    2  502    0 -0.66994671393E+02  0.55830586454E+02  0.76958927046E+03  0.77451467745E+03  0.00000000000E+00 0. -1.
         22    1    3    3    0    0  0.10489723665E+01 -0.28873660744E+02 -0.18767591878E+03  0.18988691139E+03  0.00000000000E+00 0.  1.
         22    1    3    3    0    0  0.56784783861E+02 -0.12500089074E+03 -0.13041802830E+03  0.18936366195E+03  0.00000000000E+00 0.  1.
</event>
<event>
 7    1  0.6888820E-006  0.4313214E+02  0.7818608E-02  0.1587688E+00
          2   -1    0    0  502    0  0.00000000000E+00  0.00000000000E+00  0.15917662103E+04  0.15917662103E+04  0.00000000000E+00 0. -1.
          1   -1    0    0  501    0 -0.00000000000E+00 -0.00000000000E+00 -0.69461921496E+03  0.69461921496E+03  0.00000000000E+00 0. -1.
         25    2    1    2    0    0 -0.74080569366E+01 -0.21519810714E+02 -0.69718977516E+01  0.12724192997E+03  0.12499567922E+03 0.  0.
          2    1    1    2  501    0  0.29546414568E+01  0.43295382332E+02 -0.62668125858E+03  0.62818199584E+03  0.00000000000E+00 0. -1.
          1    1    1    2  502    0  0.44534154798E+01 -0.21775571617E+02  0.15308001517E+04  0.15309614995E+04  0.00000000000E+00 0. -1.
         22    1    3    3    0    0 -0.31979035877E+02  0.87127925318E+01 -0.55723812604E+02  0.64836060803E+02  0.00000000000E+00 0.  1.
         22    1    3    3    0    0  0.24570978940E+02 -0.30232603246E+02  0.48751914853E+02  0.62405869170E+02  0.00000000000E+00 0.  1.
</event>
<event>
 7    1  0.6888820E-006  0.1233946E+03  0.7818608E-02  0.1381921E+00
          2   -1    0    0  502    0  0.00000000000E+00  0.00000000000E+00  0.26879729190E+04  0.26879729190E+04  0.00000000000E+00 0. -1.
          1   -1    0    0  501    0 -0.00000000000E+00 -0.00000000000E+00 -0.14251774875E+04  0.14251774875E+04  0.00000000000E+00 0. -1.
         25    2    1    2    0    0 -0.14313477277E+03  0.62695518843E+02  0.49266095431E+03  0.53174991216E+03  0.12499944768E+03 0.  0.
          2    1    1    2  501    0  0.11187568476E+03 -0.51646391144E+02 -0.14028058298E+04  0.14082072698E+04  0.00000000000E+00 0. -1.
          1    1    1    2  502    0  0.31259088011E+02 -0.11049127700E+02  0.21729403070E+04  0.21731932246E+04  0.00000000000E+00 0. -1.
         22    1    3    3    0    0  0.34877204547E+01  0.24849612135E+02  0.20626028301E+03  0.20778106691E+03  0.00000000000E+00 0.  1.
         22    1    3    3    0    0 -0.14662249322E+03  0.37845906708E+02  0.28640067130E+03  0.32396884525E+03  0.00000000000E+00 0.  1.
</event>
<event>
 7    1  0.6888820E-006  0.5592997E+02  0.7818608E-02  0.1507214E+00
          2   -1    0    0  502    0  0.00000000000E+00  0.00000000000E+00  0.31780704834E+03  0.31780704834E+03  0.00000000000E+00 0. -1.
          1   -1    0    0  501    0 -0.00000000000E+00 -0.00000000000E+00 -0.14134722830E+03  0.14134722830E+03  0.00000000000E+00 0. -1.
         25    2    1    2    0    0 -0.29239721097E+02  0.12442939743E+02  0.14840887394E+01  0.12899746427E+03  0.12501342020E+03 0.  0.
          2    1    1    2  501    0  0.53330689556E+02 -0.28228195350E+02 -0.64865783977E+02  0.88592118115E+02  0.00000000000E+00 0. -1.
          1    1    1    2  502    0 -0.24090968459E+02  0.15785255607E+02  0.23984151528E+03  0.24156469425E+03  0.00000000000E+00 0. -1.
         22    1    3    3    0    0 -0.55983117217E+02  0.41288322997E+02 -0.32718150935E+02  0.76872052333E+02  0.00000000000E+00 0. -1.
         22    1    3    3    0    0  0.26743396120E+02 -0.28845383254E+02  0.34202239675E+02  0.52125411939E+02  0.00000000000E+00 0. -1.
</event>
<event>
 7    1  0.6888820E-006  0.8673068E+02  0.7818608E-02  0.1388480E+00
          2   -1    0    0  502    0  0.00000000000E+00  0.00000000000E+00  0.92408901724E+03  0.92408901724E+03  0.00000000000E+00 0. -1.
          1   -1    0    0  501    0 -0.00000000000E+00 -0.00000000000E+00 -0.10697829118E+04  0.10697829118E+04  0.00000000000E+00 0. -1.
         25    2    1    2    0    0  0.47334338209E+02 -0.28077928570E+02  0.31445214260E+03  0.34283243182E+03  0.12500006671E+03 0.  0.
          2    1    1    2  501    0 -0.86669466596E+02  0.67788940214E+01 -0.10529588354E+04  0.10565414611E+04  0.00000000000E+00 0. -1.
          1    1    1    2  502    0  0.39335128386E+02  0.21299034548E+02  0.59281279827E+03  0.59449803615E+03  0.00000000000E+00 0. -1.
         22    1    3    3    0    0  0.65313813387E+02 -0.59288051269E+02  0.14604719367E+03  0.17061872706E+03  0.00000000000E+00 0.  1.
         22    1    3    3    0    0 -0.17979475178E+02  0.31210122700E+02  0.16840494893E+03  0.17221370477E+03  0.00000000000E+00 0.  1.
</event>
<event>
 7    1  0.6888820E-006  0.4181475E+02  0.7818608E-02  0.1495679E+00
          2   -1    0    0  502    0  0.00000000000E+00  0.00000000000E+00  0.15853473050E+04  0.15853473050E+04  0.00000000000E+00 0. -1.
          1   -1    0    0  501    0 -0.00000000000E+00 -0.00000000000E+00 -0.41474422705E+02  0.41474422705E+02  0.00000000000E+00 0. -1.
         25    2    1    2    0    0  0.82767412289E+01 -0.41725459492E+02  0.22422166033E+03  0.26021192490E+03  0.12500149793E+03 0.  0.
          2    1    1    2  501    0  0.31361235406E+02  0.27657661957E+02 -0.42594874171E+01  0.42031138269E+02  0.00000000000E+00 0. -1.
          1    1    1    2  502    0 -0.39637976635E+02  0.14067797535E+02  0.13239107094E+04  0.13245786646E+04  0.00000000000E+00 0. -1.
         22    1    3    3    0    0  0.33418784966E+02 -0.27317084918E+02  0.10350592900E+02  0.44386631888E+02  0.00000000000E+00 0. -1.
         22    1    3    3    0    0 -0.25142043737E+02 -0.14408374574E+02  0.21387106743E+03  0.21582529301E+03  0.00000000000E+00 0. -1.
</event>
<event>
 7    1  0.6888820E-006  0.1166010E+03  0.7818608E-02  0.1271674E+00
          2   -1    0    0  502    0  0.00000000000E+00  0.00000000000E+00  0.25431973709E+03  0.25431973709E+03  0.00000000000E+00 0. -1.
          1   -1    0    0  501    0 -0.00000000000E+00 -0.00000000000E+00 -0.97781706956E+03  0.97781706956E+03  0.00000000000E+00 0. -1.
         25    2    1    2    0    0 -0.69485758231E+02 -0.36940218610E+02 -0.11242834542E+03  0.18563031430E+03  0.12500252151E+03 0.  0.
          2    1    1    2  501    0 -0.46771207405E+02  0.80550894983E+02 -0.80818906076E+03  0.81353890531E+03  0.00000000000E+00 0. -1.
          1    1    1    2  502    0  0.11625696564E+03 -0.43610676373E+02  0.19712007371E+03  0.23296758705E+03  0.00000000000E+00 0. -1.
         22    1    3    3    0    0 -0.28293130349E+01  0.11514362478E+02  0.23700806144E+02  0.26501203131E+02  0.00000000000E+00 0. -1.
         22    1    3    3    0    0 -0.66656445196E+02 -0.48454581088E+02 -0.13612915157E+03  0.15912911117E+03  0.00000000000E+00 0. -1.
</event>
<event>
 7    1  0.6888820E-006  0.7887647E+02  0.7818608E-02  0.1464610E+00
          2   -1    0    0  502    0  0.00000000000E+00  0.00000000000E+00  0.61461889913E+03  0.61461889913E+03  0.00000000000E+00 0. -1.
          1   -1    0    0  501    0 -0.00000000000E+00 -0.00000000000E+00 -0.14195562319E+03  0.14195562319E+03  0.00000000000E+00 0. -1.
         25    2    1    2    0    0 -0.11472209857E+02 -0.51934725634E+02  0.22091298463E+03  0.25934550990E+03  0.12501487672E+03 0.  0.
          2    1    1    2  501    0  0.23013106032E+02  0.76926456297E+02 -0.10902661963E+03  0.13540342135E+03  0.00000000000E+00 0. -1.
          1    1    1    2  502    0 -0.11540896174E+02 -0.24991730663E+02  0.36077691094E+03  0.36182559107E+03  0.00000000000E+00 0. -1.
         22    1    3    3    0    0  0.29709075256E+00  0.39240130841E+02  0.10021612832E+03  0.10762503662E+03  0.00000000000E+00 0. -1.
         22    1    3    3    0    0 -0.11769300610E+02 -0.91174856475E+02  0.12069685631E+03  0.15172047328E+03  0.00000000000E+00 0. -1.
</event>
<event>
 7    1  0.6888820E-006  0.1712585E+03  0.7818608E-02  0.1277885E+00
          2   -1    0    0  502    0  0.00000000000E+00  0.00000000000E+00  0.24603696643E+04  0.24603696643E+04  0.00000000000E+00 0. -1.
          1   -1    0    0  501    0 -0.00000000000E+00 -0.00000000000E+00 -0.24674219286E+03  0.24674219286E+03  0.00000000000E+00 0. -1.
         25    2    1    2    0    0 -0.12300688699E+03 -0.78350815308E+02  0.69604606847E+03  0.72206289919E+03  0.12500062576E+03 0.  0.
          2    1    1    2  501    0  0.16823283059E+03  0.39306616772E+02 -0.20121918835E+03  0.26521021317E+03  0.00000000000E+00 0. -1.
          1    1    1    2  502    0 -0.45225943603E+02  0.39044198536E+02  0.17188005914E+04  0.17198387448E+04  0.00000000000E+00 0. -1.
         22    1    3    3    0    0 -0.34717373306E+02 -0.95061215887E+02  0.33136831810E+03  0.34647783914E+03  0.00000000000E+00 0. -1.
         22    1    3    3    0    0 -0.88289513682E+02  0.16710400580E+02  0.36467775037E+03  0.37558506005E+03  0.00000000000E+00 0. -1.
</event>
<event>
 7    1  0.6888820E-006  0.4296041E+02  0.7818608E-02  0.1562132E+00
          2   -1    0    0  502    0  0.00000000000E+00  0.00000000000E+00  0.42236197232E+03  0.42236197232E+03  0.00000000000E+00 0. -1.
          1   -1    0    0  501    0 -0.00000000000E+00 -0.00000000000E+00 -0.69698395744E+02  0.69698395744E+02  0.00000000000E+00 0. -1.
         25    2    1    2    0    0  0.50486255916E+02  0.45412218083E+02  0.21682208701E+03  0.25932075240E+03  0.12499721445E+03 0.  0.
          2    1    1    2  501    0 -0.33027602104E+02 -0.25934226194E+02 -0.38185033222E+02  0.56758288832E+02  0.00000000000E+00 0. -1.
          1    1    1    2  502    0 -0.17458653812E+02 -0.19477991889E+02  0.17402652279E+03  0.17598132683E+03  0.00000000000E+00 0. -1.
         22    1    3    3    0    0  0.44792198495E+01 -0.15822787857E+02 -0.10453778373E+02  0.19486033672E+02  0.00000000000E+00 0.  1.
         22    1    3    3    0    0  0.46007036066E+02  0.61235005940E+02  0.22727586538E+03  0.23983471872E+03  0.00000000000E+00 0.  1.
</event>
<event>
 7    1  0.6888820E-006  0.8574716E+02  0.7818608E-02  0.1344972E+00
          2   -1    0    0  502    0  0.00000000000E+00  0.00000000000E+00  0.18968669729E+03  0.18968669729E+03  0.00000000000E+00 0. -1.
          1   -1    0    0  501    0 -0.00000000000E+00 -0.00000000000E+00 -0.13545148383E+04  0.13545148383E+04  0.00000000000E+00 0. -1.
         25    2    1    2    0    0  0.34949383109E+02 -0.14820170830E+02 -0.69110560784E+03  0.70334281610E+03  0.12499223546E+03 0.  0.
          2    1    1    2  501    0 -0.60496306476E+02 -0.67032933774E+02 -0.64395249112E+03  0.65025228037E+03  0.00000000000E+00 0. -1.
          1    1    1    2  502    0  0.25546923367E+02  0.81853104604E+02  0.17022995799E+03  0.19060643909E+03  0.00000000000E+00 0. -1.
         22    1    3    3    0    0 -0.17766326435E+02 -0.49682208103E+02 -0.48242360422E+03  0.48530042043E+03  0.00000000000E+00 0. -1.
         22    1    3    3    0    0  0.52715709544E+02  0.34862037273E+02 -0.20868200362E+03  0.21804239567E+03  0.00000000000E+00 0. -1.
</event>
<event>
 7    1  0.6888820E-006  0.3553868E+02  0.7818608E-02  0.1587582E+00
          2   -1    0    0  502    0  0.00000000000E+00  0.00000000000E+00  0.84637491361E+03  0.84637491361E+03  0.00000000000E+00 0. -1.
          1   -1    0    0  501    0 -0.00000000000E+00 -0.00000000000E+00 -0.15012675482E+03  0.15012675482E+03  0.00000000000E+00 0. -1.
         25    2    1    2    0    0  0.53863485079E+02  0.20944872313E+02  0.53389840142E+03  0.55137337283E+03  0.12500052211E+03 0.  0.
          2    1    1    2  501    0 -0.20687856576E+02 -0.17338623091E+02 -0.13917198329E+03  0.14176549719E+03  0.00000000000E+00 0. -1.
          1    1    1    2  502    0 -0.33175628503E+02 -0.36062492220E+01  0.30152174067E+03  0.30336279840E+03  0.00000000000E+00 0. -1.
         22    1    3    3    0    0  0.58344857085E+02 -0.13186344519E+02  0.49821087266E+03  0.50178887559E+03  0.00000000000E+00 0.  1.
         22    1    3    3    0    0 -0.44813720061E+01  0.34131216832E+02  0.35687528757E+02  0.49584497237E+02  0.00000000000E+00 0.  1.
</event>
<event>
 7    1  0.6888820E-006  0.7572066E+02  0.7818608E-02  0.1389199E+00
          2   -1    0    0  502    0  0.00000000000E+00  0.00000000000E+00  0.52350999729E+03  0.52350999729E+03  0.00000000000E+00 0. -1.
          1   -1    0    0  501    0 -0.00000000000E+00 -0.00000000000E+00 -0.17396525415E+04  0.17396525415E+04  0.00000000000E+00 0. -1.
         25    2    1    2    0    0 -0.11507416882E+03  0.72196365876E+01  0.43004255803E+02  0.17541318688E+03  0.12500493044E+03 0.  0.
          2    1    1    2  501    0  0.69368450004E+02 -0.29711278528E+02 -0.16710274817E+04  0.16727305780E+04  0.00000000000E+00 0. -1.
          1    1    1    2  502    0  0.45705718813E+02  0.22491641941E+02  0.41188068174E+03  0.41501877388E+03  0.00000000000E+00 0. -1.
         22    1    3    3    0    0 -0.56179286622E+02  0.28396397199E+02  0.80703153252E+02  0.10234972674E+03  0.00000000000E+00 0.  1.
         22    1    3    3    0    0 -0.58894882195E+02 -0.21176760611E+02 -0.37698897449E+02  0.73063460140E+02  0.00000000000E+00 0.  1.
</event>
<event>
 7    1  0.8994951E-006  0.9913600E+02  0.7818608E-02  0.1297979E+00
          2   -1    0    0  502    0  0.00000000000E+00  0.00000000000E+00  0.18371845732E+04  0.18371845732E+04  0.00000000000E+00 0. -1.
          1   -1    0    0  501    0 -0.00000000000E+00 -0.00000000000E+00 -0.10276600667E+04  0.10276600667E+04  0.00000000000E+00 0. -1.
         25    2    1    2    0    0 -0.12159280383E+03  0.18874658500E+02 -0.34020195763E+03  0.38275639378E+03  0.12499608924E+03 0.  0.
          2    1    1    2  501    0  0.40136577295E+02 -0.75444901158E+02 -0.66207862496E+03  0.66757095771E+03  0.00000000000E+00 0. -1.
          1    1    1    2  502    0  0.81456226536E+02  0.56570242658E+02  0.18118050890E+04  0.18145172884E+04  0.00000000000E+00 0. -1.
         22    1    3    3    0    0 -0.40962726065E+02 -0.36043419171E+02 -0.41571136318E+02  0.68594696348E+02  0.00000000000E+00 0. -1.
         22    1    3    3    0    0 -0.80630077766E+02  0.54918077671E+02 -0.29863082131E+03  0.31416169743E+03  0.00000000000E+00 0. -1.
</event>
<event>
 7    1  0.6888820E-006  0.4170663E+02  0.7818608E-02  0.1521234E+00
          2   -1    0    0  502    0  0.00000000000E+00  0.00000000000E+00  0.12265808270E+03  0.12265808270E+03  0.00000000000E+00 0. -1.
          1   -1    0    0  501    0 -0.00000000000E+00 -0.00000000000E+00 -0.14148113075E+03  0.14148113075E+03  0.00000000000E+00 0. -1.
         25    2    1    2    0    0  0.15956926571E+02 -0.68438708086E+02  0.20251481265E+02  0.14481294982E+03  0.12498875018E+03 0.  0.
          2    1    1    2  501    0 -0.16572206358E+02  0.30989133068E+02 -0.64919031858E+02  0.73820356876E+02  0.00000000000E+00 0. -1.
          1    1    1    2  502    0  0.61527978694E+00  0.37449575018E+02  0.25844502546E+02  0.45505906761E+02  0.00000000000E+00 0. -1.
         22    1    3    3    0    0 -0.16215337222E+02  0.28089672375E+02  0.27892232614E+02  0.42777838837E+02  0.00000000000E+00 0.  1.
         22    1    3    3    0    0  0.32172263793E+02 -0.96528380461E+02 -0.76407513485E+01  0.10203511098E+03  0.00000000000E+00 0.  1.
</event>
<event>
 7    1  0.6888820E-006  0.1752340E+03  0.7818608E-02  0.1342013E+00
          2   -1    0    0  502    0  0.00000000000E+00  0.00000000000E+00  0.48056741056E+03  0.48056741056E+03  0.00000000000E+00 0. -1.
          1   -1    0    0  501    0 -0.00000000000E+00 -0.00000000000E+00 -0.70171075124E+03  0.70171075124E+03  0.00000000000E+00 0. -1.
         25    2    1    2    0    0 -0.70901313337E+01  0.15557828544E+03 -0.47651680425E+03  0.51666987032E+03  0.12499846918E+03 0.  0.
          2    1    1    2  501    0 -0.27922970605E+02  0.16860255123E+02 -0.18684409628E+03  0.18966991540E+03  0.00000000000E+00 0. -1.
          1    1    1    2  502    0  0.35013101938E+02 -0.17243854057E+03  0.44221755986E+03  0.47593837608E+03  0.00000000000E+00 0. -1.
         22    1    3    3    0    0 -0.42543014218E+02  0.59615093094E+02 -0.32963050797E+03  0.33766868254E+03  0.00000000000E+00 0.  1.
         22    1    3    3    0    0  0.35452882884E+02  0.95963192350E+02 -0.14688629628E+03  0.17900118778E+03  0.00000000000E+00 0.  1.
</event>
<event>
 7    1  0.6888820E-006  0.1300000E+03  0.7818608E-02  0.1331514E+00
          2   -1    0    0  502    0  0.00000000000E+00  0.00000000000E+00  0.10173739529E+04  0.10173739529E+04  0.00000000000E+00 0. -1.
          1   -1    0    0  501    0 -0.00000000000E+00 -0.00000000000E+00 -0.16834240431E+03  0.16834240431E+03  0.00000000000E+00 0. -1.
         25    2    1    2    0    0 -0.52053858734E+02 -0.11548538916E+03  0.17958342233E+03  0.25282081300E+03  0.12498671367E+03 0.  0.
          2    1    1    2  501    0  0.45448717896E+02 -0.15980308998E+02 -0.12169114968E+03  0.13088044982E+03  0.00000000000E+00 0. -1.
          1    1    1    2  502    0  0.66051408387E+01  0.13146569816E+03  0.79113927597E+03  0.80201509441E+03  0.00000000000E+00 0. -1.
         22    1    3    3    0    0  0.33946591246E+02 -0.53202185767E+02  0.31317873971E+02  0.70453196220E+02  0.00000000000E+00 0.  1.
         22    1    3    3    0    0 -0.86000449981E+02 -0.62283203391E+02  0.14826554836E+03  0.18236761678E+03  0.00000000000E+00 0.  1.
</event>
<event>
 7    1  0.6888820E-006  0.8097249E+02  0.7818608E-02  0.1342998E+00
          2   -1    0    0  502    0  0.00000000000E+00  0.00000000000E+00  0.66683034471E+03  0.66683034471E+03  0.00000000000E+00 0. -1.
          1   -1    0    0  501    0 -0.00000000000E+00 -0.00000000000E+00 -0.20044061242E+03  0.20044061242E+03  0.00000000000E+00 0. -1.
         25    2    1    2    0    0  0.39466524774E+02  0.37642325800E+01  0.13863917137E+03  0.19083367581E+03  0.12499958384E+03 0.  0.
          2    1    1    2  501    0  0.25372398427E+02 -0.65232088507E+02 -0.16311983091E+03  0.17750229072E+03  0.00000000000E+00 0. -1.
          1    1    1    2  502    0 -0.64838923201E+02  0.61467855927E+02  0.49087039183E+03  0.49893499061E+03  0.00000000000E+00 0. -1.
         22    1    3    3    0    0  0.44506518775E+02 -0.57521202343E+01  0.16039709742E+03  0.16655673497E+03  0.00000000000E+00 0. -1.
         22    1    3    3    0    0 -0.50399940014E+01  0.95163528142E+01 -0.21757926054E+02  0.24276940841E+02  0.00000000000E+00 0. -1.
</event>
<event>
 7    1  0.6888820E-006  0.9235023E+02  0.7818608E-02  0.1314282E+00
          2   -1    0    0  502    0  0.00000000000E+00  0.00000000000E+00  0.16702115387E+04  0.16702115387E+04  0.00000000000E+00 0. -1.
          1   -1    0    0  501    0 -0.00000000000E+00 -0.00000000000E+00 -0.35209461165E+03  0.35209461165E+03  0.00000000000E+00 0. -1.
         25    2    1    2    0    0  0.42756487226E+02  0.60381851899E+01  0.12760706347E+03  0.18377358640E+03  0.12499836612E+03 0.  0.
          2    1    1    2  501    0 -0.43136734121E+02 -0.85087018585E+02 -0.31593070281E+03  0.33001937450E+03  0.00000000000E+00 0. -1.
          1    1    1    2  502    0  0.38024689489E+00  0.79048833395E+02  0.15064405664E+04  0.15085131894E+04  0.00000000000E+00 0. -1.
         22    1    3    3    0    0  0.34835292326E+02 -0.54707449421E+02  0.93099231770E+02  0.11346307580E+03  0.00000000000E+00 0. -1.
         22    1    3    3    0    0  0.79211948995E+01  0.60745634611E+02  0.34507831701E+02  0.70310510606E+02  0.00000000000E+00 0. -1.
</event>
<event>
 7    1  0.6888820E-006  0.2907189E+03  0.7818608E-02  0.1338178E+00
          2   -1    0    0  502    0  0.00000000000E+00  0.00000000000E+00  0.15107374292E+04  0.15107374292E+04  0.00000000000E+00 0. -1.
          1   -1    0    0  501    0 -0.00000000000E+00 -0.00000000000E+00 -0.50950982288E+03  0.50950982288E+03  0.00000000000E+00 0. -1.
         25    2    1    2    0    0 -0.99667500866E+02 -0.25429316780E+03  0.34623802426E+03  0.45837196854E+03  0.12500186470E+03 0.  0.
          2    1    1    2  501    0  0.11178398028E+03  0.27061190214E+03 -0.40607117562E+03  0.50061987525E+03  0.00000000000E+00 0. -1.
          1    1    1    2  502    0 -0.12116479410E+02 -0.16318734341E+02  0.10610607577E+04  0.10612554083E+04  0.00000000000E+00 0. -1.
         22    1    3    3    0    0 -0.35381662939E+02 -0.22084312056E+03  0.22584557494E+03  0.31785180460E+03  0.00000000000E+00 0. -1.
         22    1    3    3    0    0 -0.64285837927E+02 -0.33450047243E+02  0.12039244932E+03  0.14052016393E+03  0.00000000000E+00 0. -1.
</event>
<event>
 7    1  0.6888820E-006  0.2321300E+03  0.7818608E-02  0.1254617E+00
          2   -1    0    0  502    0  0.00000000000E+00  0.00000000000E+00  0.14100210137E+04  0.14100210137E+04  0.00000000000E+00 0. -1.
          1   -1    0    0  501    0 -0.00000000000E+00 -0.00000000000E+00 -0.10938906027E+04  0.10938906027E+04  0.00000000000E+00 0. -1.
         25    2    1    2    0    0 -0.21955902141E+03  0.67797956728E+02  0.25257175147E+03  0.36362043446E+03  0.12499841558E+03 0.  0.
          2    1    1    2  501    0  0.19953870534E+03 -0.11932423792E+03 -0.10246417041E+04  0.10506876750E+04  0.00000000000E+00 0. -1.
          1    1    1    2  502    0  0.20020316073E+02  0.51526281188E+02  0.10882003636E+04  0.10896035069E+04  0.00000000000E+00 0. -1.
         22    1    3    3    0    0 -0.20690927370E+03  0.17229165483E+02  0.21811085768E+03  0.30113225985E+03  0.00000000000E+00 0.  1.
         22    1    3    3    0    0 -0.12649747715E+02  0.50568791245E+02  0.34460893792E+02  0.62488174611E+02  0.00000000000E+00 0.  1.
</event>
<event>
 7    1  0.6888820E-006  0.5748880E+02  0.7818608E-02  0.1503155E+00
          2   -1    0    0  502    0  0.00000000000E+00  0.00000000000E+00  0.47058384307E+02  0.47058384307E+02  0.00000000000E+00 0. -1.
          1   -1    0    0  501    0 -0.00000000000E+00 -0.00000000000E+00 -0.49988180599E+03  0.49988180599E+03  0.00000000000E+00 0. -1.
         25    2    1    2    0    0 -0.25872223693E+02 -0.19610624529E+02 -0.38307941060E+03  0.40426161870E+03  0.12499469178E+03 0.  0.
          2    1    1    2  501    0 -0.28582095944E+02 -0.35980862094E+01 -0.77778392727E+02  0.82941912253E+02  0.00000000000E+00 0. -1.
          1    1    1    2  502    0  0.54454319637E+02  0.23208710739E+02  0.80343816466E+01  0.59736659345E+02  0.00000000000E+00 0. -1.
         22    1    3    3    0    0  0.11816647295E+01  0.33458768135E+01  0.94694782267E+01  0.10112479472E+02  0.00000000000E+00 0.  1.
         22    1    3    3    0    0 -0.27053888422E+02 -0.22956501343E+02 -0.39254888883E+03  0.39414913923E+03  0.00000000000E+00 0.  1.
</event>
<event>
 7    1  0.6888820E-006  0.7113484E+02  0.7818608E-02  0.1402514E+00
          2   -1    0    0  502    0  0.00000000000E+00  0.00000000000E+00  0.36728480837E+03  0.36728480837E+03  0.00000000000E+00 0. -1.
          1   -1    0    0  501    0 -0.00000000000E+00 -0.00000000000E+00 -0.10148059997E+04  0.10148059997E+04  0.00000000000E+00 0. -1.
         25    2    1    2    0    0  0.82693734091E+02  0.71764401392E+02 -0.44204149300E+03  0.47224446392E+03  0.12500307677E+03 0.  0.
          2    1    1    2  501    0 -0.60070274563E+02 -0.28562919447E+02 -0.55397579712E+03  0.55795471326E+03  0.00000000000E+00 0. -1.
          1    1    1    2  502    0 -0.22623459529E+02 -0.43201481945E+02  0.34849609883E+03  0.35189163086E+03  0.00000000000E+00 0. -1.
         22    1    3    3    0    0  0.35683451934E+02  0.69346897922E+02 -0.99198122386E+02  0.12618466023E+03  0.00000000000E+00 0.  1.
         22    1    3    3    0    0  0.47010282157E+02  0.24175034703E+01 -0.34284337061E+03  0.34605980368E+03  0.00000000000E+00 0.  1.
</event>
<event>
 7    1  0.6888820E-006  0.2553522E+03  0.7818608E-02  0.1205434E+00
          2   -1    0    0  502    0  0.00000000000E+00  0.00000000000E+00  0.13175454754E+04  0.13175454754E+04  0.00000000000E+00 0. -1.
          1   -1    0    0  501    0 -0.00000000000E+00 -0.00000000000E+00 -0.79529983506E+02  0.79529983506E+02  0.00000000000E+00 0. -1.
         25    2    1    2    0    0 -0.17982463190E+02  0.21202581233E+03  0.39916345463E+03  0.46929162120E+03  0.12499939255E+03 0.  0.
          2    1    1    2  501    0  0.34597596191E+02  0.76011078976E+02  0.78833771939E+02  0.11484529328E+03  0.00000000000E+00 0. -1.
          1    1    1    2  502    0 -0.16615133002E+02 -0.28803689130E+03  0.76001826529E+03  0.81293854440E+03  0.00000000000E+00 0. -1.
         22    1    3    3    0    0  0.12903204753E+02  0.13660395345E+03  0.13362591205E+03  0.19152811063E+03  0.00000000000E+00 0.  1.
         22    1    3    3    0    0 -0.30885667943E+02  0.75421858877E+02  0.26553754259E+03  0.27776351057E+03  0.00000000000E+00 0.  1.
</event>
<event>
 7    1  0.6888820E-006  0.1044207E+03  0.7818608E-02  0.1415815E+00
          2   -1    0    0  502    0  0.00000000000E+00  0.00000000000E+00  0.24687424970E+04  0.24687424970E+04  0.00000000000E+00 0. -1.
          1   -1    0    0  501    0 -0.00000000000E+00 -0.00000000000E+00 -0.17271312236E+03  0.17271312236E+03  0.00000000000E+00 0. -1.
         25    2    1    2    0    0 -0.93080909643E+02  0.86772336399E+02  0.28265403347E+03  0.33423356661E+03  0.12500112124E+03 0.  0.
          2    1    1    2  501    0  0.85435500161E+02 -0.57822355505E+02 -0.12869663306E+03  0.16494081619E+03  0.00000000000E+00 0. -1.
          1    1    1    2  502    0  0.76454094829E+01 -0.28949980894E+02  0.21420719742E+04  0.21422812365E+04  0.00000000000E+00 0. -1.
         22    1    3    3    0    0 -0.11563421697E+03  0.98435196360E+02  0.25413582407E+03  0.29605029487E+03  0.00000000000E+00 0.  1.
         22    1    3    3    0    0  0.22553307325E+02 -0.11662859961E+02  0.28518209395E+02  0.38183271741E+02  0.00000000000E+00 0.  1.
</event>
<event>
 7    1  0.6888820E-006  0.1583465E+03  0.7818608E-02  0.1199420E+00
          2   -1    0    0  502    0  0.00000000000E+00  0.00000000000E+00  0.11143179726E+04  0.11143179726E+04  0.00000000000E+00 0. -1.
          1   -1    0    0  501    0 -0.00000000000E+00 -0.00000000000E+00 -0.11489035803E+04  0.11489035803E+04  0.00000000000E+00 0. -1.
         25    2    1    2    0    0 -0.53416403694E+02 -0.29133695157E+03  0.11396163253E+02  0.32168733366E+03  0.12498934583E+03 0.  0.
          2    1    1    2  501    0  0.33346048473E+02  0.13980641168E+03 -0.98233137068E+03  0.99279036736E+03  0.00000000000E+00 0. -1.
          1    1    1    2  502    0  0.20070355221E+02  0.15153053989E+03  0.93634959973E+03  0.94874385194E+03  0.00000000000E+00 0. -1.
         22    1    3    3    0    0 -0.77857520723E+02 -0.18602752915E+03 -0.33864512448E+02  0.20448677302E+03  0.00000000000E+00 0.  1.
         22    1    3    3    0    0  0.24441117029E+02 -0.10530942242E+03  0.45260675701E+02  0.11720056065E+03  0.00000000000E+00 0.  1.
</event>
<event>
 7    1  0.6888820E-006  0.5873524E+02  0.7818608E-02  0.1526122E+00
          2   -1    0    0  502    0  0.00000000000E+00  0.00000000000E+00  0.21396991581E+04  0.21396991581E+04  0.00000000000E+00 0. -1.
          1   -1    0    0  501    0 -0.00000000000E+00 -0.00000000000E+00 -0.37321480737E+02  0.37321480737E+02  0.00000000000E+00 0. -1.
         25    2    1    2    0    0  0.71124513180E+02 -0.36575708955E+02  0.32997148421E+03  0.36180040892E+03  0.12498750596E+03 0.  0.
          2    1    1    2  501    0 -0.47920001513E+02  0.29865835803E+02  0.16055262759E+02  0.58703203963E+02  0.00000000000E+00 0. -1.
          1    1    1    2  502    0 -0.23204511667E+02  0.67098731522E+01  0.17563509304E+04  0.17565170259E+04  0.00000000000E+00 0. -1.
         22    1    3    3    0    0 -0.27923058241E+02  0.79057699142E+01  0.25800044785E+02  0.38830924407E+02  0.00000000000E+00 0. -1.
         22    1    3    3    0    0  0.99047571421E+02 -0.44481478869E+02  0.30417143943E+03  0.32296948452E+03  0.00000000000E+00 0. -1.
</event>
<event>
 7    1  0.6888820E-006  0.4275220E+03  0.7818608E-02  0.1157732E+00
          2   -1    0    0  502    0  0.00000000000E+00  0.00000000000E+00  0.16972594451E+04  0.16972594451E+04  0.00000000000E+00 0. -1.
          1   -1    0    0  501    0 -0.00000000000E+00 -0.00000000000E+00 -0.27210370991E+03  0.27210370991E+03  0.00000000000E+00 0. -1.
         25    2    1    2    0    0  0.36831867147E+03 -0.12650098252E+03  0.23490545527E+03  0.47165405979E+03  0.12496334210E+03 0.  0.
          2    1    1    2  501    0 -0.42756950132E+03  0.18767260826E+03  0.20698660319E+03  0.51076427073E+03  0.00000000000E+00 0. -1.
          1    1    1    2  502    0  0.59250829852E+02 -0.61171625742E+02  0.98326367672E+03  0.98694482449E+03  0.00000000000E+00 0. -1.
         22    1    3    3    0    0  0.79827675830E+02 -0.82960837774E+02  0.45429605519E+02  0.12376917019E+03  0.00000000000E+00 0.  1.
         22    1    3    3    0    0  0.28849099564E+03 -0.43540144741E+02  0.18947584975E+03  0.34788488959E+03  0.00000000000E+00 0.  1.
</event>
<event>
 7    1  0.6888820E-006  0.5122242E+02  0.7818608E-02  0.1484021E+00
          2   -1    0    0  502    0  0.00000000000E+00  0.00000000000E+00  0.13275603855E+03  0.13275603855E+03  0.00000000000E+00 0. -1.
          1   -1    0    0  501    0 -0.00000000000E+00 -0.00000000000E+00 -0.17619437911E+04  0.17619437911E+04  0.00000000000E+00 0. -1.
         25    2    1    2    0    0 -0.34575620310E+02 -0.73217358043E+02 -0.39076219242E+03  0.41818254213E+03  0.12500116992E+03 0.  0.
          2    1    1    2  501    0  0.34882491448E+02  0.36300754141E+02 -0.13541301734E+04  0.13550657030E+04  0.00000000000E+00 0. -1.
          1    1    1    2  502    0 -0.30687113798E+00  0.36916603902E+02  0.11570461334E+03  0.12145158443E+03  0.00000000000E+00 0. -1.
         22    1    3    3    0    0  0.44834316004E+02 -0.15371677092E+02 -0.17125165279E+03  0.17768942830E+03  0.00000000000E+00 0. -1.
         22    1    3    3    0    0 -0.79409936314E+02 -0.57845680951E+02 -0.21951053963E+03  0.24049311383E+03  0.00000000000E+00 0. -1.
</event>
<event>
 7    1  0.6888820E-006  0.2141614E+02  0.7818608E-02  0.1723038E+00
          2   -1    0    0  502    0  0.00000000000E+00  0.00000000000E+00  0.10045454518E+04  0.10045454518E+04  0.00000000000E+00 0. -1.
          1   -1    0    0  501    0 -0.00000000000E+00 -0.00000000000E+00 -0.16118402805E+03  0.16118402805E+03  0.00000000000E+00 0. -1.
         25    2    1    2    0    0 -0.36398829102E+01  0.39071437785E+02  0.27508650552E+03  0.30469254970E+03  0.12500055328E+03 0.  0.
          2    1    1    2  501    0  0.95023265256E+01 -0.18642083744E+02 -0.14547426587E+03  0.14697136975E+03  0.00000000000E+00 0. -1.
          1    1    1    2  502    0 -0.58624436154E+01 -0.20429354041E+02  0.71374918409E+03  0.71406556040E+03  0.00000000000E+00 0. -1.
         22    1    3    3    0    0  0.18809539209E+01  0.23010878785E+02  0.28439177719E+03  0.28532739347E+03  0.00000000000E+00 0.  1.
         22    1    3    3    0    0 -0.55208368310E+01  0.16060559000E+02 -0.93052716713E+01  0.19365156224E+02  0.00000000000E+00 0.  1.
</event>
<event>
 7    1  0.6888820E-006  0.9098025E+02  0.7818608E-02  0.1339827E+00
          2   -1    0    0  502    0  0.00000000000E+00  0.00000000000E+00  0.21766187527E+03  0.21766187527E+03  0.00000000000E+00 0. -1.
          1   -1    0    0  501    0 -0.00000000000E+00 -0.00000000000E+00 -0.47575698187E+03  0.47575698187E+03  0.00000000000E+00 0. -1.
         25    2    1    2    0    0 -0.86356553358E+02  0.10529920123E+02 -0.13242245938E+03  0.20179901374E+03  0.12497520023E+03 0.  0.
          2    1    1    2  501    0  0.10036012386E+02 -0.63233000476E+02 -0.29321208838E+03  0.30012074681E+03  0.00000000000E+00 0. -1.
          1    1    1    2  502    0  0.76320540972E+02  0.52703080353E+02  0.16753944116E+03  0.19149909660E+03  0.00000000000E+00 0. -1.
         22    1    3    3    0    0 -0.85210712627E+02  0.58394423078E+02 -0.10138913062E+03  0.14474297911E+03  0.00000000000E+00 0.  1.
         22    1    3    3    0    0 -0.11458407307E+01 -0.47864502955E+02 -0.31033328760E+02  0.57056034633E+02  0.00000000000E+00 0.  1.
</event>
<event>
 7    1  0.6888820E-006  0.7185649E+02  0.7818608E-02  0.1460236E+00
          2   -1    0    0  502    0  0.00000000000E+00  0.00000000000E+00  0.21030893802E+04  0.21030893802E+04  0.00000000000E+00 0. -1.
          1   -1    0    0  501    0 -0.00000000000E+00 -0.00000000000E+00 -0.15317926613E+04  0.15317926613E+04  0.00000000000E+00 0. -1.
         25    2    1    2    0    0  0.96751171671E+02  0.29181521848E+02  0.85158432567E+02  0.18190347870E+03  0.12499826595E+03 0.  0.
          2    1    1    2  501    0 -0.65562756435E+02 -0.28955310667E+02 -0.14824308199E+04  0.14841623970E+04  0.00000000000E+00 0. -1.
          1    1    1    2  502    0 -0.31188415236E+02 -0.22621118152E+00  0.19685691063E+04  0.19688161658E+04  0.00000000000E+00 0. -1.
         22    1    3    3    0    0 -0.36383217533E+01 -0.51577442922E+01  0.75058832616E+02  0.75323754985E+02  0.00000000000E+00 0.  1.
         22    1    3    3    0    0  0.10038949342E+03  0.34339266140E+02  0.10099599951E+02  0.10657972372E+03  0.00000000000E+00 0.  1.
</event>
<event>
 7    1  0.6888820E-006  0.7811539E+02  0.7818608E-02  0.1365475E+00
          2   -1    0    0  502    0  0.00000000000E+00  0.00000000000E+00  0.28510767585E+03  0.28510767585E+03  0.00000000000E+00 0. -1.
          1   -1    0    0  501    0 -0.00000000000E+00 -0.00000000000E+00 -0.22890968475E+04  0.22890968475E+04  0.00000000000E+00 0. -1.
         25    2    1    2    0    0  0.17160142414E+02  0.15619721394E+02 -0.70236723753E+03  0.71378218607E+03  0.12500730624E+03 0.  0.
          2    1    1    2  501    0  0.59962366652E+02 -0.60255868359E+00 -0.15749164448E+04  0.15760576311E+04  0.00000000000E+00 0. -1.
          1    1    1    2  502    0 -0.77122509066E+02 -0.15017162710E+02  0.27329451064E+03  0.28436470619E+03  0.00000000000E+00 0. -1.
         22    1    3    3    0    0 -0.34790740971E+02 -0.34900692906E+02 -0.18869683671E+03  0.19502551169E+03  0.00000000000E+00 0. -1.
         22    1    3    3    0    0  0.51950883385E+02  0.50520414300E+02 -0.51367040081E+03  0.51875667438E+03  0.00000000000E+00 0. -1.
</event>
<event>
 7    1  0.6888820E-006  0.9123667E+02  0.7818608E-02  0.1405033E+00
          2   -1    0    0  502    0  0.00000000000E+00  0.00000000000E+00  0.19418655513E+04  0.19418655513E+04  0.00000000000E+00 0. -1.
          1   -1    0    0  501    0 -0.00000000000E+00 -0.00000000000E+00 -0.48367401439E+03  0.48367401439E+03  0.00000000000E+00 0. -1.
         25    2    1    2    0    0  0.68456179635E+02  0.42326787007E+02  0.33791540107E+02  0.15246867139E+03  0.12500808831E+03 0.  0.
          2    1    1    2  501    0 -0.91264970849E+02 -0.12844406559E+02 -0.41914036661E+03  0.42915372608E+03  0.00000000000E+00 0. -1.
          1    1    1    2  502    0  0.22808791214E+02 -0.29482380448E+02  0.18435403634E+04  0.18439171682E+04  0.00000000000E+00 0. -1.
         22    1    3    3    0    0  0.81511510874E+02 -0.15977577794E+02  0.40381134148E+02  0.92358244852E+02  0.00000000000E+00 0.  1.
         22    1    3    3    0    0 -0.13055331239E+02  0.58304364801E+02 -0.65895940408E+01  0.60110426535E+02  0.00000000000E+00 0.  1.
</event>
<event>
 7    1  0.6888820E-006  0.6859208E+03  0.7818608E-02  0.1183690E+00
          2   -1    0    0  502    0  0.00000000000E+00  0.00000000000E+00  0.12888958029E+04  0.12888958029E+04  0.00000000000E+00 0. -1.
          1   -1    0    0  501    0 -0.00000000000E+00 -0.00000000000E+00 -0.23117808387E+04  0.23117808387E+04  0.00000000000E+00 0. -1.
         25    2    1    2    0    0 -0.18810803494E+03 -0.64572118043E+03 -0.13547100833E+04  0.15176314123E+04  0.12500087245E+03 0.  0.
          2    1    1    2  501    0  0.21186949051E+03  0.67722362081E+03 -0.73142124028E+03  0.10190669970E+04  0.00000000000E+00 0. -1.
          1    1    1    2  502    0 -0.23761455571E+02 -0.31502440376E+02  0.10632462877E+04  0.10639782323E+04  0.00000000000E+00 0. -1.
         22    1    3    3    0    0 -0.43581901195E+02 -0.35443810034E+03 -0.76393431958E+03  0.84328013953E+03  0.00000000000E+00 0. -1.
         22    1    3    3    0    0 -0.14452613375E+03 -0.29128308009E+03 -0.59077576373E+03  0.67435127277E+03  0.00000000000E+00 0. -1.
</event>
<event>
 7    1  0.6888820E-006  0.9717278E+02  0.7818608E-02  0.1426930E+00
          2   -1    0    0  502    0  0.00000000000E+00  0.00000000000E+00  0.19043952234E+04  0.19043952234E+04  0.00000000000E+00 0. -1.
          1   -1    0    0  501    0 -0.00000000000E+00 -0.00000000000E+00 -0.81708757640E+02  0.81708757640E+02  0.00000000000E+00 0. -1.
         25    2    1    2    0    0 -0.58367711152E+02  0.46656495343E+02  0.16352517095E+03  0.21897105132E+03  0.12499688604E+03 0.  0.
          2    1    1    2  501    0 -0.42621417227E+01  0.29235721702E+02 -0.48418328507E+02  0.56720611870E+02  0.00000000000E+00 0. -1.
          1    1    1    2  502    0  0.62629852875E+02 -0.75892217045E+02  0.17075796233E+04  0.17104123178E+04  0.00000000000E+00 0. -1.
         22    1    3    3    0    0  0.28546198682E+02 -0.20487566676E+02  0.31059233139E+02  0.46896714284E+02  0.00000000000E+00 0. -1.
         22    1    3    3    0    0 -0.86913909834E+02  0.67144062019E+02  0.13246593781E+03  0.17207433704E+03  0.00000000000E+00 0. -1.
</event>
<event>
 7    1  0.6888820E-006  0.1216721E+03  0.7818608E-02  0.1261582E+00
          2   -1    0    0  502    0  0.00000000000E+00  0.00000000000E+00  0.25013314468E+03  0.25013314468E+03  0.00000000000E+00 0. -1.
          1   -1    0    0  501    0 -0.00000000000E+00 -0.00000000000E+00 -0.41970179553E+03  0.41970179553E+03  0.00000000000E+00 0. -1.
         25    2    1    2    0    0  0.19473220693E+02 -0.41612456197E+02 -0.40998816884E+02  0.13934319398E+03  0.12499927954E+03 0.  0.
          2    1    1    2  501    0  0.46743270136E+02 -0.86662847232E+02 -0.29451798676E+03  0.31054182797E+03  0.00000000000E+00 0. -1.
          1    1    1    2  502    0 -0.66216490829E+02  0.12827530343E+03  0.16594815280E+03  0.21994991826E+03  0.00000000000E+00 0. -1.
         22    1    3    3    0    0  0.36007251620E+02  0.14219719018E+02 -0.65567410847E+02  0.76143338142E+02  0.00000000000E+00 0.  1.
         22    1    3    3    0    0 -0.16534030927E+02 -0.55832175216E+02  0.24568593963E+02  0.63199855833E+02  0.00000000000E+00 0.  1.
</event>
<event>
 7    1  0.6888820E-006  0.1241603E+03  0.7818608E-02  0.1425558E+00
          2   -1    0    0  502    0  0.00000000000E+00  0.00000000000E+00  0.15074009226E+03  0.15074009226E+03  0.00000000000E+00 0. -1.
          1   -1    0    0  501    0 -0.00000000000E+00 -0.00000000000E+00 -0.27835159398E+03  0.27835159398E+03  0.00000000000E+00 0. -1.
         25    2    1    2    0    0 -0.43951229725E+02  0.95900400240E+02  0.28759044857E+02  0.16607932915E+03  0.12500665402E+03 0.  0.
          2    1    1    2  501    0  0.46990832549E+02 -0.11906773233E+03 -0.18568133322E+03  0.22552787130E+03  0.00000000000E+00 0. -1.
          1    1    1    2  502    0 -0.30396028239E+01  0.23167332093E+02  0.29310786639E+02  0.37484485791E+02  0.00000000000E+00 0. -1.
         22    1    3    3    0    0  0.63061691537E+01 -0.14649648745E+01 -0.37484959006E+02  0.38039926960E+02  0.00000000000E+00 0. -1.
         22    1    3    3    0    0 -0.50257398878E+02  0.97365365114E+02  0.66244003863E+02  0.12803940219E+03  0.00000000000E+00 0. -1.
</event>
<event>
 7    1  0.6888820E-006  0.8398141E+02  0.7818608E-02  0.1357047E+00
          2   -1    0    0  502    0  0.00000000000E+00  0.00000000000E+00  0.16497384646E+04  0.16497384646E+04  0.00000000000E+00 0. -1.
          1   -1    0    0  501    0 -0.00000000000E+00 -0.00000000000E+00 -0.19049469599E+04  0.19049469599E+04  0.00000000000E+00 0. -1.
         25    2    1    2    0    0  0.79522224514E+02 -0.11353438779E+03  0.46634889470E+02  0.19238992564E+03  0.12500091668E+03 0.  0.
          2    1    1    2  501    0 -0.61676030207E+02  0.56394103930E+02 -0.18305302678E+04  0.18324369809E+04  0.00000000000E+00 0. -1.
          1    1    1    2  502    0 -0.17846194307E+02  0.57140283861E+02  0.15286868830E+04  0.15298585180E+04  0.00000000000E+00 0. -1.
         22    1    3    3    0    0  0.32805785777E+02 -0.50251720464E+02  0.85654263060E+02  0.10458540897E+03  0.00000000000E+00 0. -1.
         22    1    3    3    0    0  0.46716438737E+02 -0.63282667327E+02 -0.39019373589E+02  0.87804516670E+02  0.00000000000E+00 0. -1.
</event>
<event>
 7    1  0.6888820E-006  0.9971786E+02  0.7818608E-02  0.1367262E+00
          2   -1    0    0  502    0  0.00000000000E+00  0.00000000000E+00  0.10882031516E+04  0.10882031516E+04  0.00000000000E+00 0. -1.
          1   -1    0    0  501    0 -0.00000000000E+00 -0.00000000000E+00 -0.13465345580E+03  0.13465345580E+03  0.00000000000E+00 0. -1.
         25    2    1    2    0    0  0.46481970069E+02  0.45551636283E+02  0.76773266463E+02  0.16048389220E+03  0.12500168040E+03 0.  0.
          2    1    1    2  501    0  0.46212027896E+02 -0.25261020570E+01 -0.84144809949E+02  0.96032711902E+02  0.00000000000E+00 0. -1.
          1    1    1    2  502    0 -0.92693997965E+02 -0.43025534226E+02  0.96092123929E+03  0.96634000330E+03  0.00000000000E+00 0. -1.
         22    1    3    3    0    0 -0.34201915549E+02  0.11590203050E+02 -0.97447864614E+01  0.37404073269E+02  0.00000000000E+00 0.  1.
         22    1    3    3    0    0  0.80683885618E+02  0.33961433234E+02  0.86518052925E+02  0.12307981893E+03  0.00000000000E+00 0.  1.
</event>
<event>
 7    1  0.6888820E-006  0.7593284E+02  0.7818608E-02  0.1383958E+00
          2   -1    0    0  502    0  0.00000000000E+00  0.00000000000E+00  0.72326968303E+03  0.72326968303E+03  0.00000000000E+00 0. -1.
          1   -1    0    0  501    0 -0.00000000000E+00 -0.00000000000E+00 -0.12844460390E+03  0.12844460390E+03  0.00000000000E+00 0. -1.
         25    2    1    2    0    0 -0.36233441830E+02 -0.27557113218E+02  0.41735079188E+03  0.43803990747E+03  0.12500008105E+03 0.  0.
          2    1    1    2  501    0  0.14394778904E+02  0.75841964406E+02 -0.10273069519E+03  0.12850217492E+03  0.00000000000E+00 0. -1.
          1    1    1    2  502    0  0.21838662926E+02 -0.48284851188E+02  0.28020498245E+03  0.28517220454E+03  0.00000000000E+00 0. -1.
         22    1    3    3    0    0 -0.49670085518E+02 -0.36553668526E+01  0.40485544897E+03  0.40790735917E+03  0.00000000000E+00 0. -1.
         22    1    3    3    0    0  0.13436643688E+02 -0.23901746365E+02  0.12495342903E+02  0.30132548302E+02  0.00000000000E+00 0. -1.
</event>
<event>
 7    1  0.6888820E-006  0.5037036E+02  0.7818608E-02  0.1484534E+00
          2   -1    0    0  502    0  0.00000000000E+00  0.00000000000E+00  0.30785959572E+03  0.30785959572E+03  0.00000000000E+00 0. -1.
          1   -1    0    0  501    0 -0.00000000000E+00 -0.00000000000E+00 -0.13309981741E+03  0.13309981741E+03  0.00000000000E+00 0. -1.
         25    2    1    2    0    0  0.23075510543E+02  0.83559225412E+02  0.17291701890E+03  0.23030826662E+03  0.12500791539E+03 0.  0.
          2    1    1    2  501    0 -0.12585865272E+02 -0.47652444919E+02 -0.94895960966E+02  0.10693176759E+03  0.00000000000E+00 0. -1.
          1    1    1    2  502    0 -0.10489645271E+02 -0.35906780493E+02  0.96738720380E+02  0.10371937892E+03  0.00000000000E+00 0. -1.
         22    1    3    3    0    0  0.50953478026E+02  0.88068134376E+02  0.69781508432E+02  0.12337630297E+03  0.00000000000E+00 0.  1.
         22    1    3    3    0    0 -0.27877967483E+02 -0.45089089640E+01  0.10313551047E+03  0.10693196365E+03  0.00000000000E+00 0.  1.
</event>
<event>
 7    1  0.6888820E-006  0.9881459E+02  0.7818608E-02  0.1420795E+00
          2   -1    0    0  502    0  0.00000000000E+00  0.00000000000E+00  0.11516313638E+04  0.11516313638E+04  0.00000000000E+00 0. -1.
          1   -1    0    0  501    0 -0.00000000000E+00 -0.00000000000E+00 -0.30053310167E+02  0.30053310167E+02  0.00000000000E+00 0. -1.
         25    2    1    2    0    0  0.80495232483E+02 -0.51402987365E+02  0.53978521206E+03  0.56224108853E+03  0.12500086762E+03 0.  0.
          2    1    1    2  501    0  0.17380546396E+02  0.25001860567E+02  0.16327491950E+01  0.30493315575E+02  0.00000000000E+00 0. -1.
          1    1    1    2  502    0 -0.97875778879E+02  0.26401126798E+02  0.58016009238E+03  0.58895026987E+03  0.00000000000E+00 0. -1.
         22    1    3    3    0    0  0.33748933282E+02 -0.60190714023E+02  0.48415685836E+03  0.48904987072E+03  0.00000000000E+00 0.  1.
         22    1    3    3    0    0  0.46746299201E+02  0.87877266578E+01  0.55628353698E+02  0.73191217807E+02  0.00000000000E+00 0.  1.
</event>
<event>
 7    1  0.6888820E-006  0.1373602E+03  0.7818608E-02  0.1319275E+00
          2   -1    0    0  502    0  0.00000000000E+00  0.00000000000E+00  0.15272699022E+04  0.15272699022E+04  0.00000000000E+00 0. -1.
          1   -1    0    0  501    0 -0.00000000000E+00 -0.00000000000E+00 -0.19525811846E+04  0.19525811846E+04  0.00000000000E+00 0. -1.
         25    2    1    2    0    0  0.34399295146E+02 -0.81246177761E+02 -0.98067325496E+02  0.18173200365E+03  0.12500027166E+03 0.  0.
          2    1    1    2  501    0  0.10906015440E+02 -0.49632903500E+02 -0.18090956303E+04  0.18098092071E+04  0.00000000000E+00 0. -1.
          1    1    1    2  502    0 -0.45305310587E+02  0.13087908126E+03  0.14818516735E+04  0.14883098761E+04  0.00000000000E+00 0. -1.
         22    1    3    3    0    0 -0.23850667541E+02 -0.76522326903E+02 -0.93440009363E+02  0.12310790473E+03  0.00000000000E+00 0.  1.
         22    1    3    3    0    0  0.58249962687E+02 -0.47238508583E+01 -0.46273161333E+01  0.58624098924E+02  0.00000000000E+00 0.  1.
</event>
<event>
 7    1  0.6888820E-006  0.1802168E+03  0.7818608E-02  0.1177031E+00
          2   -1    0    0  502    0  0.00000000000E+00  0.00000000000E+00  0.34489753992E+04  0.34489753992E+04  0.00000000000E+00 0. -1.
          1   -1    0    0  501    0 -0.00000000000E+00 -0.00000000000E+00 -0.19943141182E+03  0.19943141182E+03  0.00000000000E+00 0. -1.
         25    2    1    2    0    0  0.31863627746E+03 -0.11101418074E+03  0.24119069323E+03  0.43317886696E+03  0.12497101522E+03 0.  0.
          2    1    1    2  501    0 -0.15558810829E+03  0.44580569862E+02 -0.35986384039E+02  0.16580140677E+03  0.00000000000E+00 0. -1.
          1    1    1    2  502    0 -0.16304816917E+03  0.66433610877E+02  0.30443396782E+04  0.30494265373E+04  0.00000000000E+00 0. -1.
         22    1    3    3    0    0  0.44966910584E+02 -0.11123375412E+02 -0.11277083500E+02  0.47675204670E+02  0.00000000000E+00 0. -1.
         22    1    3    3    0    0  0.27366936687E+03 -0.99890805327E+02  0.25246777673E+03  0.38550366229E+03  0.00000000000E+00 0. -1.
</event>
<event>
 7    1  0.6888820E-006  0.4778953E+02  0.7818608E-02  0.1479693E+00
          2   -1    0    0  502    0  0.00000000000E+00  0.00000000000E+00  0.27577464897E+04  0.27577464897E+04  0.00000000000E+00 0. -1.
          1   -1    0    0  501    0 -0.00000000000E+00 -0.00000000000E+00 -0.35888466526E+02  0.35888466526E+02  0.00000000000E+00 0. -1.
         25    2    1    2    0    0 -0.87105017695E+01 -0.45768529846E+01  0.49247468817E+03  0.50818613127E+03  0.12500002041E+03 0.  0.
          2    1    1    2  501    0  0.49443483060E+02  0.23266291855E+01 -0.58504985978E+01  0.49842748262E+02  0.00000000000E+00 0. -1.
          1    1    1    2  502    0 -0.40732981291E+02  0.22502237991E+01  0.22352338336E+04  0.22356060767E+04  0.00000000000E+00 0. -1.
         22    1    3    3    0    0 -0.58206351179E+01 -0.42807445270E+02  0.44532633918E+03  0.44741692584E+03  0.00000000000E+00 0. -1.
         22    1    3    3    0    0 -0.28898666516E+01  0.38230592285E+02  0.47148348996E+02  0.60769205432E+02  0.00000000000E+00 0. -1.
</event>
<event>
 7    1  0.6888820E-006  0.1953710E+03  0.7818608E-02  0.1273947E+00
          2   -1    0    0  502    0  0.00000000000E+00  0.00000000000E+00  0.26320959405E+04  0.26320959405E+04  0.00000000000E+00 0. -1.
          1   -1    0    0  501    0 -0.00000000000E+00 -0.00000000000E+00 -0.50061800911E+03  0.50061800911E+03  0.00000000000E+00 0. -1.
         25    2    1    2    0    0  0.32940598353E+02  0.14087044367E+03  0.34822039425E+03  0.39725566727E+03  0.12500022914E+03 0.  0.
          2    1    1    2  501    0 -0.34035339867E+02 -0.19524674469E+03 -0.45512998861E+03  0.49641011493E+03  0.00000000000E+00 0. -1.
          1    1    1    2  502    0  0.10947415135E+01  0.54376301018E+02  0.22383875258E+04  0.22390481674E+04  0.00000000000E+00 0. -1.
         22    1    3    3    0    0  0.68494626584E+02  0.98301617243E+02  0.15311189443E+03  0.19441701067E+03  0.00000000000E+00 0. -1.
         22    1    3    3    0    0 -0.35554028230E+02  0.42568826430E+02  0.19510849982E+03  0.20283865660E+03  0.00000000000E+00 0. -1.
</event>
<event>
 7    1  0.6888820E-006  0.7799783E+02  0.7818608E-02  0.1337552E+00
          2   -1    0    0  502    0  0.00000000000E+00  0.00000000000E+00  0.10759958616E+04  0.10759958616E+04  0.00000000000E+00 0. -1.
          1   -1    0    0  501    0 -0.00000000000E+00 -0.00000000000E+00 -0.52877687159E+03  0.52877687159E+03  0.00000000000E+00 0. -1.
         25    2    1    2    0    0 -0.10820064960E+02  0.10936259785E+03  0.12699948902E+03  0.20935845467E+03  0.12499936286E+03 0.  0.
          2    1    1    2  501    0  0.59300387794E+02 -0.50612188836E+02 -0.48286744283E+03  0.48912073867E+03  0.00000000000E+00 0. -1.
          1    1    1    2  502    0 -0.48480322834E+02 -0.58750409018E+02  0.90308694383E+03  0.90629353986E+03  0.00000000000E+00 0. -1.
         22    1    3    3    0    0  0.84423765842E+01  0.12506975042E+03  0.62163007308E+02  0.13992124810E+03  0.00000000000E+00 0. -1.
         22    1    3    3    0    0 -0.19262441544E+02 -0.15707152562E+02  0.64836481710E+02  0.69437206571E+02  0.00000000000E+00 0. -1.
</event>
<event>
 7    1  0.6888820E-006  0.3969710E+02  0.7818608E-02  0.1607505E+00
          2   -1    0    0  502    0  0.00000000000E+00  0.00000000000E+00  0.75098194325E+03  0.75098194325E+03  0.00000000000E+00 0. -1.
          1   -1    0    0  501    0 -0.00000000000E+00 -0.00000000000E+00 -0.24632500197E+04  0.24632500197E+04  0.00000000000E+00 0. -1.
         25    2    1    2    0    0 -0.18015392589E+02 -0.10038521243E+02 -0.52398186960E+03  0.53908005256E+03  0.12499990845E+03 0.  0.
          2    1    1    2  501    0  0.39376215327E+02  0.83512256568E+01 -0.19313549150E+04  0.19317743235E+04  0.00000000000E+00 0. -1.
          1    1    1    2  502    0 -0.21360822738E+02  0.16872955863E+01  0.74306870812E+03  0.74337758690E+03  0.00000000000E+00 0. -1.
         22    1    3    3    0    0 -0.17809859975E+02 -0.49382238948E+02 -0.46637146396E+03  0.46931667245E+03  0.00000000000E+00 0. -1.
         22    1    3    3    0    0 -0.20553261354E+00  0.39343717705E+02 -0.57610405638E+02  0.69763380110E+02  0.00000000000E+00 0. -1.
</event>
<event>
 7    1  0.6888820E-006  0.1259785E+03  0.7818608E-02  0.1238141E+00
          2   -1    0    0  502    0  0.00000000000E+00  0.00000000000E+00  0.68124306283E+03  0.68124306283E+03  0.00000000000E+00 0. -1.
          1   -1    0    0  501    0 -0.00000000000E+00 -0.00000000000E+00 -0.23436641459E+03  0.23436641459E+03  0.00000000000E+00 0. -1.
         25    2    1    2    0    0 -0.73671370793E+01  0.19076220898E+03  0.10930904759E+03  0.25301750520E+03  0.12499957988E+03 0.  0.
          2    1    1    2  501    0 -0.70590088760E+02 -0.99272489752E+02 -0.13098265267E+03  0.17886990567E+03  0.00000000000E+00 0. -1.
          1    1    1    2  502    0  0.77957225839E+02 -0.91489719224E+02  0.46855025332E+03  0.48372206655E+03  0.00000000000E+00 0. -1.
         22    1    3    3    0    0 -0.40111940560E+01  0.16375630457E+03  0.26605918509E+02  0.16595207701E+03  0.00000000000E+00 0.  1.
         22    1    3    3    0    0 -0.33559430233E+01  0.27005904405E+02  0.82703129079E+02  0.87065428189E+02  0.00000000000E+00 0.  1.
</event>
<event>
 7    1  0.6888820E-006  0.7142608E+02  0.7818608E-02  0.1476064E+00
          2   -1    0    0  502    0  0.00000000000E+00  0.00000000000E+00  0.16216740726E+04  0.16216740726E+04  0.00000000000E+00 0. -1.
          1   -1    0    0  501    0 -0.00000000000E+00 -0.00000000000E+00 -0.12777352163E+04  0.12777352163E+04  0.00000000000E+00 0. -1.
         25    2    1    2    0    0 -0.18183899490E+02  0.44280395844E+02  0.10480521540E+03  0.17000233590E+03  0.12500101352E+03 0.  0.
          2    1    1    2  501    0  0.42993909037E+02 -0.57272212815E+02 -0.12439746262E+04  0.12460342905E+04  0.00000000000E+00 0. -1.
          1    1    1    2  502    0 -0.24810009547E+02  0.12991816971E+02  0.14831082670E+04  0.14833726624E+04  0.00000000000E+00 0. -1.
         22    1    3    3    0    0  0.30178620517E+02  0.13263629080E+01 -0.15093310117E+02  0.33768570967E+02  0.00000000000E+00 0.  1.
         22    1    3    3    0    0 -0.48362520007E+02  0.42954032936E+02  0.11989852552E+03  0.13623376493E+03  0.00000000000E+00 0.  1.
</event>
<event>
 7    1  0.6888820E-006  0.2728494E+02  0.7818608E-02  0.1679660E+00
          2   -1    0    0  502    0  0.00000000000E+00  0.00000000000E+00  0.79625163221E+02  0.79625163221E+02  0.00000000000E+00 0. -1.
          1   -1    0    0  501    0 -0.00000000000E+00 -0.00000000000E+00 -0.79066407010E+03  0.79066407010E+03  0.00000000000E+00 0. -1.
         25    2    1    2    0    0 -0.45207636097E+02 -0.87974481141E+01 -0.16893931401E+03  0.21514481049E+03  0.12500268880E+03 0.  0.
          2    1    1    2  501    0  0.24666919813E+02  0.11105733014E+02 -0.59641537886E+03  0.59702855742E+03  0.00000000000E+00 0. -1.
          1    1    1    2  502    0  0.20540716284E+02 -0.23082848995E+01  0.54315785989E+02  0.58115865409E+02  0.00000000000E+00 0. -1.
         22    1    3    3    0    0  0.12739841705E+02  0.18097929597E+02 -0.14537891282E+03  0.14705395920E+03  0.00000000000E+00 0.  1.
         22    1    3    3    0    0 -0.57947477802E+02 -0.26895377711E+02 -0.23560401188E+02  0.68090851294E+02  0.00000000000E+00 0.  1.
</event>
<event>
 7    1  0.6888820E-006  0.3501109E+03  0.7818608E-02  0.1141917E+00
          2   -1    0    0  502    0  0.00000000000E+00  0.00000000000E+00  0.27459753411E+04  0.27459753411E+04  0.00000000000E+00 0. -1.
          1   -1    0    0  501    0 -0.00000000000E+00 -0.00000000000E+00 -0.89944542794E+03  0.89944542794E+03  0.00000000000E+00 0. -1.
         25    2    1    2    0    0 -0.14766011592E+03  0.40758230553E+03  0.31935955692E+03  0.55275902942E+03  0.12500068961E+03 0.  0.
          2    1    1    2  501    0  0.10530450879E+03 -0.68142362641E+02 -0.76494579616E+03  0.77516094601E+03  0.00000000000E+00 0. -1.
          1    1    1    2  502    0  0.42355607139E+02 -0.33943994288E+03  0.22921161524E+04  0.23175007936E+04  0.00000000000E+00 0. -1.
         22    1    3    3    0    0 -0.10225104058E+03  0.35986602845E+03  0.22140551690E+03  0.43471742160E+03  0.00000000000E+00 0. -1.
         22    1    3    3    0    0 -0.45409075349E+02  0.47716277080E+02  0.97954040013E+02  0.11804160782E+03  0.00000000000E+00 0. -1.
</event>
<event>
 7    1  0.6888820E-006  0.5076675E+03  0.7818608E-02  0.1228336E+00
          2   -1    0    0  502    0  0.00000000000E+00  0.00000000000E+00  0.34205550113E+04  0.34205550113E+04  0.00000000000E+00 0. -1.
          1   -1    0    0  501    0 -0.00000000000E+00 -0.00000000000E+00 -0.61152330363E+03  0.61152330363E+03  0.00000000000E+00 0. -1.
         25    2    1    2    0    0  0.44466521871E+03 -0.27294639184E+03  0.15524651291E+03  0.55852793401E+03  0.12500033500E+03 0.  0.
          2    1    1    2  501    0 -0.28884727108E+02 -0.15931952698E+02 -0.38826197771E+03  0.38966077286E+03  0.00000000000E+00 0. -1.
          1    1    1    2  502    0 -0.41578049160E+03  0.28887834453E+03  0.30420471724E+04  0.30838896080E+04  0.00000000000E+00 0. -1.
         22    1    3    3    0    0  0.77317246158E+02  0.20011509978E+01  0.15595019945E+02  0.78899719935E+02  0.00000000000E+00 0.  1.
         22    1    3    3    0    0  0.36734797255E+03 -0.27494754283E+03  0.13965149296E+03  0.47962821407E+03  0.00000000000E+00 0.  1.
</event>
<event>
 7    1  0.6888820E-006  0.1513294E+03  0.7818608E-02  0.1350932E+00
          2   -1    0    0  502    0  0.00000000000E+00  0.00000000000E+00  0.20283205868E+04  0.20283205868E+04  0.00000000000E+00 0. -1.
          1   -1    0    0  501    0 -0.00000000000E+00 -0.00000000000E+00 -0.38777299128E+03  0.38777299128E+03  0.00000000000E+00 0. -1.
         25    2    1    2    0    0  0.68730724270E+01 -0.13851461898E+03 -0.27875684457E+03  0.33550557865E+03  0.12500030447E+03 0.  0.
          2    1    1    2  501    0 -0.33333112374E+02 -0.10636741694E+02 -0.73832211132E+02  0.81703317283E+02  0.00000000000E+00 0. -1.
          1    1    1    2  502    0  0.26460039947E+02  0.14915136067E+03  0.19931366512E+04  0.19988846822E+04  0.00000000000E+00 0. -1.
         22    1    3    3    0    0 -0.11066339946E+02 -0.12456293930E+02  0.10340792774E+02  0.19610077344E+02  0.00000000000E+00 0. -1.
         22    1    3    3    0    0  0.17939412373E+02 -0.12605832505E+03 -0.28909763734E+03  0.31589550131E+03  0.00000000000E+00 0. -1.
</event>
<event>
 7    1  0.6888820E-006  0.1093513E+03  0.7818608E-02  0.1347701E+00
          2   -1    0    0  502    0  0.00000000000E+00  0.00000000000E+00  0.42272646463E+03  0.42272646463E+03  0.00000000000E+00 0. -1.
          1   -1    0    0  501    0 -0.00000000000E+00 -0.00000000000E+00 -0.15371035997E+03  0.15371035997E+03  0.00000000000E+00 0. -1.
         25    2    1    2    0    0 -0.69820221749E+01 -0.70898855276E+02  0.83383109566E-01  0.14387806919E+03  0.12500198210E+03 0.  0.
          2    1    1    2  501    0  0.26366042076E+02 -0.42219044161E+02 -0.63609202368E+02  0.80769712706E+02  0.00000000000E+00 0. -1.
          1    1    1    2  502    0 -0.19384019901E+02  0.11311789944E+03  0.33254192392E+03  0.35178904270E+03  0.00000000000E+00 0. -1.
         22    1    3    3    0    0 -0.17560382105E+02 -0.72034647266E+02  0.52206593716E+02  0.90680129322E+02  0.00000000000E+00 0. -1.
         22    1    3    3    0    0  0.10578359930E+02  0.11357919898E+01 -0.52123210607E+02  0.53197939868E+02  0.00000000000E+00 0. -1.
</event>
<event>
 7    1  0.6888820E-006  0.1095627E+03  0.7818608E-02  0.1378924E+00
          2   -1    0    0  502    0  0.00000000000E+00  0.00000000000E+00  0.10188945543E+04  0.10188945543E+04  0.00000000000E+00 0. -1.
          1   -1    0    0  501    0 -0.00000000000E+00 -0.00000000000E+00 -0.74107183101E+03  0.74107183101E+03  0.00000000000E+00 0. -1.
         25    2    1    2    0    0 -0.25590664008E+02 -0.76725204378E+02 -0.17073813868E+03  0.22653480223E+03  0.12499946220E+03 0.  0.
          2    1    1    2  501    0  0.53153194251E+02  0.10326534490E+03 -0.53584255427E+03  0.54828481329E+03  0.00000000000E+00 0. -1.
          1    1    1    2  502    0 -0.27562530243E+02 -0.26540140524E+02  0.98440341624E+03  0.98514676980E+03  0.00000000000E+00 0. -1.
         22    1    3    3    0    0 -0.55592896166E+02 -0.79556568786E+02 -0.65557431802E+02  0.11712213542E+03  0.00000000000E+00 0.  1.
         22    1    3    3    0    0  0.30002232158E+02  0.28313644073E+01 -0.10518070688E+03  0.10941266681E+03  0.00000000000E+00 0.  1.
</event>
<event>
 7    1  0.6888820E-006  0.7573704E+02  0.7818608E-02  0.1418149E+00
          2   -1    0    0  502    0  0.00000000000E+00  0.00000000000E+00  0.65278762403E+02  0.65278762403E+02  0.00000000000E+00 0. -1.
          1   -1    0    0  501    0 -0.00000000000E+00 -0.00000000000E+00 -0.19279297583E+04  0.19279297583E+04  0.00000000000E+00 0. -1.
         25    2    1    2    0    0  0.68884858160E+02  0.76893810340E+02 -0.23523222806E+03  0.28568637464E+03  0.12499888713E+03 0.  0.
          2    1    1    2  501    0 -0.65518074677E+02 -0.36488783925E+02 -0.16561386999E+04  0.16578357708E+04  0.00000000000E+00 0. -1.
          1    1    1    2  502    0 -0.33667834834E+01 -0.40405026415E+02  0.28719932087E+02  0.49686375293E+02  0.00000000000E+00 0. -1.
         22    1    3    3    0    0  0.25694422812E+02  0.65699055529E+02 -0.23022263613E+03  0.24078835406E+03  0.00000000000E+00 0.  1.
         22    1    3    3    0    0  0.43190435348E+02  0.11194754811E+02 -0.50095919250E+01  0.44898020581E+02  0.00000000000E+00 0.  1.
</event>
<event>
 7    1  0.6888820E-006  0.7236501E+02  0.7818608E-02  0.1392709E+00
          2   -1    0    0  502    0  0.00000000000E+00  0.00000000000E+00  0.10096370612E+03  0.10096370612E+03  0.00000000000E+00 0. -1.
          1   -1    0    0  501    0 -0.00000000000E+00 -0.00000000000E+00 -0.19251417262E+04  0.19251417262E+04  0.00000000000E+00 0. -1.
         25    2    1    2    0    0 -0.15933644424E+02 -0.24231130506E+02 -0.14019981029E+03  0.19005848911E+03  0.12500085506E+03 0.  0.
          2    1    1    2  501    0 -0.47294200741E+02 -0.21184176765E+02 -0.17395988667E+04  0.17403705719E+04  0.00000000000E+00 0. -1.
          1    1    1    2  502    0  0.63227845165E+02  0.45415307271E+02  0.55620656905E+02  0.95676371238E+02  0.00000000000E+00 0. -1.
         22    1    3    3    0    0 -0.53620557849E+01  0.11565328675E+02  0.21015039925E+02  0.24579267130E+02  0.00000000000E+00 0.  1.
         22    1    3    3    0    0 -0.10571588639E+02 -0.35796459181E+02 -0.16121485021E+03  0.16547922198E+03  0.00000000000E+00 0.  1.
</event>
<event>
 7    1  0.6888820E-006  0.6699304E+02  0.7818608E-02  0.1465587E+00
          2   -1    0    0  502    0  0.00000000000E+00  0.00000000000E+00  0.77664428649E+03  0.77664428649E+03  0.00000000000E+00 0. -1.
          1   -1    0    0  501    0 -0.00000000000E+00 -0.00000000000E+00 -0.15108835196E+04  0.15108835196E+04  0.00000000000E+00 0. -1.
         25    2    1    2    0    0 -0.17594572936E+02  0.55268140246E+02  0.31307078392E+03  0.34205538476E+03  0.12499773669E+03 0.  0.
          2    1    1    2  501    0  0.29226160816E+02  0.13475948830E+02 -0.14935107109E+04  0.14938574274E+04  0.00000000000E+00 0. -1.
          1    1    1    2  502    0 -0.11631587879E+02 -0.68744089077E+02  0.44620069385E+03  0.45161499401E+03  0.00000000000E+00 0. -1.
         22    1    3    3    0    0 -0.15230795786E+02  0.52996502286E+02  0.38004945474E+02  0.66970010268E+02  0.00000000000E+00 0. -1.
         22    1    3    3    0    0 -0.23637771500E+01  0.22716379603E+01  0.27506583844E+03  0.27508537449E+03  0.00000000000E+00 0. -1.
</event>
<event>
 7    1  0.6888820E-006  0.6689021E+02  0.7818608E-02  0.1501066E+00
          2   -1    0    0  502    0  0.00000000000E+00  0.00000000000E+00  0.15659885812E+04  0.15659885812E+04  0.00000000000E+00 0. -1.
          1   -1    0    0  501    0 -0.00000000000E+00 -0.00000000000E+00 -0.45979240560E+03  0.45979240560E+03  0.00000000000E+00 0. -1.
         25    2    1    2    0    0 -0.58654888917E+02 -0.15018224169E+02  0.47108853941E+03  0.49113633745E+03  0.12499818778E+03 0.  0.
          2    1    1    2  501    0  0.66353058750E+02 -0.88886718846E+01 -0.44713086678E+03  0.45211475194E+03  0.00000000000E+00 0. -1.
          1    1    1    2  502    0 -0.76981698330E+01  0.23906896053E+02  0.10822385029E+04  0.10825298974E+04  0.00000000000E+00 0. -1.
         22    1    3    3    0    0 -0.39903796983E+02  0.51225908891E+02  0.29512082689E+03  0.30217992855E+03  0.00000000000E+00 0.  1.
         22    1    3    3    0    0 -0.18751091934E+02 -0.66244133059E+02  0.17596771252E+03  0.18895640890E+03  0.00000000000E+00 0.  1.
</event>
<event>
 7    1  0.6888820E-006  0.1693915E+03  0.7818608E-02  0.1224370E+00
          2   -1    0    0  502    0  0.00000000000E+00  0.00000000000E+00  0.11498891371E+04  0.11498891371E+04  0.00000000000E+00 0. -1.
          1   -1    0    0  501    0 -0.00000000000E+00 -0.00000000000E+00 -0.36325734744E+03  0.36325734744E+03  0.00000000000E+00 0. -1.
         25    2    1    2    0    0 -0.15191805582E+03  0.23270550586E+02  0.16376225388E+01  0.19810902241E+03  0.12499555490E+03 0.  0.
          2    1    1    2  501    0 -0.11356019865E+01 -0.10301418952E+03 -0.24757032987E+03  0.26814973627E+03  0.00000000000E+00 0. -1.
          1    1    1    2  502    0  0.15305365781E+03  0.79743638935E+02  0.10325644970E+04  0.10468877259E+04  0.00000000000E+00 0. -1.
         22    1    3    3    0    0 -0.30808209018E+02 -0.11724866268E+01 -0.54332918546E+02  0.62470685170E+02  0.00000000000E+00 0.  1.
         22    1    3    3    0    0 -0.12110984680E+03  0.24443037213E+02  0.55970541085E+02  0.13563833724E+03  0.00000000000E+00 0.  1.
</event>
<event>
 7    1  0.6888820E-006  0.7965697E+02  0.7818608E-02  0.1415235E+00
          2   -1    0    0  502    0  0.00000000000E+00  0.00000000000E+00  0.19129017304E+04  0.19129017304E+04  0.00000000000E+00 0. -1.
          1   -1    0    0  501    0 -0.00000000000E+00 -0.00000000000E+00 -0.27124408528E+02  0.27124408528E+02  0.00000000000E+00 0. -1.
         25    2    1    2    0    0 -0.46853802820E+02  0.74594997870E+02  0.45316337251E+03  0.47827017758E+03  0.12500251213E+03 0.  0.
          2    1    1    2  501    0  0.67875837586E+02 -0.41239160975E+02  0.96148217274E+02  0.12470877038E+03  0.00000000000E+00 0. -1.
          1    1    1    2  502    0 -0.21022034766E+02 -0.33355836894E+02  0.13364657321E+04  0.13370471909E+04  0.00000000000E+00 0. -1.
         22    1    3    3    0    0 -0.64066706313E+02  0.69626232005E+02  0.45029271035E+03  0.46012593932E+03  0.00000000000E+00 0. -1.
         22    1    3    3    0    0  0.17212903493E+02  0.49687658641E+01  0.28706621554E+01  0.18144238261E+02  0.00000000000E+00 0. -1.
</event>
<event>
 7    1  0.6888820E-006  0.7065935E+02  0.7818608E-02  0.1423409E+00
          2   -1    0    0  502    0  0.00000000000E+00  0.00000000000E+00  0.33955836923E+04  0.33955836923E+04  0.00000000000E+00 0. -1.
          1   -1    0    0  501    0 -0.00000000000E+00 -0.00000000000E+00 -0.79566784573E+03  0.79566784573E+03  0.00000000000E+00 0. -1.
         25    2    1    2    0    0 -0.42239197917E+01  0.10791384571E+03 -0.39932896523E+02  0.16994616760E+03  0.12499529617E+03 0.  0.
          2    1    1    2  501    0 -0.13251695747E+02 -0.39578042971E+02 -0.68972395017E+03  0.69098564121E+03  0.00000000000E+00 0. -1.
          1    1    1    2  502    0  0.17475615539E+02 -0.68335802736E+02  0.33295726933E+04  0.33303197292E+04  0.00000000000E+00 0. -1.
         22    1    3    3    0    0 -0.93759312542E+01 -0.23278092573E+02 -0.28773462365E+02  0.38179704258E+02  0.00000000000E+00 0. -1.
         22    1    3    3    0    0  0.51520114625E+01  0.13119193828E+03 -0.11159434158E+02  0.13176646334E+03  0.00000000000E+00 0. -1.
</event>
<event>
 7    1  0.6888820E-006  0.5389492E+02  0.7818608E-02  0.1462840E+00
          2   -1    0    0  502    0  0.00000000000E+00  0.00000000000E+00  0.17520708743E+04  0.17520708743E+04  0.00000000000E+00 0. -1.
          1   -1    0    0  501    0 -0.00000000000E+00 -0.00000000000E+00 -0.21438700959E+03  0.21438700959E+03  0.00000000000E+00 0. -1.
         25    2    1    2    0    0  0.12299875588E+02  0.98810040786E+01  0.40763239628E+02  0.13242219576E+03  0.12500030018E+03 0.  0.
          2    1    1    2  501    0 -0.34117902545E+02 -0.44364728891E+02 -0.16365427695E+03  0.17295948314E+03  0.00000000000E+00 0. -1.
          1    1    1    2  502    0  0.21818026956E+02  0.34483724812E+02  0.16605749021E+04  0.16610762050E+04  0.00000000000E+00 0. -1.
         22    1    3    3    0    0 -0.37589754232E+02 -0.33627294650E+02 -0.68249409357E+01  0.50895622478E+02  0.00000000000E+00 0.  1.
         22    1    3    3    0    0  0.49889629820E+02  0.43508298728E+02  0.47588180564E+02  0.81526573283E+02  0.00000000000E+00 0.  1.
</event>
<event>
 7    1  0.6888820E-006  0.3871856E+03  0.7818608E-02  0.1178791E+00
          2   -1    0    0  502    0  0.00000000000E+00  0.00000000000E+00  0.90067616780E+03  0.90067616780E+03  0.00000000000E+00 0. -1.
          1   -1    0    0  501    0 -0.00000000000E+00 -0.00000000000E+00 -0.83864848618E+03  0.83864848618E+03  0.00000000000E+00 0. -1.
         25    2    1    2    0    0  0.10964827891E+03  0.37510098852E+03  0.24232760635E+03  0.47652461411E+03  0.12501816829E+03 0.  0.
          2    1    1    2  501    0 -0.17698757055E+03 -0.34477772018E+03 -0.66652031060E+03  0.77100298372E+03  0.00000000000E+00 0. -1.
          1    1    1    2  502    0  0.67339291641E+02 -0.30323268342E+02  0.48622038587E+03  0.49179705615E+03  0.00000000000E+00 0. -1.
         22    1    3    3    0    0 -0.99010409287E+01  0.11154829251E+02 -0.98677248386E+01  0.17883870403E+02  0.00000000000E+00 0.  1.
         22    1    3    3    0    0  0.11954931984E+03  0.36394615927E+03  0.25219533119E+03  0.45864074371E+03  0.00000000000E+00 0.  1.
</event>
<event>
 7    1  0.8958461E-006  0.1604701E+03  0.7818608E-02  0.1309425E+00
          2   -1    0    0  502    0  0.00000000000E+00  0.00000000000E+00  0.20734326851E+04  0.20734326851E+04  0.00000000000E+00 0. -1.
          1   -1    0    0  501    0 -0.00000000000E+00 -0.00000000000E+00 -0.19052711148E+04  0.19052711148E+04  0.00000000000E+00 0. -1.
         25    2    1    2    0    0  0.97749182843E+01  0.13595525885E+03 -0.67927359888E+03  0.70400056156E+03  0.12499914843E+03 0.  0.
          2    1    1    2  501    0  0.20942988252E+02 -0.17223423299E+03 -0.12071566487E+04  0.12195615664E+04  0.00000000000E+00 0. -1.
          1    1    1    2  502    0 -0.30717906537E+02  0.36278974144E+02  0.20545918179E+04  0.20551416720E+04  0.00000000000E+00 0. -1.
         22    1    3    3    0    0  0.67370393681E+02  0.78479668655E+02 -0.36624663790E+03  0.38057118665E+03  0.00000000000E+00 0. -1.
         22    1    3    3    0    0 -0.57595475397E+02  0.57475590191E+02 -0.31302696098E+03  0.32342937491E+03  0.00000000000E+00 0. -1.
</event>
<event>
 7    1  0.6888820E-006  0.1349485E+03  0.7818608E-02  0.1295675E+00
          2   -1    0    0  502    0  0.00000000000E+00  0.00000000000E+00  0.18642202984E+04  0.18642202984E+04  0.00000000000E+00 0. -1.
          1   -1    0    0  501    0 -0.00000000000E+00 -0.00000000000E+00 -0.80742260052E+03  0.80742260052E+03  0.00000000000E+00 0. -1.
         25    2    1    2    0    0 -0.47965157960E+02  0.15440574918E+03  0.78242329782E+03  0.80867283184E+03  0.12499496082E+03 0.  0.
          2    1    1    2  501    0 -0.12910353642E+02 -0.13422629374E+03 -0.78760038641E+03  0.79906053828E+03  0.00000000000E+00 0. -1.
          1    1    1    2  502    0  0.60875511602E+02 -0.20179455436E+02  0.10619747865E+04  0.10639095288E+04  0.00000000000E+00 0. -1.
         22    1    3    3    0    0 -0.62058033873E+02  0.16618407778E+03  0.60988959345E+03  0.63516428070E+03  0.00000000000E+00 0.  1.
         22    1    3    3    0    0  0.14092875913E+02 -0.11778328605E+02  0.17253370437E+03  0.17350855115E+03  0.00000000000E+00 0.  1.
</event>
<event>
 7    1  0.6888820E-006  0.1129633E+03  0.7818608E-02  0.1366621E+00
          2   -1    0    0  502    0  0.00000000000E+00  0.00000000000E+00  0.18822659089E+04  0.18822659089E+04  0.00000000000E+00 0. -1.
          1   -1    0    0  501    0 -0.00000000000E+00 -0.00000000000E+00 -0.36923798234E+02  0.36923798234E+02  0.00000000000E+00 0. -1.
         25    2    1    2    0    0  0.10968781922E+03 -0.38640485485E+02  0.62349947930E+03  0.64645249195E+03  0.12499887543E+03 0.  0.
          2    1    1    2  501    0 -0.87036402300E+02  0.72902449824E+02  0.10346917529E+03  0.15360980682E+03  0.00000000000E+00 0. -1.
          1    1    1    2  502    0 -0.22651416925E+02 -0.34261964339E+02  0.11183734561E+04  0.11191274084E+04  0.00000000000E+00 0. -1.
         22    1    3    3    0    0 -0.12367856994E+02  0.26403982024E+02  0.67859986386E+02  0.73858729380E+02  0.00000000000E+00 0.  1.
         22    1    3    3    0    0  0.12205567622E+03 -0.65044467509E+02  0.55563949291E+03  0.57259376257E+03  0.00000000000E+00 0.  1.
</event>
<event>
 7    1  0.6888820E-006  0.1195856E+03  0.7818608E-02  0.1344608E+00
          2   -1    0    0  502    0  0.00000000000E+00  0.00000000000E+00  0.11579621487E+03  0.11579621487E+03  0.00000000000E+00 0. -1.
          1   -1    0    0  501    0 -0.00000000000E+00 -0.00000000000E+00 -0.10510802770E+04  0.10510802770E+04  0.00000000000E+00 0. -1.
         25    2    1    2    0    0  0.69514289459E+02 -0.12241660510E+03 -0.87518938518E+03  0.89520912296E+03  0.12499940902E+03 0.  0.
          2    1    1    2  501    0  0.18908578972E+02  0.42744470149E+02 -0.12686114713E+03  0.13519753969E+03  0.00000000000E+00 0. -1.
          1    1    1    2  502    0 -0.88422868431E+02  0.79672134954E+02  0.66766470169E+02  0.13646982922E+03  0.00000000000E+00 0. -1.
         22    1    3    3    0    0 -0.16647428140E+02 -0.11506527571E+02 -0.19611497814E+02  0.28180629640E+02  0.00000000000E+00 0. -1.
         22    1    3    3    0    0  0.86161717598E+02 -0.11091007753E+03 -0.85557788737E+03  0.86702849332E+03  0.00000000000E+00 0. -1.
</event>
<event>
 7    1  0.6888820E-006  0.2280738E+03  0.7818608E-02  0.1244529E+00
          2   -1    0    0  502    0  0.00000000000E+00  0.00000000000E+00  0.51709052280E+03  0.51709052280E+03  0.00000000000E+00 0. -1.
          1   -1    0    0  501    0 -0.00000000000E+00 -0.00000000000E+00 -0.60203837464E+03  0.60203837464E+03  0.00000000000E+00 0. -1.
         25    2    1    2    0    0  0.25983298142E+03  0.10541821882E+03  0.10184481773E+03  0.32345639620E+03  0.12500197698E+03 0.  0.
          2    1    1    2  501    0 -0.21207667392E+03 -0.65516637689E+02 -0.46251224782E+03  0.51301708044E+03  0.00000000000E+00 0. -1.
          1    1    1    2  502    0 -0.47756307499E+02 -0.39901581129E+02  0.27571957825E+03  0.28265542081E+03  0.00000000000E+00 0. -1.
         22    1    3    3    0    0  0.91811768729E+02  0.71634833977E+02  0.97724250493E+02  0.15202295699E+03  0.00000000000E+00 0. -1.
         22    1    3    3    0    0  0.16802121269E+03  0.33783384841E+02  0.41205672358E+01  0.17143343921E+03  0.00000000000E+00 0. -1.
</event>
<event>
 7    1  0.6888820E-006  0.8319285E+02  0.7818608E-02  0.1386632E+00
          2   -1    0    0  502    0  0.00000000000E+00  0.00000000000E+00  0.18001898587E+04  0.18001898587E+04  0.00000000000E+00 0. -1.
          1   -1    0    0  501    0 -0.00000000000E+00 -0.00000000000E+00 -0.30140383627E+02  0.30140383627E+02  0.00000000000E+00 0. -1.
         25    2    1    2    0    0 -0.41416957673E+02 -0.31355311845E+01  0.63597683030E+03  0.64947577306E+03  0.12500822044E+03 0.  0.
          2    1    1    2  501    0  0.88747142294E+02  0.25530794264E+01  0.63306408326E+02  0.10904253672E+03  0.00000000000E+00 0. -1.
          1    1    1    2  502    0 -0.47330184621E+02  0.58245175816E+00  0.10707662365E+04  0.10718119326E+04  0.00000000000E+00 0. -1.
         22    1    3    3    0    0  0.89584847371E+01  0.46525661676E+01  0.54576712128E+03  0.54586046888E+03  0.00000000000E+00 0. -1.
         22    1    3    3    0    0 -0.50375442410E+02 -0.77880973521E+01  0.90209709025E+02  0.10361530418E+03  0.00000000000E+00 0. -1.
</event>
<event>
 7    1  0.6888820E-006  0.9269165E+02  0.7818608E-02  0.1474540E+00
          2   -1    0    0  502    0  0.00000000000E+00  0.00000000000E+00  0.18660597176E+03  0.18660597176E+03  0.00000000000E+00 0. -1.
          1   -1    0    0  501    0 -0.00000000000E+00 -0.00000000000E+00 -0.68848788831E+03  0.68848788831E+03  0.00000000000E+00 0. -1.
         25    2    1    2    0    0 -0.24345553839E+02 -0.11097405619E+03  0.95945349204E+01  0.16918867600E+03  0.12499922339E+03 0.  0.
          2    1    1    2  501    0  0.18026060379E+02  0.90093559172E+02 -0.60394709598E+03  0.61089596741E+03  0.00000000000E+00 0. -1.
          1    1    1    2  502    0  0.63194934599E+01  0.20880497014E+02  0.92470644509E+02  0.95009216653E+02  0.00000000000E+00 0. -1.
         22    1    3    3    0    0 -0.66828207329E+02 -0.58886875947E+02 -0.26454763876E+02  0.92916779891E+02  0.00000000000E+00 0. -1.
         22    1    3    3    0    0  0.42482653490E+02 -0.52087180239E+02  0.36049298796E+02  0.76271896112E+02  0.00000000000E+00 0. -1.
</event>
<event>
 7    1  0.6888820E-006  0.8285333E+02  0.7818608E-02  0.1360346E+00
          2   -1    0    0  502    0  0.00000000000E+00  0.00000000000E+00  0.23382893648E+04  0.23382893648E+04  0.00000000000E+00 0. -1.
          1   -1    0    0  501    0 -0.00000000000E+00 -0.00000000000E+00 -0.31592716804E+02  0.31592716804E+02  0.00000000000E+00 0. -1.
         25    2    1    2    0    0  0.86913844352E+02  0.66216531495E+02  0.50542394181E+03  0.53199382659E+03  0.12500170076E+03 0.  0.
          2    1    1    2  501    0 -0.28607274930E+02 -0.75333047075E+02  0.73375453611E+02  0.10898349120E+03  0.00000000000E+00 0. -1.
          1    1    1    2  502    0 -0.58306569422E+02  0.91165155799E+01  0.17278972525E+04  0.17289047638E+04  0.00000000000E+00 0. -1.
         22    1    3    3    0    0  0.46742135908E+01  0.31646861055E+02  0.18477500385E+02  0.36943065761E+02  0.00000000000E+00 0.  1.
         22    1    3    3    0    0  0.82239630761E+02  0.34569670441E+02  0.48694644142E+03  0.49505076083E+03  0.00000000000E+00 0.  1.
</event>
<event>
 7    1  0.9061572E-006  0.5285507E+02  0.7818608E-02  0.1509932E+00
          2   -1    0    0  502    0  0.00000000000E+00  0.00000000000E+00  0.21104798705E+04  0.21104798705E+04  0.00000000000E+00 0. -1.
          1   -1    0    0  501    0 -0.00000000000E+00 -0.00000000000E+00 -0.10141478183E+04  0.10141478183E+04  0.00000000000E+00 0. -1.
         25    2    1    2    0    0 -0.51871707917E+02 -0.64440021449E+02 -0.56423527265E+03  0.58380612791E+03  0.12499984651E+03 0.  0.
          2    1    1    2  501    0  0.19639559681E+02  0.22572126579E+02 -0.43928590519E+03  0.44030366760E+03  0.00000000000E+00 0. -1.
          1    1    1    2  502    0  0.32232148236E+02  0.41867894870E+02  0.20998532301E+04  0.21005178933E+04  0.00000000000E+00 0. -1.
         22    1    3    3    0    0 -0.40464698309E+02  0.12110024283E+02 -0.58340709520E+02  0.72025571047E+02  0.00000000000E+00 0.  1.
         22    1    3    3    0    0 -0.11407009609E+02 -0.76550045732E+02 -0.50589456313E+03  0.51178055686E+03  0.00000000000E+00 0.  1.
</event>
<event>
 7    1  0.6888820E-006  0.8447131E+02  0.7818608E-02  0.1472445E+00
          2   -1    0    0  502    0  0.00000000000E+00  0.00000000000E+00  0.32239011731E+03  0.32239011731E+03  0.00000000000E+00 0. -1.
          1   -1    0    0  501    0 -0.00000000000E+00 -0.00000000000E+00 -0.68761721745E+03  0.68761721745E+03  0.00000000000E+00 0. -1.
         25    2    1    2    0    0 -0.61816451394E+02  0.18769981558E+02  0.10644379459E+03  0.17643501314E+03  0.12500178633E+03 0.  0.
          2    1    1    2  501    0  0.75449282669E+02 -0.38884301507E+02 -0.64902984048E+03  0.65455658043E+03  0.00000000000E+00 0. -1.
          1    1    1    2  502    0 -0.13632831275E+02  0.20114319949E+02  0.17735894575E+03  0.17901574118E+03  0.00000000000E+00 0. -1.
         22    1    3    3    0    0 -0.83106910167E+02 -0.29289368949E+02  0.68364054186E+02  0.11152699026E+03  0.00000000000E+00 0.  1.
         22    1    3    3    0    0  0.21290458774E+02  0.48059350507E+02  0.38079740401E+02  0.64908022886E+02  0.00000000000E+00 0.  1.
</event>
<event>
 7    1  0.6888820E-006  0.6148706E+02  0.7818608E-02  0.1412452E+00
          2   -1    0    0  502    0  0.00000000000E+00  0.00000000000E+00  0.42934337853E+03  0.42934337853E+03  0.00000000000E+00 0. -1.
          1   -1    0    0  501    0 -0.00000000000E+00 -0.00000000000E+00 -0.13689090690E+04  0.13689090690E+04  0.00000000000E+00 0. -1.
         25    2    1    2    0    0  0.28286324406E+01 -0.29978664793E+02 -0.46195847440E+02  0.13663449803E+03  0.12501283225E+03 0.  0.
          2    1    1    2  501    0 -0.51243367474E+02 -0.99169966008E+01 -0.12743946918E+04  0.12754630767E+04  0.00000000000E+00 0. -1.
          1    1    1    2  502    0  0.48414735033E+02  0.39895661394E+02  0.38102484879E+03  0.38615487277E+03  0.00000000000E+00 0. -1.
         22    1    3    3    0    0  0.63383617993E+02 -0.88556123475E+01 -0.28819647704E+02  0.70188866594E+02  0.00000000000E+00 0.  1.
         22    1    3    3    0    0 -0.60554985553E+02 -0.21123052446E+02 -0.17376199736E+02  0.66445631438E+02  0.00000000000E+00 0.  1.
</event>
<event>
 7    1  0.6888820E-006  0.5034399E+02  0.7818608E-02  0.1446134E+00
          2   -1    0    0  502    0  0.00000000000E+00  0.00000000000E+00  0.96120718626E+03  0.96120718626E+03  0.00000000000E+00 0. -1.
          1   -1    0    0  501    0 -0.00000000000E+00 -0.00000000000E+00 -0.76588011106E+03  0.76588011106E+03  0.00000000000E+00 0. -1.
         25    2    1    2    0    0  0.66059623983E+02  0.22111604372E+02  0.23721845254E+03  0.27703785987E+03  0.12499833841E+03 0.  0.
          2    1    1    2  501    0 -0.43685634120E+02  0.22994114456E+02 -0.74425144131E+03  0.74588696986E+03  0.00000000000E+00 0. -1.
          1    1    1    2  502    0 -0.22373989863E+02 -0.45105718827E+02  0.70236006397E+03  0.70416246759E+03  0.00000000000E+00 0. -1.
         22    1    3    3    0    0  0.48387336426E+02  0.34160079462E+02  0.24664993670E+03  0.25366205201E+03  0.00000000000E+00 0. -1.
         22    1    3    3    0    0  0.17672287556E+02 -0.12048475090E+02 -0.94314841616E+01  0.23375807857E+02  0.00000000000E+00 0. -1.
</event>
<event>
 7    1  0.6888820E-006  0.6523779E+02  0.7818608E-02  0.1409430E+00
          2   -1    0    0  502    0  0.00000000000E+00  0.00000000000E+00  0.12526887130E+04  0.12526887130E+04  0.00000000000E+00 0. -1.
          1   -1    0    0  501    0 -0.00000000000E+00 -0.00000000000E+00 -0.82173833878E+03  0.82173833878E+03  0.00000000000E+00 0. -1.
         25    2    1    2    0    0 -0.50625643735E+02 -0.99054321830E+02  0.39746795282E+03  0.43125338266E+03  0.12499596816E+03 0.  0.
          2    1    1    2  501    0  0.30099549955E+02  0.40381717531E+02 -0.80290323961E+03  0.80448137218E+03  0.00000000000E+00 0. -1.
          1    1    1    2  502    0  0.20526093780E+02  0.58672604299E+02  0.83638566104E+03  0.83869229698E+03  0.00000000000E+00 0. -1.
         22    1    3    3    0    0 -0.73167688655E+02 -0.83476701361E+01  0.18619866155E+03  0.20023270418E+03  0.00000000000E+00 0. -1.
         22    1    3    3    0    0  0.22542044920E+02 -0.90706651693E+02  0.21126929127E+03  0.23102067848E+03  0.00000000000E+00 0. -1.
</event>
<event>
 7    1  0.6888820E-006  0.4638269E+02  0.7818608E-02  0.1509203E+00
          2   -1    0    0  502    0  0.00000000000E+00  0.00000000000E+00  0.12595718508E+04  0.12595718508E+04  0.00000000000E+00 0. -1.
          1   -1    0    0  501    0 -0.00000000000E+00 -0.00000000000E+00 -0.28819107655E+03  0.28819107655E+03  0.00000000000E+00 0. -1.
         25    2    1    2    0    0 -0.47387823104E+02  0.52994912915E+02  0.16789154478E+02  0.14477381425E+03  0.12499405990E+03 0.  0.
          2    1    1    2  501    0  0.41601757955E+02 -0.19222768649E+02 -0.22160473086E+03  0.22629378656E+03  0.00000000000E+00 0. -1.
          1    1    1    2  502    0  0.57860651489E+01 -0.33772144267E+02  0.11761963506E+04  0.11766953265E+04  0.00000000000E+00 0. -1.
         22    1    3    3    0    0 -0.45152535110E+01 -0.38438215009E+02 -0.10623053476E+02  0.40133940157E+02  0.00000000000E+00 0. -1.
         22    1    3    3    0    0 -0.42872569593E+02  0.91433127925E+02  0.27412207954E+02  0.10463987409E+03  0.00000000000E+00 0. -1.
</event>
<event>
 7    1  0.6888820E-006  0.4850982E+02  0.7818608E-02  0.1479797E+00
          2   -1    0    0  502    0  0.00000000000E+00  0.00000000000E+00  0.23029874255E+03  0.23029874255E+03  0.00000000000E+00 0. -1.
          1   -1    0    0  501    0 -0.00000000000E+00 -0.00000000000E+00 -0.29131972916E+03  0.29131972916E+03  0.00000000000E+00 0. -1.
         25    2    1    2    0    0 -0.10886730375E+02 -0.58195125591E+01 -0.82697445844E+01  0.12587555079E+03  0.12499551186E+03 0.  0.
          2    1    1    2  501    0 -0.39740284851E+02  0.57903478724E+01 -0.21864158805E+03  0.22229926314E+03  0.00000000000E+00 0. -1.
          1    1    1    2  502    0  0.50627015227E+02  0.29164686671E-01  0.16589034602E+03  0.17344365778E+03  0.00000000000E+00 0. -1.
         22    1    3    3    0    0 -0.49331261899E+02  0.18038762705E+02 -0.43764097856E+02  0.68368608452E+02  0.00000000000E+00 0.  1.
         22    1    3    3    0    0  0.38444531524E+02 -0.23858275264E+02  0.35494353272E+02  0.57506942336E+02  0.00000000000E+00 0.  1.
</event>
<event>
 7    1  0.6888820E-006  0.9513156E+02  0.7818608E-02  0.1421515E+00
          2   -1    0    0  502    0  0.00000000000E+00  0.00000000000E+00  0.27625784077E+04  0.27625784077E+04  0.00000000000E+00 0. -1.
          1   -1    0    0  501    0 -0.00000000000E+00 -0.00000000000E+00 -0.27715298708E+02  0.27715298708E+02  0.00000000000E+00 0. -1.
         25    2    1    2    0    0  0.85962571739E+01  0.66179518660E+02  0.21061153395E+04  0.21108766625E+04  0.12499934769E+03 0.  0.
          2    1    1    2  501    0  0.81487309707E-01 -0.96412937153E+02  0.68458637118E+02  0.11824570219E+03  0.00000000000E+00 0. -1.
          1    1    1    2  502    0 -0.86777444837E+01  0.30233418494E+02  0.56028913244E+03  0.56117134172E+03  0.00000000000E+00 0. -1.
         22    1    3    3    0    0 -0.25696282009E+02 -0.72415463095E+01  0.13792212055E+04  0.13794795658E+04  0.00000000000E+00 0. -1.
         22    1    3    3    0    0  0.34292539183E+02  0.73421064969E+02  0.72689413398E+03  0.73139709668E+03  0.00000000000E+00 0. -1.
</event>
<event>
 7    1  0.6888820E-006  0.2063202E+02  0.7818608E-02  0.1733995E+00
          2   -1    0    0  502    0  0.00000000000E+00  0.00000000000E+00  0.21608418950E+02  0.21608418950E+02  0.00000000000E+00 0. -1.
          1   -1    0    0  501    0 -0.00000000000E+00 -0.00000000000E+00 -0.49958286862E+03  0.49958286862E+03  0.00000000000E+00 0. -1.
         25    2    1    2    0    0 -0.11867833320E+02  0.27616944818E+01 -0.21559376641E+03  0.24950852760E+03  0.12500144320E+03 0.  0.
          2    1    1    2  501    0  0.20007453379E+01 -0.20881320339E+02 -0.24121326008E+03  0.24212366543E+03  0.00000000000E+00 0. -1.
          1    1    1    2  502    0  0.98670879817E+01  0.18119625857E+02 -0.21167423172E+02  0.29559094542E+02  0.00000000000E+00 0. -1.
         22    1    3    3    0    0  0.19360476003E+02  0.48583353760E+02 -0.41400006848E+02  0.66701805527E+02  0.00000000000E+00 0.  1.
         22    1    3    3    0    0 -0.31228309323E+02 -0.45821659278E+02 -0.17419375957E+03  0.18280672207E+03  0.00000000000E+00 0.  1.
</event>
<event>
 7    1  0.6888820E-006  0.1067746E+03  0.7818608E-02  0.1283502E+00
          2   -1    0    0  502    0  0.00000000000E+00  0.00000000000E+00  0.32119079130E+04  0.32119079130E+04  0.00000000000E+00 0. -1.
          1   -1    0    0  501    0 -0.00000000000E+00 -0.00000000000E+00 -0.76275525460E+02  0.76275525460E+02  0.00000000000E+00 0. -1.
         25    2    1    2    0    0 -0.10610074340E+03 -0.76894302088E+02  0.96159441877E+03  0.97849840561E+03  0.12500080853E+03 0.  0.
          2    1    1    2  501    0  0.19827878866E+02  0.10536701144E+03 -0.23918376631E+02  0.10985190313E+03  0.00000000000E+00 0. -1.
          1    1    1    2  502    0  0.86272864535E+02 -0.28472709350E+02  0.21979563454E+04  0.21998331297E+04  0.00000000000E+00 0. -1.
         22    1    3    3    0    0 -0.57801546259E+02 -0.87480807098E+01  0.12786259835E+03  0.14059300026E+03  0.00000000000E+00 0. -1.
         22    1    3    3    0    0 -0.48299197141E+02 -0.68146221378E+02  0.83373182042E+03  0.83790540535E+03  0.00000000000E+00 0. -1.
</event>
<event>
 7    1  0.6888820E-006  0.3691561E+02  0.7818608E-02  0.1535845E+00
          2   -1    0    0  502    0  0.00000000000E+00  0.00000000000E+00  0.15426384472E+04  0.15426384472E+04  0.00000000000E+00 0. -1.
          1   -1    0    0  501    0 -0.00000000000E+00 -0.00000000000E+00 -0.41962617966E+03  0.41962617966E+03  0.00000000000E+00 0. -1.
         25    2    1    2    0    0 -0.12163021370E+02  0.15792702296E+02  0.15624585735E+03  0.20108317942E+03  0.12499731426E+03 0.  0.
          2    1    1    2  501    0  0.32614772187E+02  0.15352845537E+02 -0.39613452367E+03  0.39777128362E+03  0.00000000000E+00 0. -1.
          1    1    1    2  502    0 -0.20451750817E+02 -0.31145547834E+02  0.13629009339E+04  0.13634101638E+04  0.00000000000E+00 0. -1.
         22    1    3    3    0    0  0.40408768519E+02 -0.33712599360E+02  0.49788485021E+02  0.72445159738E+02  0.00000000000E+00 0. -1.
         22    1    3    3    0    0 -0.52571789889E+02  0.49505301657E+02  0.10645737233E+03  0.12863801968E+03  0.00000000000E+00 0. -1.
</event>
<event>
 7    1  0.6888820E-006  0.1675656E+03  0.7818608E-02  0.1358596E+00
          2   -1    0    0  502    0  0.00000000000E+00  0.00000000000E+00  0.12648916902E+04  0.12648916902E+04  0.00000000000E+00 0. -1.
          1   -1    0    0  501    0 -0.00000000000E+00 -0.00000000000E+00 -0.70066748172E+02  0.70066748172E+02  0.00000000000E+00 0. -1.
         25    2    1    2    0    0  0.19383594917E+02 -0.19183288515E+03  0.97113127248E+03  0.99794622914E+03  0.12500059312E+03 0.  0.
          2    1    1    2  501    0 -0.24352552725E+02  0.16264003593E+03  0.67054127511E+02  0.17759809720E+03  0.00000000000E+00 0. -1.
          1    1    1    2  502    0  0.49689578081E+01  0.29192849223E+02  0.15663954198E+03  0.15941411199E+03  0.00000000000E+00 0. -1.
         22    1    3    3    0    0 -0.10780752579E+02 -0.13258086896E+03  0.84459151037E+03  0.85500218177E+03  0.00000000000E+00 0.  1.
         22    1    3    3    0    0  0.30164347496E+02 -0.59252016196E+02  0.12653976211E+03  0.14294404737E+03  0.00000000000E+00 0.  1.
</event>
<event>
 7    1  0.6888820E-006  0.8259622E+02  0.7818608E-02  0.1330584E+00
          2   -1    0    0  502    0  0.00000000000E+00  0.00000000000E+00  0.69178267143E+02  0.69178267143E+02  0.00000000000E+00 0. -1.
          1   -1    0    0  501    0 -0.00000000000E+00 -0.00000000000E+00 -0.13686623118E+04  0.13686623118E+04  0.00000000000E+00 0. -1.
         25    2    1    2    0    0 -0.95675517968E+01  0.53240564446E+02 -0.29804718787E+03  0.32768853974E+03  0.12498622775E+03 0.  0.
          2    1    1    2  501    0  0.83257350845E+02 -0.32892792087E+02 -0.10259672653E+04  0.10298653076E+04  0.00000000000E+00 0. -1.
          1    1    1    2  502    0 -0.73689799048E+02 -0.20347772358E+02  0.24530408579E+02  0.80286731586E+02  0.00000000000E+00 0. -1.
         22    1    3    3    0    0  0.26150953704E+02  0.63357180632E+02 -0.27627727991E+03  0.28465266574E+03  0.00000000000E+00 0. -1.
         22    1    3    3    0    0 -0.35718505501E+02 -0.10116616186E+02 -0.21769907964E+02  0.43035874001E+02  0.00000000000E+00 0. -1.
</event>
<event>
 7    1  0.6888820E-006  0.9946539E+02  0.7818608E-02  0.1292610E+00
          2   -1    0    0  502    0  0.00000000000E+00  0.00000000000E+00  0.22251407815E+04  0.22251407815E+04  0.00000000000E+00 0. -1.
          1   -1    0    0  501    0 -0.00000000000E+00 -0.00000000000E+00 -0.48765092085E+03  0.48765092085E+03  0.00000000000E+00 0. -1.
         25    2    1    2    0    0  0.33738104357E+02 -0.15492175494E+03  0.10433112981E+04  0.10626661007E+04  0.12498706724E+03 0.  0.
          2    1    1    2  501    0  0.25793154870E+02  0.85732169239E+02 -0.47198219108E+03  0.48039825185E+03  0.00000000000E+00 0. -1.
          1    1    1    2  502    0 -0.59531259227E+02  0.69189585702E+02  0.11661607537E+04  0.11697273499E+04  0.00000000000E+00 0. -1.
         22    1    3    3    0    0  0.62775277343E+01 -0.16754775034E+03  0.79261323805E+03  0.81015270235E+03  0.00000000000E+00 0.  1.
         22    1    3    3    0    0  0.27460576623E+02  0.12625995398E+02  0.25069806002E+03  0.25251339831E+03  0.00000000000E+00 0.  1.
</event>
<event>
 7    1  0.6888820E-006  0.4463937E+02  0.7818608E-02  0.1495928E+00
          2   -1    0    0  502    0  0.00000000000E+00  0.00000000000E+00  0.46936469038E+03  0.46936469038E+03  0.00000000000E+00 0. -1.
          1   -1    0    0  501    0 -0.00000000000E+00 -0.00000000000E+00 -0.98809743604E+03  0.98809743604E+03  0.00000000000E+00 0. -1.
         25    2    1    2    0    0  0.36180708043E+02  0.69767191647E+02  0.16695157415E+02  0.14859400580E+03  0.12499978246E+03 0.  0.
          2    1    1    2  501    0 -0.28750524662E+02 -0.26337001529E+02 -0.92047893000E+03  0.92130434217E+03  0.00000000000E+00 0. -1.
          1    1    1    2  502    0 -0.74301833817E+01 -0.43430190118E+02  0.38505102692E+03  0.38756377845E+03  0.00000000000E+00 0. -1.
         22    1    3    3    0    0 -0.34605131807E+02 -0.13530446954E+02 -0.38942047112E+01  0.37359777468E+02  0.00000000000E+00 0. -1.
         22    1    3    3    0    0  0.70785839850E+02  0.83297638601E+02  0.20589362126E+02  0.11123422833E+03  0.00000000000E+00 0. -1.
</event>
<event>
 7    1  0.6888820E-006  0.5679375E+02  0.7818608E-02  0.1439450E+00
          2   -1    0    0  502    0  0.00000000000E+00  0.00000000000E+00  0.39205728303E+04  0.39205728303E+04  0.00000000000E+00 0. -1.
          1   -1    0    0  501    0 -0.00000000000E+00 -0.00000000000E+00 -0.15618484707E+03  0.15618484707E+03  0.00000000000E+00 0. -1.
         25    2    1    2    0    0 -0.76921298256E+02  0.10499878442E+02  0.18161244795E+04  0.18220753319E+04  0.12499302644E+03 0.  0.
          2    1    1    2  501    0  0.41022569151E+02 -0.39251408999E+02 -0.14768846253E+03  0.15822580780E+03  0.00000000000E+00 0. -1.
          1    1    1    2  502    0  0.35898729105E+02  0.28751530557E+02  0.20959519663E+04  0.20964565376E+04  0.00000000000E+00 0. -1.
         22    1    3    3    0    0 -0.72580699324E+02  0.52889199695E+02  0.79394067061E+03  0.79900376333E+03  0.00000000000E+00 0.  1.
         22    1    3    3    0    0 -0.43405989321E+01 -0.42389321253E+02  0.10221838089E+04  0.10230715686E+04  0.00000000000E+00 0.  1.
</event>
<event>
 7    1  0.6888820E-006  0.5701102E+02  0.7818608E-02  0.1411541E+00
          2   -1    0    0  502    0  0.00000000000E+00  0.00000000000E+00  0.19200780001E+03  0.19200780001E+03  0.00000000000E+00 0. -1.
          1   -1    0    0  501    0 -0.00000000000E+00 -0.00000000000E+00 -0.73864348691E+03  0.73864348691E+03  0.00000000000E+00 0. -1.
         25    2    1    2    0    0  0.77003847539E+00  0.62914598610E+02  0.10233889007E+03  0.17337110848E+03  0.12500181262E+03 0.  0.
          2    1    1    2  501    0  0.50431026854E+02 -0.26588868652E+02 -0.68333817897E+03  0.68571227439E+03  0.00000000000E+00 0. -1.
          1    1    1    2  502    0 -0.51201065329E+02 -0.36325729958E+02  0.34363602002E+02  0.71567904052E+02  0.00000000000E+00 0. -1.
         22    1    3    3    0    0  0.28130670046E+02  0.90695698556E+02  0.47753617353E+02  0.10628947410E+03  0.00000000000E+00 0. -1.
         22    1    3    3    0    0 -0.27360631571E+02 -0.27781099946E+02  0.54585272714E+02  0.67081634383E+02  0.00000000000E+00 0. -1.
</event>
<event>
 7    1  0.6888820E-006  0.7899483E+02  0.7818608E-02  0.1377479E+00
          2   -1    0    0  502    0  0.00000000000E+00  0.00000000000E+00  0.89846984204E+03  0.89846984204E+03  0.00000000000E+00 0. -1.
          1   -1    0    0  501    0 -0.00000000000E+00 -0.00000000000E+00 -0.35646293695E+02  0.35646293695E+02  0.00000000000E+00 0. -1.
         25    2    1    2    0    0  0.69235099271E+02  0.10683980451E+03  0.62490712930E+03  0.64987917191E+03  0.12500310010E+03 0.  0.
          2    1    1    2  501    0 -0.41935051097E+02 -0.60596519650E+02  0.50641791260E+02  0.89415198519E+02  0.00000000000E+00 0. -1.
          1    1    1    2  502    0 -0.27300048174E+02 -0.46243284856E+02  0.18727462778E+03  0.19482176530E+03  0.00000000000E+00 0. -1.
         22    1    3    3    0    0  0.73793459803E+02  0.10227342708E+03  0.62946808916E+03  0.64197772848E+03  0.00000000000E+00 0.  1.
         22    1    3    3    0    0 -0.45583605321E+01  0.45663774295E+01 -0.45609598537E+01  0.79014434350E+01  0.00000000000E+00 0.  1.
</event>
<event>
 7    1  0.6888820E-006  0.9675873E+02  0.7818608E-02  0.1369426E+00
          2   -1    0    0  502    0  0.00000000000E+00  0.00000000000E+00  0.60683226366E+03  0.60683226366E+03  0.00000000000E+00 0. -1.
          1   -1    0    0  501    0 -0.00000000000E+00 -0.00000000000E+00 -0.46222251612E+03  0.46222251612E+03  0.00000000000E+00 0. -1.
         25    2    1    2    0    0  0.13242549786E+03 -0.34215064831E+02  0.14744902141E+03  0.23679817110E+03  0.12499990710E+03 0.  0.
          2    1    1    2  501    0 -0.95537143145E+02  0.53367751848E+01 -0.41070755758E+03  0.42170668093E+03  0.00000000000E+00 0. -1.
          1    1    1    2  502    0 -0.36888354712E+02  0.28878289647E+02  0.40786828370E+03  0.41054992775E+03  0.00000000000E+00 0. -1.
         22    1    3    3    0    0  0.11024570100E+03 -0.25943218629E+02  0.16988931458E+03  0.20418017629E+03  0.00000000000E+00 0.  1.
         22    1    3    3    0    0  0.22179796857E+02 -0.82718462024E+01 -0.22440293163E+02  0.32617994811E+02  0.00000000000E+00 0.  1.
</event>
<event>
 7    1  0.6888820E-006  0.3428024E+02  0.7818608E-02  0.1593896E+00
          2   -1    0    0  502    0  0.00000000000E+00  0.00000000000E+00  0.51874034896E+03  0.51874034896E+03  0.00000000000E+00 0. -1.
          1   -1    0    0  501    0 -0.00000000000E+00 -0.00000000000E+00 -0.11025388107E+04  0.11025388107E+04  0.00000000000E+00 0. -1.
         25    2    1    2    0    0  0.33357068970E+02 -0.11049110144E+02  0.15902841212E+03  0.20530580159E+03  0.12500263764E+03 0.  0.
          2    1    1    2  501    0 -0.15063319331E+02  0.30809503826E+02 -0.10785885243E+04  0.10791336034E+04  0.00000000000E+00 0. -1.
          1    1    1    2  502    0 -0.18293749639E+02 -0.19760393681E+02  0.33576165045E+03  0.33683975471E+03  0.00000000000E+00 0. -1.
         22    1    3    3    0    0  0.77077910675E+02 -0.29049690447E+02  0.95542340322E+02  0.12614764216E+03  0.00000000000E+00 0.  1.
         22    1    3    3    0    0 -0.43720841705E+02  0.18000580303E+02  0.63486071802E+02  0.79158159424E+02  0.00000000000E+00 0.  1.
</event>
<event>
 7    1  0.6888820E-006  0.6206765E+02  0.7818608E-02  0.1510388E+00
          2   -1    0    0  502    0  0.00000000000E+00  0.00000000000E+00  0.44880183552E+03  0.44880183552E+03  0.00000000000E+00 0. -1.
          1   -1    0    0  501    0 -0.00000000000E+00 -0.00000000000E+00 -0.73848660767E+03  0.73848660767E+03  0.00000000000E+00 0. -1.
         25    2    1    2    0    0  0.27155303784E+02 -0.26987228790E+02  0.87749116734E+02  0.15745653223E+03  0.12500772382E+03 0.  0.
          2    1    1    2  501    0 -0.50910148647E+02  0.35981118401E+02 -0.70175448743E+03  0.70451816495E+03  0.00000000000E+00 0. -1.
          1    1    1    2  502    0  0.23754844863E+02 -0.89938896106E+01  0.32432059854E+03  0.32531374601E+03  0.00000000000E+00 0. -1.
         22    1    3    3    0    0 -0.73274184640E+01  0.30739344169E+02  0.84411050195E+02  0.90132256913E+02  0.00000000000E+00 0. -1.
         22    1    3    3    0    0  0.34482722248E+02 -0.57726572959E+02  0.33380665395E+01  0.67324275321E+02  0.00000000000E+00 0. -1.
</event>
<event>
 7    1  0.6888820E-006  0.4871448E+02  0.7818608E-02  0.1516715E+00
          2   -1    0    0  502    0  0.00000000000E+00  0.00000000000E+00  0.55177674615E+03  0.55177674615E+03  0.00000000000E+00 0. -1.
          1   -1    0    0  501    0 -0.00000000000E+00 -0.00000000000E+00 -0.18498855485E+04  0.18498855485E+04  0.00000000000E+00 0. -1.
         25    2    1    2    0    0 -0.15576868573E+02 -0.66058028468E+02 -0.95290720019E+03  0.96346471536E+03  0.12500329445E+03 0.  0.
          2    1    1    2  501    0 -0.83154621485E+01  0.46288511045E+02 -0.89063875673E+03  0.89187957043E+03  0.00000000000E+00 0. -1.
          1    1    1    2  502    0  0.23892330721E+02  0.19769517423E+02  0.54543715453E+03  0.54631800888E+03  0.00000000000E+00 0. -1.
         22    1    3    3    0    0 -0.18646434009E+02 -0.72486196955E+02 -0.95339143509E+03  0.95632482282E+03  0.00000000000E+00 0. -1.
         22    1    3    3    0    0  0.30695654369E+01  0.64281684869E+01  0.48423489890E+00  0.71398925415E+01  0.00000000000E+00 0. -1.
</event>
<event>
 7    1  0.6888820E-006  0.1655066E+03  0.7818608E-02  0.1183145E+00
          2   -1    0    0  502    0  0.00000000000E+00  0.00000000000E+00  0.26484082296E+04  0.26484082296E+04  0.00000000000E+00 0. -1.
          1   -1    0    0  501    0 -0.00000000000E+00 -0.00000000000E+00 -0.85051479893E+02  0.85051479893E+02  0.00000000000E+00 0. -1.
         25    2    1    2    0    0 -0.13181958839E+03 -0.67668094979E+02  0.18963286548E+04  0.19062117553E+04  0.12500205519E+03 0.  0.
          2    1    1    2  501    0 -0.10476505463E+03 -0.12812775723E+03  0.13775517866E+03  0.21533445635E+03  0.00000000000E+00 0. -1.
          1    1    1    2  502    0  0.23658464302E+03  0.19579585221E+03  0.52927291624E+03  0.61191349791E+03  0.00000000000E+00 0. -1.
         22    1    3    3    0    0 -0.11481359876E+03 -0.65443292697E+02  0.18707692124E+04  0.18754312659E+04  0.00000000000E+00 0. -1.
         22    1    3    3    0    0 -0.17005989628E+02 -0.22248022829E+01  0.25559442430E+02  0.30780489369E+02  0.00000000000E+00 0. -1.
</event>
<event>
 7    1  0.6888820E-006  0.5489307E+02  0.7818608E-02  0.1512365E+00
          2   -1    0    0  502    0  0.00000000000E+00  0.00000000000E+00  0.16283139659E+04  0.16283139659E+04  0.00000000000E+00 0. -1.
          1   -1    0    0  501    0 -0.00000000000E+00 -0.00000000000E+00 -0.60215355528E+02  0.60215355528E+02  0.00000000000E+00 0. -1.
         25    2    1    2    0    0  0.19902777142E+02  0.55365451194E+02  0.58112035091E+03  0.59731671643E+03  0.12499977500E+03 0.  0.
          2    1    1    2  501    0  0.21280519691E+02 -0.18714357758E+02 -0.47475810861E+02  0.55290508422E+02  0.00000000000E+00 0. -1.
          1    1    1    2  502    0 -0.41183296834E+02 -0.36651093436E+02  0.10344540703E+04  0.10359220966E+04  0.00000000000E+00 0. -1.
         22    1    3    3    0    0  0.59748570307E+02 -0.10508721232E+02  0.23114242118E+03  0.23897101026E+03  0.00000000000E+00 0. -1.
         22    1    3    3    0    0 -0.39845793165E+02  0.65874172426E+02  0.34997792973E+03  0.35834570616E+03  0.00000000000E+00 0. -1.
</event>
<event>
 7    1  0.6888820E-006  0.7338804E+02  0.7818608E-02  0.1375591E+00
          2   -1    0    0  502    0  0.00000000000E+00  0.00000000000E+00  0.49163953437E+03  0.49163953437E+03  0.00000000000E+00 0. -1.
          1   -1    0    0  501    0 -0.00000000000E+00 -0.00000000000E+00 -0.57713794748E+02  0.57713794748E+02  0.00000000000E+00 0. -1.
         25    2    1    2    0    0  0.10477981524E+02  0.33104964028E+02  0.15334989077E+03  0.20086598366E+03  0.12500091060E+03 0.  0.
          2    1    1    2  501    0  0.11183140024E+02 -0.87667291915E+02  0.33468770898E+02  0.94502779419E+02  0.00000000000E+00 0. -1.
          1    1    1    2  502    0 -0.21661121548E+02  0.54562327887E+02  0.24710707795E+03  0.25398456604E+03  0.00000000000E+00 0. -1.
         22    1    3    3    0    0  0.24711596531E+02  0.45372357433E+02  0.56475165987E+01  0.51973149470E+02  0.00000000000E+00 0.  1.
         22    1    3    3    0    0 -0.14233615007E+02 -0.12267393405E+02  0.14770237417E+03  0.14889283419E+03  0.00000000000E+00 0.  1.
</event>
<event>
 7    1  0.6888820E-006  0.1000822E+03  0.7818608E-02  0.1316559E+00
          2   -1    0    0  502    0  0.00000000000E+00  0.00000000000E+00  0.15370590856E+04  0.15370590856E+04  0.00000000000E+00 0. -1.
          1   -1    0    0  501    0 -0.00000000000E+00 -0.00000000000E+00 -0.73996514064E+03  0.73996514064E+03  0.00000000000E+00 0. -1.
         25    2    1    2    0    0  0.32609865308E+02 -0.21682314549E+02  0.34027957053E+02  0.13532555399E+03  0.12498630974E+03 0.  0.
          2    1    1    2  501    0  0.69673954120E+02  0.15891109960E+02 -0.68565035921E+03  0.68936449164E+03  0.00000000000E+00 0. -1.
          1    1    1    2  502    0 -0.10228381943E+03  0.57912045887E+01  0.14487163471E+04  0.14523341806E+04  0.00000000000E+00 0. -1.
         22    1    3    3    0    0  0.27738653109E+01 -0.55466849078E+02  0.61242685568E+02  0.82673648830E+02  0.00000000000E+00 0. -1.
         22    1    3    3    0    0  0.29835999997E+02  0.33784534529E+02 -0.27214728515E+02  0.52651905163E+02  0.00000000000E+00 0. -1.
</event>
<event>
 7    1  0.6888820E-006  0.6557557E+02  0.7818608E-02  0.1381645E+00
          2   -1    0    0  502    0  0.00000000000E+00  0.00000000000E+00  0.26326168631E+04  0.26326168631E+04  0.00000000000E+00 0. -1.
          1   -1    0    0  501    0 -0.00000000000E+00 -0.00000000000E+00 -0.50108090419E+03  0.50108090419E+03  0.00000000000E+00 0. -1.
         25    2    1    2    0    0  0.18046558483E+02  0.58606880246E+01  0.64875314761E+03  0.66095863408E+03  0.12500257394E+03 0.  0.
          2    1    1    2  501    0 -0.15844744148E+00 -0.65774656524E+02 -0.49229611184E+03  0.49667070809E+03  0.00000000000E+00 0. -1.
          1    1    1    2  502    0 -0.17888111042E+02  0.59913968499E+02  0.19750789232E+04  0.19760684251E+04  0.00000000000E+00 0. -1.
         22    1    3    3    0    0  0.39658523566E+02 -0.72893290278E+00  0.63094366897E+03  0.63218924639E+03  0.00000000000E+00 0. -1.
         22    1    3    3    0    0 -0.21611965082E+02  0.65896209274E+01  0.17809478639E+02  0.28769387691E+02  0.00000000000E+00 0. -1.
</event>
<event>
 7    1  0.6888820E-006  0.8967019E+02  0.7818608E-02  0.1351664E+00
          2   -1    0    0  502    0  0.00000000000E+00  0.00000000000E+00  0.10277113449E+04  0.10277113449E+04  0.00000000000E+00 0. -1.
          1   -1    0    0  501    0 -0.00000000000E+00 -0.00000000000E+00 -0.32354130991E+04  0.32354130991E+04  0.00000000000E+00 0. -1.
         25    2    1    2    0    0 -0.10618980443E+03  0.98945533684E+02 -0.68969516061E+03  0.71580041613E+03  0.12499731180E+03 0.  0.
          2    1    1    2  501    0  0.64786151285E+02 -0.57360918523E+02 -0.25310769008E+04  0.25325555864E+04  0.00000000000E+00 0. -1.
          1    1    1    2  502    0  0.41403653142E+02 -0.41584615161E+02  0.10130703071E+04  0.10147684415E+04  0.00000000000E+00 0. -1.
         22    1    3    3    0    0 -0.22701998419E+02  0.68333494745E+02 -0.12590823061E+03  0.14504388912E+03  0.00000000000E+00 0.  1.
         22    1    3    3    0    0 -0.83487806008E+02  0.30612038938E+02 -0.56378693000E+03  0.57075652700E+03  0.00000000000E+00 0.  1.
</event>
<event>
 7    1  0.6888820E-006  0.9187405E+02  0.7818608E-02  0.1355846E+00
          2   -1    0    0  502    0  0.00000000000E+00  0.00000000000E+00  0.26968593794E+03  0.26968593794E+03  0.00000000000E+00 0. -1.
          1   -1    0    0  501    0 -0.00000000000E+00 -0.00000000000E+00 -0.28987803230E+03  0.28987803230E+03  0.00000000000E+00 0. -1.
         25    2    1    2    0    0 -0.35557925250E+02  0.13353021118E+03 -0.71858134885E+02  0.19971740468E+03  0.12501506644E+03 0.  0.
          2    1    1    2  501    0  0.15270531328E+02 -0.82109927536E+02 -0.13854215952E+03  0.16176884524E+03  0.00000000000E+00 0. -1.
          1    1    1    2  502    0  0.20287393922E+02 -0.51420283641E+02  0.19020820005E+03  0.19807772032E+03  0.00000000000E+00 0. -1.
         22    1    3    3    0    0  0.35661821634E+02  0.94543876701E+00 -0.17122732702E+02  0.39570789124E+02  0.00000000000E+00 0.  1.
         22    1    3    3    0    0 -0.71219746884E+02  0.13258477241E+03 -0.54735402184E+02  0.16014661555E+03  0.00000000000E+00 0.  1.
</event>
<event>
 7    1  0.6888820E-006  0.6913771E+02  0.7818608E-02  0.1450310E+00
          2   -1    0    0  502    0  0.00000000000E+00  0.00000000000E+00  0.29303768691E+03  0.29303768691E+03  0.00000000000E+00 0. -1.
          1   -1    0    0  501    0 -0.00000000000E+00 -0.00000000000E+00 -0.20913239057E+04  0.20913239057E+04  0.00000000000E+00 0. -1.
         25    2    1    2    0    0 -0.39878158664E+02  0.30350268029E+02 -0.66179273832E+03  0.67535711585E+03  0.12500479643E+03 0.  0.
          2    1    1    2  501    0  0.70885675917E+02 -0.14429146620E+02 -0.14207642793E+04  0.14226046944E+04  0.00000000000E+00 0. -1.
          1    1    1    2  502    0 -0.31007517253E+02 -0.15921121410E+02  0.28427079884E+03  0.28639978231E+03  0.00000000000E+00 0. -1.
         22    1    3    3    0    0 -0.76521951321E+01  0.64220336430E+02 -0.17935562075E+03  0.19066002832E+03  0.00000000000E+00 0.  1.
         22    1    3    3    0    0 -0.32225963532E+02 -0.33870068401E+02 -0.48243711757E+03  0.48469708754E+03  0.00000000000E+00 0.  1.
</event>
<event>
 7    1  0.6888820E-006  0.2351140E+03  0.7818608E-02  0.1229935E+00
          2   -1    0    0  502    0  0.00000000000E+00  0.00000000000E+00  0.10705966811E+04  0.10705966811E+04  0.00000000000E+00 0. -1.
          1   -1    0    0  501    0 -0.00000000000E+00 -0.00000000000E+00 -0.55438946501E+03  0.55438946501E+03  0.00000000000E+00 0. -1.
         25    2    1    2    0    0 -0.21742715223E+03  0.16942816811E+03  0.15551220646E+03  0.34027826732E+03  0.12499912871E+03 0.  0.
          2    1    1    2  501    0  0.14783761248E+03 -0.17752858267E+03 -0.43148274610E+03  0.48943816515E+03  0.00000000000E+00 0. -1.
          1    1    1    2  502    0  0.69589539745E+02  0.81004145616E+01  0.79217775570E+03  0.79526971361E+03  0.00000000000E+00 0. -1.
         22    1    3    3    0    0 -0.22618083728E+03  0.13991675128E+03  0.11591078246E+03  0.29012028184E+03  0.00000000000E+00 0.  1.
         22    1    3    3    0    0  0.87536850553E+01  0.29511416827E+02  0.39601423997E+02  0.50157985483E+02  0.00000000000E+00 0.  1.
</event>
<event>
 7    1  0.6888820E-006  0.1132240E+03  0.7818608E-02  0.1430235E+00
          2   -1    0    0  502    0  0.00000000000E+00  0.00000000000E+00  0.85084138662E+03  0.85084138662E+03  0.00000000000E+00 0. -1.
          1   -1    0    0  501    0 -0.00000000000E+00 -0.00000000000E+00 -0.16806947376E+03  0.16806947376E+03  0.00000000000E+00 0. -1.
         25    2    1    2    0    0  0.11635742551E+03 -0.19671615546E+02  0.16501632889E+03  0.23828565915E+03  0.12499457438E+03 0.  0.
          2    1    1    2  501    0 -0.11416979366E+02 -0.21934294238E+02 -0.12530993384E+03  0.12772642718E+03  0.00000000000E+00 0. -1.
          1    1    1    2  502    0 -0.10494044614E+03  0.41605909784E+02  0.64306551781E+03  0.65289877406E+03  0.00000000000E+00 0. -1.
         22    1    3    3    0    0  0.10363993294E+03 -0.32851983784E+02  0.18284407147E+03  0.21272621608E+03  0.00000000000E+00 0.  1.
         22    1    3    3    0    0  0.12717492570E+02  0.13180368238E+02 -0.17827742579E+02  0.25559443061E+02  0.00000000000E+00 0.  1.
</event>
<event>
 7    1  0.6888820E-006  0.4782485E+03  0.7818608E-02  0.1251443E+00
          2   -1    0    0  502    0  0.00000000000E+00  0.00000000000E+00  0.10355356258E+04  0.10355356258E+04  0.00000000000E+00 0. -1.
          1   -1    0    0  501    0 -0.00000000000E+00 -0.00000000000E+00 -0.58242299702E+03  0.58242299702E+03  0.00000000000E+00 0. -1.
         25    2    1    2    0    0  0.46509667868E+03  0.14205396768E+02 -0.11216252885E+03  0.49469406741E+03  0.12500029452E+03 0.  0.
          2    1    1    2  501    0 -0.49278762904E+03 -0.14243212211E+02 -0.60665213226E+02  0.49671197341E+03  0.00000000000E+00 0. -1.
          1    1    1    2  502    0  0.27690950360E+02  0.37815443567E-01  0.62594037081E+03  0.62655258197E+03  0.00000000000E+00 0. -1.
         22    1    3    3    0    0  0.32575250516E+03  0.54588306504E+01 -0.18009846951E+02  0.32629564514E+03  0.00000000000E+00 0. -1.
         22    1    3    3    0    0  0.13934417353E+03  0.87465661175E+01 -0.94152681895E+02  0.16839842227E+03  0.00000000000E+00 0. -1.
</event>
<event>
 7    1  0.6888820E-006  0.1071380E+03  0.7818608E-02  0.1433549E+00
          2   -1    0    0  502    0  0.00000000000E+00  0.00000000000E+00  0.67734211967E+03  0.67734211967E+03  0.00000000000E+00 0. -1.
          1   -1    0    0  501    0 -0.00000000000E+00 -0.00000000000E+00 -0.82966164361E+03  0.82966164361E+03  0.00000000000E+00 0. -1.
         25    2    1    2    0    0  0.91709653418E+02  0.36994212853E+02  0.50338951236E+02  0.16714424552E+03  0.12499582586E+03 0.  0.
          2    1    1    2  501    0  0.15105084593E+02 -0.20527207426E+02 -0.76590946975E+03  0.76633337764E+03  0.00000000000E+00 0. -1.
          1    1    1    2  502    0 -0.10681473801E+03 -0.16467005426E+02  0.56325099457E+03  0.57352614013E+03  0.00000000000E+00 0. -1.
         22    1    3    3    0    0  0.14038499394E+02  0.60297155902E+02 -0.14185181243E+02  0.63514138914E+02  0.00000000000E+00 0. -1.
         22    1    3    3    0    0  0.77671154024E+02 -0.23302943049E+02  0.64524132479E+02  0.10363010660E+03  0.00000000000E+00 0. -1.
</event>
<event>
 7    1  0.6888820E-006  0.1267671E+03  0.7818608E-02  0.1324673E+00
          2   -1    0    0  502    0  0.00000000000E+00  0.00000000000E+00  0.20424882833E+04  0.20424882833E+04  0.00000000000E+00 0. -1.
          1   -1    0    0  501    0 -0.00000000000E+00 -0.00000000000E+00 -0.20403041971E+03  0.20403041971E+03  0.00000000000E+00 0. -1.
         25    2    1    2    0    0  0.72777250210E+02 -0.19227173538E+02  0.12071978654E+04  0.12159837437E+04  0.12499426529E+03 0.  0.
          2    1    1    2  501    0 -0.12217666848E+03  0.36938839897E+02 -0.17829921637E+03  0.21927659878E+03  0.00000000000E+00 0. -1.
          1    1    1    2  502    0  0.49399418268E+02 -0.17711666358E+02  0.80955921459E+03  0.81125836056E+03  0.00000000000E+00 0. -1.
         22    1    3    3    0    0  0.69742761159E+02 -0.67682084446E+02  0.77645397945E+03  0.78251242769E+03  0.00000000000E+00 0. -1.
         22    1    3    3    0    0  0.30344890509E+01  0.48454910907E+02  0.43074388592E+03  0.43347131597E+03  0.00000000000E+00 0. -1.
</event>
<event>
 7    1  0.6888820E-006  0.3920412E+02  0.7818608E-02  0.1616557E+00
          2   -1    0    0  502    0  0.00000000000E+00  0.00000000000E+00  0.50196739806E+03  0.50196739806E+03  0.00000000000E+00 0. -1.
          1   -1    0    0  501    0 -0.00000000000E+00 -0.00000000000E+00 -0.93584856750E+02  0.93584856750E+02  0.00000000000E+00 0. -1.
         25    2    1    2    0    0  0.53889928703E+02 -0.88646084138E+01  0.33139974373E+03  0.35837348574E+03  0.12499223752E+03 0.  0.
          2    1    1    2  501    0 -0.17080592868E+02  0.11451054385E+02 -0.76555145056E+02  0.79268931706E+02  0.00000000000E+00 0. -1.
          1    1    1    2  502    0 -0.36809335835E+02 -0.25864459715E+01  0.15353794263E+03  0.15790983736E+03  0.00000000000E+00 0. -1.
         22    1    3    3    0    0  0.12895291507E+02 -0.56377415907E+02  0.76719975504E+02  0.96076304096E+02  0.00000000000E+00 0. -1.
         22    1    3    3    0    0  0.40994637196E+02  0.47512807493E+02  0.25467976823E+03  0.26229718165E+03  0.00000000000E+00 0. -1.
</event>
<event>
 7    1  0.6888820E-006  0.7733724E+02  0.7818608E-02  0.1414131E+00
          2   -1    0    0  502    0  0.00000000000E+00  0.00000000000E+00  0.41293342170E+04  0.41293342170E+04  0.00000000000E+00 0. -1.
          1   -1    0    0  501    0 -0.00000000000E+00 -0.00000000000E+00 -0.32231087190E+03  0.32231087190E+03  0.00000000000E+00 0. -1.
         25    2    1    2    0    0 -0.64712302007E+02 -0.40301937048E+02  0.37605293382E+03  0.40354920713E+03  0.12499690148E+03 0.  0.
          2    1    1    2  501    0  0.29160828423E+02 -0.28762843216E+02 -0.30679817624E+03  0.30952023522E+03  0.00000000000E+00 0. -1.
          1    1    1    2  502    0  0.35551473584E+02  0.69064780264E+02  0.37377685876E+04  0.37385756466E+04  0.00000000000E+00 0. -1.
         22    1    3    3    0    0 -0.46773609251E+01  0.43253005824E+02  0.11476957199E+03  0.12273856311E+03  0.00000000000E+00 0.  1.
         22    1    3    3    0    0 -0.60034941082E+02 -0.83554942872E+02  0.26128336183E+03  0.28081064403E+03  0.00000000000E+00 0.  1.
</event>
<event>
 7    1  0.6888820E-006  0.9805002E+02  0.7818608E-02  0.1305111E+00
          2   -1    0    0  502    0  0.00000000000E+00  0.00000000000E+00  0.79606844338E+03  0.79606844338E+03  0.00000000000E+00 0. -1.
          1   -1    0    0  501    0 -0.00000000000E+00 -0.00000000000E+00 -0.18892987839E+04  0.18892987839E+04  0.00000000000E+00 0. -1.
         25    2    1    2    0    0 -0.14041725208E+03 -0.48617387299E+02  0.33748699283E+03  0.38936310116E+03  0.12500199673E+03 0.  0.
          2    1    1    2  501    0  0.96068739542E+02 -0.19066132501E+02 -0.18582761429E+04  0.18608554332E+04  0.00000000000E+00 0. -1.
          1    1    1    2  502    0  0.44348512534E+02  0.67683519800E+02  0.42755880948E+03  0.43514869295E+03  0.00000000000E+00 0. -1.
         22    1    3    3    0    0 -0.97179966484E+02 -0.59108715366E+02  0.32320397746E+03  0.34263478685E+03  0.00000000000E+00 0. -1.
         22    1    3    3    0    0 -0.43237285591E+02  0.10491328067E+02  0.14283015378E+02  0.46728314309E+02  0.00000000000E+00 0. -1.
</event>
<event>
 7    1  0.6888820E-006  0.2324485E+03  0.7818608E-02  0.1294583E+00
          2   -1    0    0  502    0  0.00000000000E+00  0.00000000000E+00  0.20567511603E+04  0.20567511603E+04  0.00000000000E+00 0. -1.
          1   -1    0    0  501    0 -0.00000000000E+00 -0.00000000000E+00 -0.48506861836E+03  0.48506861836E+03  0.00000000000E+00 0. -1.
         25    2    1    2    0    0 -0.18738620280E+03  0.14003766578E+03  0.68406421840E+02  0.27391296030E+03  0.12499893774E+03 0.  0.
          2    1    1    2  501    0 -0.18829188810E+02 -0.32559583981E+02 -0.37419933313E+03  0.37608483854E+03  0.00000000000E+00 0. -1.
          1    1    1    2  502    0  0.20621539161E+03 -0.10747808180E+03  0.18774754533E+04  0.18918219799E+04  0.00000000000E+00 0. -1.
         22    1    3    3    0    0 -0.41633650531E+02  0.85578573986E+02  0.70282055705E+02  0.11830731396E+03  0.00000000000E+00 0.  1.
         22    1    3    3    0    0 -0.14575255227E+03  0.54459091793E+02 -0.18756338650E+01  0.15560564634E+03  0.00000000000E+00 0.  1.
</event>
<event>
 7    1  0.6888820E-006  0.4297293E+02  0.7818608E-02  0.1572794E+00
          2   -1    0    0  502    0  0.00000000000E+00  0.00000000000E+00  0.24400441409E+04  0.24400441409E+04  0.00000000000E+00 0. -1.
          1   -1    0    0  501    0 -0.00000000000E+00 -0.00000000000E+00 -0.12388335255E+04  0.12388335255E+04  0.00000000000E+00 0. -1.
         25    2    1    2    0    0  0.59948018487E+02  0.29790373846E+02  0.40662805995E+02  0.14751221251E+03  0.12500063101E+03 0.  0.
          2    1    1    2  501    0 -0.23241837841E+02 -0.76126876992E+01 -0.11850866492E+04  0.11853389820E+04  0.00000000000E+00 0. -1.
          1    1    1    2  502    0 -0.36706180646E+02 -0.22177686147E+02  0.23456344587E+04  0.23460264720E+04  0.00000000000E+00 0. -1.
         22    1    3    3    0    0 -0.10781740746E+02  0.12966873319E+01 -0.37066768316E+02  0.38624767248E+02  0.00000000000E+00 0. -1.
         22    1    3    3    0    0  0.70729759233E+02  0.28493686514E+02  0.77729574310E+02  0.10888744526E+03  0.00000000000E+00 0. -1.
</event>
<event>
 7    1  0.6888820E-006  0.2996763E+02  0.7818608E-02  0.1602673E+00
          2   -1    0    0  502    0  0.00000000000E+00  0.00000000000E+00  0.59153753915E+03  0.59153753915E+03  0.00000000000E+00 0. -1.
          1   -1    0    0  501    0 -0.00000000000E+00 -0.00000000000E+00 -0.15006720484E+03  0.15006720484E+03  0.00000000000E+00 0. -1.
         25    2    1    2    0    0  0.38675543152E+02 -0.38697047776E+02  0.14083836205E+03  0.19609544852E+03  0.12499888623E+03 0.  0.
          2    1    1    2  501    0 -0.11767999234E+02  0.27314975231E+02 -0.12011840033E+03  0.12374580307E+03  0.00000000000E+00 0. -1.
          1    1    1    2  502    0 -0.26907543918E+02  0.11382072545E+02  0.42075037258E+03  0.42176349240E+03  0.00000000000E+00 0. -1.
         22    1    3    3    0    0  0.20047514654E+02  0.19444089551E+02  0.13137896043E+03  0.13431458114E+03  0.00000000000E+00 0.  1.
         22    1    3    3    0    0  0.18628028498E+02 -0.58141137328E+02  0.94594016229E+01  0.61780867383E+02  0.00000000000E+00 0.  1.
</event>
<event>
 7    1  0.6888820E-006  0.9706608E+02  0.7818608E-02  0.1406678E+00
          2   -1    0    0  502    0  0.00000000000E+00  0.00000000000E+00  0.19453311679E+03  0.19453311679E+03  0.00000000000E+00 0. -1.
          1   -1    0    0  501    0 -0.00000000000E+00 -0.00000000000E+00 -0.23411473869E+04  0.23411473869E+04  0.00000000000E+00 0. -1.
         25    2    1    2    0    0  0.39825038907E+02  0.87596506902E+02 -0.28538997705E+03  0.32608774441E+03  0.12500638507E+03 0.  0.
          2    1    1    2  501    0  0.29048449975E+02 -0.18774115471E+02 -0.20216426414E+04  0.20219384880E+04  0.00000000000E+00 0. -1.
          1    1    1    2  502    0 -0.68873488883E+02 -0.68822391431E+02  0.16041834834E+03  0.18765427125E+03  0.00000000000E+00 0. -1.
         22    1    3    3    0    0  0.48018660433E+01 -0.21094271824E+02 -0.34600464746E+01  0.21908859917E+02  0.00000000000E+00 0. -1.
         22    1    3    3    0    0  0.35023172864E+02  0.10869077873E+03 -0.28192993058E+03  0.30417888449E+03  0.00000000000E+00 0. -1.
</event>
<event>
 7    1  0.6888820E-006  0.8789600E+02  0.7818608E-02  0.1372800E+00
          2   -1    0    0  502    0  0.00000000000E+00  0.00000000000E+00  0.24925003468E+04  0.24925003468E+04  0.00000000000E+00 0. -1.
          1   -1    0    0  501    0 -0.00000000000E+00 -0.00000000000E+00 -0.59749637490E+03  0.59749637490E+03  0.00000000000E+00 0. -1.
         25    2    1    2    0    0  0.79111665394E+02  0.28825460065E+02  0.73326123988E+02  0.16760860688E+03  0.12500544745E+03 0.  0.
          2    1    1    2  501    0  0.65810119119E+01 -0.49719592916E+02 -0.54839047933E+03  0.55067909481E+03  0.00000000000E+00 0. -1.
          1    1    1    2  502    0 -0.85692677305E+02  0.20894132851E+02  0.23700683272E+04  0.23717090200E+04  0.00000000000E+00 0. -1.
         22    1    3    3    0    0  0.32885377335E+01  0.43476946737E+02  0.78938170900E+02  0.90179233769E+02  0.00000000000E+00 0. -1.
         22    1    3    3    0    0  0.75823127660E+02 -0.14651486672E+02 -0.56120469122E+01  0.77429373111E+02  0.00000000000E+00 0. -1.
</event>
<event>
 7    1  0.6888820E-006  0.2472734E+03  0.7818608E-02  0.1154755E+00
          2   -1    0    0  502    0  0.00000000000E+00  0.00000000000E+00  0.38074117263E+03  0.38074117263E+03  0.00000000000E+00 0. -1.
          1   -1    0    0  501    0 -0.00000000000E+00 -0.00000000000E+00 -0.13372669768E+04  0.13372669768E+04  0.00000000000E+00 0. -1.
         25    2    1    2    0    0  0.32567801445E+02 -0.30191260519E+03  0.96669638000E+02  0.34231701955E+03  0.12499616033E+03 0.  0.
          2    1    1    2  501    0  0.95751881739E+02  0.11865085685E+03 -0.11291739859E+04  0.11394210543E+04  0.00000000000E+00 0. -1.
          1    1    1    2  502    0 -0.12831968318E+03  0.18326174835E+03  0.75978543697E+02  0.23627007555E+03  0.00000000000E+00 0. -1.
         22    1    3    3    0    0  0.79557837813E+02 -0.15781578511E+03  0.48184767029E+02  0.18318581648E+03  0.00000000000E+00 0.  1.
         22    1    3    3    0    0 -0.46990036368E+02 -0.14409682008E+03  0.48484870971E+02  0.15913120307E+03  0.00000000000E+00 0.  1.
</event>
<event>
 7    1  0.6888820E-006  0.2741905E+02  0.7818608E-02  0.1630265E+00
          2   -1    0    0  502    0  0.00000000000E+00  0.00000000000E+00  0.18633966094E+04  0.18633966094E+04  0.00000000000E+00 0. -1.
          1   -1    0    0  501    0 -0.00000000000E+00 -0.00000000000E+00 -0.29139886698E+03  0.29139886698E+03  0.00000000000E+00 0. -1.
         25    2    1    2    0    0  0.69730233943E+01  0.21874796301E+00  0.55738382735E+03  0.57126824880E+03  0.12498804019E+03 0.  0.
          2    1    1    2  501    0  0.66648968540E+00 -0.27132641228E+02 -0.28365821118E+03  0.28495368957E+03  0.00000000000E+00 0. -1.
          1    1    1    2  502    0 -0.76395130796E+01  0.26913893265E+02  0.12982721262E+04  0.12985735380E+04  0.00000000000E+00 0. -1.
         22    1    3    3    0    0  0.37816589523E+02  0.40881320169E+02  0.43669653689E+03  0.44023316789E+03  0.00000000000E+00 0. -1.
         22    1    3    3    0    0 -0.30843566129E+02 -0.40662572206E+02  0.12068729046E+03  0.13103508091E+03  0.00000000000E+00 0. -1.
</event>
<event>
 7    1  0.6888820E-006  0.7205415E+02  0.7818608E-02  0.1369796E+00
          2   -1    0    0  502    0  0.00000000000E+00  0.00000000000E+00  0.32296410392E+03  0.32296410392E+03  0.00000000000E+00 0. -1.
          1   -1    0    0  501    0 -0.00000000000E+00 -0.00000000000E+00 -0.32710292937E+03  0.32710292937E+03  0.00000000000E+00 0. -1.
         25    2    1    2    0    0 -0.10886515642E+03  0.34981981508E+02  0.10153922454E+03  0.19750996265E+03  0.12499843964E+03 0.  0.
          2    1    1    2  501    0  0.42228245834E+02 -0.46370749189E+02 -0.26877980475E+03  0.27600009886E+03  0.00000000000E+00 0. -1.
          1    1    1    2  502    0  0.66636910588E+02  0.11388767681E+02  0.16310175476E+03  0.17655697179E+03  0.00000000000E+00 0. -1.
         22    1    3    3    0    0  0.27858727810E+02 -0.12990403938E+01  0.18792438109E+02  0.33629629068E+02  0.00000000000E+00 0. -1.
         22    1    3    3    0    0 -0.13672388423E+03  0.36281021902E+02  0.82746786431E+02  0.16388033358E+03  0.00000000000E+00 0. -1.
</event>
<event>
 7    1  0.6888820E-006  0.5223094E+02  0.7818608E-02  0.1513132E+00
          2   -1    0    0  502    0  0.00000000000E+00  0.00000000000E+00  0.10002777397E+04  0.10002777397E+04  0.00000000000E+00 0. -1.
          1   -1    0    0  501    0 -0.00000000000E+00 -0.00000000000E+00 -0.30829546078E+03  0.30829546078E+03  0.00000000000E+00 0. -1.
         25    2    1    2    0    0  0.44025119875E+02  0.22688442859E+02  0.48848320613E+03  0.50664309163E+03  0.12497360925E+03 0.  0.
          2    1    1    2  501    0  0.94811152465E+01 -0.28071318557E+02 -0.29703822696E+03  0.29851230921E+03  0.00000000000E+00 0. -1.
          1    1    1    2  502    0 -0.53506235122E+02  0.53828756979E+01  0.50053729971E+03  0.50341779959E+03  0.00000000000E+00 0. -1.
         22    1    3    3    0    0  0.52302326712E+02  0.59832002518E+02  0.19302079356E+03  0.20874009833E+03  0.00000000000E+00 0.  1.
         22    1    3    3    0    0 -0.82772068374E+01 -0.37143559659E+02  0.29546241256E+03  0.29790299330E+03  0.00000000000E+00 0.  1.
</event>
<event>
 7    1  0.6888820E-006  0.7057559E+02  0.7818608E-02  0.1421321E+00
          2   -1    0    0  502    0  0.00000000000E+00  0.00000000000E+00  0.56026864207E+03  0.56026864207E+03  0.00000000000E+00 0. -1.
          1   -1    0    0  501    0 -0.00000000000E+00 -0.00000000000E+00 -0.42026868990E+03  0.42026868990E+03  0.00000000000E+00 0. -1.
         25    2    1    2    0    0 -0.51845155518E+02 -0.87042535030E+02  0.23393814448E+03  0.28392987817E+03  0.12499918888E+03 0.  0.
          2    1    1    2  501    0  0.54266557028E+02  0.44650285362E+02 -0.39062580756E+03  0.39689674819E+03  0.00000000000E+00 0. -1.
          1    1    1    2  502    0 -0.24214015100E+01  0.42392249668E+02  0.29668761524E+03  0.29971070561E+03  0.00000000000E+00 0. -1.
         22    1    3    3    0    0 -0.45425448841E+02 -0.53119140390E+02  0.28286974512E+02  0.75400712233E+02  0.00000000000E+00 0. -1.
         22    1    3    3    0    0 -0.64197066772E+01 -0.33923394640E+02  0.20565116997E+03  0.20852916594E+03  0.00000000000E+00 0. -1.
</event>
<event>
 7    1  0.6888820E-006  0.3787534E+03  0.7818608E-02  0.1204416E+00
          2   -1    0    0  502    0  0.00000000000E+00  0.00000000000E+00  0.84159659979E+03  0.84159659979E+03  0.00000000000E+00 0. -1.
          1   -1    0    0  501    0 -0.00000000000E+00 -0.00000000000E+00 -0.25991242755E+04  0.25991242755E+04  0.00000000000E+00 0. -1.
         25    2    1    2    0    0  0.34112806221E+03  0.12949900380E+03 -0.84100747502E+03  0.92523319913E+03  0.12499821169E+03 0.  0.
          2    1    1    2  501    0 -0.33936787154E+03 -0.18639736103E+03 -0.16931082319E+04  0.17368160563E+04  0.00000000000E+00 0. -1.
          1    1    1    2  502    0 -0.17601906668E+01  0.56898357232E+02  0.77658803123E+03  0.77867161986E+03  0.00000000000E+00 0. -1.
         22    1    3    3    0    0  0.24050208585E+03  0.56320270466E+02 -0.66740815615E+03  0.71165080837E+03  0.00000000000E+00 0. -1.
         22    1    3    3    0    0  0.10062597636E+03  0.73178733330E+02 -0.17359931887E+03  0.21358239076E+03  0.00000000000E+00 0. -1.
</event>
<event>
 7    1  0.6888820E-006  0.4145245E+02  0.7818608E-02  0.1550740E+00
          2   -1    0    0  502    0  0.00000000000E+00  0.00000000000E+00  0.48943020971E+03  0.48943020971E+03  0.00000000000E+00 0. -1.
          1   -1    0    0  501    0 -0.00000000000E+00 -0.00000000000E+00 -0.10367898212E+03  0.10367898212E+03  0.00000000000E+00 0. -1.
         25    2    1    2    0    0 -0.18407005723E+02 -0.39964293160E+02  0.77612260804E+02  0.15356999715E+03  0.12499647359E+03 0.  0.
          2    1    1    2  501    0 -0.10737245952E+02  0.40460821036E+02 -0.58394226332E+02  0.71848814594E+02  0.00000000000E+00 0. -1.
          1    1    1    2  502    0  0.29144251675E+02 -0.49652787633E+00  0.36653319312E+03  0.36769038008E+03  0.00000000000E+00 0. -1.
         22    1    3    3    0    0  0.27154990735E+00 -0.82745152547E+02  0.64979519305E+02  0.10521013230E+03  0.00000000000E+00 0.  1.
         22    1    3    3    0    0 -0.18678555630E+02  0.42780859387E+02  0.12632741499E+02  0.48359864848E+02  0.00000000000E+00 0.  1.
</event>
<event>
 7    1  0.6888820E-006  0.7873033E+02  0.7818608E-02  0.1431198E+00
          2   -1    0    0  502    0  0.00000000000E+00  0.00000000000E+00  0.33501392839E+03  0.33501392839E+03  0.00000000000E+00 0. -1.
          1   -1    0    0  501    0 -0.00000000000E+00 -0.00000000000E+00 -0.69352852722E+03  0.69352852722E+03  0.00000000000E+00 0. -1.
         25    2    1    2    0    0  0.30814421321E+02  0.85496155376E+02 -0.22119846926E+03  0.26983874620E+03  0.12500026000E+03 0.  0.
          2    1    1    2  501    0  0.36361547344E+01 -0.77784436605E+02 -0.44360467776E+03  0.45038733367E+03  0.00000000000E+00 0. -1.
          1    1    1    2  502    0 -0.34450576055E+02 -0.77117187707E+01  0.30628854819E+03  0.30831637574E+03  0.00000000000E+00 0. -1.
         22    1    3    3    0    0 -0.39453010188E+02  0.53774249398E+02 -0.15301101372E+03  0.16691488919E+03  0.00000000000E+00 0.  1.
         22    1    3    3    0    0  0.70267431508E+02  0.31721905978E+02 -0.68187455537E+02  0.10292385701E+03  0.00000000000E+00 0.  1.
</event>
<event>
 7    1  0.6888820E-006  0.4651580E+02  0.7818608E-02  0.1578490E+00
          2   -1    0    0  502    0  0.00000000000E+00  0.00000000000E+00  0.25646109878E+03  0.25646109878E+03  0.00000000000E+00 0. -1.
          1   -1    0    0  501    0 -0.00000000000E+00 -0.00000000000E+00 -0.39544058963E+03  0.39544058963E+03  0.00000000000E+00 0. -1.
         25    2    1    2    0    0  0.20918252461E+02  0.52760930773E+02  0.78329277510E+02  0.15805908450E+03  0.12500363744E+03 0.  0.
          2    1    1    2  501    0 -0.47184304269E-01 -0.46434447037E+02 -0.35318647091E+03  0.35622583193E+03  0.00000000000E+00 0. -1.
          1    1    1    2  502    0 -0.20871068157E+02 -0.63264837360E+01  0.13587770255E+03  0.13761677199E+03  0.00000000000E+00 0. -1.
         22    1    3    3    0    0  0.37977754682E+01  0.88214319536E+02  0.79296404275E+02  0.11867648883E+03  0.00000000000E+00 0.  1.
         22    1    3    3    0    0  0.17120476993E+02 -0.35453388763E+02 -0.96712676454E+00  0.39382595667E+02  0.00000000000E+00 0.  1.
</event>
<event>
 7    1  0.6888820E-006  0.1711300E+03  0.7818608E-02  0.1359620E+00
          2   -1    0    0  502    0  0.00000000000E+00  0.00000000000E+00  0.49413496121E+03  0.49413496121E+03  0.00000000000E+00 0. -1.
          1   -1    0    0  501    0 -0.00000000000E+00 -0.00000000000E+00 -0.75181524864E+03  0.75181524864E+03  0.00000000000E+00 0. -1.
         25    2    1    2    0    0  0.95213947654E+02  0.13175111775E+03 -0.16527051513E+03  0.26335383213E+03  0.12496737522E+03 0.  0.
          2    1    1    2  501    0  0.26746087116E+02 -0.10537895604E+02 -0.52048449356E+03  0.52127776516E+03  0.00000000000E+00 0. -1.
          1    1    1    2  502    0 -0.12196003477E+03 -0.12121322215E+03  0.42807472126E+03  0.46131861255E+03  0.00000000000E+00 0. -1.
         22    1    3    3    0    0  0.51410620940E+02 -0.11709674680E+02 -0.61234279835E+02  0.80807211643E+02  0.00000000000E+00 0. -1.
         22    1    3    3    0    0  0.43803326714E+02  0.14346079243E+03 -0.10403623530E+03  0.18254662049E+03  0.00000000000E+00 0. -1.
</event>
<event>
 7    1  0.6888820E-006  0.5187102E+02  0.7818608E-02  0.1476348E+00
          2   -1    0    0  502    0  0.00000000000E+00  0.00000000000E+00  0.14522947619E+04  0.14522947619E+04  0.00000000000E+00 0. -1.
          1   -1    0    0  501    0 -0.00000000000E+00 -0.00000000000E+00 -0.37247305668E+03  0.37247305668E+03  0.00000000000E+00 0. -1.
         25    2    1    2    0    0  0.18342079239E+02 -0.65051040075E+02  0.52567657722E+03  0.54454518669E+03  0.12500210727E+03 0.  0.
          2    1    1    2  501    0 -0.34874122399E+02  0.16278092814E+02 -0.36129302561E+03  0.36333707638E+03  0.00000000000E+00 0. -1.
          1    1    1    2  502    0  0.16532043160E+02  0.48772947261E+02  0.91543815357E+03  0.91688555548E+03  0.00000000000E+00 0. -1.
         22    1    3    3    0    0  0.45305643307E+02 -0.62968053232E+02  0.15942083574E+03  0.17729235717E+03  0.00000000000E+00 0. -1.
         22    1    3    3    0    0 -0.26963564068E+02 -0.20829868429E+01  0.36625574148E+03  0.36725282952E+03  0.00000000000E+00 0. -1.
</event>
<event>
 7    1  0.6888820E-006  0.2617870E+02  0.7818608E-02  0.1664546E+00
          2   -1    0    0  502    0  0.00000000000E+00  0.00000000000E+00  0.34186477711E+03  0.34186477711E+03  0.00000000000E+00 0. -1.
          1   -1    0    0  501    0 -0.00000000000E+00 -0.00000000000E+00 -0.56861134183E+02  0.56861134183E+02  0.00000000000E+00 0. -1.
         25    2    1    2    0    0 -0.40432080428E+02 -0.26820727688E+02  0.99003533065E+02  0.16667155912E+03  0.12499441787E+03 0.  0.
          2    1    1    2  501    0  0.21281627473E+02  0.97500331895E+01 -0.16049649644E+02  0.28382425351E+02  0.00000000000E+00 0. -1.
          1    1    1    2  502    0  0.19150452954E+02  0.17070694498E+02  0.20204975951E+03  0.20367192682E+03  0.00000000000E+00 0. -1.
         22    1    3    3    0    0  0.73545232642E+01 -0.31537574066E+02  0.11227541999E+03  0.11685237492E+03  0.00000000000E+00 0. -1.
         22    1    3    3    0    0 -0.47786603692E+02  0.47168463778E+01 -0.13271886923E+02  0.49819184203E+02  0.00000000000E+00 0. -1.
</event>
<event>
 7    1  0.6888820E-006  0.7920239E+02  0.7818608E-02  0.1345499E+00
          2   -1    0    0  502    0  0.00000000000E+00  0.00000000000E+00  0.11237412308E+04  0.11237412308E+04  0.00000000000E+00 0. -1.
          1   -1    0    0  501    0 -0.00000000000E+00 -0.00000000000E+00 -0.30368645630E+03  0.30368645630E+03  0.00000000000E+00 0. -1.
         25    2    1    2    0    0  0.34648459962E+02  0.83575079941E+02  0.16564832530E+03  0.22637649859E+03  0.12498656597E+03 0.  0.
          2    1    1    2  501    0  0.34409882092E+02 -0.71930237281E+02 -0.26614839311E+03  0.27783622185E+03  0.00000000000E+00 0. -1.
          1    1    1    2  502    0 -0.69058342054E+02 -0.11644842660E+02  0.92055484234E+03  0.92321496669E+03  0.00000000000E+00 0. -1.
         22    1    3    3    0    0  0.43940897268E+02 -0.97891091984E+00  0.12421004095E+03  0.13175695424E+03  0.00000000000E+00 0. -1.
         22    1    3    3    0    0 -0.92924373057E+01  0.84553990861E+02  0.41438284349E+02  0.94619544341E+02  0.00000000000E+00 0. -1.
</event>
<event>
 7    1  0.6888820E-006  0.8896993E+02  0.7818608E-02  0.1363059E+00
          2   -1    0    0  502    0  0.00000000000E+00  0.00000000000E+00  0.28118689821E+04  0.28118689821E+04  0.00000000000E+00 0. -1.
          1   -1    0    0  501    0 -0.00000000000E+00 -0.00000000000E+00 -0.58008605934E+03  0.58008605934E+03  0.00000000000E+00 0. -1.
         25    2    1    2    0    0 -0.48310396388E+02  0.10505826871E+03  0.25134977088E+02  0.17212740646E+03  0.12499977103E+03 0.  0.
          2    1    1    2  501    0  0.51196391821E+02 -0.16279828958E+02 -0.50443614853E+03  0.50728880463E+03  0.00000000000E+00 0. -1.
          1    1    1    2  502    0 -0.28859954329E+01 -0.88778439752E+02  0.27110840942E+04  0.27125388303E+04  0.00000000000E+00 0. -1.
         22    1    3    3    0    0 -0.62757951889E+02  0.10589228071E+03  0.58107854455E+02  0.13611854535E+03  0.00000000000E+00 0.  1.
         22    1    3    3    0    0  0.14447555501E+02 -0.83401200388E+00 -0.32972877367E+02  0.36008861102E+02  0.00000000000E+00 0.  1.
</event>
<event>
 7    1  0.6888820E-006  0.8794827E+02  0.7818608E-02  0.1436570E+00
          2   -1    0    0  502    0  0.00000000000E+00  0.00000000000E+00  0.19883638373E+03  0.19883638373E+03  0.00000000000E+00 0. -1.
          1   -1    0    0  501    0 -0.00000000000E+00 -0.00000000000E+00 -0.88308118807E+03  0.88308118807E+03  0.00000000000E+00 0. -1.
         25    2    1    2    0    0  0.61009801306E+02 -0.45672921465E+02 -0.20303700501E+03  0.25031477416E+03  0.12500099660E+03 0.  0.
          2    1    1    2  501    0 -0.50793360389E+02  0.74250306160E+02 -0.65197877914E+03  0.65815606194E+03  0.00000000000E+00 0. -1.
          1    1    1    2  502    0 -0.10216440917E+02 -0.28577384695E+02  0.17077097980E+03  0.17344673570E+03  0.00000000000E+00 0. -1.
         22    1    3    3    0    0  0.26780769057E+02  0.31852772838E+02 -0.13610579438E+03  0.14232566877E+03  0.00000000000E+00 0.  1.
         22    1    3    3    0    0  0.34229032249E+02 -0.77525694303E+02 -0.66931210633E+02  0.10798910539E+03  0.00000000000E+00 0.  1.
</event>
<event>
 7    1  0.6888820E-006  0.1142246E+03  0.7818608E-02  0.1396383E+00
          2   -1    0    0  502    0  0.00000000000E+00  0.00000000000E+00  0.22163886112E+03  0.22163886112E+03  0.00000000000E+00 0. -1.
          1   -1    0    0  501    0 -0.00000000000E+00 -0.00000000000E+00 -0.83930170955E+03  0.83930170955E+03  0.00000000000E+00 0. -1.
         25    2    1    2    0    0 -0.13305580118E+03 -0.64796601575E+01 -0.45224444650E+03  0.48774558126E+03  0.12499952171E+03 0.  0.
          2    1    1    2  501    0  0.23022472094E+02 -0.22055121567E+02 -0.35268764588E+03  0.35412573779E+03  0.00000000000E+00 0. -1.
          1    1    1    2  502    0  0.11003332908E+03  0.28534781725E+02  0.18726924395E+03  0.21906925162E+03  0.00000000000E+00 0. -1.
         22    1    3    3    0    0 -0.13051683363E+02 -0.29735705640E+02 -0.19080429038E+02  0.37664590809E+02  0.00000000000E+00 0.  1.
         22    1    3    3    0    0 -0.12000411782E+03  0.23256045483E+02 -0.43316401746E+03  0.45008099045E+03  0.00000000000E+00 0.  1.
</event>
<event>
 7    1  0.6888820E-006  0.1623279E+03  0.7818608E-02  0.1338317E+00
          2   -1    0    0  502    0  0.00000000000E+00  0.00000000000E+00  0.68244744023E+03  0.68244744023E+03  0.00000000000E+00 0. -1.
          1   -1    0    0  501    0 -0.00000000000E+00 -0.00000000000E+00 -0.21714701795E+03  0.21714701795E+03  0.00000000000E+00 0. -1.
         25    2    1    2    0    0 -0.62102860708E+02 -0.14697260380E+03 -0.75422060859E+02  0.21626652166E+03  0.12500003820E+03 0.  0.
          2    1    1    2  501    0 -0.33151393764E+02  0.14927276586E+02 -0.54903163296E+02  0.65849797529E+02  0.00000000000E+00 0. -1.
          1    1    1    2  502    0  0.95254254472E+02  0.13204532722E+03  0.59562564643E+03  0.61747813899E+03  0.00000000000E+00 0. -1.
         22    1    3    3    0    0 -0.10530739157E+02  0.22029500709E+02 -0.71760491692E+00  0.24427654932E+02  0.00000000000E+00 0. -1.
         22    1    3    3    0    0 -0.51572121551E+02 -0.16900210451E+03 -0.74704455942E+02  0.19183886673E+03  0.00000000000E+00 0. -1.
</event>
<event>
 7    1  0.6888820E-006  0.6235962E+02  0.7818608E-02  0.1430234E+00
          2   -1    0    0  502    0  0.00000000000E+00  0.00000000000E+00  0.13893635802E+04  0.13893635802E+04  0.00000000000E+00 0. -1.
          1   -1    0    0  501    0 -0.00000000000E+00 -0.00000000000E+00 -0.21402238187E+02  0.21402238187E+02  0.00000000000E+00 0. -1.
         25    2    1    2    0    0  0.26900677664E+02  0.35628888133E+02  0.46830029351E+03  0.48674642478E+03  0.12499541194E+03 0.  0.
          2    1    1    2  501    0  0.42513416459E+01 -0.67960731004E+02  0.88732816019E+02  0.11184921771E+03  0.00000000000E+00 0. -1.
          1    1    1    2  502    0 -0.31152019310E+02  0.32331842871E+02  0.81092823251E+03  0.81217017592E+03  0.00000000000E+00 0. -1.
         22    1    3    3    0    0 -0.26309387228E+02 -0.28872906661E+02  0.73993345656E+02  0.83671045151E+02  0.00000000000E+00 0.  1.
         22    1    3    3    0    0  0.53210064892E+02  0.64501794794E+02  0.39430694785E+03  0.40307537963E+03  0.00000000000E+00 0.  1.
</event>
<event>
 7    1  0.6888820E-006  0.3156322E+02  0.7818608E-02  0.1595926E+00
          2   -1    0    0  502    0  0.00000000000E+00  0.00000000000E+00  0.76110717951E+03  0.76110717951E+03  0.00000000000E+00 0. -1.
          1   -1    0    0  501    0 -0.00000000000E+00 -0.00000000000E+00 -0.35897683324E+02  0.35897683324E+02  0.00000000000E+00 0. -1.
         25    2    1    2    0    0  0.52303278190E+02  0.67541673118E+01  0.50137385577E+03  0.51940527476E+03  0.12499937806E+03 0.  0.
          2    1    1    2  501    0 -0.27273226476E+02  0.95262168100E+01 -0.17927476619E+02  0.33999589807E+02  0.00000000000E+00 0. -1.
          1    1    1    2  502    0 -0.25030051714E+02 -0.16280384122E+02  0.24176311703E+03  0.24359999826E+03  0.00000000000E+00 0. -1.
         22    1    3    3    0    0  0.37437888457E+02  0.22260385221E+02  0.49512076252E+03  0.49703288595E+03  0.00000000000E+00 0. -1.
         22    1    3    3    0    0  0.14865389733E+02 -0.15506217909E+02  0.62530932506E+01  0.22372388808E+02  0.00000000000E+00 0. -1.
</event>
<event>
 7    1  0.6888820E-006  0.1634189E+03  0.7818608E-02  0.1234122E+00
          2   -1    0    0  502    0  0.00000000000E+00  0.00000000000E+00  0.12528042112E+04  0.12528042112E+04  0.00000000000E+00 0. -1.
          1   -1    0    0  501    0 -0.00000000000E+00 -0.00000000000E+00 -0.53110527909E+03  0.53110527909E+03  0.00000000000E+00 0. -1.
         25    2    1    2    0    0 -0.14320442215E+03  0.14532699374E+03  0.58921806152E+03  0.63594043899E+03  0.12495949858E+03 0.  0.
          2    1    1    2  501    0  0.96544621225E+02  0.53243480892E+00 -0.49384455478E+03  0.50319339389E+03  0.00000000000E+00 0. -1.
          1    1    1    2  502    0  0.46659800928E+02 -0.14585942855E+03  0.62632542540E+03  0.64477565744E+03  0.00000000000E+00 0. -1.
         22    1    3    3    0    0 -0.13495812430E+03  0.51271663087E+02  0.37544557752E+03  0.40224601978E+03  0.00000000000E+00 0.  1.
         22    1    3    3    0    0 -0.82462978491E+01  0.94055330654E+02  0.21377248400E+03  0.23369441921E+03  0.00000000000E+00 0.  1.
</event>
<event>
 7    1  0.6888820E-006  0.1171092E+03  0.7818608E-02  0.1289540E+00
          2   -1    0    0  502    0  0.00000000000E+00  0.00000000000E+00  0.21596959081E+04  0.21596959081E+04  0.00000000000E+00 0. -1.
          1   -1    0    0  501    0 -0.00000000000E+00 -0.00000000000E+00 -0.18503403327E+03  0.18503403327E+03  0.00000000000E+00 0. -1.
         25    2    1    2    0    0 -0.12713307176E+01  0.43412888848E+02  0.49392264781E+03  0.51134192896E+03  0.12499876438E+03 0.  0.
          2    1    1    2  501    0 -0.21933259472E+02 -0.11814720963E+03 -0.15480630910E+03  0.19597148861E+03  0.00000000000E+00 0. -1.
          1    1    1    2  502    0  0.23204590190E+02  0.74734320780E+02  0.16355455361E+04  0.16374165238E+04  0.00000000000E+00 0. -1.
         22    1    3    3    0    0 -0.30312608514E+02 -0.22845757879E+02  0.57073855320E+02  0.68543474154E+02  0.00000000000E+00 0.  1.
         22    1    3    3    0    0  0.29041277797E+02  0.66258646727E+02  0.43684879249E+03  0.44279845481E+03  0.00000000000E+00 0.  1.
</event>
<event>
 7    1  0.6888820E-006  0.1356876E+03  0.7818608E-02  0.1397544E+00
          2   -1    0    0  502    0  0.00000000000E+00  0.00000000000E+00  0.10268894226E+04  0.10268894226E+04  0.00000000000E+00 0. -1.
          1   -1    0    0  501    0 -0.00000000000E+00 -0.00000000000E+00 -0.26272494316E+03  0.26272494316E+03  0.00000000000E+00 0. -1.
         25    2    1    2    0    0 -0.37986212089E+01 -0.11304195309E+03 -0.78545974294E+02  0.18597438923E+03  0.12499636271E+03 0.  0.
          2    1    1    2  501    0  0.13047484760E+02 -0.23171220843E+02 -0.12426274078E+03  0.12707624121E+03  0.00000000000E+00 0. -1.
          1    1    1    2  502    0 -0.92488635513E+01  0.13621317393E+03  0.96697319450E+03  0.97656373530E+03  0.00000000000E+00 0. -1.
         22    1    3    3    0    0 -0.32096015310E+02 -0.11335013486E+03 -0.96649966841E+02  0.15237986534E+03  0.00000000000E+00 0.  1.
         22    1    3    3    0    0  0.28297394101E+02  0.30818177046E+00  0.18103992547E+02  0.33594523885E+02  0.00000000000E+00 0.  1.
</event>
<event>
 7    1  0.6888820E-006  0.1017224E+03  0.7818608E-02  0.1408408E+00
          2   -1    0    0  502    0  0.00000000000E+00  0.00000000000E+00  0.23223607063E+04  0.23223607063E+04  0.00000000000E+00 0. -1.
          1   -1    0    0  501    0 -0.00000000000E+00 -0.00000000000E+00 -0.13469381358E+03  0.13469381358E+03  0.00000000000E+00 0. -1.
         25    2    1    2    0    0 -0.76052180405E+02 -0.32175821956E+02  0.90595709152E+03  0.91826063225E+03  0.12500047763E+03 0.  0.
          2    1    1    2  501    0  0.10152706193E+03  0.11898398750E+02 -0.10799840358E+03  0.14870430852E+03  0.00000000000E+00 0. -1.
          1    1    1    2  502    0 -0.25474881523E+02  0.20277423206E+02  0.13897082047E+04  0.13900895791E+04  0.00000000000E+00 0. -1.
         22    1    3    3    0    0 -0.37662228830E+02 -0.45782451177E+02  0.15121896549E+03  0.16242429572E+03  0.00000000000E+00 0. -1.
         22    1    3    3    0    0 -0.38389951575E+02  0.13606629221E+02  0.75473812603E+03  0.75583633653E+03  0.00000000000E+00 0. -1.
</event>
<event>
 7    1  0.6888820E-006  0.9150846E+02  0.7818608E-02  0.1309547E+00
          2   -1    0    0  502    0  0.00000000000E+00  0.00000000000E+00  0.11430288632E+04  0.11430288632E+04  0.00000000000E+00 0. -1.
          1   -1    0    0  501    0 -0.00000000000E+00 -0.00000000000E+00 -0.75305477529E+02  0.75305477529E+02  0.00000000000E+00 0. -1.
         25    2    1    2    0    0  0.60919204063E+02  0.11351193900E+02  0.20923881489E+03  0.25148420503E+03  0.12499369863E+03 0.  0.
          2    1    1    2  501    0 -0.49911070936E+02  0.79492736162E+02 -0.92375607769E+01  0.94316184367E+02  0.00000000000E+00 0. -1.
          1    1    1    2  502    0 -0.11008133128E+02 -0.90843930062E+02  0.86772213156E+03  0.87253395133E+03  0.00000000000E+00 0. -1.
         22    1    3    3    0    0  0.33261034205E+00  0.48194584688E+02  0.15467959386E+03  0.16201421351E+03  0.00000000000E+00 0.  1.
         22    1    3    3    0    0  0.60586593721E+02 -0.36843390788E+02  0.54559221026E+02  0.89469991520E+02  0.00000000000E+00 0.  1.
</event>
<event>
 7    1  0.6888820E-006  0.6949270E+02  0.7818608E-02  0.1445266E+00
          2   -1    0    0  502    0  0.00000000000E+00  0.00000000000E+00  0.39085540794E+03  0.39085540794E+03  0.00000000000E+00 0. -1.
          1   -1    0    0  501    0 -0.00000000000E+00 -0.00000000000E+00 -0.41005370964E+03  0.41005370964E+03  0.00000000000E+00 0. -1.
         25    2    1    2    0    0  0.13645507652E-01  0.10384494814E+03 -0.51617203134E+02  0.17050858241E+03  0.12500027030E+03 0.  0.
          2    1    1    2  501    0 -0.51168772381E+01 -0.35629478160E+02 -0.29435285278E+03  0.29654551773E+03  0.00000000000E+00 0. -1.
          1    1    1    2  502    0  0.51032317304E+01 -0.68215469981E+02  0.32677175421E+03  0.33385501744E+03  0.00000000000E+00 0. -1.
         22    1    3    3    0    0  0.54184537425E+02  0.62186365161E+02  0.37366851502E+01  0.82565555311E+02  0.00000000000E+00 0.  1.
         22    1    3    3    0    0 -0.54170891918E+02  0.41658582981E+02 -0.55353888284E+02  0.87943027099E+02  0.00000000000E+00 0.  1.
</event>
<event>
 7    1  0.6888820E-006  0.1631934E+03  0.7818608E-02  0.1299699E+00
          2   -1    0    0  502    0  0.00000000000E+00  0.00000000000E+00  0.36843894081E+03  0.36843894081E+03  0.00000000000E+00 0. -1.
          1   -1    0    0  501    0 -0.00000000000E+00 -0.00000000000E+00 -0.98376090821E+03  0.98376090821E+03  0.00000000000E+00 0. -1.
         25    2    1    2    0    0  0.38745076552E+02 -0.11438042245E+03 -0.45489741576E+03  0.48697114604E+03  0.12500070481E+03 0.  0.
          2    1    1    2  501    0  0.41490745792E+02 -0.29819536710E+02 -0.49211270748E+03  0.49475812638E+03  0.00000000000E+00 0. -1.
          1    1    1    2  502    0 -0.80235822344E+02  0.14419995916E+03  0.33168815584E+03  0.37047057661E+03  0.00000000000E+00 0. -1.
         22    1    3    3    0    0  0.21202296461E+01 -0.35271736759E+02 -0.34448520460E+03  0.34629271863E+03  0.00000000000E+00 0.  1.
         22    1    3    3    0    0  0.36624846906E+02 -0.79108685694E+02 -0.11041221117E+03  0.14067842741E+03  0.00000000000E+00 0.  1.
</event>
<event>
 7    1  0.6888820E-006  0.1353568E+03  0.7818608E-02  0.1353364E+00
          2   -1    0    0  502    0  0.00000000000E+00  0.00000000000E+00  0.11888689113E+03  0.11888689113E+03  0.00000000000E+00 0. -1.
          1   -1    0    0  501    0 -0.00000000000E+00 -0.00000000000E+00 -0.25872412923E+04  0.25872412923E+04  0.00000000000E+00 0. -1.
         25    2    1    2    0    0 -0.97204928513E+02 -0.37258267561E+02 -0.44805300851E+03  0.47666926331E+03  0.12500044607E+03 0.  0.
          2    1    1    2  501    0 -0.24011788998E+02 -0.29860533769E+02 -0.20787313226E+04  0.20790844449E+04  0.00000000000E+00 0. -1.
          1    1    1    2  502    0  0.12121671751E+03  0.67118801330E+02  0.58429929904E+02  0.15037447524E+03  0.00000000000E+00 0. -1.
         22    1    3    3    0    0 -0.12538775583E+03 -0.45202477388E+02 -0.36061978047E+03  0.38446323536E+03  0.00000000000E+00 0.  1.
         22    1    3    3    0    0  0.28182827316E+02  0.79442098262E+01 -0.87433228041E+02  0.92206027953E+02  0.00000000000E+00 0.  1.
</event>
<event>
 7    1  0.6888820E-006  0.1244042E+03  0.7818608E-02  0.1296167E+00
          2   -1    0    0  502    0  0.00000000000E+00  0.00000000000E+00  0.72888557082E+03  0.72888557082E+03  0.00000000000E+00 0. -1.
          1   -1    0    0  501    0 -0.00000000000E+00 -0.00000000000E+00 -0.42235245529E+04  0.42235245529E+04  0.00000000000E+00 0. -1.
         25    2    1    2    0    0  0.47428970880E+02  0.62325028385E+02 -0.82686643624E+01  0.14773691187E+03  0.12499563143E+03 0.  0.
          2    1    1    2  501    0 -0.25139837667E+02  0.64527573190E+02 -0.41389377729E+04  0.41395170862E+04  0.00000000000E+00 0. -1.
          1    1    1    2  502    0 -0.22289133213E+02 -0.12685260158E+03  0.65256745515E+03  0.66515612566E+03  0.00000000000E+00 0. -1.
         22    1    3    3    0    0 -0.92040809418E+01  0.63983305340E+02  0.37651104349E+02  0.74807647516E+02  0.00000000000E+00 0. -1.
         22    1    3    3    0    0  0.56633051822E+02 -0.16582769551E+01 -0.45919768712E+02  0.72929264357E+02  0.00000000000E+00 0. -1.
</event>
<event>
 7    1  0.6888820E-006  0.7390366E+02  0.7818608E-02  0.1499815E+00
          2   -1    0    0  502    0  0.00000000000E+00  0.00000000000E+00  0.14518781890E+04  0.14518781890E+04  0.00000000000E+00 0. -1.
          1   -1    0    0  501    0 -0.00000000000E+00 -0.00000000000E+00 -0.43900240524E+02  0.43900240524E+02  0.00000000000E+00 0. -1.
         25    2    1    2    0    0  0.69875975503E+02  0.63435229623E+02  0.56571287739E+03  0.58699480702E+03  0.12500065409E+03 0.  0.
          2    1    1    2  501    0 -0.49432534165E+02 -0.53053714574E+02  0.66105795454E+01  0.72814640190E+02  0.00000000000E+00 0. -1.
          1    1    1    2  502    0 -0.20443441338E+02 -0.10381515049E+02  0.83565449158E+03  0.83596898235E+03  0.00000000000E+00 0. -1.
         22    1    3    3    0    0 -0.13275539117E+02 -0.91396290152E+01  0.28364862805E+03  0.28410617197E+03  0.00000000000E+00 0. -1.
         22    1    3    3    0    0  0.83151514620E+02  0.72574858639E+02  0.28206424933E+03  0.30288863505E+03  0.00000000000E+00 0. -1.
</event>
<event>
 7    1  0.6888820E-006  0.1167705E+03  0.7818608E-02  0.1305796E+00
          2   -1    0    0  502    0  0.00000000000E+00  0.00000000000E+00  0.67265900778E+03  0.67265900778E+03  0.00000000000E+00 0. -1.
          1   -1    0    0  501    0 -0.00000000000E+00 -0.00000000000E+00 -0.31230648293E+03  0.31230648293E+03  0.00000000000E+00 0. -1.
         25    2    1    2    0    0  0.25818454586E+02  0.55668495939E+02  0.31523661395E+03  0.34462152457E+03  0.12499719350E+03 0.  0.
          2    1    1    2  501    0 -0.22829234499E+01 -0.11895554815E+03 -0.28213716367E+03  0.30619767030E+03  0.00000000000E+00 0. -1.
          1    1    1    2  502    0 -0.23535531136E+02  0.63287052207E+02  0.32725307457E+03  0.33414629583E+03  0.00000000000E+00 0. -1.
         22    1    3    3    0    0  0.59718229955E+02 -0.57399510795E+01  0.85741864599E+02  0.10464645896E+03  0.00000000000E+00 0. -1.
         22    1    3    3    0    0 -0.33899775369E+02  0.61408447019E+02  0.22949474936E+03  0.23997506562E+03  0.00000000000E+00 0. -1.
</event>
<event>
 7    1  0.6888820E-006  0.5386708E+02  0.7818608E-02  0.1559730E+00
          2   -1    0    0  502    0  0.00000000000E+00  0.00000000000E+00  0.90878922101E+02  0.90878922101E+02  0.00000000000E+00 0. -1.
          1   -1    0    0  501    0 -0.00000000000E+00 -0.00000000000E+00 -0.20627529120E+03  0.20627529120E+03  0.00000000000E+00 0. -1.
         25    2    1    2    0    0  0.39967471556E+02  0.21825193584E+02 -0.92190334096E+02  0.16185668519E+03  0.12499916392E+03 0.  0.
          2    1    1    2  501    0  0.14744593788E+02 -0.15205682138E+02 -0.63557158070E+02  0.66993493394E+02  0.00000000000E+00 0. -1.
          1    1    1    2  502    0 -0.54712065344E+02 -0.66195114460E+01  0.40351123069E+02  0.68304034719E+02  0.00000000000E+00 0. -1.
         22    1    3    3    0    0  0.48699359457E+02  0.67336037358E+02 -0.40531692018E+02  0.92458572325E+02  0.00000000000E+00 0.  1.
         22    1    3    3    0    0 -0.87318879008E+01 -0.45510843774E+02 -0.51658642079E+02  0.69398112862E+02  0.00000000000E+00 0.  1.
</event>
<event>
 7    1  0.6888820E-006  0.4593786E+02  0.7818608E-02  0.1480809E+00
          2   -1    0    0  502    0  0.00000000000E+00  0.00000000000E+00  0.12683750927E+02  0.12683750927E+02  0.00000000000E+00 0. -1.
          1   -1    0    0  501    0 -0.00000000000E+00 -0.00000000000E+00 -0.18785601861E+04  0.18785601861E+04  0.00000000000E+00 0. -1.
         25    2    1    2    0    0 -0.20194938251E+02 -0.25171711452E+02 -0.55748106871E+03  0.57223403770E+03  0.12500080537E+03 0.  0.
          2    1    1    2  501    0  0.42646643606E+02 -0.17074854612E+02 -0.11956721741E+04  0.11965543175E+04  0.00000000000E+00 0. -1.
          1    1    1    2  502    0 -0.22451705355E+02  0.42246566064E+02 -0.11272319233E+03  0.12245558177E+03  0.00000000000E+00 0. -1.
         22    1    3    3    0    0  0.49510262605E+02  0.94799541982E+01 -0.18793129888E+03  0.19457468677E+03  0.00000000000E+00 0.  1.
         22    1    3    3    0    0 -0.69705200856E+02 -0.34651665650E+02 -0.36954976983E+03  0.37765935092E+03  0.00000000000E+00 0.  1.
</event>
<event>
 7    1  0.6888820E-006  0.8333936E+02  0.7818608E-02  0.1438828E+00
          2   -1    0    0  502    0  0.00000000000E+00  0.00000000000E+00  0.12538779966E+04  0.12538779966E+04  0.00000000000E+00 0. -1.
          1   -1    0    0  501    0 -0.00000000000E+00 -0.00000000000E+00 -0.32599015736E+02  0.32599015736E+02  0.00000000000E+00 0. -1.
         25    2    1    2    0    0 -0.89082285140E+02  0.23876043792E+02  0.44460527941E+03  0.47096119721E+03  0.12499950321E+03 0.  0.
          2    1    1    2  501    0  0.82196227348E+02  0.68512520314E+01  0.70114509861E+02  0.10825527210E+03  0.00000000000E+00 0. -1.
          1    1    1    2  502    0  0.68860577918E+01 -0.30727295823E+02  0.70655919163E+03  0.70726054307E+03  0.00000000000E+00 0. -1.
         22    1    3    3    0    0 -0.39475467170E+02 -0.22595639745E+01  0.39228107992E+03  0.39426877102E+03  0.00000000000E+00 0.  1.
         22    1    3    3    0    0 -0.49606817970E+02  0.26135607766E+02  0.52324199492E+02  0.76692426190E+02  0.00000000000E+00 0.  1.
</event>
<event>
 7    1  0.6888820E-006  0.3757701E+02  0.7818608E-02  0.1575539E+00
          2   -1    0    0  502    0  0.00000000000E+00  0.00000000000E+00  0.19222326886E+04  0.19222326886E+04  0.00000000000E+00 0. -1.
          1   -1    0    0  501    0 -0.00000000000E+00 -0.00000000000E+00 -0.24938105172E+03  0.24938105172E+03  0.00000000000E+00 0. -1.
         25    2    1    2    0    0 -0.44596664813E+02  0.47337329301E+02 -0.15416630488E+03  0.20885672609E+03  0.12499678881E+03 0.  0.
          2    1    1    2  501    0  0.19215092464E+02 -0.19666218692E+02 -0.64890900954E+02  0.70475591254E+02  0.00000000000E+00 0. -1.
          1    1    1    2  502    0  0.25381572349E+02 -0.27671110609E+02  0.18919088427E+04  0.18922814229E+04  0.00000000000E+00 0. -1.
         22    1    3    3    0    0  0.65062561455E+01  0.79527171681E+02 -0.77235237676E+02  0.11105036850E+03  0.00000000000E+00 0. -1.
         22    1    3    3    0    0 -0.51102920959E+02 -0.32189842380E+02 -0.76931067207E+02  0.97806357588E+02  0.00000000000E+00 0. -1.
</event>
<event>
 7    1  0.6888820E-006  0.5388884E+02  0.7818608E-02  0.1438841E+00
          2   -1    0    0  502    0  0.00000000000E+00  0.00000000000E+00  0.38054494869E+03  0.38054494869E+03  0.00000000000E+00 0. -1.
          1   -1    0    0  501    0 -0.00000000000E+00 -0.00000000000E+00 -0.16298763966E+04  0.16298763966E+04  0.00000000000E+00 0. -1.
         25    2    1    2    0    0  0.57687055737E+02 -0.89097870967E+01 -0.64500904111E+03  0.65959761294E+03  0.12500066870E+03 0.  0.
          2    1    1    2  501    0 -0.17868134773E+02  0.45297002416E+02 -0.97501349943E+03  0.97622866827E+03  0.00000000000E+00 0. -1.
          1    1    1    2  502    0 -0.39818920964E+02 -0.36387215319E+02  0.37069109261E+03  0.37459506410E+03  0.00000000000E+00 0. -1.
         22    1    3    3    0    0  0.88326476261E+02 -0.37550793693E+02 -0.45601652537E+03  0.46600718870E+03  0.00000000000E+00 0.  1.
         22    1    3    3    0    0 -0.30639420523E+02  0.28641006597E+02 -0.18899251575E+03  0.19359042424E+03  0.00000000000E+00 0.  1.
</event>
<event>
 7    1  0.6888820E-006  0.1228567E+03  0.7818608E-02  0.1351949E+00
          2   -1    0    0  502    0  0.00000000000E+00  0.00000000000E+00  0.49703965048E+03  0.49703965048E+03  0.00000000000E+00 0. -1.
          1   -1    0    0  501    0 -0.00000000000E+00 -0.00000000000E+00 -0.15084779455E+03  0.15084779455E+03  0.00000000000E+00 0. -1.
         25    2    1    2    0    0  0.15285538423E+02 -0.12786793014E+03  0.18831166656E+03  0.26013334183E+03  0.12499686607E+03 0.  0.
          2    1    1    2  501    0 -0.54235207062E+02  0.11030417577E+03 -0.79613789805E+02  0.14644734345E+03  0.00000000000E+00 0. -1.
          1    1    1    2  502    0  0.38949668639E+02  0.17563754370E+02  0.23749397918E+03  0.24130675975E+03  0.00000000000E+00 0. -1.
         22    1    3    3    0    0 -0.17731963827E+01  0.23049976251E+02  0.48377915085E+02  0.53617798337E+02  0.00000000000E+00 0. -1.
         22    1    3    3    0    0  0.17058734806E+02 -0.15091790639E+03  0.13993375147E+03  0.20651554349E+03  0.00000000000E+00 0. -1.
</event>
<event>
 7    1  0.6888820E-006  0.7960267E+02  0.7818608E-02  0.1347073E+00
          2   -1    0    0  502    0  0.00000000000E+00  0.00000000000E+00  0.21265024480E+03  0.21265024480E+03  0.00000000000E+00 0. -1.
          1   -1    0    0  501    0 -0.00000000000E+00 -0.00000000000E+00 -0.13738256105E+04  0.13738256105E+04  0.00000000000E+00 0. -1.
         25    2    1    2    0    0 -0.87484989106E+02  0.24848765194E+02  0.28816125342E+01  0.15461142074E+03  0.12500121312E+03 0.  0.
          2    1    1    2  501    0  0.68423013010E+02  0.41201765864E+02 -0.12878176547E+04  0.12902920623E+04  0.00000000000E+00 0. -1.
          1    1    1    2  502    0  0.19061976096E+02 -0.66050531058E+02  0.12376067641E+03  0.14157237234E+03  0.00000000000E+00 0. -1.
         22    1    3    3    0    0 -0.10183113954E+03 -0.15574208191E+02 -0.21554301878E+02  0.10524602068E+03  0.00000000000E+00 0.  1.
         22    1    3    3    0    0  0.14346150431E+02  0.40422973385E+02  0.24435914412E+02  0.49365400055E+02  0.00000000000E+00 0.  1.
</event>
<event>
 7    1  0.6888820E-006  0.9648366E+02  0.7818608E-02  0.1330633E+00
          2   -1    0    0  502    0  0.00000000000E+00  0.00000000000E+00  0.27419393251E+04  0.27419393251E+04  0.00000000000E+00 0. -1.
          1   -1    0    0  501    0 -0.00000000000E+00 -0.00000000000E+00 -0.25586630808E+04  0.25586630808E+04  0.00000000000E+00 0. -1.
         25    2    1    2    0    0  0.26803667844E+02  0.15646037295E+03  0.13389393809E+03  0.24238568953E+03  0.12499980366E+03 0.  0.
          2    1    1    2  501    0 -0.30688947068E+02 -0.91160187564E+02 -0.25030744255E+04  0.25049218692E+04  0.00000000000E+00 0. -1.
          1    1    1    2  502    0  0.38852792234E+01 -0.65300185387E+02  0.25524567316E+04  0.25532948471E+04  0.00000000000E+00 0. -1.
         22    1    3    3    0    0  0.70147869072E+02  0.79543279555E+02  0.10562511141E+03  0.14968139837E+03  0.00000000000E+00 0.  1.
         22    1    3    3    0    0 -0.43344201227E+02  0.76917093395E+02  0.28268826681E+02  0.92704291154E+02  0.00000000000E+00 0.  1.
</event>
<event>
 7    1  0.6888820E-006  0.1399927E+03  0.7818608E-02  0.1297785E+00
          2   -1    0    0  502    0  0.00000000000E+00  0.00000000000E+00  0.88565013017E+02  0.88565013017E+02  0.00000000000E+00 0. -1.
          1   -1    0    0  501    0 -0.00000000000E+00 -0.00000000000E+00 -0.90564958448E+03  0.90564958448E+03  0.00000000000E+00 0. -1.
         25    2    1    2    0    0  0.99730894492E+02  0.48844550486E+02 -0.10253567921E+03  0.19613921178E+03  0.12499993383E+03 0.  0.
          2    1    1    2  501    0 -0.14539765719E+03 -0.89700979280E+01 -0.72240216121E+03  0.73694356900E+03  0.00000000000E+00 0. -1.
          1    1    1    2  502    0  0.45666762701E+02 -0.39874452558E+02  0.78532689525E+01  0.61131816721E+02  0.00000000000E+00 0. -1.
         22    1    3    3    0    0 -0.27427618620E+02 -0.59941541103E+01 -0.24030336778E+02  0.36954853975E+02  0.00000000000E+00 0. -1.
         22    1    3    3    0    0  0.12715851311E+03  0.54838704596E+02 -0.78505342429E+02  0.15918435780E+03  0.00000000000E+00 0. -1.
</event>
<event>
 7    1  0.6888820E-006  0.4421131E+02  0.7818608E-02  0.1518396E+00
          2   -1    0    0  502    0  0.00000000000E+00  0.00000000000E+00  0.97603709871E+03  0.97603709871E+03  0.00000000000E+00 0. -1.
          1   -1    0    0  501    0 -0.00000000000E+00 -0.00000000000E+00 -0.11382541659E+04  0.11382541659E+04  0.00000000000E+00 0. -1.
         25    2    1    2    0    0 -0.58222927377E+02 -0.49296596082E+02 -0.58027516360E+02  0.15752186776E+03  0.12500352999E+03 0.  0.
          2    1    1    2  501    0  0.28320572146E+02  0.33568644742E+02 -0.10297031251E+04  0.10306393329E+04  0.00000000000E+00 0. -1.
          1    1    1    2  502    0  0.29902355231E+02  0.15727951340E+02  0.92551357424E+03  0.92613006398E+03  0.00000000000E+00 0. -1.
         22    1    3    3    0    0 -0.22622554611E+02  0.26741996920E+02  0.22137954663E+02  0.41436739894E+02  0.00000000000E+00 0.  1.
         22    1    3    3    0    0 -0.35600372766E+02 -0.76038593002E+02 -0.80165471023E+02  0.11608512786E+03  0.00000000000E+00 0.  1.
</event>
<event>
 7    1  0.6888820E-006  0.7392799E+02  0.7818608E-02  0.1371765E+00
          2   -1    0    0  502    0  0.00000000000E+00  0.00000000000E+00  0.88053026138E+02  0.88053026138E+02  0.00000000000E+00 0. -1.
          1   -1    0    0  501    0 -0.00000000000E+00 -0.00000000000E+00 -0.68942204911E+03  0.68942204911E+03  0.00000000000E+00 0. -1.
         25    2    1    2    0    0  0.68375993406E+02  0.57070444902E+02 -0.80490417963E+02  0.17330939944E+03  0.12500051357E+03 0.  0.
          2    1    1    2  501    0  0.61864764936E+01 -0.59821790116E+02 -0.52595284019E+03  0.52938011785E+03  0.00000000000E+00 0. -1.
          1    1    1    2  502    0 -0.74562469900E+02  0.27513452140E+01  0.50742351810E+01  0.74785557969E+02  0.00000000000E+00 0. -1.
         22    1    3    3    0    0  0.71598207270E+02 -0.13511967213E+02 -0.10072447859E+02  0.73554950534E+02  0.00000000000E+00 0. -1.
         22    1    3    3    0    0 -0.32222138636E+01  0.70582412115E+02 -0.70417970104E+02  0.99754448902E+02  0.00000000000E+00 0. -1.
</event>
<event>
 7    1  0.6888820E-006  0.5425267E+02  0.7818608E-02  0.1474542E+00
          2   -1    0    0  502    0  0.00000000000E+00  0.00000000000E+00  0.75495373334E+03  0.75495373334E+03  0.00000000000E+00 0. -1.
          1   -1    0    0  501    0 -0.00000000000E+00 -0.00000000000E+00 -0.12241335538E+04  0.12241335538E+04  0.00000000000E+00 0. -1.
         25    2    1    2    0    0  0.48341071186E+02 -0.33409527592E+02  0.43839312215E+03  0.45963733868E+03  0.12499959144E+03 0.  0.
          2    1    1    2  501    0 -0.54156603481E+02 -0.34060925255E+01 -0.12117667996E+04  0.12129811687E+04  0.00000000000E+00 0. -1.
          1    1    1    2  502    0  0.58155322949E+01  0.36815620117E+02  0.30419385699E+03  0.30646877970E+03  0.00000000000E+00 0. -1.
         22    1    3    3    0    0  0.16548273447E+02 -0.79955808644E+02  0.26808610092E+03  0.28024441867E+03  0.00000000000E+00 0.  1.
         22    1    3    3    0    0  0.31792797739E+02  0.46546281052E+02  0.17030702123E+03  0.17939292000E+03  0.00000000000E+00 0.  1.
</event>
<event>
 7    1  0.6888820E-006  0.8669683E+02  0.7818608E-02  0.1413414E+00
          2   -1    0    0  502    0  0.00000000000E+00  0.00000000000E+00  0.73448568440E+03  0.73448568440E+03  0.00000000000E+00 0. -1.
          1   -1    0    0  501    0 -0.00000000000E+00 -0.00000000000E+00 -0.12418276746E+04  0.12418276746E+04  0.00000000000E+00 0. -1.
         25    2    1    2    0    0  0.27819386370E+02  0.10135438834E+03 -0.23677582579E+02  0.16502104174E+03  0.12499874402E+03 0.  0.
          2    1    1    2  501    0  0.56588772182E+01 -0.86217258195E+02 -0.11453415045E+04  0.11485959257E+04  0.00000000000E+00 0. -1.
          1    1    1    2  502    0 -0.33478263588E+02 -0.15137130146E+02  0.66167709691E+03  0.66269639158E+03  0.00000000000E+00 0. -1.
         22    1    3    3    0    0 -0.46316698316E+02  0.22173450527E+02 -0.23687580111E+02  0.56550861202E+02  0.00000000000E+00 0.  1.
         22    1    3    3    0    0  0.74136084685E+02  0.79180937814E+02  0.99975326929E-02  0.10847018054E+03  0.00000000000E+00 0.  1.
</event>
<event>
 7    1  0.6888820E-006  0.1145735E+03  0.7818608E-02  0.1271571E+00
          2   -1    0    0  502    0  0.00000000000E+00  0.00000000000E+00  0.36616933280E+03  0.36616933280E+03  0.00000000000E+00 0. -1.
          1   -1    0    0  501    0 -0.00000000000E+00 -0.00000000000E+00 -0.25395202141E+04  0.25395202141E+04  0.00000000000E+00 0. -1.
         25    2    1    2    0    0  0.18185452140E+02 -0.87605396563E+02 -0.72575125621E+02  0.16999335119E+03  0.12500069765E+03 0.  0.
          2    1    1    2  501    0 -0.10516177513E+03  0.49674360361E+02 -0.24097116200E+04  0.24125166596E+04  0.00000000000E+00 0. -1.
          1    1    1    2  502    0  0.86976322986E+02  0.37931036202E+02  0.30893586437E+03  0.32317953611E+03  0.00000000000E+00 0. -1.
         22    1    3    3    0    0  0.25921526117E+02 -0.96056114461E+02 -0.99514457840E+02  0.14071897513E+03  0.00000000000E+00 0. -1.
         22    1    3    3    0    0 -0.77360739768E+01  0.84507178977E+01  0.26939332219E+02  0.29274376064E+02  0.00000000000E+00 0. -1.
</event>
<event>
 7    1  0.6888820E-006  0.1503743E+03  0.7818608E-02  0.1344104E+00
          2   -1    0    0  502    0  0.00000000000E+00  0.00000000000E+00  0.11219580893E+04  0.11219580893E+04  0.00000000000E+00 0. -1.
          1   -1    0    0  501    0 -0.00000000000E+00 -0.00000000000E+00 -0.39637037119E+03  0.39637037119E+03  0.00000000000E+00 0. -1.
         25    2    1    2    0    0  0.18175612313E+03 -0.97483493048E+01  0.17055227641E+03  0.27900144142E+03  0.12499362671E+03 0.  0.
          2    1    1    2  501    0 -0.14651575920E+03  0.22068133707E+02 -0.32569049311E+03  0.35781023954E+03  0.00000000000E+00 0. -1.
          1    1    1    2  502    0 -0.35240363929E+02 -0.12319784402E+02  0.88072593477E+03  0.88151677948E+03  0.00000000000E+00 0. -1.
         22    1    3    3    0    0  0.94320304028E+02  0.57473359155E+02  0.88632238809E+02  0.14161631446E+03  0.00000000000E+00 0.  1.
         22    1    3    3    0    0  0.87435819100E+02 -0.67221708460E+02  0.81920037603E+02  0.13738512696E+03  0.00000000000E+00 0.  1.
</event>
<event>
 7    1  0.6888820E-006  0.5429075E+02  0.7818608E-02  0.1433708E+00
          2   -1    0    0  502    0  0.00000000000E+00  0.00000000000E+00  0.39439857745E+03  0.39439857745E+03  0.00000000000E+00 0. -1.
          1   -1    0    0  501    0 -0.00000000000E+00 -0.00000000000E+00 -0.29965003102E+03  0.29965003102E+03  0.00000000000E+00 0. -1.
         25    2    1    2    0    0 -0.71727339404E+02  0.31509146716E+02 -0.12563135087E+03  0.19376917544E+03  0.12500247791E+03 0.  0.
          2    1    1    2  501    0  0.19567214429E+02 -0.46266159169E+02 -0.13330957073E+03  0.14246008218E+03  0.00000000000E+00 0. -1.
          1    1    1    2  502    0  0.52160124975E+02  0.14757012453E+02  0.35368946803E+03  0.35781935086E+03  0.00000000000E+00 0. -1.
         22    1    3    3    0    0 -0.61061314435E+02  0.14227768740E+02  0.37449411486E+01  0.62808742290E+02  0.00000000000E+00 0.  1.
         22    1    3    3    0    0 -0.10666024969E+02  0.17281377976E+02 -0.12937629202E+03  0.13096043315E+03  0.00000000000E+00 0.  1.
</event>
<event>
 7    1  0.6888820E-006  0.2971719E+02  0.7818608E-02  0.1610613E+00
          2   -1    0    0  502    0  0.00000000000E+00  0.00000000000E+00  0.74481046455E+02  0.74481046455E+02  0.00000000000E+00 0. -1.
          1   -1    0    0  501    0 -0.00000000000E+00 -0.00000000000E+00 -0.38207325480E+03  0.38207325480E+03  0.00000000000E+00 0. -1.
         25    2    1    2    0    0 -0.43208900168E+00 -0.28716910815E+02 -0.66454345369E+02  0.14444764853E+03  0.12499638187E+03 0.  0.
          2    1    1    2  501    0  0.25656569884E+02  0.11458602049E+02 -0.26917119775E+03  0.27063387230E+03  0.00000000000E+00 0. -1.
          1    1    1    2  502    0 -0.25224480882E+02  0.17258308765E+02  0.28033334774E+02  0.41472780420E+02  0.00000000000E+00 0. -1.
         22    1    3    3    0    0  0.34182729548E+02 -0.54598605975E+02  0.89522440213E+00  0.64422575239E+02  0.00000000000E+00 0.  1.
         22    1    3    3    0    0 -0.34614818549E+02  0.25881695160E+02 -0.67349569771E+02  0.80025073295E+02  0.00000000000E+00 0.  1.
</event>
<event>
 7    1  0.6888820E-006  0.8687507E+02  0.7818608E-02  0.1418137E+00
          2   -1    0    0  502    0  0.00000000000E+00  0.00000000000E+00  0.16555469989E+04  0.16555469989E+04  0.00000000000E+00 0. -1.
          1   -1    0    0  501    0 -0.00000000000E+00 -0.00000000000E+00 -0.30407134204E+03  0.30407134204E+03  0.00000000000E+00 0. -1.
         25    2    1    2    0    0  0.11719438515E+03 -0.97135546076E+01  0.64103577092E+03  0.66361189686E+03  0.12500005197E+03 0.  0.
          2    1    1    2  501    0 -0.86271296166E+02 -0.74150665738E+01 -0.28606090628E+03  0.29887884143E+03  0.00000000000E+00 0. -1.
          1    1    1    2  502    0 -0.30923088987E+02  0.17128621181E+02  0.99650079219E+03  0.99712760263E+03  0.00000000000E+00 0. -1.
         22    1    3    3    0    0 -0.66108564750E+01  0.38177719666E+02  0.15591074391E+03  0.16065304781E+03  0.00000000000E+00 0.  1.
         22    1    3    3    0    0  0.12380524163E+03 -0.47891274274E+02  0.48512502701E+03  0.50295884905E+03  0.00000000000E+00 0.  1.
</event>
<event>
 7    1  0.6888820E-006  0.4735840E+02  0.7818608E-02  0.1498601E+00
          2   -1    0    0  502    0  0.00000000000E+00  0.00000000000E+00  0.48771679414E+02  0.48771679414E+02  0.00000000000E+00 0. -1.
          1   -1    0    0  501    0 -0.00000000000E+00 -0.00000000000E+00 -0.13651982399E+04  0.13651982399E+04  0.00000000000E+00 0. -1.
         25    2    1    2    0    0 -0.23730072610E+02  0.39569980762E+02 -0.23983909935E+03  0.27436654195E+03  0.12500122414E+03 0.  0.
          2    1    1    2  501    0  0.35314947660E+02  0.73912313498E+01 -0.10890556887E+04  0.10896531875E+04  0.00000000000E+00 0. -1.
          1    1    1    2  502    0 -0.11584875050E+02 -0.46961212111E+02  0.12468227579E+02  0.49950189908E+02  0.00000000000E+00 0. -1.
         22    1    3    3    0    0 -0.73722293476E+02  0.37832714355E+02 -0.13963747432E+03  0.16237276577E+03  0.00000000000E+00 0. -1.
         22    1    3    3    0    0  0.49992220866E+02  0.17372664070E+01 -0.10020162504E+03  0.11199377617E+03  0.00000000000E+00 0. -1.
</event>
<event>
 7    1  0.6888820E-006  0.9531127E+02  0.7818608E-02  0.1381345E+00
          2   -1    0    0  502    0  0.00000000000E+00  0.00000000000E+00  0.29021719144E+03  0.29021719144E+03  0.00000000000E+00 0. -1.
          1   -1    0    0  501    0 -0.00000000000E+00 -0.00000000000E+00 -0.15046448734E+03  0.15046448734E+03  0.00000000000E+00 0. -1.
         25    2    1    2    0    0 -0.10274948226E+03 -0.93355723830E+00  0.75862315282E+02  0.17871251608E+03  0.12499897956E+03 0.  0.
          2    1    1    2  501    0  0.86248788111E+02  0.40776806407E+02 -0.71921334231E+02  0.11947501709E+03  0.00000000000E+00 0. -1.
          1    1    1    2  502    0  0.16500694154E+02 -0.39843249169E+02  0.13581172305E+03  0.14249414560E+03  0.00000000000E+00 0. -1.
         22    1    3    3    0    0 -0.99132669210E+02  0.40984821518E+02  0.20558144422E+02  0.10922306992E+03  0.00000000000E+00 0.  1.
         22    1    3    3    0    0 -0.36168130544E+01 -0.41918378757E+02  0.55304170860E+02  0.69489446168E+02  0.00000000000E+00 0.  1.
</event>
<event>
 7    1  0.6888820E-006  0.4948034E+02  0.7818608E-02  0.1541963E+00
          2   -1    0    0  502    0  0.00000000000E+00  0.00000000000E+00  0.12699231758E+04  0.12699231758E+04  0.00000000000E+00 0. -1.
          1   -1    0    0  501    0 -0.00000000000E+00 -0.00000000000E+00 -0.29284697229E+03  0.29284697229E+03  0.00000000000E+00 0. -1.
         25    2    1    2    0    0  0.46794717429E+02 -0.45895745858E+02 -0.17255524838E+03  0.22293276358E+03  0.12501015267E+03 0.  0.
          2    1    1    2  501    0 -0.41610440370E+02  0.20578601647E+02 -0.89295513189E+02  0.10064092741E+03  0.00000000000E+00 0. -1.
          1    1    1    2  502    0 -0.51842770586E+01  0.25317144211E+02  0.12389269651E+04  0.12391964571E+04  0.00000000000E+00 0. -1.
         22    1    3    3    0    0 -0.37492206896E+02 -0.15138585532E+02 -0.98911379215E+02  0.10685646114E+03  0.00000000000E+00 0.  1.
         22    1    3    3    0    0  0.84286924325E+02 -0.30757160327E+02 -0.73643869161E+02  0.11607630244E+03  0.00000000000E+00 0.  1.
</event>
<event>
 7    1  0.6888820E-006  0.1645859E+03  0.7818608E-02  0.1303467E+00
          2   -1    0    0  502    0  0.00000000000E+00  0.00000000000E+00  0.10225099599E+04  0.10225099599E+04  0.00000000000E+00 0. -1.
          1   -1    0    0  501    0 -0.00000000000E+00 -0.00000000000E+00 -0.75380856688E+03  0.75380856688E+03  0.00000000000E+00 0. -1.
         25    2    1    2    0    0  0.17034816917E+03  0.94998499740E+02 -0.28964299068E+02  0.23346478502E+03  0.12499464601E+03 0.  0.
          2    1    1    2  501    0 -0.12258037503E+03 -0.10563343019E+03 -0.61141055401E+03  0.63246125215E+03  0.00000000000E+00 0. -1.
          1    1    1    2  502    0 -0.47767794142E+02  0.10634930451E+02  0.90907624609E+03  0.91039248959E+03  0.00000000000E+00 0. -1.
         22    1    3    3    0    0  0.11873248720E+03  0.40480805488E+02 -0.74267014285E+02  0.14577958890E+03  0.00000000000E+00 0.  1.
         22    1    3    3    0    0  0.51615681967E+02  0.54517694252E+02  0.45302715217E+02  0.87685196114E+02  0.00000000000E+00 0.  1.
</event>
<event>
 7    1  0.6888820E-006  0.7431149E+02  0.7818608E-02  0.1361474E+00
          2   -1    0    0  502    0  0.00000000000E+00  0.00000000000E+00  0.15570724812E+04  0.15570724812E+04  0.00000000000E+00 0. -1.
          1   -1    0    0  501    0 -0.00000000000E+00 -0.00000000000E+00 -0.98333657780E+02  0.98333657780E+02  0.00000000000E+00 0. -1.
         25    2    1    2    0    0  0.13179882600E+02 -0.40356130861E+02  0.11045629455E+04  0.11124238384E+04  0.12500067658E+03 0.  0.
          2    1    1    2  501    0  0.63050817049E+02 -0.39329274250E+02 -0.71578662304E+02  0.10317801239E+03  0.00000000000E+00 0. -1.
          1    1    1    2  502    0 -0.76230699649E+02  0.79685405111E+02  0.42575454020E+03  0.43980428813E+03  0.00000000000E+00 0. -1.
         22    1    3    3    0    0  0.69233284868E+02 -0.26135596355E+02  0.59087386121E+03  0.59548991342E+03  0.00000000000E+00 0.  1.
         22    1    3    3    0    0 -0.56053402268E+02 -0.14220534506E+02  0.51368908429E+03  0.51693392501E+03  0.00000000000E+00 0.  1.
</event>
<event>
 7    1  0.6888820E-006  0.1155719E+03  0.7818608E-02  0.1327232E+00
          2   -1    0    0  502    0  0.00000000000E+00  0.00000000000E+00  0.12029743584E+04  0.12029743584E+04  0.00000000000E+00 0. -1.
          1   -1    0    0  501    0 -0.00000000000E+00 -0.00000000000E+00 -0.15846954477E+04  0.15846954477E+04  0.00000000000E+00 0. -1.
         25    2    1    2    0    0 -0.13272256807E+03  0.94125508295E+02  0.60389487227E+01  0.20526611688E+03  0.12499127350E+03 0.  0.
          2    1    1    2  501    0  0.55373814772E+02 -0.10018657713E+02 -0.14815715755E+04  0.14826398640E+04  0.00000000000E+00 0. -1.
          1    1    1    2  502    0  0.77348753298E+02 -0.84106850582E+02  0.10938115374E+04  0.10997638253E+04  0.00000000000E+00 0. -1.
         22    1    3    3    0    0 -0.13598885775E+03  0.87865002639E+02 -0.33303711833E+02  0.16529478317E+03  0.00000000000E+00 0.  1.
         22    1    3    3    0    0  0.32662896803E+01  0.62605056557E+01  0.39342660556E+02  0.39971333715E+02  0.00000000000E+00 0.  1.
</event>
<event>
 7    1  0.6888820E-006  0.5175036E+02  0.7818608E-02  0.1443031E+00
          2   -1    0    0  502    0  0.00000000000E+00  0.00000000000E+00  0.17262593690E+04  0.17262593690E+04  0.00000000000E+00 0. -1.
          1   -1    0    0  501    0 -0.00000000000E+00 -0.00000000000E+00 -0.19211233409E+03  0.19211233409E+03  0.00000000000E+00 0. -1.
         25    2    1    2    0    0 -0.54811518242E+02  0.44048592502E+02  0.27766725416E+02  0.14608535966E+03  0.12500144092E+03 0.  0.
          2    1    1    2  501    0  0.51518691527E+02  0.49860462048E+01 -0.12753195224E+03  0.13763515204E+03  0.00000000000E+00 0. -1.
          1    1    1    2  502    0  0.32928267145E+01 -0.49034638707E+02  0.16339122617E+04  0.16346511914E+04  0.00000000000E+00 0. -1.
         22    1    3    3    0    0  0.54984917594E+01 -0.28320760798E+02  0.41853045081E+02  0.50832826858E+02  0.00000000000E+00 0.  1.
         22    1    3    3    0    0 -0.60310010001E+02  0.72369353300E+02 -0.14086319665E+02  0.95252532802E+02  0.00000000000E+00 0.  1.
</event>
<event>
 7    1  0.6888820E-006  0.1403483E+03  0.7818608E-02  0.1214174E+00
          2   -1    0    0  502    0  0.00000000000E+00  0.00000000000E+00  0.13739553588E+04  0.13739553588E+04  0.00000000000E+00 0. -1.
          1   -1    0    0  501    0 -0.00000000000E+00 -0.00000000000E+00 -0.13691036241E+04  0.13691036241E+04  0.00000000000E+00 0. -1.
         25    2    1    2    0    0 -0.56936081041E+02  0.24285509125E+03 -0.29764961565E+03  0.40797211443E+03  0.12500255912E+03 0.  0.
          2    1    1    2  501    0 -0.31271453825E+02 -0.13482770877E+03 -0.10078627682E+04  0.10173218637E+04  0.00000000000E+00 0. -1.
          1    1    1    2  502    0  0.88207534866E+02 -0.10802738248E+03  0.13103641186E+04  0.13177650048E+04  0.00000000000E+00 0. -1.
         22    1    3    3    0    0 -0.78911662403E+02  0.22525002972E+03 -0.29533377813E+03  0.37971919474E+03  0.00000000000E+00 0. -1.
         22    1    3    3    0    0  0.21975581362E+02  0.17605061531E+02 -0.23158375248E+01  0.28252919692E+02  0.00000000000E+00 0. -1.
</event>
<event>
 7    1  0.6888820E-006  0.4228089E+02  0.7818608E-02  0.1492873E+00
          2   -1    0    0  502    0  0.00000000000E+00  0.00000000000E+00  0.82427375629E+03  0.82427375629E+03  0.00000000000E+00 0. -1.
          1   -1    0    0  501    0 -0.00000000000E+00 -0.00000000000E+00 -0.15407069141E+03  0.15407069141E+03  0.00000000000E+00 0. -1.
         25    2    1    2    0    0 -0.31569503391E+02 -0.90773394293E+01  0.47081119093E+03  0.48822897139E+03  0.12500127747E+03 0.  0.
          2    1    1    2  501    0  0.21517679142E+02 -0.36395925845E+02 -0.14066626965E+03  0.14688319629E+03  0.00000000000E+00 0. -1.
          1    1    1    2  502    0  0.10051824249E+02  0.45473265275E+02  0.34005814360E+03  0.34323228003E+03  0.00000000000E+00 0. -1.
         22    1    3    3    0    0  0.13990506562E+02 -0.54383279123E+02  0.13311302697E+03  0.14447267309E+03  0.00000000000E+00 0. -1.
         22    1    3    3    0    0 -0.45560009953E+02  0.45305939694E+02  0.33769816396E+03  0.34375629830E+03  0.00000000000E+00 0. -1.
</event>
<event>
 7    1  0.6888820E-006  0.1564925E+03  0.7818608E-02  0.1277832E+00
          2   -1    0    0  502    0  0.00000000000E+00  0.00000000000E+00  0.58895952936E+03  0.58895952936E+03  0.00000000000E+00 0. -1.
          1   -1    0    0  501    0 -0.00000000000E+00 -0.00000000000E+00 -0.48296147202E+03  0.48296147202E+03  0.00000000000E+00 0. -1.
         25    2    1    2    0    0  0.27265523543E+02  0.96617369356E+02  0.12879869591E+03  0.20565169704E+03  0.12500076636E+03 0.  0.
          2    1    1    2  501    0 -0.15045253051E+02 -0.16088479457E+03 -0.42713456363E+03  0.45667736117E+03  0.00000000000E+00 0. -1.
          1    1    1    2  502    0 -0.12220270493E+02  0.64267425215E+02  0.40433392506E+03  0.40959194317E+03  0.00000000000E+00 0. -1.
         22    1    3    3    0    0  0.35804355948E+02  0.10461458268E+03  0.14704354764E+03  0.18397817184E+03  0.00000000000E+00 0. -1.
         22    1    3    3    0    0 -0.85388324046E+01 -0.79972133198E+01 -0.18244851728E+02  0.21673525193E+02  0.00000000000E+00 0. -1.
</event>
<event>
 7    1  0.6888820E-006  0.9559223E+02  0.7818608E-02  0.1384172E+00
          2   -1    0    0  502    0  0.00000000000E+00  0.00000000000E+00  0.34021700885E+04  0.34021700885E+04  0.00000000000E+00 0. -1.
          1   -1    0    0  501    0 -0.00000000000E+00 -0.00000000000E+00 -0.62225664738E+02  0.62225664738E+02  0.00000000000E+00 0. -1.
         25    2    1    2    0    0  0.73615331760E+02  0.89937432199E+02  0.12742760940E+04  0.12856563029E+04  0.12499842710E+03 0.  0.
          2    1    1    2  501    0  0.56939997001E+01 -0.41634713740E+02 -0.47563824685E+02  0.63468011151E+02  0.00000000000E+00 0. -1.
          1    1    1    2  502    0 -0.79309331460E+02 -0.48302718459E+02  0.21132321545E+04  0.21152714392E+04  0.00000000000E+00 0. -1.
         22    1    3    3    0    0  0.82491774266E+02  0.68890056363E+02  0.12388574500E+04  0.12435105605E+04  0.00000000000E+00 0.  1.
         22    1    3    3    0    0 -0.88764425057E+01  0.21047375836E+02  0.35418643917E+02  0.42145742348E+02  0.00000000000E+00 0.  1.
</event>
<event>
 7    1  0.6888820E-006  0.1736664E+03  0.7818608E-02  0.1352572E+00
          2   -1    0    0  502    0  0.00000000000E+00  0.00000000000E+00  0.39365137353E+03  0.39365137353E+03  0.00000000000E+00 0. -1.
          1   -1    0    0  501    0 -0.00000000000E+00 -0.00000000000E+00 -0.58435476411E+03  0.58435476411E+03  0.00000000000E+00 0. -1.
         25    2    1    2    0    0 -0.13285225024E+03 -0.93481184861E+02 -0.54293261658E+02  0.21203633619E+03  0.12499278894E+03 0.  0.
          2    1    1    2  501    0 -0.25339811098E+02  0.16182929880E+02 -0.42599841496E+03  0.42705812578E+03  0.00000000000E+00 0. -1.
          1    1    1    2  502    0  0.15819206134E+03  0.77298254981E+02  0.28958828604E+03  0.33891167567E+03  0.00000000000E+00 0. -1.
         22    1    3    3    0    0 -0.41139628487E+02 -0.57215027918E+02  0.35279903190E+02  0.78807994650E+02  0.00000000000E+00 0. -1.
         22    1    3    3    0    0 -0.91712621757E+02 -0.36266156943E+02 -0.89573164848E+02  0.13322834154E+03  0.00000000000E+00 0. -1.
</event>
<event>
 7    1  0.6888820E-006  0.1228747E+03  0.7818608E-02  0.1343134E+00
          2   -1    0    0  502    0  0.00000000000E+00  0.00000000000E+00  0.25747666252E+04  0.25747666252E+04  0.00000000000E+00 0. -1.
          1   -1    0    0  501    0 -0.00000000000E+00 -0.00000000000E+00 -0.37546885469E+03  0.37546885469E+03  0.00000000000E+00 0. -1.
         25    2    1    2    0    0  0.11476776991E+02 -0.93295882794E+02  0.12301427289E+03  0.19897984297E+03  0.12499851366E+03 0.  0.
          2    1    1    2  501    0  0.23733706365E+02  0.12300578683E+03 -0.32563211095E+03  0.34889824318E+03  0.00000000000E+00 0. -1.
          1    1    1    2  502    0 -0.35210483355E+02 -0.29709904034E+02  0.24019156085E+04  0.24023573937E+04  0.00000000000E+00 0. -1.
         22    1    3    3    0    0  0.38571368714E+02  0.38158911069E+01  0.80921279900E+02  0.89724941070E+02  0.00000000000E+00 0. -1.
         22    1    3    3    0    0 -0.27094591723E+02 -0.97111773901E+02  0.42092992994E+02  0.10925490190E+03  0.00000000000E+00 0. -1.
</event>
<event>
 7    1  0.6888820E-006  0.7139473E+02  0.7818608E-02  0.1389204E+00
          2   -1    0    0  502    0  0.00000000000E+00  0.00000000000E+00  0.24790663861E+04  0.24790663861E+04  0.00000000000E+00 0. -1.
          1   -1    0    0  501    0 -0.00000000000E+00 -0.00000000000E+00 -0.52515724366E+02  0.52515724366E+02  0.00000000000E+00 0. -1.
         25    2    1    2    0    0  0.20082512909E+02 -0.96536817874E+02  0.35923749933E+03  0.39293713613E+03  0.12500138998E+03 0.  0.
          2    1    1    2  501    0 -0.44880376646E+02  0.30072954375E+02 -0.14250995706E+02  0.55872369480E+02  0.00000000000E+00 0. -1.
          1    1    1    2  502    0  0.24797863737E+02  0.66463863500E+02  0.20815641581E+04  0.20827726049E+04  0.00000000000E+00 0. -1.
         22    1    3    3    0    0 -0.11363514426E+02 -0.94449928154E+02  0.34585222611E+03  0.35869719917E+03  0.00000000000E+00 0.  1.
         22    1    3    3    0    0  0.31446027335E+02 -0.20868897200E+01  0.13385273219E+02  0.34239936960E+02  0.00000000000E+00 0.  1.
</event>
<event>
 7    1  0.6888820E-006  0.6752686E+02  0.7818608E-02  0.1414966E+00
          2   -1    0    0  502    0  0.00000000000E+00  0.00000000000E+00  0.53496743814E+03  0.53496743814E+03  0.00000000000E+00 0. -1.
          1   -1    0    0  501    0 -0.00000000000E+00 -0.00000000000E+00 -0.15235008782E+03  0.15235008782E+03  0.00000000000E+00 0. -1.
         25    2    1    2    0    0  0.65979711936E+01  0.94133763558E+02  0.21562856584E+03  0.26650537742E+03  0.12499895647E+03 0.  0.
          2    1    1    2  501    0 -0.31602457677E+02 -0.34256554343E+02 -0.11887038364E+03  0.12768083237E+03  0.00000000000E+00 0. -1.
          1    1    1    2  502    0  0.25004486484E+02 -0.59877209215E+02  0.28585916812E+03  0.29313131618E+03  0.00000000000E+00 0. -1.
         22    1    3    3    0    0 -0.40739661682E+01 -0.24014617321E+02  0.91987057545E+02  0.95157331831E+02  0.00000000000E+00 0.  1.
         22    1    3    3    0    0  0.10671937362E+02  0.11814838088E+03  0.12364150830E+03  0.17134804558E+03  0.00000000000E+00 0.  1.
</event>
<event>
 7    1  0.6888820E-006  0.9319308E+02  0.7818608E-02  0.1466284E+00
          2   -1    0    0  502    0  0.00000000000E+00  0.00000000000E+00  0.10459423347E+04  0.10459423347E+04  0.00000000000E+00 0. -1.
          1   -1    0    0  501    0 -0.00000000000E+00 -0.00000000000E+00 -0.67813432262E+02  0.67813432262E+02  0.00000000000E+00 0. -1.
         25    2    1    2    0    0 -0.62727301222E+02  0.90520120623E+02  0.89915684876E+02  0.18930987891E+03  0.12499917323E+03 0.  0.
          2    1    1    2  501    0 -0.41899892892E+00 -0.23015621108E+02 -0.73196368666E+01  0.24155153880E+02  0.00000000000E+00 0. -1.
          1    1    1    2  502    0  0.63146300151E+02 -0.67504499515E+02  0.89553285441E+03  0.90029073415E+03  0.00000000000E+00 0. -1.
         22    1    3    3    0    0 -0.83813773136E+02  0.20740220977E+02  0.20701467838E+02  0.88788828712E+02  0.00000000000E+00 0.  1.
         22    1    3    3    0    0  0.21086471914E+02  0.69779899646E+02  0.69214217038E+02  0.10052105020E+03  0.00000000000E+00 0.  1.
</event>
<event>
 7    1  0.6888820E-006  0.1030643E+03  0.7818608E-02  0.1366113E+00
          2   -1    0    0  502    0  0.00000000000E+00  0.00000000000E+00  0.27847046159E+04  0.27847046159E+04  0.00000000000E+00 0. -1.
          1   -1    0    0  501    0 -0.00000000000E+00 -0.00000000000E+00 -0.19885956001E+02  0.19885956001E+02  0.00000000000E+00 0. -1.
         25    2    1    2    0    0  0.93514712635E+02 -0.93768805509E+02  0.17781225455E+04  0.17874234003E+04  0.12500013911E+03 0.  0.
          2    1    1    2  501    0 -0.39845915263E+02  0.21356867271E+02  0.25798607675E+02  0.52051713716E+02  0.00000000000E+00 0. -1.
          1    1    1    2  502    0 -0.53668797372E+02  0.72411938239E+02  0.96089750672E+03  0.96511545788E+03  0.00000000000E+00 0. -1.
         22    1    3    3    0    0  0.45462058614E+02 -0.31282896615E+02  0.14041319490E+04  0.14052159793E+04  0.00000000000E+00 0. -1.
         22    1    3    3    0    0  0.48052654021E+02 -0.62485908894E+02  0.37399059647E+03  0.38220742093E+03  0.00000000000E+00 0. -1.
</event>
<event>
 7    1  0.6888820E-006  0.1152856E+03  0.7818608E-02  0.1341143E+00
          2   -1    0    0  502    0  0.00000000000E+00  0.00000000000E+00  0.11289525731E+04  0.11289525731E+04  0.00000000000E+00 0. -1.
          1   -1    0    0  501    0 -0.00000000000E+00 -0.00000000000E+00 -0.20888200438E+04  0.20888200438E+04  0.00000000000E+00 0. -1.
         25    2    1    2    0    0  0.97927188147E+02  0.97776044449E+02 -0.26260119223E+03  0.32207655726E+03  0.12499613405E+03 0.  0.
          2    1    1    2  501    0 -0.48318725382E+02 -0.10364057610E+03 -0.17940924341E+04  0.17977329419E+04  0.00000000000E+00 0. -1.
          1    1    1    2  502    0 -0.49608462765E+02  0.58645316530E+01  0.10968261556E+04  0.10979631178E+04  0.00000000000E+00 0. -1.
         22    1    3    3    0    0  0.95953467606E+02  0.79766904514E+02 -0.27372005373E+03  0.30081970483E+03  0.00000000000E+00 0.  1.
         22    1    3    3    0    0  0.19737205407E+01  0.18009139935E+02  0.11118861499E+02  0.21256852425E+02  0.00000000000E+00 0.  1.
</event>
<event>
 7    1  0.6888820E-006  0.1270527E+03  0.7818608E-02  0.1349946E+00
          2   -1    0    0  502    0  0.00000000000E+00  0.00000000000E+00  0.16441115256E+04  0.16441115256E+04  0.00000000000E+00 0. -1.
          1   -1    0    0  501    0 -0.00000000000E+00 -0.00000000000E+00 -0.37493745751E+03  0.37493745751E+03  0.00000000000E+00 0. -1.
         25    2    1    2    0    0  0.59901643290E+02 -0.15694071475E+03  0.68349800849E+03  0.71485151128E+03  0.12499824298E+03 0.  0.
          2    1    1    2  501    0 -0.40086714537E+02  0.11987843776E+03 -0.34765467315E+03  0.36992101357E+03  0.00000000000E+00 0. -1.
          1    1    1    2  502    0 -0.19814928753E+02  0.37062276992E+02  0.93333073279E+03  0.93427645830E+03  0.00000000000E+00 0. -1.
         22    1    3    3    0    0  0.21283294343E+02 -0.10115399098E+03  0.18639007026E+03  0.21313462131E+03  0.00000000000E+00 0.  1.
         22    1    3    3    0    0  0.38618348947E+02 -0.55786723768E+02  0.49710793823E+03  0.50171688997E+03  0.00000000000E+00 0.  1.
</event>
<event>
 7    1  0.6888820E-006  0.1705347E+03  0.7818608E-02  0.1250482E+00
          2   -1    0    0  502    0  0.00000000000E+00  0.00000000000E+00  0.10779919438E+04  0.10779919438E+04  0.00000000000E+00 0. -1.
          1   -1    0    0  501    0 -0.00000000000E+00 -0.00000000000E+00 -0.63316159543E+03  0.63316159543E+03  0.00000000000E+00 0. -1.
         25    2    1    2    0    0  0.78341674671E+02  0.18302766597E+03 -0.13207287001E+03  0.26963813094E+03  0.12499973666E+03 0.  0.
          2    1    1    2  501    0 -0.16663542830E+01 -0.16665196434E+03 -0.41463838556E+03  0.44687878081E+03  0.00000000000E+00 0. -1.
          1    1    1    2  502    0 -0.76675320388E+02 -0.16375701621E+02  0.99154160397E+03  0.99463662750E+03  0.00000000000E+00 0. -1.
         22    1    3    3    0    0  0.10634030820E+03  0.11056925410E+03 -0.11036519991E+03  0.18898227021E+03  0.00000000000E+00 0. -1.
         22    1    3    3    0    0 -0.27998633531E+02  0.72458411869E+02 -0.21707670097E+02  0.80655860736E+02  0.00000000000E+00 0. -1.
</event>
<event>
 7    1  0.6888820E-006  0.7564818E+02  0.7818608E-02  0.1399173E+00
          2   -1    0    0  502    0  0.00000000000E+00  0.00000000000E+00  0.40131488568E+03  0.40131488568E+03  0.00000000000E+00 0. -1.
          1   -1    0    0  501    0 -0.00000000000E+00 -0.00000000000E+00 -0.86159373223E+02  0.86159373223E+02  0.00000000000E+00 0. -1.
         25    2    1    2    0    0 -0.77079655024E+02 -0.12983873208E+02  0.64592807319E+02  0.16095413517E+03  0.12499659471E+03 0.  0.
          2    1    1    2  501    0  0.22669863710E+02 -0.41268405740E+02 -0.15511180468E+02  0.49574194421E+02  0.00000000000E+00 0. -1.
          1    1    1    2  502    0  0.54409791314E+02  0.54252278948E+02  0.26607388561E+03  0.27694592932E+03  0.00000000000E+00 0. -1.
         22    1    3    3    0    0 -0.65132253206E+02 -0.34196221977E+02 -0.17256852138E+02  0.75560511849E+02  0.00000000000E+00 0.  1.
         22    1    3    3    0    0 -0.11947401818E+02  0.21212348769E+02  0.81849659457E+02  0.85393623320E+02  0.00000000000E+00 0.  1.
</event>
<event>
 7    1  0.6888820E-006  0.5276907E+02  0.7818608E-02  0.1476376E+00
          2   -1    0    0  502    0  0.00000000000E+00  0.00000000000E+00  0.53393373176E+03  0.53393373176E+03  0.00000000000E+00 0. -1.
          1   -1    0    0  501    0 -0.00000000000E+00 -0.00000000000E+00 -0.61454071880E+03  0.61454071880E+03  0.00000000000E+00 0. -1.
         25    2    1    2    0    0 -0.79148747946E+02  0.42293764764E+02  0.28013747505E+03  0.31961381183E+03  0.12499078746E+03 0.  0.
          2    1    1    2  501    0  0.48784609376E+02 -0.19740237655E+02 -0.59209970422E+03  0.59443391124E+03  0.00000000000E+00 0. -1.
          1    1    1    2  502    0  0.30364138570E+02 -0.22553527109E+02  0.23135524213E+03  0.23442672748E+03  0.00000000000E+00 0. -1.
         22    1    3    3    0    0 -0.10275108177E+03  0.16786951374E+01  0.15521615154E+03  0.18615224018E+03  0.00000000000E+00 0. -1.
         22    1    3    3    0    0  0.23602333829E+02  0.40615069626E+02  0.12492132351E+03  0.13346157166E+03  0.00000000000E+00 0. -1.
</event>
<event>
 7    1  0.6888820E-006  0.1672451E+03  0.7818608E-02  0.1253345E+00
          2   -1    0    0  502    0  0.00000000000E+00  0.00000000000E+00  0.13799063818E+04  0.13799063818E+04  0.00000000000E+00 0. -1.
          1   -1    0    0  501    0 -0.00000000000E+00 -0.00000000000E+00 -0.32951343345E+04  0.32951343345E+04  0.00000000000E+00 0. -1.
         25    2    1    2    0    0  0.18591259111E+03 -0.69751407204E+02 -0.29568697896E+03  0.37747202330E+03  0.12500235402E+03 0.  0.
          2    1    1    2  501    0 -0.16617273169E+03 -0.53994977122E+01 -0.29550889620E+04  0.29597623731E+04  0.00000000000E+00 0. -1.
          1    1    1    2  502    0 -0.19739859419E+02  0.75150904916E+02  0.13355479883E+04  0.13378063199E+04  0.00000000000E+00 0. -1.
         22    1    3    3    0    0  0.57208216877E+02 -0.32925097546E+02 -0.20604973659E+03  0.21636389734E+03  0.00000000000E+00 0. -1.
         22    1    3    3    0    0  0.12870437423E+03 -0.36826309658E+02 -0.89637242369E+02  0.16110812596E+03  0.00000000000E+00 0. -1.
</event>
<event>
 7    1  0.6888820E-006  0.1026144E+03  0.7818608E-02  0.1341931E+00
          2   -1    0    0  502    0  0.00000000000E+00  0.00000000000E+00  0.10820957608E+04  0.10820957608E+04  0.00000000000E+00 0. -1.
          1   -1    0    0  501    0 -0.00000000000E+00 -0.00000000000E+00 -0.25037717687E+03  0.25037717687E+03  0.00000000000E+00 0. -1.
         25    2    1    2    0    0 -0.62606020184E+02  0.68577263500E+01 -0.29783868144E+02  0.14310593246E+03  0.12500274769E+03 0.  0.
          2    1    1    2  501    0  0.11757730244E+03  0.23776967579E+01 -0.14196764492E+03  0.18434990560E+03  0.00000000000E+00 0. -1.
          1    1    1    2  502    0 -0.54971282258E+02 -0.92354231079E+01  0.10034700970E+04  0.10050170996E+04  0.00000000000E+00 0. -1.
         22    1    3    3    0    0 -0.73483766002E+02  0.28295835885E+02  0.25542466863E+02  0.82782460750E+02  0.00000000000E+00 0. -1.
         22    1    3    3    0    0  0.10877745819E+02 -0.21438109535E+02 -0.55326335006E+02  0.60323471715E+02  0.00000000000E+00 0. -1.
</event>
<event>
 7    1  0.6888820E-006  0.8254584E+03  0.7818608E-02  0.1105392E+00
          2   -1    0    0  502    0  0.00000000000E+00  0.00000000000E+00  0.33133477989E+04  0.33133477989E+04  0.00000000000E+00 0. -1.
          1   -1    0    0  501    0 -0.00000000000E+00 -0.00000000000E+00 -0.36301075288E+03  0.36301075288E+03  0.00000000000E+00 0. -1.
         25    2    1    2    0    0  0.22470306701E+03 -0.80025862968E+03  0.18970635529E+04  0.20749411643E+04  0.12500147533E+03 0.  0.
          2    1    1    2  501    0 -0.83449450099E+02 -0.71386158041E+01 -0.13440024982E+03  0.15836097281E+03  0.00000000000E+00 0. -1.
          1    1    1    2  502    0 -0.14125361691E+03  0.80739724548E+03  0.11876737429E+04  0.14430564147E+04  0.00000000000E+00 0. -1.
         22    1    3    3    0    0  0.35791797216E+02 -0.30785071017E+03  0.61632563556E+03  0.68986259613E+03  0.00000000000E+00 0.  1.
         22    1    3    3    0    0  0.18891126979E+03 -0.49240791950E+03  0.12807379174E+04  0.13850785682E+04  0.00000000000E+00 0.  1.
</event>
<event>
 7    1  0.6888820E-006  0.6923413E+02  0.7818608E-02  0.1377132E+00
          2   -1    0    0  502    0  0.00000000000E+00  0.00000000000E+00  0.76213858356E+03  0.76213858356E+03  0.00000000000E+00 0. -1.
          1   -1    0    0  501    0 -0.00000000000E+00 -0.00000000000E+00 -0.11211218882E+04  0.11211218882E+04  0.00000000000E+00 0. -1.
         25    2    1    2    0    0 -0.49913147504E+02 -0.10307288545E+03  0.12492541369E+03  0.21058713813E+03  0.12500096700E+03 0.  0.
          2    1    1    2  501    0  0.50231367145E+02  0.35389099364E+02 -0.10754843752E+04  0.10772382373E+04  0.00000000000E+00 0. -1.
          1    1    1    2  502    0 -0.31821964140E+00  0.67683786090E+02  0.59157565686E+03  0.59543509634E+03  0.00000000000E+00 0. -1.
         22    1    3    3    0    0 -0.72004768833E+02 -0.22636101266E+02  0.96390125055E+02  0.12242604308E+03  0.00000000000E+00 0. -1.
         22    1    3    3    0    0  0.22091621329E+02 -0.80436784187E+02  0.28535288634E+02  0.88161095052E+02  0.00000000000E+00 0. -1.
</event>
<event>
 7    1  0.6888820E-006  0.2819762E+03  0.7818608E-02  0.1328387E+00
          2   -1    0    0  502    0  0.00000000000E+00  0.00000000000E+00  0.78729944582E+03  0.78729944582E+03  0.00000000000E+00 0. -1.
          1   -1    0    0  501    0 -0.00000000000E+00 -0.00000000000E+00 -0.40589297141E+03  0.40589297141E+03  0.00000000000E+00 0. -1.
         25    2    1    2    0    0 -0.18094421770E+03 -0.20566674500E+03  0.74790812439E+02  0.31025392610E+03  0.12499685242E+03 0.  0.
          2    1    1    2  501    0  0.17261395331E+03  0.22692298047E+03 -0.21732756485E+03  0.35849809816E+03  0.00000000000E+00 0. -1.
          1    1    1    2  502    0  0.83302643925E+01 -0.21256235468E+02  0.52394322682E+03  0.52444039297E+03  0.00000000000E+00 0. -1.
         22    1    3    3    0    0 -0.24315601045E+02 -0.11909646134E+03  0.39810437562E+02  0.12790655377E+03  0.00000000000E+00 0. -1.
         22    1    3    3    0    0 -0.15662861666E+03 -0.86570283656E+02  0.34980374877E+02  0.18234737233E+03  0.00000000000E+00 0. -1.
</event>
<event>
 7    1  0.6888820E-006  0.6403615E+02  0.7818608E-02  0.1393718E+00
          2   -1    0    0  502    0  0.00000000000E+00  0.00000000000E+00  0.42490950390E+03  0.42490950390E+03  0.00000000000E+00 0. -1.
          1   -1    0    0  501    0 -0.00000000000E+00 -0.00000000000E+00 -0.35731156400E+03  0.35731156400E+03  0.00000000000E+00 0. -1.
         25    2    1    2    0    0  0.10461458241E+02 -0.49275475916E+02  0.12691787917E+03  0.18513396351E+03  0.12501568605E+03 0.  0.
          2    1    1    2  501    0 -0.61278485363E+02  0.21128857815E+02 -0.32179611484E+03  0.32825938056E+03  0.00000000000E+00 0. -1.
          1    1    1    2  502    0  0.50817027121E+02  0.28146618101E+02  0.26247617557E+03  0.26882772383E+03  0.00000000000E+00 0. -1.
         22    1    3    3    0    0 -0.28048498395E+02  0.80190415863E+01  0.11034847786E+03  0.11413943164E+03  0.00000000000E+00 0. -1.
         22    1    3    3    0    0  0.38509956637E+02 -0.57294517502E+02  0.16569401315E+02  0.70994531873E+02  0.00000000000E+00 0. -1.
</event>
<event>
 7    1  0.6888820E-006  0.1316668E+03  0.7818608E-02  0.1382348E+00
          2   -1    0    0  502    0  0.00000000000E+00  0.00000000000E+00  0.39293999437E+04  0.39293999437E+04  0.00000000000E+00 0. -1.
          1   -1    0    0  501    0 -0.00000000000E+00 -0.00000000000E+00 -0.59918246741E+03  0.59918246741E+03  0.00000000000E+00 0. -1.
         25    2    1    2    0    0  0.20535463919E+02  0.14246568341E+03 -0.21661358222E+03  0.28855632798E+03  0.12500053674E+03 0.  0.
          2    1    1    2  501    0  0.24590411015E+02 -0.18816602347E+02 -0.34479106095E+03  0.34617860787E+03  0.00000000000E+00 0. -1.
          1    1    1    2  502    0 -0.45125874934E+02 -0.12364908106E+03  0.38916221194E+04  0.38938474752E+04  0.00000000000E+00 0. -1.
         22    1    3    3    0    0  0.19372258260E+02  0.40281099990E+02  0.45464084300E+01  0.44927956064E+02  0.00000000000E+00 0. -1.
         22    1    3    3    0    0  0.11632056588E+01  0.10218458342E+03 -0.22115999065E+03  0.24362837191E+03  0.00000000000E+00 0. -1.
</event>
<event>
 7    1  0.6888820E-006  0.1647397E+03  0.7818608E-02  0.1361533E+00
          2   -1    0    0  502    0  0.00000000000E+00  0.00000000000E+00  0.13287531218E+04  0.13287531218E+04  0.00000000000E+00 0. -1.
          1   -1    0    0  501    0 -0.00000000000E+00 -0.00000000000E+00 -0.12425785949E+03  0.12425785949E+03  0.00000000000E+00 0. -1.
         25    2    1    2    0    0  0.66254075313E+02  0.17163111742E+03  0.14254167012E+03  0.26417928237E+03  0.12500289017E+03 0.  0.
          2    1    1    2  501    0 -0.49048220492E+02 -0.14780809008E+03  0.32663469069E+02  0.15912215949E+03  0.00000000000E+00 0. -1.
          1    1    1    2  502    0 -0.17205854821E+02 -0.23823027333E+02  0.10292901231E+04  0.10297095394E+04  0.00000000000E+00 0. -1.
         22    1    3    3    0    0  0.23684642697E+02  0.17777415071E+03  0.11234405000E+03  0.21162654969E+03  0.00000000000E+00 0.  1.
         22    1    3    3    0    0  0.42569432616E+02 -0.61430332959E+01  0.30197620119E+02  0.52552732680E+02  0.00000000000E+00 0.  1.
</event>
<event>
 7    1  0.6888820E-006  0.1544216E+03  0.7818608E-02  0.1321691E+00
          2   -1    0    0  502    0  0.00000000000E+00  0.00000000000E+00  0.39491104989E+03  0.39491104989E+03  0.00000000000E+00 0. -1.
          1   -1    0    0  501    0 -0.00000000000E+00 -0.00000000000E+00 -0.77906581886E+03  0.77906581886E+03  0.00000000000E+00 0. -1.
         25    2    1    2    0    0  0.12164532551E+03  0.52878011206E+02 -0.65465129613E+02  0.19365692658E+03  0.12499461080E+03 0.  0.
          2    1    1    2  501    0  0.34484206924E+02 -0.27709348598E+02 -0.62978427179E+03  0.63133604168E+03  0.00000000000E+00 0. -1.
          1    1    1    2  502    0 -0.15612953244E+03 -0.25168662608E+02  0.31109463243E+03  0.34898390050E+03  0.00000000000E+00 0. -1.
         22    1    3    3    0    0  0.79629578206E+02  0.17351456252E+02  0.27174521703E+02  0.85909239254E+02  0.00000000000E+00 0. -1.
         22    1    3    3    0    0  0.42015747307E+02  0.35526554954E+02 -0.92639651316E+02  0.10774768733E+03  0.00000000000E+00 0. -1.
</event>
<event>
 7    1  0.6888820E-006  0.9093880E+02  0.7818608E-02  0.1379122E+00
          2   -1    0    0  502    0  0.00000000000E+00  0.00000000000E+00  0.25528244201E+03  0.25528244201E+03  0.00000000000E+00 0. -1.
          1   -1    0    0  501    0 -0.00000000000E+00 -0.00000000000E+00 -0.30537863616E+03  0.30537863616E+03  0.00000000000E+00 0. -1.
         25    2    1    2    0    0  0.63873927975E+02 -0.54017855840E+02  0.12501237257E+03  0.19557723783E+03  0.12499822093E+03 0.  0.
          2    1    1    2  501    0 -0.31156849237E+02  0.86388783743E+02 -0.25602303218E+03  0.27199552242E+03  0.00000000000E+00 0. -1.
          1    1    1    2  502    0 -0.32717078738E+02 -0.32370927902E+02  0.80914465458E+02  0.93088317929E+02  0.00000000000E+00 0. -1.
         22    1    3    3    0    0 -0.44522015453E+01 -0.70669274975E+02  0.28891659818E+02  0.76476771187E+02  0.00000000000E+00 0. -1.
         22    1    3    3    0    0  0.68326129521E+02  0.16651419135E+02  0.96120712750E+02  0.11910046664E+03  0.00000000000E+00 0. -1.
</event>
<event>
 7    1  0.6888820E-006  0.6375418E+02  0.7818608E-02  0.1439286E+00
          2   -1    0    0  502    0  0.00000000000E+00  0.00000000000E+00  0.23282331801E+03  0.23282331801E+03  0.00000000000E+00 0. -1.
          1   -1    0    0  501    0 -0.00000000000E+00 -0.00000000000E+00 -0.11932544319E+04  0.11932544319E+04  0.00000000000E+00 0. -1.
         25    2    1    2    0    0  0.59764119066E+02 -0.31355224101E+02  0.64960666861E+02  0.15619675798E+03  0.12499055548E+03 0.  0.
          2    1    1    2  501    0  0.46737863536E+01  0.40755046050E+02 -0.11385683517E+04  0.11393071182E+04  0.00000000000E+00 0. -1.
          1    1    1    2  502    0 -0.64437905420E+02 -0.93998219483E+01  0.11317657092E+03  0.13057387378E+03  0.00000000000E+00 0. -1.
         22    1    3    3    0    0  0.89038131916E+02 -0.29506456268E+02  0.79956330904E+02  0.12325353848E+03  0.00000000000E+00 0.  1.
         22    1    3    3    0    0 -0.29274012851E+02 -0.18487678337E+01 -0.14995664043E+02  0.32943219499E+02  0.00000000000E+00 0.  1.
</event>
<event>
 7    1  0.6888820E-006  0.9455554E+02  0.7818608E-02  0.1359887E+00
          2   -1    0    0  502    0  0.00000000000E+00  0.00000000000E+00  0.42191650426E+03  0.42191650426E+03  0.00000000000E+00 0. -1.
          1   -1    0    0  501    0 -0.00000000000E+00 -0.00000000000E+00 -0.79110307662E+03  0.79110307662E+03  0.00000000000E+00 0. -1.
         25    2    1    2    0    0 -0.21363911305E+02 -0.12627739043E+03 -0.28487700155E+03  0.33642471308E+03  0.12499714203E+03 0.  0.
          2    1    1    2  501    0 -0.25964220224E+02  0.44951580957E+02 -0.47342583130E+03  0.47626337578E+03  0.00000000000E+00 0. -1.
          1    1    1    2  502    0  0.47328131529E+02  0.81325809476E+02  0.38911626050E+03  0.40033149202E+03  0.00000000000E+00 0. -1.
         22    1    3    3    0    0  0.49571689600E+02 -0.30011452575E+02 -0.11372382960E+03  0.12763678590E+03  0.00000000000E+00 0. -1.
         22    1    3    3    0    0 -0.70935600905E+02 -0.96265937858E+02 -0.17115317195E+03  0.20878792718E+03  0.00000000000E+00 0. -1.
</event>
<event>
 7    1  0.6888820E-006  0.6633608E+02  0.7818608E-02  0.1446368E+00
          2   -1    0    0  502    0  0.00000000000E+00  0.00000000000E+00  0.63084617771E+03  0.63084617771E+03  0.00000000000E+00 0. -1.
          1   -1    0    0  501    0 -0.00000000000E+00 -0.00000000000E+00 -0.30688370238E+03  0.30688370238E+03  0.00000000000E+00 0. -1.
         25    2    1    2    0    0 -0.23230697899E+02  0.66818935430E+02  0.15592193628E+03  0.21199374195E+03  0.12500104383E+03 0.  0.
          2    1    1    2  501    0  0.37369488771E+02 -0.15403257299E+01 -0.27507951562E+03  0.27761050269E+03  0.00000000000E+00 0. -1.
          1    1    1    2  502    0 -0.14138790872E+02 -0.65278609700E+02  0.44312005467E+03  0.44812563544E+03  0.00000000000E+00 0. -1.
         22    1    3    3    0    0  0.49387729642E+02  0.90287547095E+01  0.45563124986E+02  0.67798706546E+02  0.00000000000E+00 0.  1.
         22    1    3    3    0    0 -0.72618427541E+02  0.57790180721E+02  0.11035881129E+03  0.14419503541E+03  0.00000000000E+00 0.  1.
</event>
<event>
 7    1  0.6888820E-006  0.2718400E+02  0.7818608E-02  0.1677884E+00
          2   -1    0    0  502    0  0.00000000000E+00  0.00000000000E+00  0.84219043860E+03  0.84219043860E+03  0.00000000000E+00 0. -1.
          1   -1    0    0  501    0 -0.00000000000E+00 -0.00000000000E+00 -0.58671030117E+02  0.58671030117E+02  0.00000000000E+00 0. -1.
         25    2    1    2    0    0  0.20290221073E+02  0.27962959822E+02  0.53809264275E+02  0.14040438874E+03  0.12499734102E+03 0.  0.
          2    1    1    2  501    0 -0.25894954902E+02 -0.77780395423E+01 -0.32188225706E+01  0.27228797389E+02  0.00000000000E+00 0. -1.
          1    1    1    2  502    0  0.56047338292E+01 -0.20184920280E+02  0.73292896678E+03  0.73322828259E+03  0.00000000000E+00 0. -1.
         22    1    3    3    0    0 -0.39633938303E+02  0.24429688768E+02 -0.15166042538E+02  0.48965984162E+02  0.00000000000E+00 0.  1.
         22    1    3    3    0    0  0.59924159376E+02  0.35332710539E+01  0.68975306813E+02  0.91438404575E+02  0.00000000000E+00 0.  1.
</event>
<event>
 7    1  0.6888820E-006  0.2314895E+03  0.7818608E-02  0.1178906E+00
          2   -1    0    0  502    0  0.00000000000E+00  0.00000000000E+00  0.27747065964E+03  0.27747065964E+03  0.00000000000E+00 0. -1.
          1   -1    0    0  501    0 -0.00000000000E+00 -0.00000000000E+00 -0.32994789148E+04  0.32994789148E+04  0.00000000000E+00 0. -1.
         25    2    1    2    0    0  0.29509751163E+01 -0.19440017957E+03 -0.20408019213E+03  0.30834109104E+03  0.12500146212E+03 0.  0.
          2    1    1    2  501    0 -0.12133149249E+03 -0.22298850635E+02 -0.29739585919E+04  0.29765161307E+04  0.00000000000E+00 0. -1.
          1    1    1    2  502    0  0.11838051737E+03  0.21669903021E+03  0.15603052888E+03  0.29209235274E+03  0.00000000000E+00 0. -1.
         22    1    3    3    0    0 -0.68009702398E+01 -0.47749260085E+02 -0.13987026202E+03  0.14795247626E+03  0.00000000000E+00 0. -1.
         22    1    3    3    0    0  0.97519453562E+01 -0.14665091949E+03 -0.64209930109E+02  0.16038861477E+03  0.00000000000E+00 0. -1.
</event>
<event>
 7    1  0.6888820E-006  0.6906858E+02  0.7818608E-02  0.1383339E+00
          2   -1    0    0  502    0  0.00000000000E+00  0.00000000000E+00  0.27213045798E+04  0.27213045798E+04  0.00000000000E+00 0. -1.
          1   -1    0    0  501    0 -0.00000000000E+00 -0.00000000000E+00 -0.43554746324E+03  0.43554746324E+03  0.00000000000E+00 0. -1.
         25    2    1    2    0    0  0.70457876221E+02 -0.10392179096E+03  0.68595300234E+01  0.17730114035E+03  0.12499836103E+03 0.  0.
          2    1    1    2  501    0 -0.41062842611E+02  0.41741882775E+02 -0.34742662401E+03  0.35232627052E+03  0.00000000000E+00 0. -1.
          1    1    1    2  502    0 -0.29395033611E+02  0.62179908180E+02  0.26263242106E+04  0.26272246322E+04  0.00000000000E+00 0. -1.
         22    1    3    3    0    0  0.17880653505E+02 -0.11818247008E+03 -0.10847732666E+02  0.12001869566E+03  0.00000000000E+00 0.  1.
         22    1    3    3    0    0  0.52577222716E+02  0.14260679126E+02  0.17707262689E+02  0.57282444690E+02  0.00000000000E+00 0.  1.
</event>
<event>
 7    1  0.6888820E-006  0.5068362E+02  0.7818608E-02  0.1469293E+00
          2   -1    0    0  502    0  0.00000000000E+00  0.00000000000E+00  0.14599637447E+04  0.14599637447E+04  0.00000000000E+00 0. -1.
          1   -1    0    0  501    0 -0.00000000000E+00 -0.00000000000E+00 -0.13331162693E+04  0.13331162693E+04  0.00000000000E+00 0. -1.
         25    2    1    2    0    0  0.24849273528E+02  0.67573803899E+02 -0.49809381001E+02  0.15260489594E+03  0.12499429772E+03 0.  0.
          2    1    1    2  501    0  0.16314401226E+02 -0.38072924580E+02 -0.12311055031E+04  0.12318021217E+04  0.00000000000E+00 0. -1.
          1    1    1    2  502    0 -0.41163674754E+02 -0.29500879318E+02  0.14077623594E+04  0.14086729964E+04  0.00000000000E+00 0. -1.
         22    1    3    3    0    0  0.35406442752E+02  0.85462425185E+01  0.33817066583E+02  0.49701593956E+02  0.00000000000E+00 0. -1.
         22    1    3    3    0    0 -0.10557169224E+02  0.59027561380E+02 -0.83626447584E+02  0.10290330199E+03  0.00000000000E+00 0. -1.
</event>
<event>
 7    1  0.6888820E-006  0.1789787E+03  0.7818608E-02  0.1324088E+00
          2   -1    0    0  502    0  0.00000000000E+00  0.00000000000E+00  0.68356757289E+03  0.68356757289E+03  0.00000000000E+00 0. -1.
          1   -1    0    0  501    0 -0.00000000000E+00 -0.00000000000E+00 -0.15286865432E+03  0.15286865432E+03  0.00000000000E+00 0. -1.
         25    2    1    2    0    0  0.11477965011E+02 -0.20131168352E+03  0.99503492408E+02  0.25726155690E+03  0.12499770421E+03 0.  0.
          2    1    1    2  501    0  0.22575615609E+02  0.29771498820E+02 -0.52725221881E+02  0.64621587604E+02  0.00000000000E+00 0. -1.
          1    1    1    2  502    0 -0.34053580620E+02  0.17154018470E+03  0.48392064804E+03  0.51455308271E+03  0.00000000000E+00 0. -1.
         22    1    3    3    0    0 -0.30608234381E+02 -0.16991582833E+03  0.10860934158E+03  0.20397117887E+03  0.00000000000E+00 0. -1.
         22    1    3    3    0    0  0.42086199392E+02 -0.31395855189E+02 -0.91058491766E+01  0.53290378039E+02  0.00000000000E+00 0. -1.
</event>
<event>
 7    1  0.6888820E-006  0.1111779E+03  0.7818608E-02  0.1289983E+00
          2   -1    0    0  502    0  0.00000000000E+00  0.00000000000E+00  0.54916693068E+03  0.54916693068E+03  0.00000000000E+00 0. -1.
          1   -1    0    0  501    0 -0.00000000000E+00 -0.00000000000E+00 -0.75275931803E+03  0.75275931803E+03  0.00000000000E+00 0. -1.
         25    2    1    2    0    0 -0.16176335802E+03  0.27370679131E+02  0.25478761314E+03  0.32780852744E+03  0.12500065912E+03 0.  0.
          2    1    1    2  501    0  0.64890971280E+02 -0.50274893336E+02 -0.70416846323E+03  0.70893697016E+03  0.00000000000E+00 0. -1.
          1    1    1    2  502    0  0.96872386738E+02  0.22904214205E+02  0.24578846274E+03  0.26518075111E+03  0.00000000000E+00 0. -1.
         22    1    3    3    0    0 -0.14332951773E+03  0.70199966997E+02  0.19953621284E+03  0.25551142099E+03  0.00000000000E+00 0.  1.
         22    1    3    3    0    0 -0.18433840289E+02 -0.42829287866E+02  0.55251400295E+02  0.72297106453E+02  0.00000000000E+00 0.  1.
</event>
<event>
 7    1  0.6888820E-006  0.5813494E+02  0.7818608E-02  0.1500106E+00
          2   -1    0    0  502    0  0.00000000000E+00  0.00000000000E+00  0.19171202113E+04  0.19171202113E+04  0.00000000000E+00 0. -1.
          1   -1    0    0  501    0 -0.00000000000E+00 -0.00000000000E+00 -0.21124978879E+03  0.21124978879E+03  0.00000000000E+00 0. -1.
         25    2    1    2    0    0 -0.12572049604E+02 -0.35470988281E+02  0.49713594693E+03  0.51399022752E+03  0.12500222725E+03 0.  0.
          2    1    1    2  501    0 -0.27709712271E+02 -0.88522128045E+01 -0.20114055963E+03  0.20323315319E+03  0.00000000000E+00 0. -1.
          1    1    1    2  502    0  0.40281761876E+02  0.44323201085E+02  0.14098750353E+04  0.14111466194E+04  0.00000000000E+00 0. -1.
         22    1    3    3    0    0 -0.49134789279E+02  0.14747624479E+02  0.35748003174E+03  0.36114220612E+03  0.00000000000E+00 0. -1.
         22    1    3    3    0    0  0.36562739674E+02 -0.50218612760E+02  0.13965591519E+03  0.15284802140E+03  0.00000000000E+00 0. -1.
</event>
<event>
 7    1  0.6888820E-006  0.8802016E+02  0.7818608E-02  0.1444664E+00
          2   -1    0    0  502    0  0.00000000000E+00  0.00000000000E+00  0.70515643951E+03  0.70515643951E+03  0.00000000000E+00 0. -1.
          1   -1    0    0  501    0 -0.00000000000E+00 -0.00000000000E+00 -0.18919671604E+03  0.18919671604E+03  0.00000000000E+00 0. -1.
         25    2    1    2    0    0 -0.10479440321E+03  0.13737476546E+02  0.41750811799E+03  0.44845093420E+03  0.12499850638E+03 0.  0.
          2    1    1    2  501    0  0.23435733765E+02 -0.16298051888E+02 -0.16639669198E+03  0.16882748359E+03  0.00000000000E+00 0. -1.
          1    1    1    2  502    0  0.81358669447E+02  0.25605753425E+01  0.26484829746E+03  0.27707473776E+03  0.00000000000E+00 0. -1.
         22    1    3    3    0    0 -0.96400651178E+02 -0.39043010996E+02  0.21244875228E+03  0.23654157055E+03  0.00000000000E+00 0. -1.
         22    1    3    3    0    0 -0.83937520345E+01  0.52780487542E+02  0.20505936571E+03  0.21190936365E+03  0.00000000000E+00 0. -1.
</event>
<event>
 7    1  0.6888820E-006  0.6732283E+02  0.7818608E-02  0.1376516E+00
          2   -1    0    0  502    0  0.00000000000E+00  0.00000000000E+00  0.10696179623E+04  0.10696179623E+04  0.00000000000E+00 0. -1.
          1   -1    0    0  501    0 -0.00000000000E+00 -0.00000000000E+00 -0.22744775620E+03  0.22744775620E+03  0.00000000000E+00 0. -1.
         25    2    1    2    0    0  0.94154496893E+01 -0.17800844055E+02  0.45282221504E+03  0.47018950626E+03  0.12499877049E+03 0.  0.
          2    1    1    2  501    0  0.12004716464E+02 -0.62364927883E+02 -0.21124125575E+03  0.22058187953E+03  0.00000000000E+00 0. -1.
          1    1    1    2  502    0 -0.21420166153E+02  0.80165771938E+02  0.60058924678E+03  0.60629433269E+03  0.00000000000E+00 0. -1.
         22    1    3    3    0    0  0.57387138237E+02  0.24546329854E+02  0.23698512164E+03  0.24506683542E+03  0.00000000000E+00 0. -1.
         22    1    3    3    0    0 -0.47971688548E+02 -0.42347173909E+02  0.21583709340E+03  0.22512267084E+03  0.00000000000E+00 0. -1.
</event>
<event>
 7    1  0.6888820E-006  0.1238785E+03  0.7818608E-02  0.1310221E+00
          2   -1    0    0  502    0  0.00000000000E+00  0.00000000000E+00  0.14319185512E+03  0.14319185512E+03  0.00000000000E+00 0. -1.
          1   -1    0    0  501    0 -0.00000000000E+00 -0.00000000000E+00 -0.44929728429E+03  0.44929728429E+03  0.00000000000E+00 0. -1.
         25    2    1    2    0    0 -0.71355514443E+02 -0.95455607163E+02 -0.11511675681E+03  0.20755599909E+03  0.12499697069E+03 0.  0.
          2    1    1    2  501    0  0.11684445043E+03  0.54611757399E+02 -0.26151945981E+03  0.29159474876E+03  0.00000000000E+00 0. -1.
          1    1    1    2  502    0 -0.45488935985E+02  0.40843849765E+02  0.70530787444E+02  0.93338391555E+02  0.00000000000E+00 0. -1.
         22    1    3    3    0    0 -0.95971607485E+02 -0.28898799203E+02 -0.53706586894E+02  0.11371054267E+03  0.00000000000E+00 0. -1.
         22    1    3    3    0    0  0.24616093043E+02 -0.66556807961E+02 -0.61410169911E+02  0.93845456422E+02  0.00000000000E+00 0. -1.
</event>
<event>
 7    1  0.6888820E-006  0.4441684E+02  0.7818608E-02  0.1484187E+00
          2   -1    0    0  502    0  0.00000000000E+00  0.00000000000E+00  0.16513567165E+04  0.16513567165E+04  0.00000000000E+00 0. -1.
          1   -1    0    0  501    0 -0.00000000000E+00 -0.00000000000E+00 -0.64408129353E+02  0.64408129353E+02  0.00000000000E+00 0. -1.
         25    2    1    2    0    0  0.85497686597E+02 -0.63296440061E+01  0.38000114750E+03  0.40911668469E+03  0.12500268310E+03 0.  0.
          2    1    1    2  501    0 -0.43424011009E+02  0.14975089233E+00 -0.39961991153E+02  0.59013794103E+02  0.00000000000E+00 0. -1.
          1    1    1    2  502    0 -0.42073675587E+02  0.61798931138E+01  0.12469094308E+04  0.12476343671E+04  0.00000000000E+00 0. -1.
         22    1    3    3    0    0  0.46643369021E+02 -0.53701037288E+02  0.10141199801E+03  0.12387008767E+03  0.00000000000E+00 0. -1.
         22    1    3    3    0    0  0.38854317576E+02  0.47371393282E+02  0.27858914949E+03  0.28524659702E+03  0.00000000000E+00 0. -1.
</event>
<event>
 7    1  0.6888820E-006  0.2212034E+03  0.7818608E-02  0.1286013E+00
          2   -1    0    0  502    0  0.00000000000E+00  0.00000000000E+00  0.17587002643E+03  0.17587002643E+03  0.00000000000E+00 0. -1.
          1   -1    0    0  501    0 -0.00000000000E+00 -0.00000000000E+00 -0.60856037022E+03  0.60856037022E+03  0.00000000000E+00 0. -1.
         25    2    1    2    0    0 -0.21258912251E+03 -0.12590247656E+03 -0.20212950654E+03  0.34282453506E+03  0.12500702304E+03 0.  0.
          2    1    1    2  501    0  0.16992673569E+03  0.12216878163E+03 -0.29653500921E+03  0.36295084845E+03  0.00000000000E+00 0. -1.
          1    1    1    2  502    0  0.42662386819E+02  0.37336949230E+01  0.65974171957E+02  0.78655013142E+02  0.00000000000E+00 0. -1.
         22    1    3    3    0    0 -0.21493071165E+03 -0.13713551823E+03 -0.20880765078E+03  0.32954816976E+03  0.00000000000E+00 0. -1.
         22    1    3    3    0    0  0.23415891430E+01  0.11233041671E+02  0.66781442395E+01  0.13276365293E+02  0.00000000000E+00 0. -1.
</event>
<event>
 7    1  0.6888820E-006  0.6035925E+02  0.7818608E-02  0.1549782E+00
          2   -1    0    0  502    0  0.00000000000E+00  0.00000000000E+00  0.40607090306E+03  0.40607090306E+03  0.00000000000E+00 0. -1.
          1   -1    0    0  501    0 -0.00000000000E+00 -0.00000000000E+00 -0.11728652433E+04  0.11728652433E+04  0.00000000000E+00 0. -1.
         25    2    1    2    0    0  0.39772693549E+02  0.32462302143E+02 -0.42248126464E+02  0.14158272746E+03  0.12500038525E+03 0.  0.
          2    1    1    2  501    0 -0.56633767949E+02 -0.21444794830E+02 -0.10798161900E+04  0.10815129528E+04  0.00000000000E+00 0. -1.
          1    1    1    2  502    0  0.16861074400E+02 -0.11017507312E+02  0.35526997622E+03  0.35584046608E+03  0.00000000000E+00 0. -1.
         22    1    3    3    0    0 -0.28464613483E+02  0.11009479867E+02 -0.60498875131E+02  0.67761026850E+02  0.00000000000E+00 0. -1.
         22    1    3    3    0    0  0.68237307032E+02  0.21452822276E+02  0.18250748666E+02  0.73821700614E+02  0.00000000000E+00 0. -1.
</event>
<event>
 7    1  0.6888820E-006  0.1155055E+03  0.7818608E-02  0.1258207E+00
          2   -1    0    0  502    0  0.00000000000E+00  0.00000000000E+00  0.15511653211E+04  0.15511653211E+04  0.00000000000E+00 0. -1.
          1   -1    0    0  501    0 -0.00000000000E+00 -0.00000000000E+00 -0.66475520190E+02  0.66475520190E+02  0.00000000000E+00 0. -1.
         25    2    1    2    0    0  0.96785806724E+01  0.80555887989E+02  0.25942234465E+03  0.29917905485E+03  0.12500091177E+03 0.  0.
          2    1    1    2  501    0  0.10422174974E+03 -0.49793021647E+02  0.32661932900E+02  0.12003466159E+03  0.00000000000E+00 0. -1.
          1    1    1    2  502    0 -0.11390033041E+03 -0.30762866342E+02  0.11926055233E+04  0.11984271248E+04  0.00000000000E+00 0. -1.
         22    1    3    3    0    0  0.40710820362E+02 -0.17837386440E+02  0.97921291109E+02  0.10753661005E+03  0.00000000000E+00 0.  1.
         22    1    3    3    0    0 -0.31032239689E+02  0.98393274428E+02  0.16150105354E+03  0.19164244480E+03  0.00000000000E+00 0.  1.
</event>
<event>
 7    1  0.6888820E-006  0.7396508E+02  0.7818608E-02  0.1387975E+00
          2   -1    0    0  502    0  0.00000000000E+00  0.00000000000E+00  0.31774505146E+03  0.31774505146E+03  0.00000000000E+00 0. -1.
          1   -1    0    0  501    0 -0.00000000000E+00 -0.00000000000E+00 -0.47908789766E+03  0.47908789766E+03  0.00000000000E+00 0. -1.
         25    2    1    2    0    0  0.29872698483E+02  0.13125491074E+02  0.25769944318E+02  0.13173446166E+03  0.12500088691E+03 0.  0.
          2    1    1    2  501    0 -0.74564195140E+02  0.14737146334E+02 -0.41974920803E+03  0.42657519890E+03  0.00000000000E+00 0. -1.
          1    1    1    2  502    0  0.44691496657E+02 -0.27862637407E+02  0.23263641751E+03  0.23852328856E+03  0.00000000000E+00 0. -1.
         22    1    3    3    0    0  0.17064612708E+01 -0.26964951279E+02 -0.40886878072E+02  0.49007728023E+02  0.00000000000E+00 0. -1.
         22    1    3    3    0    0  0.28166237213E+02  0.40090442352E+02  0.66656822390E+02  0.82726733635E+02  0.00000000000E+00 0. -1.
</event>
<event>
 7    1  0.6888820E-006  0.5940144E+02  0.7818608E-02  0.1454110E+00
          2   -1    0    0  502    0  0.00000000000E+00  0.00000000000E+00  0.12949666262E+04  0.12949666262E+04  0.00000000000E+00 0. -1.
          1   -1    0    0  501    0 -0.00000000000E+00 -0.00000000000E+00 -0.26224304987E+03  0.26224304987E+03  0.00000000000E+00 0. -1.
         25    2    1    2    0    0  0.93428278647E+02  0.14553378172E+02  0.26467401563E+03  0.30760128481E+03  0.12500228717E+03 0.  0.
          2    1    1    2  501    0 -0.35398024668E+02 -0.17421009036E+02 -0.23831975922E+03  0.24156328227E+03  0.00000000000E+00 0. -1.
          1    1    1    2  502    0 -0.58030253979E+02  0.28676308642E+01  0.10063693200E+04  0.10080451090E+04  0.00000000000E+00 0. -1.
         22    1    3    3    0    0  0.39655685693E+02 -0.41828707875E+02  0.40965883182E+02  0.70713632315E+02  0.00000000000E+00 0. -1.
         22    1    3    3    0    0  0.53772592954E+02  0.56382086047E+02  0.22370813245E+03  0.23688765249E+03  0.00000000000E+00 0. -1.
</event>
<event>
 7    1  0.6888820E-006  0.1171485E+03  0.7818608E-02  0.1430271E+00
          2   -1    0    0  502    0  0.00000000000E+00  0.00000000000E+00  0.14360185227E+04  0.14360185227E+04  0.00000000000E+00 0. -1.
          1   -1    0    0  501    0 -0.00000000000E+00 -0.00000000000E+00 -0.19359796231E+04  0.19359796231E+04  0.00000000000E+00 0. -1.
         25    2    1    2    0    0  0.78335980009E+02 -0.78325314425E+02 -0.40610053803E+03  0.43910624868E+03  0.12500107997E+03 0.  0.
          2    1    1    2  501    0 -0.98509575931E+02  0.65523393587E+02 -0.15109630846E+04  0.15155879700E+04  0.00000000000E+00 0. -1.
          1    1    1    2  502    0  0.20173595921E+02  0.12801920837E+02  0.14171025223E+04  0.14173039271E+04  0.00000000000E+00 0. -1.
         22    1    3    3    0    0  0.10820332902E+03 -0.62281384987E+02 -0.36536945700E+03  0.38611108691E+03  0.00000000000E+00 0.  1.
         22    1    3    3    0    0 -0.29867349012E+02 -0.16043929438E+02 -0.40731081037E+02  0.52995161772E+02  0.00000000000E+00 0.  1.
</event>
<event>
 7    1  0.6888820E-006  0.1464685E+03  0.7818608E-02  0.1284562E+00
          2   -1    0    0  502    0  0.00000000000E+00  0.00000000000E+00  0.10472392850E+03  0.10472392850E+03  0.00000000000E+00 0. -1.
          1   -1    0    0  501    0 -0.00000000000E+00 -0.00000000000E+00 -0.44994743863E+03  0.44994743863E+03  0.00000000000E+00 0. -1.
         25    2    1    2    0    0  0.99308332509E+02  0.57994503375E+02 -0.17270183486E+03  0.24223209454E+03  0.12499982612E+03 0.  0.
          2    1    1    2  501    0  0.11696572838E+02  0.64516904156E+02 -0.12379398864E+03  0.14008637465E+03  0.00000000000E+00 0. -1.
          1    1    1    2  502    0 -0.11100490535E+03 -0.12251140753E+03 -0.48727686619E+02  0.17235289794E+03  0.00000000000E+00 0. -1.
         22    1    3    3    0    0  0.10415303581E+03  0.86734092158E+02 -0.11567476346E+03  0.17818896855E+03  0.00000000000E+00 0.  1.
         22    1    3    3    0    0 -0.48447033009E+01 -0.28739588783E+02 -0.57027071404E+02  0.64043125989E+02  0.00000000000E+00 0.  1.
</event>
<event>
 7    1  0.6888820E-006  0.3220842E+02  0.7818608E-02  0.1584915E+00
          2   -1    0    0  502    0  0.00000000000E+00  0.00000000000E+00  0.24296053492E+04  0.24296053492E+04  0.00000000000E+00 0. -1.
          1   -1    0    0  501    0 -0.00000000000E+00 -0.00000000000E+00 -0.17883272127E+04  0.17883272127E+04  0.00000000000E+00 0. -1.
         25    2    1    2    0    0 -0.15898999325E+02 -0.53281065724E+02  0.44622086169E+03  0.46672158618E+03  0.12499732580E+03 0.  0.
          2    1    1    2  501    0 -0.53831847797E+01  0.31749644664E+02 -0.17778148995E+04  0.17781065310E+04  0.00000000000E+00 0. -1.
          1    1    1    2  502    0  0.21282184105E+02  0.21531421060E+02  0.19728721744E+04  0.19731044448E+04  0.00000000000E+00 0. -1.
         22    1    3    3    0    0 -0.52638105826E+02 -0.51531798840E+02  0.40428557011E+03  0.41094174609E+03  0.00000000000E+00 0.  1.
         22    1    3    3    0    0  0.36739106501E+02 -0.17492668847E+01  0.41935291574E+02  0.55779840090E+02  0.00000000000E+00 0.  1.
</event>
<event>
 7    1  0.6888820E-006  0.7484412E+02  0.7818608E-02  0.1389637E+00
          2   -1    0    0  502    0  0.00000000000E+00  0.00000000000E+00  0.46396434652E+03  0.46396434652E+03  0.00000000000E+00 0. -1.
          1   -1    0    0  501    0 -0.00000000000E+00 -0.00000000000E+00 -0.45208186069E+02  0.45208186069E+02  0.00000000000E+00 0. -1.
         25    2    1    2    0    0  0.36072516738E+01  0.10677348970E+03  0.29214915253E+03  0.33524680227E+03  0.12500280292E+03 0.  0.
          2    1    1    2  501    0  0.17721504393E+02 -0.48200764751E+02  0.31612622012E+02  0.60305251106E+02  0.00000000000E+00 0. -1.
          1    1    1    2  502    0 -0.21328756067E+02 -0.58572724950E+02  0.94994385914E+02  0.11362047922E+03  0.00000000000E+00 0. -1.
         22    1    3    3    0    0 -0.20807428752E+02  0.58495646938E+02  0.32610164529E+02  0.70129256609E+02  0.00000000000E+00 0.  1.
         22    1    3    3    0    0  0.24414680426E+02  0.48277842763E+02  0.25953898800E+03  0.26511754566E+03  0.00000000000E+00 0.  1.
</event>
<event>
 7    1  0.6888820E-006  0.7519501E+02  0.7818608E-02  0.1369264E+00
          2   -1    0    0  502    0  0.00000000000E+00  0.00000000000E+00  0.12038779605E+04  0.12038779605E+04  0.00000000000E+00 0. -1.
          1   -1    0    0  501    0 -0.00000000000E+00 -0.00000000000E+00 -0.46173972633E+03  0.46173972633E+03  0.00000000000E+00 0. -1.
         25    2    1    2    0    0 -0.28819730379E+02  0.13144519017E+03  0.15518857611E+03  0.24045106547E+03  0.12499922341E+03 0.  0.
          2    1    1    2  501    0  0.16322464960E+02 -0.72389649551E+02 -0.41490816405E+03  0.42149195582E+03  0.00000000000E+00 0. -1.
          1    1    1    2  502    0  0.12497265418E+02 -0.59055540622E+02  0.10018578221E+04  0.10036746656E+04  0.00000000000E+00 0. -1.
         22    1    3    3    0    0  0.11460903126E+01  0.14792413513E+03  0.11304279629E+03  0.18617609156E+03  0.00000000000E+00 0. -1.
         22    1    3    3    0    0 -0.29965820691E+02 -0.16478944954E+02  0.42145779820E+02  0.54274973911E+02  0.00000000000E+00 0. -1.
</event>
<event>
 7    1  0.6888820E-006  0.2077252E+03  0.7818608E-02  0.1243449E+00
          2   -1    0    0  502    0  0.00000000000E+00  0.00000000000E+00  0.23377085400E+04  0.23377085400E+04  0.00000000000E+00 0. -1.
          1   -1    0    0  501    0 -0.00000000000E+00 -0.00000000000E+00 -0.11797879252E+04  0.11797879252E+04  0.00000000000E+00 0. -1.
         25    2    1    2    0    0 -0.25732443001E+03  0.44786923896E+02 -0.10715357219E+01  0.28956556970E+03  0.12500136054E+03 0.  0.
          2    1    1    2  501    0  0.63885163751E+02  0.26271952756E+02 -0.10284679486E+04  0.10307850654E+04  0.00000000000E+00 0. -1.
          1    1    1    2  502    0  0.19343926626E+03 -0.71058876652E+02  0.21874600991E+04  0.21971458301E+04  0.00000000000E+00 0. -1.
         22    1    3    3    0    0 -0.15513140306E+03  0.74957210199E+02  0.37355704343E+02  0.17629459499E+03  0.00000000000E+00 0. -1.
         22    1    3    3    0    0 -0.10219302695E+03 -0.30170286303E+02 -0.38427240065E+02  0.11327097471E+03  0.00000000000E+00 0. -1.
</event>
<event>
 7    1  0.6888820E-006  0.1696222E+03  0.7818608E-02  0.1224590E+00
          2   -1    0    0  502    0  0.00000000000E+00  0.00000000000E+00  0.10089742089E+04  0.10089742089E+04  0.00000000000E+00 0. -1.
          1   -1    0    0  501    0 -0.00000000000E+00 -0.00000000000E+00 -0.80738435735E+03  0.80738435735E+03  0.00000000000E+00 0. -1.
         25    2    1    2    0    0 -0.51593292595E+02 -0.25377725771E+03 -0.97915718583E+02  0.30376855144E+03  0.12499232188E+03 0.  0.
          2    1    1    2  501    0  0.54198533333E+02  0.15116526283E+03 -0.59291932820E+03  0.61428148878E+03  0.00000000000E+00 0. -1.
          1    1    1    2  502    0 -0.26052407384E+01  0.10261199488E+03  0.89242489836E+03  0.89830852605E+03  0.00000000000E+00 0. -1.
         22    1    3    3    0    0 -0.30846812803E+02 -0.72978556516E+02 -0.92375755304E+02  0.12169911971E+03  0.00000000000E+00 0. -1.
         22    1    3    3    0    0 -0.20746479792E+02 -0.18079870119E+03 -0.55399632784E+01  0.18206943173E+03  0.00000000000E+00 0. -1.
</event>
<event>
 7    1  0.6888820E-006  0.5803821E+02  0.7818608E-02  0.1411891E+00
          2   -1    0    0  502    0  0.00000000000E+00  0.00000000000E+00  0.36986709754E+04  0.36986709754E+04  0.00000000000E+00 0. -1.
          1   -1    0    0  501    0 -0.00000000000E+00 -0.00000000000E+00 -0.24984081827E+02  0.24984081827E+02  0.00000000000E+00 0. -1.
         25    2    1    2    0    0  0.77766996364E+01 -0.12255481223E+02  0.45053128337E+03  0.46777576837E+03  0.12500023317E+03 0.  0.
          2    1    1    2  501    0  0.35683817450E+02  0.50721279373E+02  0.43634327740E+02  0.75828342764E+02  0.00000000000E+00 0. -1.
          1    1    1    2  502    0 -0.43460517087E+02 -0.38465798150E+02  0.31795212825E+04  0.31800509461E+04  0.00000000000E+00 0. -1.
         22    1    3    3    0    0  0.72627484182E+01  0.22877978927E+01  0.45295839738E+03  0.45302239602E+03  0.00000000000E+00 0. -1.
         22    1    3    3    0    0  0.51395121824E+00 -0.14543279116E+02 -0.24271140058E+01  0.14753372350E+02  0.00000000000E+00 0. -1.
</event>
<event>
 7    1  0.6888820E-006  0.9531064E+02  0.7818608E-02  0.1360575E+00
          2   -1    0    0  502    0  0.00000000000E+00  0.00000000000E+00  0.33219121434E+04  0.33219121434E+04  0.00000000000E+00 0. -1.
          1   -1    0    0  501    0 -0.00000000000E+00 -0.00000000000E+00 -0.13109765554E+03  0.13109765554E+03  0.00000000000E+00 0. -1.
         25    2    1    2    0    0 -0.11765911825E+03 -0.45783799876E+02  0.33676267991E+03  0.38075495569E+03  0.12500163705E+03 0.  0.
          2    1    1    2  501    0  0.94003101853E+02  0.37285409997E+00 -0.88588522151E+02  0.12916906919E+03  0.00000000000E+00 0. -1.
          1    1    1    2  502    0  0.23656016397E+02  0.45410945776E+02  0.29426403301E+04  0.29430857740E+04  0.00000000000E+00 0. -1.
         22    1    3    3    0    0  0.22763539699E+02  0.11870656270E+02  0.42690004892E+02  0.49814934885E+02  0.00000000000E+00 0. -1.
         22    1    3    3    0    0 -0.14042265795E+03 -0.57654456147E+02  0.29407267502E+03  0.33094002081E+03  0.00000000000E+00 0. -1.
</event>
<event>
 7    1  0.6888820E-006  0.1606415E+03  0.7818608E-02  0.1306137E+00
          2   -1    0    0  502    0  0.00000000000E+00  0.00000000000E+00  0.12496506102E+04  0.12496506102E+04  0.00000000000E+00 0. -1.
          1   -1    0    0  501    0 -0.00000000000E+00 -0.00000000000E+00 -0.22300622154E+04  0.22300622154E+04  0.00000000000E+00 0. -1.
         25    2    1    2    0    0 -0.11143671461E+03 -0.23161449847E+02 -0.15668971160E+03  0.23050363949E+03  0.12500267186E+03 0.  0.
          2    1    1    2  501    0 -0.48926592575E+02  0.50347742939E+00 -0.20307624292E+04  0.20313517935E+04  0.00000000000E+00 0. -1.
          1    1    1    2  502    0  0.16036330719E+03  0.22657972417E+02  0.12070405357E+04  0.12178573926E+04  0.00000000000E+00 0. -1.
         22    1    3    3    0    0 -0.83298457351E+02 -0.61883465307E+02 -0.53492841340E+02  0.11674622200E+03  0.00000000000E+00 0.  1.
         22    1    3    3    0    0 -0.28138257263E+02  0.38722015461E+02 -0.10319687026E+03  0.11375741749E+03  0.00000000000E+00 0.  1.
</event>
<event>
 7    1  0.6888820E-006  0.7787848E+02  0.7818608E-02  0.1462156E+00
          2   -1    0    0  502    0  0.00000000000E+00  0.00000000000E+00  0.23640565483E+03  0.23640565483E+03  0.00000000000E+00 0. -1.
          1   -1    0    0  501    0 -0.00000000000E+00 -0.00000000000E+00 -0.56260695426E+03  0.56260695426E+03  0.00000000000E+00 0. -1.
         25    2    1    2    0    0  0.13199002005E+02 -0.55977278025E+02  0.47784914853E+02  0.14566057916E+03  0.12500374765E+03 0.  0.
          2    1    1    2  501    0 -0.38725613788E+02  0.68378736342E+02 -0.50918170224E+03  0.51520998694E+03  0.00000000000E+00 0. -1.
          1    1    1    2  502    0  0.25526611783E+02 -0.12401458318E+02  0.13519548796E+03  0.13814204299E+03  0.00000000000E+00 0. -1.
         22    1    3    3    0    0 -0.14293515454E+02 -0.43134087895E+02 -0.35085382355E+02  0.57409391023E+02  0.00000000000E+00 0. -1.
         22    1    3    3    0    0  0.27492517459E+02 -0.12843190129E+02  0.82870297209E+02  0.88251188142E+02  0.00000000000E+00 0. -1.
</event>
<event>
 7    1  0.6888820E-006  0.1255836E+03  0.7818608E-02  0.1437817E+00
          2   -1    0    0  502    0  0.00000000000E+00  0.00000000000E+00  0.12241377503E+04  0.12241377503E+04  0.00000000000E+00 0. -1.
          1   -1    0    0  501    0 -0.00000000000E+00 -0.00000000000E+00 -0.12229469160E+03  0.12229469160E+03  0.00000000000E+00 0. -1.
         25    2    1    2    0    0  0.37572478452E+02 -0.11868675507E+03  0.14546255380E+03  0.22865225310E+03  0.12499704526E+03 0.  0.
          2    1    1    2  501    0 -0.17491815273E+02  0.12502046957E+03 -0.31150490379E+02  0.13002474558E+03  0.00000000000E+00 0. -1.
          1    1    1    2  502    0 -0.20080663180E+02 -0.63337144938E+01  0.98753099531E+03  0.98775544325E+03  0.00000000000E+00 0. -1.
         22    1    3    3    0    0 -0.34652946038E+02 -0.53706235045E+02  0.10602157080E+03  0.12379725290E+03  0.00000000000E+00 0. -1.
         22    1    3    3    0    0  0.72225424491E+02 -0.64980520026E+02  0.39440982997E+02  0.10485500019E+03  0.00000000000E+00 0. -1.
</event>
<event>
 7    1  0.6888820E-006  0.7476074E+02  0.7818608E-02  0.1419932E+00
          2   -1    0    0  502    0  0.00000000000E+00  0.00000000000E+00  0.51731404086E+02  0.51731404086E+02  0.00000000000E+00 0. -1.
          1   -1    0    0  501    0 -0.00000000000E+00 -0.00000000000E+00 -0.18325046684E+04  0.18325046684E+04  0.00000000000E+00 0. -1.
         25    2    1    2    0    0  0.66712431930E+02  0.86318138470E+02 -0.32164857908E+03  0.36192296622E+03  0.12501622075E+03 0.  0.
          2    1    1    2  501    0 -0.32405149514E+02 -0.24317306077E+02 -0.14503459491E+04  0.14509117124E+04  0.00000000000E+00 0. -1.
          1    1    1    2  502    0 -0.34307282417E+02 -0.62000832394E+02 -0.87787361764E+01  0.71401393916E+02  0.00000000000E+00 0. -1.
         22    1    3    3    0    0 -0.25521047059E+02  0.23305787368E+01 -0.13510390725E+03  0.13751298555E+03  0.00000000000E+00 0. -1.
         22    1    3    3    0    0  0.92233478990E+02  0.83987559734E+02 -0.18654467183E+03  0.22440998067E+03  0.00000000000E+00 0. -1.
</event>
<event>
 7    1  0.6888820E-006  0.1557109E+03  0.7818608E-02  0.1302402E+00
          2   -1    0    0  502    0  0.00000000000E+00  0.00000000000E+00  0.27087268471E+04  0.27087268471E+04  0.00000000000E+00 0. -1.
          1   -1    0    0  501    0 -0.00000000000E+00 -0.00000000000E+00 -0.19391499818E+02  0.19391499818E+02  0.00000000000E+00 0. -1.
         25    2    1    2    0    0 -0.76415810115E+02  0.11350134706E+03  0.12613103282E+04  0.12748546862E+04  0.12501517947E+03 0.  0.
          2    1    1    2  501    0  0.12811290982E+03 -0.10602630927E+03  0.57297206856E+03  0.59661670046E+03  0.00000000000E+00 0. -1.
          1    1    1    2  502    0 -0.51697099701E+02 -0.74750377918E+01  0.85505295048E+03  0.85664696020E+03  0.00000000000E+00 0. -1.
         22    1    3    3    0    0 -0.39236816538E+02 -0.23084646849E+01  0.67065916569E+03  0.67180992349E+03  0.00000000000E+00 0.  1.
         22    1    3    3    0    0 -0.37178993577E+02  0.11580981175E+03  0.59065116252E+03  0.60304476273E+03  0.00000000000E+00 0.  1.
</event>
<event>
 7    1  0.6888820E-006  0.3259306E+03  0.7818608E-02  0.1128392E+00
          2   -1    0    0  502    0  0.00000000000E+00  0.00000000000E+00  0.13929678160E+04  0.13929678160E+04  0.00000000000E+00 0. -1.
          1   -1    0    0  501    0 -0.00000000000E+00 -0.00000000000E+00 -0.65210515575E+03  0.65210515575E+03  0.00000000000E+00 0. -1.
         25    2    1    2    0    0  0.80076606376E+02 -0.27658364249E+03 -0.15082679323E+03  0.34825878933E+03  0.12499875443E+03 0.  0.
          2    1    1    2  501    0  0.48986957559E+02  0.36916211609E+03 -0.31008079579E+03  0.48459311786E+03  0.00000000000E+00 0. -1.
          1    1    1    2  502    0 -0.12906356393E+03 -0.92578473601E+02  0.12017702493E+04  0.12122210646E+04  0.00000000000E+00 0. -1.
         22    1    3    3    0    0  0.79798263530E+02 -0.28971927485E+03 -0.14156047508E+03  0.33218125953E+03  0.00000000000E+00 0.  1.
         22    1    3    3    0    0  0.27834284601E+00  0.13135632361E+02 -0.92663181545E+01  0.16077529798E+02  0.00000000000E+00 0.  1.
</event>
<event>
 7    1  0.6888820E-006  0.4159372E+02  0.7818608E-02  0.1518258E+00
          2   -1    0    0  502    0  0.00000000000E+00  0.00000000000E+00  0.50491108829E+03  0.50491108829E+03  0.00000000000E+00 0. -1.
          1   -1    0    0  501    0 -0.00000000000E+00 -0.00000000000E+00 -0.82904713904E+03  0.82904713904E+03  0.00000000000E+00 0. -1.
         25    2    1    2    0    0 -0.21578179628E+02 -0.38151757716E+02 -0.22712036832E+03  0.26291948360E+03  0.12498727415E+03 0.  0.
          2    1    1    2  501    0 -0.14338093246E+02  0.39610557150E+02 -0.58260239773E+03  0.58412338679E+03  0.00000000000E+00 0. -1.
          1    1    1    2  502    0  0.35916272874E+02 -0.14587994339E+01  0.48558671530E+03  0.48691535694E+03  0.00000000000E+00 0. -1.
         22    1    3    3    0    0 -0.59908011825E+02  0.72079367083E+01 -0.58079297665E+02  0.83750397311E+02  0.00000000000E+00 0.  1.
         22    1    3    3    0    0  0.38329832197E+02 -0.45359694424E+02 -0.16904107065E+03  0.17916908629E+03  0.00000000000E+00 0.  1.
</event>
<event>
 7    1  0.6888820E-006  0.1264399E+03  0.7818608E-02  0.1248040E+00
          2   -1    0    0  502    0  0.00000000000E+00  0.00000000000E+00  0.24269566486E+04  0.24269566486E+04  0.00000000000E+00 0. -1.
          1   -1    0    0  501    0 -0.00000000000E+00 -0.00000000000E+00 -0.50314351961E+03  0.50314351961E+03  0.00000000000E+00 0. -1.
         25    2    1    2    0    0 -0.78985935031E+02  0.17622180165E+03  0.38868155051E+03  0.45165370915E+03  0.12499929589E+03 0.  0.
          2    1    1    2  501    0 -0.23066176350E+02 -0.10587872828E+03 -0.46348818892E+03  0.47598703224E+03  0.00000000000E+00 0. -1.
          1    1    1    2  502    0  0.10205211138E+03 -0.70343073368E+02  0.19986197674E+04  0.20024594269E+04  0.00000000000E+00 0. -1.
         22    1    3    3    0    0 -0.61740822819E+02  0.44532343689E+02  0.59277398834E+02  0.96482479494E+02  0.00000000000E+00 0. -1.
         22    1    3    3    0    0 -0.17245112211E+02  0.13168945796E+03  0.32940415167E+03  0.35517122965E+03  0.00000000000E+00 0. -1.
</event>
<event>
 7    1  0.6888820E-006  0.1929037E+03  0.7818608E-02  0.1250347E+00
          2   -1    0    0  502    0  0.00000000000E+00  0.00000000000E+00  0.76977590218E+03  0.76977590218E+03  0.00000000000E+00 0. -1.
          1   -1    0    0  501    0 -0.00000000000E+00 -0.00000000000E+00 -0.63148173550E+03  0.63148173550E+03  0.00000000000E+00 0. -1.
         25    2    1    2    0    0  0.81830592882E+02 -0.23201999366E+03  0.40588653756E+03  0.49081450600E+03  0.12500189816E+03 0.  0.
          2    1    1    2  501    0 -0.27149398756E+02  0.18927349294E+03 -0.56945704673E+03  0.60070198356E+03  0.00000000000E+00 0. -1.
          1    1    1    2  502    0 -0.54681194126E+02  0.42746500728E+02  0.30186467585E+03  0.30974114812E+03  0.00000000000E+00 0. -1.
         22    1    3    3    0    0  0.13901651218E+02  0.14213409228E+02  0.38889474502E+02  0.43676860412E+02  0.00000000000E+00 0.  1.
         22    1    3    3    0    0  0.67928941664E+02 -0.24623340289E+03  0.36699706305E+03  0.44713764559E+03  0.00000000000E+00 0.  1.
</event>
<event>
 7    1  0.6888820E-006  0.9508676E+02  0.7818608E-02  0.1315382E+00
          2   -1    0    0  502    0  0.00000000000E+00  0.00000000000E+00  0.66713255221E+02  0.66713255221E+02  0.00000000000E+00 0. -1.
          1   -1    0    0  501    0 -0.00000000000E+00 -0.00000000000E+00 -0.96056059922E+03  0.96056059922E+03  0.00000000000E+00 0. -1.
         25    2    1    2    0    0  0.15997593936E+02 -0.82899764983E+02 -0.54082643332E+03  0.56146901462E+03  0.12500371733E+03 0.  0.
          2    1    1    2  501    0 -0.75851337356E+02  0.50283516166E+01 -0.35942898876E+03  0.36737978668E+03  0.00000000000E+00 0. -1.
          1    1    1    2  502    0  0.59853743419E+02  0.77871413367E+02  0.64080780898E+01  0.98425053141E+02  0.00000000000E+00 0. -1.
         22    1    3    3    0    0 -0.29426022406E+02  0.21756042964E+02 -0.14278308363E+03  0.14739818578E+03  0.00000000000E+00 0. -1.
         22    1    3    3    0    0  0.45423616342E+02 -0.10465580795E+03 -0.39804334969E+03  0.41407082884E+03  0.00000000000E+00 0. -1.
</event>
<event>
 7    1  0.6888820E-006  0.1424765E+03  0.7818608E-02  0.1265623E+00
          2   -1    0    0  502    0  0.00000000000E+00  0.00000000000E+00  0.90687648197E+03  0.90687648197E+03  0.00000000000E+00 0. -1.
          1   -1    0    0  501    0 -0.00000000000E+00 -0.00000000000E+00 -0.16238774690E+04  0.16238774690E+04  0.00000000000E+00 0. -1.
         25    2    1    2    0    0 -0.71193266889E+02  0.16280653534E+03  0.50453021593E+02  0.22303533040E+03  0.12499920808E+03 0.  0.
          2    1    1    2  501    0  0.10885402340E+03 -0.91283785295E+02 -0.15321702327E+04  0.15387421973E+04  0.00000000000E+00 0. -1.
          1    1    1    2  502    0 -0.37660756515E+02 -0.71522750046E+02  0.76471622401E+03  0.76897642331E+03  0.00000000000E+00 0. -1.
         22    1    3    3    0    0 -0.43209541403E+02  0.25856652318E+02  0.65309959354E+02  0.82468307416E+02  0.00000000000E+00 0.  1.
         22    1    3    3    0    0 -0.27983725487E+02  0.13694988302E+03 -0.14856937760E+02  0.14056702299E+03  0.00000000000E+00 0.  1.
</event>
<event>
 7    1  0.6888820E-006  0.1506682E+03  0.7818608E-02  0.1291858E+00
          2   -1    0    0  502    0  0.00000000000E+00  0.00000000000E+00  0.12221422743E+03  0.12221422743E+03  0.00000000000E+00 0. -1.
          1   -1    0    0  501    0 -0.00000000000E+00 -0.00000000000E+00 -0.42382272904E+03  0.42382272904E+03  0.00000000000E+00 0. -1.
         25    2    1    2    0    0  0.23520953892E+02  0.10955773750E+03 -0.23886296876E+03  0.29196749883E+03  0.12503347315E+03 0.  0.
          2    1    1    2  501    0  0.46169771803E+02  0.37562340475E+02 -0.69042418088E+02  0.91156090010E+02  0.00000000000E+00 0. -1.
          1    1    1    2  502    0 -0.69690725695E+02 -0.14712007797E+03  0.62968852428E+01  0.16291336764E+03  0.00000000000E+00 0. -1.
         22    1    3    3    0    0 -0.34276376422E+02  0.99948341254E+02 -0.12315147591E+03  0.16226776303E+03  0.00000000000E+00 0. -1.
         22    1    3    3    0    0  0.57797330314E+02  0.96093962444E+01 -0.11571149285E+03  0.12969973580E+03  0.00000000000E+00 0. -1.
</event>
<event>
 7    1  0.6888820E-006  0.1154751E+03  0.7818608E-02  0.1445316E+00
          2   -1    0    0  502    0  0.00000000000E+00  0.00000000000E+00  0.16630022085E+04  0.16630022085E+04  0.00000000000E+00 0. -1.
          1   -1    0    0  501    0 -0.00000000000E+00 -0.00000000000E+00 -0.37926271510E+03  0.37926271510E+03  0.00000000000E+00 0. -1.
         25    2    1    2    0    0  0.12480211515E+03  0.51425766252E+02  0.55025211952E+03  0.58019246349E+03  0.12500288906E+03 0.  0.
          2    1    1    2  501    0 -0.10928972981E+03 -0.36317740568E+02 -0.35508013693E+03  0.37328960200E+03  0.00000000000E+00 0. -1.
          1    1    1    2  502    0 -0.15512385344E+02 -0.15108025685E+02  0.10885675108E+04  0.10887828581E+04  0.00000000000E+00 0. -1.
         22    1    3    3    0    0  0.70484017758E+01 -0.31378290277E+02  0.48463390625E+02  0.58163367330E+02  0.00000000000E+00 0.  1.
         22    1    3    3    0    0  0.11775371338E+03  0.82804056529E+02  0.50178872890E+03  0.52202909616E+03  0.00000000000E+00 0.  1.
</event>
<event>
 7    1  0.6888820E-006  0.8085912E+02  0.7818608E-02  0.1398262E+00
          2   -1    0    0  502    0  0.00000000000E+00  0.00000000000E+00  0.26550416514E+03  0.26550416514E+03  0.00000000000E+00 0. -1.
          1   -1    0    0  501    0 -0.00000000000E+00 -0.00000000000E+00 -0.45049900474E+03  0.45049900474E+03  0.00000000000E+00 0. -1.
         25    2    1    2    0    0  0.17391599438E+02 -0.44047512107E+02 -0.72955418855E+02  0.15228035522E+03  0.12499664952E+03 0.  0.
          2    1    1    2  501    0 -0.56843547735E+02  0.64351560742E+02 -0.33015639389E+03  0.34113861803E+03  0.00000000000E+00 0. -1.
          1    1    1    2  502    0  0.39451948297E+02 -0.20304048635E+02  0.21811697314E+03  0.22258419662E+03  0.00000000000E+00 0. -1.
         22    1    3    3    0    0  0.19008474633E+02 -0.10064583731E+01  0.32893267716E+02  0.38003975152E+02  0.00000000000E+00 0. -1.
         22    1    3    3    0    0 -0.16168751954E+01 -0.43041053734E+02 -0.10584868657E+03  0.11427638007E+03  0.00000000000E+00 0. -1.
</event>
<event>
 7    1  0.6888820E-006  0.6027112E+02  0.7818608E-02  0.1504544E+00
          2   -1    0    0  502    0  0.00000000000E+00  0.00000000000E+00  0.37165439665E+03  0.37165439665E+03  0.00000000000E+00 0. -1.
          1   -1    0    0  501    0 -0.00000000000E+00 -0.00000000000E+00 -0.29166960556E+03  0.29166960556E+03  0.00000000000E+00 0. -1.
         25    2    1    2    0    0  0.56584148748E+02 -0.17199667594E+02  0.11363915856E+02  0.13874935346E+03  0.12499860019E+03 0.  0.
          2    1    1    2  501    0 -0.12361709274E+02 -0.24249143637E+02 -0.22404817416E+03  0.22569540795E+03  0.00000000000E+00 0. -1.
          1    1    1    2  502    0 -0.44222439474E+02  0.41448811231E+02  0.29266904940E+03  0.29887924080E+03  0.00000000000E+00 0. -1.
         22    1    3    3    0    0  0.40467806987E+02 -0.11936173520E+01 -0.55178048571E+02  0.68437454430E+02  0.00000000000E+00 0.  1.
         22    1    3    3    0    0  0.16116341761E+02 -0.16006050242E+02  0.66541964427E+02  0.70311899035E+02  0.00000000000E+00 0.  1.
</event>
<event>
 7    1  0.6888820E-006  0.3669757E+02  0.7818608E-02  0.1545293E+00
          2   -1    0    0  502    0  0.00000000000E+00  0.00000000000E+00  0.22313896408E+03  0.22313896408E+03  0.00000000000E+00 0. -1.
          1   -1    0    0  501    0 -0.00000000000E+00 -0.00000000000E+00 -0.14922684041E+04  0.14922684041E+04  0.00000000000E+00 0. -1.
         25    2    1    2    0    0 -0.29380618615E+02 -0.42847510521E+02 -0.11793346523E+02  0.13592591617E+03  0.12505055680E+03 0.  0.
          2    1    1    2  501    0 -0.41156999159E+01  0.36455861841E+02 -0.14163637092E+04  0.14168387789E+04  0.00000000000E+00 0. -1.
          1    1    1    2  502    0  0.33496318531E+02  0.63916486801E+01  0.15902761572E+03  0.16264267302E+03  0.00000000000E+00 0. -1.
         22    1    3    3    0    0 -0.44537263279E+01 -0.59550987660E+02 -0.56416714533E+02  0.82152306652E+02  0.00000000000E+00 0. -1.
         22    1    3    3    0    0 -0.24926892287E+02  0.16703477139E+02  0.44623368010E+02  0.53773609515E+02  0.00000000000E+00 0. -1.
</event>
<event>
 7    1  0.6888820E-006  0.7814615E+02  0.7818608E-02  0.1487125E+00
          2   -1    0    0  502    0  0.00000000000E+00  0.00000000000E+00  0.16219108083E+04  0.16219108083E+04  0.00000000000E+00 0. -1.
          1   -1    0    0  501    0 -0.00000000000E+00 -0.00000000000E+00 -0.14094497873E+03  0.14094497873E+03  0.00000000000E+00 0. -1.
         25    2    1    2    0    0 -0.34661409003E+02  0.78602727082E+02  0.54129302339E+03  0.56214113230E+03  0.12499885389E+03 0.  0.
          2    1    1    2  501    0  0.49617400515E+02 -0.60246231996E+02 -0.11870900318E+03  0.14206802012E+03  0.00000000000E+00 0. -1.
          1    1    1    2  502    0 -0.14955991512E+02 -0.18356495085E+02  0.10583818093E+04  0.10586466346E+04  0.00000000000E+00 0. -1.
         22    1    3    3    0    0  0.28968091230E+02  0.79456014538E+02  0.24798665633E+03  0.26201104991E+03  0.00000000000E+00 0.  1.
         22    1    3    3    0    0 -0.63629500233E+02 -0.85328745653E+00  0.29330636706E+03  0.30013008239E+03  0.00000000000E+00 0.  1.
</event>
<event>
 7    1  0.6888820E-006  0.1104222E+03  0.7818608E-02  0.1328193E+00
          2   -1    0    0  502    0  0.00000000000E+00  0.00000000000E+00  0.17093112363E+04  0.17093112363E+04  0.00000000000E+00 0. -1.
          1   -1    0    0  501    0 -0.00000000000E+00 -0.00000000000E+00 -0.31408423302E+03  0.31408423302E+03  0.00000000000E+00 0. -1.
         25    2    1    2    0    0 -0.54448086403E+02  0.61980259204E+02  0.32486787429E+03  0.35772860812E+03  0.12499789869E+03 0.  0.
          2    1    1    2  501    0  0.10609097318E+03 -0.34712811854E+02 -0.28653825765E+03  0.30751332815E+03  0.00000000000E+00 0. -1.
          1    1    1    2  502    0 -0.51642886776E+02 -0.27267447350E+02  0.13568973866E+04  0.13581535330E+04  0.00000000000E+00 0. -1.
         22    1    3    3    0    0 -0.49718323175E+02  0.75931385634E+02  0.32990359832E+03  0.34216059266E+03  0.00000000000E+00 0.  1.
         22    1    3    3    0    0 -0.47297632281E+01 -0.13951126430E+02 -0.50357240300E+01  0.15568015460E+02  0.00000000000E+00 0.  1.
</event>
<event>
 7    1  0.6888820E-006  0.6494927E+02  0.7818608E-02  0.1428340E+00
          2   -1    0    0  502    0  0.00000000000E+00  0.00000000000E+00  0.79438380198E+03  0.79438380198E+03  0.00000000000E+00 0. -1.
          1   -1    0    0  501    0 -0.00000000000E+00 -0.00000000000E+00 -0.26023035074E+03  0.26023035074E+03  0.00000000000E+00 0. -1.
         25    2    1    2    0    0 -0.61013457331E+02 -0.86458442311E+02  0.42414979968E+02  0.16917983155E+03  0.12500032261E+03 0.  0.
          2    1    1    2  501    0  0.30456911032E+02  0.55173950389E+02 -0.19108623153E+03  0.20121067593E+03  0.00000000000E+00 0. -1.
          1    1    1    2  502    0  0.30556546299E+02  0.31284491922E+02  0.68282470279E+03  0.68422364524E+03  0.00000000000E+00 0. -1.
         22    1    3    3    0    0 -0.37163756464E+02 -0.74482142233E+02  0.84970405320E+02  0.11894832528E+03  0.00000000000E+00 0. -1.
         22    1    3    3    0    0 -0.23849700867E+02 -0.11976300078E+02 -0.42555425352E+02  0.50231506268E+02  0.00000000000E+00 0. -1.
</event>
<event>
 7    1  0.6888820E-006  0.7418680E+02  0.7818608E-02  0.1382398E+00
          2   -1    0    0  502    0  0.00000000000E+00  0.00000000000E+00  0.88891538754E+03  0.88891538754E+03  0.00000000000E+00 0. -1.
          1   -1    0    0  501    0 -0.00000000000E+00 -0.00000000000E+00 -0.25878784436E+03  0.25878784436E+03  0.00000000000E+00 0. -1.
         25    2    1    2    0    0 -0.31268269740E+02  0.62014385328E+01  0.92992853248E+02  0.15902085796E+03  0.12499519982E+03 0.  0.
          2    1    1    2  501    0 -0.38267209917E+02 -0.39410250768E+02 -0.22044884548E+03  0.22718987806E+03  0.00000000000E+00 0. -1.
          1    1    1    2  502    0  0.69535479657E+02  0.33208812235E+02  0.75758353542E+03  0.76149249588E+03  0.00000000000E+00 0. -1.
         22    1    3    3    0    0 -0.22294371560E+02  0.25868632763E+02  0.11980624538E+03  0.12457833518E+03  0.00000000000E+00 0. -1.
         22    1    3    3    0    0 -0.89738981804E+01 -0.19667194230E+02 -0.26813392134E+02  0.34442522776E+02  0.00000000000E+00 0. -1.
</event>
<event>
 7    1  0.6888820E-006  0.8496137E+02  0.7818608E-02  0.1393608E+00
          2   -1    0    0  502    0  0.00000000000E+00  0.00000000000E+00  0.67356420564E+03  0.67356420564E+03  0.00000000000E+00 0. -1.
          1   -1    0    0  501    0 -0.00000000000E+00 -0.00000000000E+00 -0.26802323006E+03  0.26802323006E+03  0.00000000000E+00 0. -1.
         25    2    1    2    0    0 -0.11439191797E+03  0.96125568563E+01  0.33117645660E+03  0.37213299350E+03  0.12500882888E+03 0.  0.
          2    1    1    2  501    0  0.37011470554E+02 -0.23464284529E+02 -0.24073805793E+03  0.24469416449E+03  0.00000000000E+00 0. -1.
          1    1    1    2  502    0  0.77380447419E+02  0.13851727673E+02  0.31510257691E+03  0.32476027771E+03  0.00000000000E+00 0. -1.
         22    1    3    3    0    0 -0.56344050341E+02 -0.57811603501E+02  0.16069231981E+03  0.17983007300E+03  0.00000000000E+00 0.  1.
         22    1    3    3    0    0 -0.58047867632E+02  0.67424160357E+02  0.17048413679E+03  0.19230292050E+03  0.00000000000E+00 0.  1.
</event>
<event>
 7    1  0.6888820E-006  0.4562510E+02  0.7818608E-02  0.1496400E+00
          2   -1    0    0  502    0  0.00000000000E+00  0.00000000000E+00  0.53806664264E+03  0.53806664264E+03  0.00000000000E+00 0. -1.
          1   -1    0    0  501    0 -0.00000000000E+00 -0.00000000000E+00 -0.52245539752E+02  0.52245539752E+02  0.00000000000E+00 0. -1.
         25    2    1    2    0    0 -0.28166264289E+02 -0.12128583978E+02  0.39435984313E+03  0.41483557035E+03  0.12501369347E+03 0.  0.
          2    1    1    2  501    0  0.39885097201E+02 -0.24043924559E+02 -0.25075630445E+02  0.52893463955E+02  0.00000000000E+00 0. -1.
          1    1    1    2  502    0 -0.11718832912E+02  0.36172508537E+02  0.11653689020E+03  0.12258314809E+03  0.00000000000E+00 0. -1.
         22    1    3    3    0    0 -0.52589468993E+02 -0.38707585272E+02  0.35686301800E+03  0.36278801389E+03  0.00000000000E+00 0. -1.
         22    1    3    3    0    0  0.24423204704E+02  0.26579001294E+02  0.37496825133E+02  0.52047556454E+02  0.00000000000E+00 0. -1.
</event>
<event>
 7    1  0.6888820E-006  0.1687798E+03  0.7818608E-02  0.1211239E+00
          2   -1    0    0  502    0  0.00000000000E+00  0.00000000000E+00  0.40907836216E+02  0.40907836216E+02  0.00000000000E+00 0. -1.
          1   -1    0    0  501    0 -0.00000000000E+00 -0.00000000000E+00 -0.21942671920E+04  0.21942671920E+04  0.00000000000E+00 0. -1.
         25    2    1    2    0    0 -0.18180983659E+03  0.16673530261E+03 -0.10276942279E+04  0.10642537255E+04  0.12500035290E+03 0.  0.
          2    1    1    2  501    0  0.68879024819E+02 -0.13005598771E+03 -0.93351356718E+03  0.94504309961E+03  0.00000000000E+00 0. -1.
          1    1    1    2  502    0  0.11293081177E+03 -0.36679314904E+02 -0.19215156068E+03  0.22587820315E+03  0.00000000000E+00 0. -1.
         22    1    3    3    0    0 -0.96641809707E+02  0.76937650971E+02 -0.27523319232E+03  0.30168253458E+03  0.00000000000E+00 0. -1.
         22    1    3    3    0    0 -0.85168026880E+02  0.89797651643E+02 -0.75246103561E+03  0.76257119088E+03  0.00000000000E+00 0. -1.
</event>
<event>
 7    1  0.6888820E-006  0.8680942E+02  0.7818608E-02  0.1324656E+00
          2   -1    0    0  502    0  0.00000000000E+00  0.00000000000E+00  0.61489837045E+03  0.61489837045E+03  0.00000000000E+00 0. -1.
          1   -1    0    0  501    0 -0.00000000000E+00 -0.00000000000E+00 -0.72608844271E+03  0.72608844271E+03  0.00000000000E+00 0. -1.
         25    2    1    2    0    0 -0.45894730243E+01 -0.17944251716E+02 -0.20839347209E+03  0.24371173416E+03  0.12499804289E+03 0.  0.
          2    1    1    2  501    0 -0.73032470620E+02 -0.23254136752E+02 -0.49383094407E+03  0.49974343214E+03  0.00000000000E+00 0. -1.
          1    1    1    2  502    0  0.77621943644E+02  0.41198388468E+02  0.59103434390E+03  0.59753164687E+03  0.00000000000E+00 0. -1.
         22    1    3    3    0    0  0.74201850940E+01  0.64305558712E+01  0.15405835242E+02  0.18268852048E+02  0.00000000000E+00 0.  1.
         22    1    3    3    0    0 -0.12009658118E+02 -0.24374807587E+02 -0.22379930733E+03  0.22544288211E+03  0.00000000000E+00 0.  1.
</event>
<event>
 7    1  0.6888820E-006  0.5703189E+02  0.7818608E-02  0.1470260E+00
          2   -1    0    0  502    0  0.00000000000E+00  0.00000000000E+00  0.28536369672E+03  0.28536369672E+03  0.00000000000E+00 0. -1.
          1   -1    0    0  501    0 -0.00000000000E+00 -0.00000000000E+00 -0.13647309954E+04  0.13647309954E+04  0.00000000000E+00 0. -1.
         25    2    1    2    0    0 -0.20191314882E+02  0.54850653271E+02  0.78495080505E+02  0.15875454310E+03  0.12500097571E+03 0.  0.
          2    1    1    2  501    0 -0.16364759721E+02 -0.54688983518E+02 -0.13219741762E+04  0.13232061112E+04  0.00000000000E+00 0. -1.
          1    1    1    2  502    0  0.36556074603E+02 -0.16166975291E+00  0.16411179704E+03  0.16813403776E+03  0.00000000000E+00 0. -1.
         22    1    3    3    0    0 -0.69591922488E+01  0.72001647827E+02  0.10311732497E+03  0.12595971719E+03  0.00000000000E+00 0. -1.
         22    1    3    3    0    0 -0.13232122633E+02 -0.17150994557E+02 -0.24622244463E+02  0.32794825904E+02  0.00000000000E+00 0. -1.
</event>
<event>
 7    1  0.6888820E-006  0.1601017E+03  0.7818608E-02  0.1345139E+00
          2   -1    0    0  502    0  0.00000000000E+00  0.00000000000E+00  0.16014467160E+04  0.16014467160E+04  0.00000000000E+00 0. -1.
          1   -1    0    0  501    0 -0.00000000000E+00 -0.00000000000E+00 -0.29901634161E+03  0.29901634161E+03  0.00000000000E+00 0. -1.
         25    2    1    2    0    0 -0.16851567841E+03  0.91834003119E+02  0.17240198498E+03  0.28666975808E+03  0.12500435103E+03 0.  0.
          2    1    1    2  501    0  0.27860051690E+02 -0.20774517668E+02 -0.23608079695E+03  0.23862503170E+03  0.00000000000E+00 0. -1.
          1    1    1    2  502    0  0.14065562672E+03 -0.71059485452E+02  0.13661091864E+04  0.13751682679E+04  0.00000000000E+00 0. -1.
         22    1    3    3    0    0 -0.16250093921E+03  0.32288720832E+02  0.10325502410E+03  0.19521966279E+03  0.00000000000E+00 0.  1.
         22    1    3    3    0    0 -0.60147391954E+01  0.59545282288E+02  0.69146960878E+02  0.91450095292E+02  0.00000000000E+00 0.  1.
</event>
<event>
 7    1  0.6888820E-006  0.1156747E+03  0.7818608E-02  0.1424135E+00
          2   -1    0    0  502    0  0.00000000000E+00  0.00000000000E+00  0.89565595365E+03  0.89565595365E+03  0.00000000000E+00 0. -1.
          1   -1    0    0  501    0 -0.00000000000E+00 -0.00000000000E+00 -0.11906232211E+03  0.11906232211E+03  0.00000000000E+00 0. -1.
         25    2    1    2    0    0 -0.94032696404E+02 -0.78563877390E+02  0.45760754026E+03  0.48994271920E+03  0.12499910546E+03 0.  0.
          2    1    1    2  501    0  0.71630767636E+02  0.90437501994E+02 -0.70013159352E+02  0.13495092116E+03  0.00000000000E+00 0. -1.
          1    1    1    2  502    0  0.22401928768E+02 -0.11873624605E+02  0.38899925063E+03  0.38982463540E+03  0.00000000000E+00 0. -1.
         22    1    3    3    0    0 -0.39997611952E+02 -0.10190584360E+03  0.22814356874E+03  0.25304959569E+03  0.00000000000E+00 0.  1.
         22    1    3    3    0    0 -0.54035084452E+02  0.23341966210E+02  0.22946397152E+03  0.23689312350E+03  0.00000000000E+00 0.  1.
</event>
<event>
 7    1  0.6888820E-006  0.8375604E+02  0.7818608E-02  0.1321504E+00
          2   -1    0    0  502    0  0.00000000000E+00  0.00000000000E+00  0.30846864908E+03  0.30846864908E+03  0.00000000000E+00 0. -1.
          1   -1    0    0  501    0 -0.00000000000E+00 -0.00000000000E+00 -0.20146200563E+03  0.20146200563E+03  0.00000000000E+00 0. -1.
         25    2    1    2    0    0 -0.54000794239E+01  0.30372178897E+02  0.14463619638E+03  0.19363911433E+03  0.12499938874E+03 0.  0.
          2    1    1    2  501    0  0.86474744767E+02 -0.20304146147E+02 -0.15181350689E+03  0.17589053615E+03  0.00000000000E+00 0. -1.
          1    1    1    2  502    0 -0.81074665343E+02 -0.10068032750E+02  0.11418395397E+03  0.14040100423E+03  0.00000000000E+00 0. -1.
         22    1    3    3    0    0 -0.11642833357E+02 -0.12002136611E+02 -0.18521521843E+02  0.24953028337E+02  0.00000000000E+00 0. -1.
         22    1    3    3    0    0  0.62427539332E+01  0.42374315508E+02  0.16315771822E+03  0.16868608599E+03  0.00000000000E+00 0. -1.
</event>
<event>
 7    1  0.6888820E-006  0.1035405E+03  0.7818608E-02  0.1292530E+00
          2   -1    0    0  502    0  0.00000000000E+00  0.00000000000E+00  0.20161218596E+04  0.20161218596E+04  0.00000000000E+00 0. -1.
          1   -1    0    0  501    0 -0.00000000000E+00 -0.00000000000E+00 -0.11573978985E+03  0.11573978985E+03  0.00000000000E+00 0. -1.
         25    2    1    2    0    0  0.10862437590E+03  0.13967487830E+03  0.69121623550E+03  0.72437042772E+03  0.12499722265E+03 0.  0.
          2    1    1    2  501    0 -0.35183601954E+02 -0.94794131578E+02 -0.71561961917E+02  0.12387464479E+03  0.00000000000E+00 0. -1.
          1    1    1    2  502    0 -0.73440773951E+02 -0.44880746726E+02  0.12807277962E+04  0.12836165770E+04  0.00000000000E+00 0. -1.
         22    1    3    3    0    0  0.18285757313E+02  0.42005866552E+02  0.43649890808E+02  0.63278548599E+02  0.00000000000E+00 0. -1.
         22    1    3    3    0    0  0.90338618592E+02  0.97669011752E+02  0.64756634469E+03  0.66109187913E+03  0.00000000000E+00 0. -1.
</event>
<event>
 7    1  0.6888820E-006  0.1827567E+03  0.7818608E-02  0.1389537E+00
          2   -1    0    0  502    0  0.00000000000E+00  0.00000000000E+00  0.19158906522E+04  0.19158906522E+04  0.00000000000E+00 0. -1.
          1   -1    0    0  501    0 -0.00000000000E+00 -0.00000000000E+00 -0.33117058521E+03  0.33117058521E+03  0.00000000000E+00 0. -1.
         25    2    1    2    0    0  0.49341282523E+02  0.19557527785E+03  0.10144538869E+04  0.10418374312E+04  0.12499717148E+03 0.  0.
          2    1    1    2  501    0 -0.52020304620E+02 -0.17469817517E+03 -0.29117605377E+03  0.34352446607E+03  0.00000000000E+00 0. -1.
          1    1    1    2  502    0  0.26790220973E+01 -0.20877102685E+02  0.86144223382E+03  0.86169934013E+03  0.00000000000E+00 0. -1.
         22    1    3    3    0    0  0.52407246435E+02  0.14994957639E+02  0.29981040327E+03  0.30472552591E+03  0.00000000000E+00 0.  1.
         22    1    3    3    0    0 -0.30659639121E+01  0.18058032022E+03  0.71464348365E+03  0.73711190528E+03  0.00000000000E+00 0.  1.
</event>
<event>
 7    1  0.6888820E-006  0.3344919E+03  0.7818608E-02  0.1238693E+00
          2   -1    0    0  502    0  0.00000000000E+00  0.00000000000E+00  0.19241063739E+04  0.19241063739E+04  0.00000000000E+00 0. -1.
          1   -1    0    0  501    0 -0.00000000000E+00 -0.00000000000E+00 -0.15852927190E+04  0.15852927190E+04  0.00000000000E+00 0. -1.
         25    2    1    2    0    0 -0.28428611972E+03  0.11306702864E+03  0.10092973435E+04  0.10620303595E+04  0.12499842375E+03 0.  0.
          2    1    1    2  501    0  0.32277917511E+03 -0.89727009920E+02 -0.15403383199E+04  0.15763500474E+04  0.00000000000E+00 0. -1.
          1    1    1    2  502    0 -0.38493055395E+02 -0.23340018720E+02  0.86985463129E+03  0.87101868600E+03  0.00000000000E+00 0. -1.
         22    1    3    3    0    0 -0.16620875854E+03  0.12794049884E+03  0.69475938773E+03  0.72573047993E+03  0.00000000000E+00 0. -1.
         22    1    3    3    0    0 -0.11807736117E+03 -0.14873470199E+02  0.31453795581E+03  0.33629987955E+03  0.00000000000E+00 0. -1.
</event>
<event>
 7    1  0.6888820E-006  0.7305147E+02  0.7818608E-02  0.1420178E+00
          2   -1    0    0  502    0  0.00000000000E+00  0.00000000000E+00  0.29204534605E+04  0.29204534605E+04  0.00000000000E+00 0. -1.
          1   -1    0    0  501    0 -0.00000000000E+00 -0.00000000000E+00 -0.93357284614E+01  0.93357284614E+01  0.00000000000E+00 0. -1.
         25    2    1    2    0    0 -0.38728163090E+02  0.27216725755E+02  0.10732302987E+04  0.10815215870E+04  0.12500019352E+03 0.  0.
          2    1    1    2  501    0 -0.39419787236E+02 -0.12598097571E+02  0.95670446799E+02  0.10423754640E+03  0.00000000000E+00 0. -1.
          1    1    1    2  502    0  0.78147950326E+02 -0.14618628185E+02  0.17422169865E+04  0.17440300555E+04  0.00000000000E+00 0. -1.
         22    1    3    3    0    0 -0.58284541683E+02  0.47349146567E+02  0.10041953532E+04  0.10069991742E+04  0.00000000000E+00 0.  1.
         22    1    3    3    0    0  0.19556378593E+02 -0.20132420811E+02  0.69034945513E+02  0.74522412826E+02  0.00000000000E+00 0.  1.
</event>
<event>
 7    1  0.6888820E-006  0.4954386E+02  0.7818608E-02  0.1558358E+00
          2   -1    0    0  502    0  0.00000000000E+00  0.00000000000E+00  0.55313879553E+03  0.55313879553E+03  0.00000000000E+00 0. -1.
          1   -1    0    0  501    0 -0.00000000000E+00 -0.00000000000E+00 -0.84077590740E+03  0.84077590740E+03  0.00000000000E+00 0. -1.
         25    2    1    2    0    0  0.61004618943E+02 -0.11701027698E+02  0.33588389941E+02  0.14356154827E+03  0.12499304229E+03 0.  0.
          2    1    1    2  501    0 -0.12323537777E+02  0.19691988392E+02 -0.78430719697E+03  0.78465114746E+03  0.00000000000E+00 0. -1.
          1    1    1    2  502    0 -0.48681081167E+02 -0.79909606940E+01  0.46308169516E+03  0.46570200720E+03  0.00000000000E+00 0. -1.
         22    1    3    3    0    0 -0.16770459197E+02  0.15897113077E+02  0.53837591734E+02  0.58587138431E+02  0.00000000000E+00 0.  1.
         22    1    3    3    0    0  0.77775078141E+02 -0.27598140774E+02 -0.20249201793E+02  0.84974409838E+02  0.00000000000E+00 0.  1.
</event>
<event>
 7    1  0.6888820E-006  0.4528255E+02  0.7818608E-02  0.1529086E+00
          2   -1    0    0  502    0  0.00000000000E+00  0.00000000000E+00  0.13736585187E+03  0.13736585187E+03  0.00000000000E+00 0. -1.
          1   -1    0    0  501    0 -0.00000000000E+00 -0.00000000000E+00 -0.61190439600E+03  0.61190439600E+03  0.00000000000E+00 0. -1.
         25    2    1    2    0    0 -0.29040621502E+00 -0.52229935776E+02 -0.14662074481E+03  0.19962541699E+03  0.12499845507E+03 0.  0.
          2    1    1    2  501    0 -0.26364429159E+02  0.36952563595E+02 -0.43545013308E+03  0.43780976860E+03  0.00000000000E+00 0. -1.
          1    1    1    2  502    0  0.26654835374E+02  0.15277372181E+02  0.10753233376E+03  0.11183506228E+03  0.00000000000E+00 0. -1.
         22    1    3    3    0    0  0.38247201818E+02  0.17223024745E+02 -0.12533686980E+02  0.43778697303E+02  0.00000000000E+00 0. -1.
         22    1    3    3    0    0 -0.38537608033E+02 -0.69452960520E+02 -0.13408705783E+03  0.15584671968E+03  0.00000000000E+00 0. -1.
</event>
<event>
 7    1  0.6888820E-006  0.7150227E+02  0.7818608E-02  0.1430246E+00
          2   -1    0    0  502    0  0.00000000000E+00  0.00000000000E+00  0.87262737761E+03  0.87262737761E+03  0.00000000000E+00 0. -1.
          1   -1    0    0  501    0 -0.00000000000E+00 -0.00000000000E+00 -0.61374295682E+03  0.61374295682E+03  0.00000000000E+00 0. -1.
         25    2    1    2    0    0 -0.68173964289E+02  0.50736621482E+02  0.33749482597E+03  0.36979796963E+03  0.12500354643E+03 0.  0.
          2    1    1    2  501    0  0.37028991723E+02  0.12720964424E+02 -0.59453742582E+03  0.59582524272E+03  0.00000000000E+00 0. -1.
          1    1    1    2  502    0  0.31144972565E+02 -0.63457585906E+02  0.51592702064E+03  0.52074712207E+03  0.00000000000E+00 0. -1.
         22    1    3    3    0    0 -0.29288695217E+02 -0.27585855473E+02  0.21824687715E+03  0.22192455132E+03  0.00000000000E+00 0. -1.
         22    1    3    3    0    0 -0.38885269072E+02  0.78322476955E+02  0.11924794881E+03  0.14787341831E+03  0.00000000000E+00 0. -1.
</event>
<event>
 7    1  0.6888820E-006  0.1734331E+03  0.7818608E-02  0.1358067E+00
          2   -1    0    0  502    0  0.00000000000E+00  0.00000000000E+00  0.95296264079E+03  0.95296264079E+03  0.00000000000E+00 0. -1.
          1   -1    0    0  501    0 -0.00000000000E+00 -0.00000000000E+00 -0.45129715073E+03  0.45129715073E+03  0.00000000000E+00 0. -1.
         25    2    1    2    0    0  0.45692920118E+02 -0.18744430364E+03 -0.91234237686E+02  0.24733019793E+03  0.12500132307E+03 0.  0.
          2    1    1    2  501    0 -0.51356366287E+02  0.15926912638E+03 -0.25692559349E+03  0.30661847884E+03  0.00000000000E+00 0. -1.
          1    1    1    2  502    0  0.56634461695E+01  0.28175177254E+02  0.84982532124E+03  0.85031111475E+03  0.00000000000E+00 0. -1.
         22    1    3    3    0    0 -0.11115802672E+02 -0.13772354229E+03 -0.13274128121E+02  0.13880755616E+03  0.00000000000E+00 0.  1.
         22    1    3    3    0    0  0.56808722790E+02 -0.49720761345E+02 -0.77960109566E+02  0.10852264177E+03  0.00000000000E+00 0.  1.
</event>
<event>
 7    1  0.6888820E-006  0.8264428E+02  0.7818608E-02  0.1379361E+00
          2   -1    0    0  502    0  0.00000000000E+00  0.00000000000E+00  0.18560983617E+03  0.18560983617E+03  0.00000000000E+00 0. -1.
          1   -1    0    0  501    0 -0.00000000000E+00 -0.00000000000E+00 -0.20448637333E+03  0.20448637333E+03  0.00000000000E+00 0. -1.
         25    2    1    2    0    0  0.34624764257E+02 -0.40094822136E+02 -0.96115237150E+02  0.16634301491E+03  0.12500156293E+03 0.  0.
          2    1    1    2  501    0  0.48191665673E+02  0.15245207266E+02 -0.49226442338E+02  0.70555620685E+02  0.00000000000E+00 0. -1.
          1    1    1    2  502    0 -0.82816429930E+02  0.24849614870E+02  0.12646514233E+03  0.15319757390E+03  0.00000000000E+00 0. -1.
         22    1    3    3    0    0 -0.21916537653E+02  0.28324854417E+02 -0.61309779147E+02  0.71003669057E+02  0.00000000000E+00 0. -1.
         22    1    3    3    0    0  0.56541301910E+02 -0.68419676553E+02 -0.34805458003E+02  0.95339345855E+02  0.00000000000E+00 0. -1.
</event>
<event>
 7    1  0.6888820E-006  0.4970665E+02  0.7818608E-02  0.1516989E+00
          2   -1    0    0  502    0  0.00000000000E+00  0.00000000000E+00  0.24321821134E+03  0.24321821134E+03  0.00000000000E+00 0. -1.
          1   -1    0    0  501    0 -0.00000000000E+00 -0.00000000000E+00 -0.14239263690E+04  0.14239263690E+04  0.00000000000E+00 0. -1.
         25    2    1    2    0    0  0.77754498586E+02  0.81550292079E+01 -0.13113542569E+03  0.19731578543E+03  0.12499901102E+03 0.  0.
          2    1    1    2  501    0 -0.47717561154E+02 -0.12405002913E+02 -0.12581204913E+04  0.12590861846E+04  0.00000000000E+00 0. -1.
          1    1    1    2  502    0 -0.30036937432E+02  0.42499737047E+01  0.20854775930E+03  0.21074261030E+03  0.00000000000E+00 0. -1.
         22    1    3    3    0    0  0.68758213750E+02 -0.24428724632E+02 -0.14377118844E+03  0.16122843785E+03  0.00000000000E+00 0.  1.
         22    1    3    3    0    0  0.89962848362E+01  0.32583753840E+02  0.12635762749E+02  0.36087347581E+02  0.00000000000E+00 0.  1.
</event>
<event>
 7    1  0.6888820E-006  0.3673174E+02  0.7818608E-02  0.1596912E+00
          2   -1    0    0  502    0  0.00000000000E+00  0.00000000000E+00  0.69315868729E+03  0.69315868729E+03  0.00000000000E+00 0. -1.
          1   -1    0    0  501    0 -0.00000000000E+00 -0.00000000000E+00 -0.29432972193E+03  0.29432972193E+03  0.00000000000E+00 0. -1.
         25    2    1    2    0    0  0.32017064426E+02  0.12027016652E+02 -0.31488491759E+02  0.13336297720E+03  0.12499766810E+03 0.  0.
          2    1    1    2  501    0 -0.34899381816E+02  0.12480739440E+02 -0.21004381852E+03  0.21328886846E+03  0.00000000000E+00 0. -1.
          1    1    1    2  502    0  0.28823173899E+01 -0.24507756092E+02  0.64036127564E+03  0.64083656357E+03  0.00000000000E+00 0. -1.
         22    1    3    3    0    0  0.45799538775E+02 -0.48838072434E+02 -0.20288718912E+02  0.69959896985E+02  0.00000000000E+00 0.  1.
         22    1    3    3    0    0 -0.13782474349E+02  0.60865089086E+02 -0.11199772847E+02  0.63403080212E+02  0.00000000000E+00 0.  1.
</event>
<event>
 7    1  0.6888820E-006  0.8850884E+02  0.7818608E-02  0.1424173E+00
          2   -1    0    0  502    0  0.00000000000E+00  0.00000000000E+00  0.74448020947E+03  0.74448020947E+03  0.00000000000E+00 0. -1.
          1   -1    0    0  501    0 -0.00000000000E+00 -0.00000000000E+00 -0.17703239996E+03  0.17703239996E+03  0.00000000000E+00 0. -1.
         25    2    1    2    0    0  0.99445721449E+02 -0.28816162182E+02  0.43626582584E+03  0.46548124307E+03  0.12500037655E+03 0.  0.
          2    1    1    2  501    0 -0.73284971879E+02  0.49137966773E+02 -0.14939516006E+03  0.17350544870E+03  0.00000000000E+00 0. -1.
          1    1    1    2  502    0 -0.26160749570E+02 -0.20321804591E+02  0.28057714373E+03  0.28252591765E+03  0.00000000000E+00 0. -1.
         22    1    3    3    0    0  0.11603316766E+03 -0.11492877314E+01  0.23997846239E+03  0.26656083596E+03  0.00000000000E+00 0.  1.
         22    1    3    3    0    0 -0.16587446210E+02 -0.27666874451E+02  0.19628736345E+03  0.19892040711E+03  0.00000000000E+00 0.  1.
</event>
<event>
 7    1  0.6888820E-006  0.1796677E+03  0.7818608E-02  0.1171055E+00
          2   -1    0    0  502    0  0.00000000000E+00  0.00000000000E+00  0.14881708170E+04  0.14881708170E+04  0.00000000000E+00 0. -1.
          1   -1    0    0  501    0 -0.00000000000E+00 -0.00000000000E+00 -0.13638822499E+03  0.13638822499E+03  0.00000000000E+00 0. -1.
         25    2    1    2    0    0  0.47759436848E+01 -0.51394331025E+02 -0.18589192636E+01  0.13525144478E+03  0.12500124333E+03 0.  0.
          2    1    1    2  501    0  0.17954223540E+03  0.67143101922E+01  0.71753942110E+02  0.19346608091E+03  0.00000000000E+00 0. -1.
          1    1    1    2  502    0 -0.18431817909E+03  0.44680020832E+02  0.12818875692E+04  0.12958415163E+04  0.00000000000E+00 0. -1.
         22    1    3    3    0    0  0.32556279649E+02 -0.26024738501E+02 -0.55700502188E+02  0.69568270804E+02  0.00000000000E+00 0. -1.
         22    1    3    3    0    0 -0.27780335964E+02 -0.25369592524E+02  0.53841582925E+02  0.65683173971E+02  0.00000000000E+00 0. -1.
</event>
<event>
 7    1  0.6888820E-006  0.1728035E+03  0.7818608E-02  0.1321077E+00
          2   -1    0    0  502    0  0.00000000000E+00  0.00000000000E+00  0.33326859753E+03  0.33326859753E+03  0.00000000000E+00 0. -1.
          1   -1    0    0  501    0 -0.00000000000E+00 -0.00000000000E+00 -0.15882077145E+04  0.15882077145E+04  0.00000000000E+00 0. -1.
         25    2    1    2    0    0 -0.80719239581E+02 -0.10984488111E+03 -0.41814283022E+03  0.45721963597E+03  0.12499950205E+03 0.  0.
          2    1    1    2  501    0 -0.13729835820E+02 -0.37302605221E+02 -0.11257859557E+04  0.11264874659E+04  0.00000000000E+00 0. -1.
          1    1    1    2  502    0  0.94449075401E+02  0.14714748633E+03  0.28898966894E+03  0.33776921016E+03  0.00000000000E+00 0. -1.
         22    1    3    3    0    0 -0.70755265447E+02 -0.13020744569E+03 -0.27587516826E+03  0.31315714101E+03  0.00000000000E+00 0.  1.
         22    1    3    3    0    0 -0.99639741340E+01  0.20362564582E+02 -0.14226766196E+03  0.14406249496E+03  0.00000000000E+00 0.  1.
</event>
<event>
 7    1  0.6888820E-006  0.4953095E+02  0.7818608E-02  0.1473193E+00
          2   -1    0    0  502    0  0.00000000000E+00  0.00000000000E+00  0.64858478451E+03  0.64858478451E+03  0.00000000000E+00 0. -1.
          1   -1    0    0  501    0 -0.00000000000E+00 -0.00000000000E+00 -0.10158854508E+03  0.10158854508E+03  0.00000000000E+00 0. -1.
         25    2    1    2    0    0 -0.16253062776E+02  0.14026590517E+02  0.63858375262E+02  0.14200013991E+03  0.12500096140E+03 0.  0.
          2    1    1    2  501    0  0.53194644292E+02  0.42590375380E+01 -0.50187662507E+02  0.73257156989E+02  0.00000000000E+00 0. -1.
          1    1    1    2  502    0 -0.36941581516E+02 -0.18285628055E+02  0.53332552667E+03  0.53491603270E+03  0.00000000000E+00 0. -1.
         22    1    3    3    0    0 -0.61618443814E+02  0.37488316983E+02  0.53712171468E+02  0.89928882413E+02  0.00000000000E+00 0.  1.
         22    1    3    3    0    0  0.45365381037E+02 -0.23461726465E+02  0.10146203794E+02  0.52071257493E+02  0.00000000000E+00 0.  1.
</event>
<event>
 7    1  0.1036750E-005  0.5588425E+02  0.7818608E-02  0.1417341E+00
          2   -1    0    0  502    0  0.00000000000E+00  0.00000000000E+00  0.20960056051E+04  0.20960056051E+04  0.00000000000E+00 0. -1.
          1   -1    0    0  501    0 -0.00000000000E+00 -0.00000000000E+00 -0.78958688848E+03  0.78958688848E+03  0.00000000000E+00 0. -1.
         25    2    1    2    0    0 -0.17663232822E+02  0.50970570657E+02 -0.65754012528E+02  0.15119878612E+03  0.12500997518E+03 0.  0.
          2    1    1    2  501    0  0.55237087034E+02 -0.96032507514E+01 -0.67957561746E+03  0.68188443160E+03  0.00000000000E+00 0. -1.
          1    1    1    2  502    0 -0.37573854212E+02 -0.41367319905E+02  0.20517483466E+04  0.20525092758E+04  0.00000000000E+00 0. -1.
         22    1    3    3    0    0  0.53063843406E+02  0.87460665295E+01 -0.25864780356E+02  0.59676226587E+02  0.00000000000E+00 0. -1.
         22    1    3    3    0    0 -0.70727076229E+02  0.42224504127E+02 -0.39889232172E+02  0.91522559535E+02  0.00000000000E+00 0. -1.
</event>
<event>
 7    1  0.6888820E-006  0.5950816E+02  0.7818608E-02  0.1454003E+00
          2   -1    0    0  502    0  0.00000000000E+00  0.00000000000E+00  0.48664135934E+03  0.48664135934E+03  0.00000000000E+00 0. -1.
          1   -1    0    0  501    0 -0.00000000000E+00 -0.00000000000E+00 -0.18949598546E+04  0.18949598546E+04  0.00000000000E+00 0. -1.
         25    2    1    2    0    0 -0.15680340833E+02 -0.16548659572E+02 -0.35578770202E+02  0.13194583487E+03  0.12499649287E+03 0.  0.
          2    1    1    2  501    0 -0.10250772889E+02 -0.38056390517E+02 -0.18088983577E+04  0.18093276751E+04  0.00000000000E+00 0. -1.
          1    1    1    2  502    0  0.25931113723E+02  0.54605050090E+02  0.43615863261E+03  0.44032770405E+03  0.00000000000E+00 0. -1.
         22    1    3    3    0    0  0.62621220456E+01 -0.41418706510E+02 -0.71617422777E+02  0.82968540223E+02  0.00000000000E+00 0.  1.
         22    1    3    3    0    0 -0.21942462879E+02  0.24870046938E+02  0.36038652576E+02  0.48977294651E+02  0.00000000000E+00 0.  1.
</event>
<event>
 7    1  0.6888820E-006  0.3454045E+02  0.7818608E-02  0.1565843E+00
          2   -1    0    0  502    0  0.00000000000E+00  0.00000000000E+00  0.13695749562E+04  0.13695749562E+04  0.00000000000E+00 0. -1.
          1   -1    0    0  501    0 -0.00000000000E+00 -0.00000000000E+00 -0.26824234959E+03  0.26824234959E+03  0.00000000000E+00 0. -1.
         25    2    1    2    0    0  0.49046159917E+02  0.20429924008E+02  0.24325371845E+02  0.13798498477E+03  0.12500089883E+03 0.  0.
          2    1    1    2  501    0 -0.15345521630E+02 -0.27830675664E+02 -0.20998563543E+03  0.21237702001E+03  0.00000000000E+00 0. -1.
          1    1    1    2  502    0 -0.33700638287E+02  0.74007516568E+01  0.12869928702E+04  0.12874553010E+04  0.00000000000E+00 0. -1.
         22    1    3    3    0    0 -0.12549477067E+02 -0.43885139111E+02 -0.94882173144E-01  0.45644318508E+02  0.00000000000E+00 0. -1.
         22    1    3    3    0    0  0.61595636984E+02  0.64315063119E+02  0.24420254018E+02  0.92340666262E+02  0.00000000000E+00 0. -1.
</event>
<event>
 7    1  0.6888820E-006  0.2647909E+03  0.7818608E-02  0.1241235E+00
          2   -1    0    0  502    0  0.00000000000E+00  0.00000000000E+00  0.33369753380E+03  0.33369753380E+03  0.00000000000E+00 0. -1.
          1   -1    0    0  501    0 -0.00000000000E+00 -0.00000000000E+00 -0.16565133550E+04  0.16565133550E+04  0.00000000000E+00 0. -1.
         25    2    1    2    0    0 -0.56397925718E+02 -0.25302536511E+03 -0.87604647636E+03  0.92210844282E+03  0.12499596061E+03 0.  0.
          2    1    1    2  501    0  0.49122907017E+01  0.27352518345E+03 -0.72996057900E+03  0.77953999479E+03  0.00000000000E+00 0. -1.
          1    1    1    2  502    0  0.51485635016E+02 -0.20499818336E+02  0.28319123413E+03  0.28856245122E+03  0.00000000000E+00 0. -1.
         22    1    3    3    0    0 -0.28106271824E+02 -0.25700970371E+03 -0.80629568025E+03  0.84673294155E+03  0.00000000000E+00 0.  1.
         22    1    3    3    0    0 -0.28291653894E+02  0.39843386003E+01 -0.69750796110E+02  0.75375501273E+02  0.00000000000E+00 0.  1.
</event>
<event>
 7    1  0.6888820E-006  0.1437267E+03  0.7818608E-02  0.1312293E+00
          2   -1    0    0  502    0  0.00000000000E+00  0.00000000000E+00  0.48543213852E+03  0.48543213852E+03  0.00000000000E+00 0. -1.
          1   -1    0    0  501    0 -0.00000000000E+00 -0.00000000000E+00 -0.37928278834E+03  0.37928278834E+03  0.00000000000E+00 0. -1.
         25    2    1    2    0    0  0.13240291041E+02 -0.18234967918E+03 -0.10907810846E+03  0.24688026836E+03  0.12500048943E+03 0.  0.
          2    1    1    2  501    0 -0.44047217216E+01  0.13139744541E+03 -0.17796255375E+03  0.22125858350E+03  0.00000000000E+00 0. -1.
          1    1    1    2  502    0 -0.88355693190E+01  0.50952233762E+02  0.39319001240E+03  0.39657607500E+03  0.00000000000E+00 0. -1.
         22    1    3    3    0    0  0.11877800613E+02 -0.20168332018E+03 -0.10115802881E+03  0.22594289230E+03  0.00000000000E+00 0. -1.
         22    1    3    3    0    0  0.13624904280E+01  0.19333641007E+02 -0.79200796514E+01  0.20937376064E+02  0.00000000000E+00 0. -1.
</event>
<event>
 7    1  0.6888820E-006  0.5233295E+02  0.7818608E-02  0.1556925E+00
          2   -1    0    0  502    0  0.00000000000E+00  0.00000000000E+00  0.95506221510E+02  0.95506221510E+02  0.00000000000E+00 0. -1.
          1   -1    0    0  501    0 -0.00000000000E+00 -0.00000000000E+00 -0.42243767449E+03  0.42243767449E+03  0.00000000000E+00 0. -1.
         25    2    1    2    0    0  0.48405637908E+02  0.41201387586E+02 -0.77070634759E+02  0.16001748538E+03  0.12500021106E+03 0.  0.
          2    1    1    2  501    0 -0.57310111046E+00 -0.22186069526E+02 -0.29111574472E+03  0.29196048868E+03  0.00000000000E+00 0. -1.
          1    1    1    2  502    0 -0.47832536798E+02 -0.19015318059E+02  0.41254926497E+02  0.65965921942E+02  0.00000000000E+00 0. -1.
         22    1    3    3    0    0  0.28885812140E+02 -0.61750913647E+01  0.29513585461E+02  0.41756120786E+02  0.00000000000E+00 0. -1.
         22    1    3    3    0    0  0.19519825768E+02  0.47376478950E+02 -0.10658422022E+03  0.11826136459E+03  0.00000000000E+00 0. -1.
</event>
<event>
 7    1  0.6888820E-006  0.4100249E+02  0.7818608E-02  0.1608042E+00
          2   -1    0    0  502    0  0.00000000000E+00  0.00000000000E+00  0.39702284466E+02  0.39702284466E+02  0.00000000000E+00 0. -1.
          1   -1    0    0  501    0 -0.00000000000E+00 -0.00000000000E+00 -0.58144288061E+03  0.58144288061E+03  0.00000000000E+00 0. -1.
         25    2    1    2    0    0  0.17466404225E+02 -0.11898279753E+02 -0.51695376075E+03  0.53227151587E+03  0.12500052608E+03 0.  0.
          2    1    1    2  501    0  0.19219453139E+02 -0.76309354218E+01 -0.39664109620E+02  0.44730975244E+02  0.00000000000E+00 0. -1.
          1    1    1    2  502    0 -0.36685857363E+02  0.19529215175E+02  0.14877274225E+02  0.44142673958E+02  0.00000000000E+00 0. -1.
         22    1    3    3    0    0  0.15092682525E+02 -0.48544441584E+02 -0.87086687999E+02  0.10083869843E+03  0.00000000000E+00 0.  1.
         22    1    3    3    0    0  0.23737216997E+01  0.36646161831E+02 -0.42986707275E+03  0.43143281744E+03  0.00000000000E+00 0.  1.
</event>
<event>
 7    1  0.6888820E-006  0.6937079E+03  0.7818608E-02  0.1172682E+00
          2   -1    0    0  502    0  0.00000000000E+00  0.00000000000E+00  0.13751031413E+04  0.13751031413E+04  0.00000000000E+00 0. -1.
          1   -1    0    0  501    0 -0.00000000000E+00 -0.00000000000E+00 -0.14853706722E+04  0.14853706722E+04  0.00000000000E+00 0. -1.
         25    2    1    2    0    0  0.48856836704E+03 -0.45120383450E+03 -0.24568711781E+03  0.71991046978E+03  0.12499990042E+03 0.  0.
          2    1    1    2  501    0  0.44046290904E+02 -0.33301344054E+01 -0.89426792535E+03  0.89535818969E+03  0.00000000000E+00 0. -1.
          1    1    1    2  502    0 -0.53261465794E+03  0.45453396891E+03  0.10296875122E+04  0.12452051540E+04  0.00000000000E+00 0. -1.
         22    1    3    3    0    0  0.46692174574E+03 -0.39663292197E+03 -0.19669391877E+03  0.64344548263E+03  0.00000000000E+00 0. -1.
         22    1    3    3    0    0  0.21646621298E+02 -0.54570912532E+02 -0.48993199039E+02  0.76464987153E+02  0.00000000000E+00 0. -1.
</event>
<event>
 7    1  0.6888820E-006  0.6952247E+02  0.7818608E-02  0.1421785E+00
          2   -1    0    0  502    0  0.00000000000E+00  0.00000000000E+00  0.15579126529E+04  0.15579126529E+04  0.00000000000E+00 0. -1.
          1   -1    0    0  501    0 -0.00000000000E+00 -0.00000000000E+00 -0.98641662049E+02  0.98641662049E+02  0.00000000000E+00 0. -1.
         25    2    1    2    0    0 -0.14603153291E+02 -0.82336658526E+02  0.54323390467E+02  0.15990189794E+03  0.12500003516E+03 0.  0.
          2    1    1    2  501    0 -0.30903728118E+02  0.29829033486E+02 -0.34768908050E+02  0.55260190167E+02  0.00000000000E+00 0. -1.
          1    1    1    2  502    0  0.45506881409E+02  0.52507625040E+02  0.14397165085E+04  0.14413922269E+04  0.00000000000E+00 0. -1.
         22    1    3    3    0    0  0.91210390879E+01 -0.85215247792E+02 -0.14614540550E+02  0.86939154618E+02  0.00000000000E+00 0. -1.
         22    1    3    3    0    0 -0.23724192379E+02  0.28785892655E+01  0.68937931017E+02  0.72962743322E+02  0.00000000000E+00 0. -1.
</event>
<event>
 7    1  0.6888820E-006  0.2601272E+02  0.7818608E-02  0.1688914E+00
          2   -1    0    0  502    0  0.00000000000E+00  0.00000000000E+00  0.27681950115E+04  0.27681950115E+04  0.00000000000E+00 0. -1.
          1   -1    0    0  501    0 -0.00000000000E+00 -0.00000000000E+00 -0.62300567863E+03  0.62300567863E+03  0.00000000000E+00 0. -1.
         25    2    1    2    0    0 -0.17004262512E+02  0.40756292155E+02  0.10133904210E+04  0.10220239951E+04  0.12499072273E+03 0.  0.
          2    1    1    2  501    0  0.13823272226E+02 -0.15302864121E+02 -0.61842304368E+03  0.61876677469E+03  0.00000000000E+00 0. -1.
          1    1    1    2  502    0  0.31809902865E+01 -0.25453428034E+02  0.17502219555E+04  0.17504099203E+04  0.00000000000E+00 0. -1.
         22    1    3    3    0    0  0.39603601043E+02 -0.54555252209E+01  0.14040693019E+03  0.14598737622E+03  0.00000000000E+00 0.  1.
         22    1    3    3    0    0 -0.56607863556E+02  0.46211817376E+02  0.87298349083E+03  0.87603661883E+03  0.00000000000E+00 0.  1.
</event>
<event>
 7    1  0.6888820E-006  0.3335615E+02  0.7818608E-02  0.1584852E+00
          2   -1    0    0  502    0  0.00000000000E+00  0.00000000000E+00  0.32712582229E+03  0.32712582229E+03  0.00000000000E+00 0. -1.
          1   -1    0    0  501    0 -0.00000000000E+00 -0.00000000000E+00 -0.16389657996E+04  0.16389657996E+04  0.00000000000E+00 0. -1.
         25    2    1    2    0    0 -0.17258559587E+02 -0.45410036874E+01  0.56484707117E+02  0.13832581482E+03  0.12500012126E+03 0.  0.
          2    1    1    2  501    0  0.23113989552E+02 -0.24110797560E+02 -0.15969392034E+04  0.15972884544E+04  0.00000000000E+00 0. -1.
          1    1    1    2  502    0 -0.58554299654E+01  0.28651801247E+02  0.22861451902E+03  0.23047735265E+03  0.00000000000E+00 0. -1.
         22    1    3    3    0    0 -0.20532081462E+02 -0.49939256890E+02 -0.12739947175E+02  0.55477941580E+02  0.00000000000E+00 0. -1.
         22    1    3    3    0    0  0.32735218754E+01  0.45398253203E+02  0.69224654292E+02  0.82847873245E+02  0.00000000000E+00 0. -1.
</event>
<event>
 7    1  0.6888820E-006  0.9383160E+02  0.7818608E-02  0.1317495E+00
          2   -1    0    0  502    0  0.00000000000E+00  0.00000000000E+00  0.40444978529E+02  0.40444978529E+02  0.00000000000E+00 0. -1.
          1   -1    0    0  501    0 -0.00000000000E+00 -0.00000000000E+00 -0.17609661687E+04  0.17609661687E+04  0.00000000000E+00 0. -1.
         25    2    1    2    0    0  0.51412196521E+02  0.73294369339E+02 -0.51858090021E+03  0.54089319347E+03  0.12499607252E+03 0.  0.
          2    1    1    2  501    0  0.46332257377E+02 -0.59720756709E+02 -0.11431590006E+04  0.11456551608E+04  0.00000000000E+00 0. -1.
          1    1    1    2  502    0 -0.97744453898E+02 -0.13573612630E+02 -0.58781289384E+02  0.11486279297E+03  0.00000000000E+00 0. -1.
         22    1    3    3    0    0 -0.39150260003E+01  0.52521278438E+02 -0.65848660693E+02  0.84319975287E+02  0.00000000000E+00 0. -1.
         22    1    3    3    0    0  0.55327222521E+02  0.20773090901E+02 -0.45273223952E+03  0.45657321818E+03  0.00000000000E+00 0. -1.
</event>
<event>
 7    1  0.6888820E-006  0.1764036E+03  0.7818608E-02  0.1242285E+00
          2   -1    0    0  502    0  0.00000000000E+00  0.00000000000E+00  0.19672655410E+04  0.19672655410E+04  0.00000000000E+00 0. -1.
          1   -1    0    0  501    0 -0.00000000000E+00 -0.00000000000E+00 -0.35420121125E+03  0.35420121125E+03  0.00000000000E+00 0. -1.
         25    2    1    2    0    0  0.18308042777E+03  0.37271973172E+01  0.36322903057E+03  0.42554955978E+03  0.12499905658E+03 0.  0.
          2    1    1    2  501    0 -0.15706661780E+03 -0.81812147993E+02 -0.29759307112E+03  0.34630158238E+03  0.00000000000E+00 0. -1.
          1    1    1    2  502    0 -0.26013809977E+02  0.78084950676E+02  0.15474283703E+04  0.15496156101E+04  0.00000000000E+00 0. -1.
         22    1    3    3    0    0  0.17727725656E+03  0.39599388288E+01  0.22164984451E+03  0.28385129977E+03  0.00000000000E+00 0. -1.
         22    1    3    3    0    0  0.58031712122E+01 -0.23274151158E+00  0.14157918605E+03  0.14169826000E+03  0.00000000000E+00 0. -1.
</event>
<event>
 7    1  0.6888820E-006  0.1273204E+03  0.7818608E-02  0.1237124E+00
          2   -1    0    0  502    0  0.00000000000E+00  0.00000000000E+00  0.11207578855E+04  0.11207578855E+04  0.00000000000E+00 0. -1.
          1   -1    0    0  501    0 -0.00000000000E+00 -0.00000000000E+00 -0.55509261991E+03  0.55509261991E+03  0.00000000000E+00 0. -1.
         25    2    1    2    0    0  0.22160996744E+03 -0.40001244049E+02  0.14456725221E+02  0.25796266909E+03  0.12499865817E+03 0.  0.
          2    1    1    2  501    0 -0.10385631274E+03  0.63986966382E+02 -0.42098146179E+03  0.43829882128E+03  0.00000000000E+00 0. -1.
          1    1    1    2  502    0 -0.11775365470E+03 -0.23985722333E+02  0.97219000218E+03  0.97958901505E+03  0.00000000000E+00 0. -1.
         22    1    3    3    0    0  0.13543823192E+03 -0.64695199037E+02  0.54633803369E+02  0.15973051028E+03  0.00000000000E+00 0.  1.
         22    1    3    3    0    0  0.86171735523E+02  0.24693954988E+02 -0.40177078148E+02  0.98232158810E+02  0.00000000000E+00 0.  1.
</event>
<event>
 7    1  0.6888820E-006  0.1658548E+03  0.7818608E-02  0.1281362E+00
          2   -1    0    0  502    0  0.00000000000E+00  0.00000000000E+00  0.54871237136E+02  0.54871237136E+02  0.00000000000E+00 0. -1.
          1   -1    0    0  501    0 -0.00000000000E+00 -0.00000000000E+00 -0.12041925224E+04  0.12041925224E+04  0.00000000000E+00 0. -1.
         25    2    1    2    0    0  0.14319621693E+03 -0.58093208496E+02 -0.47503909378E+03  0.51494363944E+03  0.12499933506E+03 0.  0.
          2    1    1    2  501    0 -0.17561508256E+03  0.79790453414E+01 -0.65964143483E+03  0.68266473831E+03  0.00000000000E+00 0. -1.
          1    1    1    2  502    0  0.32418865637E+02  0.50114163155E+02 -0.14640756687E+02  0.61455381817E+02  0.00000000000E+00 0. -1.
         22    1    3    3    0    0  0.61554925962E+02 -0.68889281546E+02 -0.12551196496E+03  0.15584606305E+03  0.00000000000E+00 0.  1.
         22    1    3    3    0    0  0.81641290964E+02  0.10796073050E+02 -0.34952712883E+03  0.35909757639E+03  0.00000000000E+00 0.  1.
</event>
<event>
 7    1  0.6888820E-006  0.2111291E+03  0.7818608E-02  0.1213141E+00
          2   -1    0    0  502    0  0.00000000000E+00  0.00000000000E+00  0.20408541870E+03  0.20408541870E+03  0.00000000000E+00 0. -1.
          1   -1    0    0  501    0 -0.00000000000E+00 -0.00000000000E+00 -0.21102215253E+04  0.21102215253E+04  0.00000000000E+00 0. -1.
         25    2    1    2    0    0 -0.10565454487E+03 -0.24391328538E+03 -0.31371354947E+03  0.42976462119E+03  0.12499945948E+03 0.  0.
          2    1    1    2  501    0  0.20982785356E+02  0.20539869242E+03 -0.17168321697E+04  0.17292025905E+04  0.00000000000E+00 0. -1.
          1    1    1    2  502    0  0.84671759514E+02  0.38514592961E+02  0.12440961257E+03  0.15533973230E+03  0.00000000000E+00 0. -1.
         22    1    3    3    0    0  0.23188342857E+00  0.10133964226E+02  0.26073453162E+01  0.10466577781E+02  0.00000000000E+00 0. -1.
         22    1    3    3    0    0 -0.10588642830E+03 -0.25404724960E+03 -0.31632089478E+03  0.41929804341E+03  0.00000000000E+00 0. -1.
</event>
<event>
 7    1  0.6888820E-006  0.4136918E+03  0.7818608E-02  0.1189128E+00
          2   -1    0    0  502    0  0.00000000000E+00  0.00000000000E+00  0.11863117011E+04  0.11863117011E+04  0.00000000000E+00 0. -1.
          1   -1    0    0  501    0 -0.00000000000E+00 -0.00000000000E+00 -0.36247010742E+03  0.36247010742E+03  0.00000000000E+00 0. -1.
         25    2    1    2    0    0 -0.38844305270E+03 -0.22297521793E+03  0.33220930657E+03  0.57148419011E+03  0.12500081274E+03 0.  0.
          2    1    1    2  501    0  0.26687534502E+02  0.55504289584E+02 -0.18333378704E+03  0.19340172732E+03  0.00000000000E+00 0. -1.
          1    1    1    2  502    0  0.36175551819E+03  0.16747092834E+03  0.67496607413E+03  0.78389589105E+03  0.00000000000E+00 0. -1.
         22    1    3    3    0    0 -0.38353113663E+03 -0.23482135879E+03  0.31125030509E+03  0.54691311534E+03  0.00000000000E+00 0. -1.
         22    1    3    3    0    0 -0.49119160625E+01  0.11846140863E+02  0.20959001477E+02  0.24571074776E+02  0.00000000000E+00 0. -1.
</event>
<event>
 7    1  0.6888820E-006  0.8836571E+02  0.7818608E-02  0.1314850E+00
          2   -1    0    0  502    0  0.00000000000E+00  0.00000000000E+00  0.22072363674E+04  0.22072363674E+04  0.00000000000E+00 0. -1.
          1   -1    0    0  501    0 -0.00000000000E+00 -0.00000000000E+00 -0.16181597966E+03  0.16181597966E+03  0.00000000000E+00 0. -1.
         25    2    1    2    0    0 -0.27578772446E+02 -0.10556905103E+03  0.84010947494E+02  0.18597389157E+03  0.12499214304E+03 0.  0.
          2    1    1    2  501    0 -0.48846367819E+02  0.75324275380E+02 -0.91696741250E+02  0.12832773070E+03  0.00000000000E+00 0. -1.
          1    1    1    2  502    0  0.76425140266E+02  0.30244775648E+02  0.20531061815E+04  0.20547507248E+04  0.00000000000E+00 0. -1.
         22    1    3    3    0    0  0.43160650121E+02 -0.76386603185E+02  0.57898022391E+02  0.10511867513E+03  0.00000000000E+00 0.  1.
         22    1    3    3    0    0 -0.70739422567E+02 -0.29182447843E+02  0.26112925103E+02  0.80855216435E+02  0.00000000000E+00 0.  1.
</event>
<event>
 7    1  0.6888820E-006  0.9013360E+02  0.7818608E-02  0.1419527E+00
          2   -1    0    0  502    0  0.00000000000E+00  0.00000000000E+00  0.21652034432E+04  0.21652034432E+04  0.00000000000E+00 0. -1.
          1   -1    0    0  501    0 -0.00000000000E+00 -0.00000000000E+00 -0.63480419388E+02  0.63480419388E+02  0.00000000000E+00 0. -1.
         25    2    1    2    0    0  0.10658506638E+03 -0.49089322969E+02  0.32456135435E+03  0.36705871578E+03  0.12498755973E+03 0.  0.
          2    1    1    2  501    0 -0.72944557128E+02  0.46938904353E+02  0.26387628698E+01  0.86782096229E+02  0.00000000000E+00 0. -1.
          1    1    1    2  502    0 -0.33640509252E+02  0.21504186158E+01  0.17745229066E+04  0.17748430506E+04  0.00000000000E+00 0. -1.
         22    1    3    3    0    0 -0.11964512924E+02  0.23520923610E+02  0.95804208648E+02  0.99372178257E+02  0.00000000000E+00 0. -1.
         22    1    3    3    0    0  0.11854957930E+03 -0.72610246579E+02  0.22875714570E+03  0.26768653752E+03  0.00000000000E+00 0. -1.
</event>
<event>
 7    1  0.6888820E-006  0.7405768E+02  0.7818608E-02  0.1424260E+00
          2   -1    0    0  502    0  0.00000000000E+00  0.00000000000E+00  0.39384457020E+03  0.39384457020E+03  0.00000000000E+00 0. -1.
          1   -1    0    0  501    0 -0.00000000000E+00 -0.00000000000E+00 -0.27351401189E+03  0.27351401189E+03  0.00000000000E+00 0. -1.
         25    2    1    2    0    0  0.28742218138E+02 -0.59857844245E+02 -0.43273914034E+02  0.14800774213E+03  0.12499833388E+03 0.  0.
          2    1    1    2  501    0 -0.64058095813E+02  0.42022504158E+02 -0.16839448412E+03  0.18500279127E+03  0.00000000000E+00 0. -1.
          1    1    1    2  502    0  0.35315877675E+02  0.17835340086E+02  0.33199895646E+03  0.33434804869E+03  0.00000000000E+00 0. -1.
         22    1    3    3    0    0  0.27121843755E+02 -0.91889745663E+02 -0.58759466079E+02  0.11239214661E+03  0.00000000000E+00 0.  1.
         22    1    3    3    0    0  0.16203743832E+01  0.32031901419E+02  0.15485552046E+02  0.35615595514E+02  0.00000000000E+00 0.  1.
</event>
<event>
 7    1  0.6888820E-006  0.9500865E+02  0.7818608E-02  0.1300001E+00
          2   -1    0    0  502    0  0.00000000000E+00  0.00000000000E+00  0.12002709859E+04  0.12002709859E+04  0.00000000000E+00 0. -1.
          1   -1    0    0  501    0 -0.00000000000E+00 -0.00000000000E+00 -0.10338240646E+03  0.10338240646E+03  0.00000000000E+00 0. -1.
         25    2    1    2    0    0 -0.39794141703E+02  0.12198784676E+02  0.13315220039E+03  0.18731468777E+03  0.12499959890E+03 0.  0.
          2    1    1    2  501    0  0.10608205356E+02 -0.10261352245E+03 -0.38126895278E+02  0.10998058535E+03  0.00000000000E+00 0. -1.
          1    1    1    2  502    0  0.29185936347E+02  0.90414737778E+02  0.10018632743E+04  0.10063581192E+04  0.00000000000E+00 0. -1.
         22    1    3    3    0    0  0.32039955228E+02 -0.30714405605E+02  0.26275223920E+02  0.51578298099E+02  0.00000000000E+00 0.  1.
         22    1    3    3    0    0 -0.71834096931E+02  0.42913190281E+02  0.10687697647E+03  0.13573638967E+03  0.00000000000E+00 0.  1.
</event>
<event>
 7    1  0.6888820E-006  0.1537671E+03  0.7818608E-02  0.1417272E+00
          2   -1    0    0  502    0  0.00000000000E+00  0.00000000000E+00  0.44979434149E+03  0.44979434149E+03  0.00000000000E+00 0. -1.
          1   -1    0    0  501    0 -0.00000000000E+00 -0.00000000000E+00 -0.50160886780E+03  0.50160886780E+03  0.00000000000E+00 0. -1.
         25    2    1    2    0    0 -0.80797497883E+02 -0.12428515708E+03 -0.18751470018E+03  0.26974970308E+03  0.12501241376E+03 0.  0.
          2    1    1    2  501    0  0.69559662526E+02  0.14095704903E+03 -0.25006535737E+03  0.29536438390E+03  0.00000000000E+00 0. -1.
          1    1    1    2  502    0  0.11237835357E+02 -0.16671891955E+02  0.38576553124E+03  0.38628912231E+03  0.00000000000E+00 0. -1.
         22    1    3    3    0    0 -0.74217149075E+02 -0.14577349170E+03 -0.18529255722E+03  0.24716680170E+03  0.00000000000E+00 0.  1.
         22    1    3    3    0    0 -0.65803488080E+01  0.21488334625E+02 -0.22221429553E+01  0.22582901380E+02  0.00000000000E+00 0.  1.
</event>
<event>
 7    1  0.6888820E-006  0.8006795E+02  0.7818608E-02  0.1387465E+00
          2   -1    0    0  502    0  0.00000000000E+00  0.00000000000E+00  0.15946330210E+04  0.15946330210E+04  0.00000000000E+00 0. -1.
          1   -1    0    0  501    0 -0.00000000000E+00 -0.00000000000E+00 -0.17223155346E+04  0.17223155346E+04  0.00000000000E+00 0. -1.
         25    2    1    2    0    0 -0.88753631687E+02 -0.11745490763E+02 -0.36043882004E+01  0.15379532010E+03  0.12499938072E+03 0.  0.
          2    1    1    2  501    0  0.16332569781E+02  0.46040433409E+02 -0.16421958036E+04  0.16429222537E+04  0.00000000000E+00 0. -1.
          1    1    1    2  502    0  0.72421061906E+02 -0.34294942646E+02  0.15181176782E+04  0.15202309818E+04  0.00000000000E+00 0. -1.
         22    1    3    3    0    0  0.72307586679E+01 -0.95602416287E+01  0.44728279393E+02  0.46306598541E+02  0.00000000000E+00 0.  1.
         22    1    3    3    0    0 -0.95984390355E+02 -0.21852491345E+01 -0.48332667594E+02  0.10748872156E+03  0.00000000000E+00 0.  1.
</event>
<event>
 7    1  0.6888820E-006  0.9014638E+02  0.7818608E-02  0.1321836E+00
          2   -1    0    0  502    0  0.00000000000E+00  0.00000000000E+00  0.30390188942E+03  0.30390188942E+03  0.00000000000E+00 0. -1.
          1   -1    0    0  501    0 -0.00000000000E+00 -0.00000000000E+00 -0.24375837589E+04  0.24375837589E+04  0.00000000000E+00 0. -1.
         25    2    1    2    0    0 -0.77753733820E+02  0.45645022233E+02 -0.11351259444E+04  0.11455424146E+04  0.12500961146E+03 0.  0.
          2    1    1    2  501    0  0.21127410587E+02 -0.95856611168E+02 -0.12905617675E+04  0.12942891999E+04  0.00000000000E+00 0. -1.
          1    1    1    2  502    0  0.56626323234E+02  0.50211588935E+02  0.29200584234E+03  0.30165403380E+03  0.00000000000E+00 0. -1.
         22    1    3    3    0    0 -0.27654278371E+02  0.22307866848E+02 -0.65722553420E+02  0.74711806721E+02  0.00000000000E+00 0. -1.
         22    1    3    3    0    0 -0.50099455449E+02  0.23337155384E+02 -0.10694033910E+04  0.10708306079E+04  0.00000000000E+00 0. -1.
</event>
<event>
 7    1  0.6888820E-006  0.2490737E+03  0.7818608E-02  0.1115576E+00
          2   -1    0    0  502    0  0.00000000000E+00  0.00000000000E+00  0.31243992180E+04  0.31243992180E+04  0.00000000000E+00 0. -1.
          1   -1    0    0  501    0 -0.00000000000E+00 -0.00000000000E+00 -0.32262162882E+03  0.32262162882E+03  0.00000000000E+00 0. -1.
         25    2    1    2    0    0  0.23009699458E+03  0.23155644771E+03  0.11932020876E+03  0.36935403337E+03  0.12498829689E+03 0.  0.
          2    1    1    2  501    0  0.13122978734E+02 -0.24883697665E+03 -0.11157002460E+03  0.27302000642E+03  0.00000000000E+00 0. -1.
          1    1    1    2  502    0 -0.24321997332E+03  0.17280528944E+02  0.27940274050E+04  0.28046468070E+04  0.00000000000E+00 0. -1.
         22    1    3    3    0    0  0.13838236617E+01  0.15371335236E+02 -0.19930941691E+02  0.25207843057E+02  0.00000000000E+00 0. -1.
         22    1    3    3    0    0  0.22871317092E+03  0.21618511247E+03  0.13925115045E+03  0.34414619031E+03  0.00000000000E+00 0. -1.
</event>
<event>
 7    1  0.6888820E-006  0.7538369E+02  0.7818608E-02  0.1457136E+00
          2   -1    0    0  502    0  0.00000000000E+00  0.00000000000E+00  0.21602951730E+04  0.21602951730E+04  0.00000000000E+00 0. -1.
          1   -1    0    0  501    0 -0.00000000000E+00 -0.00000000000E+00 -0.70750427422E+02  0.70750427422E+02  0.00000000000E+00 0. -1.
         25    2    1    2    0    0 -0.83845688726E+02 -0.56185938752E+02  0.22777210880E+03  0.27872945018E+03  0.12499205423E+03 0.  0.
          2    1    1    2  501    0  0.54651790413E+02  0.47678360233E+02 -0.16022412177E+02  0.74274907754E+02  0.00000000000E+00 0. -1.
          1    1    1    2  502    0  0.29193898313E+02  0.85075785192E+01  0.18777950490E+04  0.18780412425E+04  0.00000000000E+00 0. -1.
         22    1    3    3    0    0  0.12577399291E+02 -0.25317331095E+02  0.14564747984E+03  0.14836558432E+03  0.00000000000E+00 0.  1.
         22    1    3    3    0    0 -0.96423088017E+02 -0.30868607658E+02  0.82124628963E+02  0.13036386587E+03  0.00000000000E+00 0.  1.
</event>
<event>
 7    1  0.6888820E-006  0.7743247E+02  0.7818608E-02  0.1370188E+00
          2   -1    0    0  502    0  0.00000000000E+00  0.00000000000E+00  0.37014685938E+03  0.37014685938E+03  0.00000000000E+00 0. -1.
          1   -1    0    0  501    0 -0.00000000000E+00 -0.00000000000E+00 -0.67903051222E+03  0.67903051222E+03  0.00000000000E+00 0. -1.
         25    2    1    2    0    0 -0.65572976806E+02 -0.33716601015E+02 -0.26394232986E+02  0.14750731364E+03  0.12500051029E+03 0.  0.
          2    1    1    2  501    0  0.41064380185E+02 -0.41203194546E+02 -0.58559751008E+03  0.58847976207E+03  0.00000000000E+00 0. -1.
          1    1    1    2  502    0  0.24508596620E+02  0.74919795561E+02  0.30310809022E+03  0.31319029588E+03  0.00000000000E+00 0. -1.
         22    1    3    3    0    0 -0.89018398688E+02  0.38819048785E+01 -0.44553465774E+02  0.99621061041E+02  0.00000000000E+00 0. -1.
         22    1    3    3    0    0  0.23445421882E+02 -0.37598505893E+02  0.18159232789E+02  0.47886252601E+02  0.00000000000E+00 0. -1.
</event>
<event>
 7    1  0.6888820E-006  0.6340172E+02  0.7818608E-02  0.1441468E+00
          2   -1    0    0  502    0  0.00000000000E+00  0.00000000000E+00  0.20225939905E+03  0.20225939905E+03  0.00000000000E+00 0. -1.
          1   -1    0    0  501    0 -0.00000000000E+00 -0.00000000000E+00 -0.16289975222E+03  0.16289975222E+03  0.00000000000E+00 0. -1.
         25    2    1    2    0    0 -0.54655356966E+00  0.88033934207E+02  0.51895062907E+02  0.16145716075E+03  0.12500017964E+03 0.  0.
          2    1    1    2  501    0  0.25772695710E+02 -0.56243201601E+02 -0.94090127316E+02  0.11260764463E+03  0.00000000000E+00 0. -1.
          1    1    1    2  502    0 -0.25226142140E+02 -0.31790732606E+02  0.81554711244E+02  0.91094345889E+02  0.00000000000E+00 0. -1.
         22    1    3    3    0    0 -0.86548517271E+01  0.11512657441E+03  0.17246200577E+02  0.11673245491E+03  0.00000000000E+00 0.  1.
         22    1    3    3    0    0  0.81082981575E+01 -0.27092640203E+02  0.34648862330E+02  0.44724705845E+02  0.00000000000E+00 0.  1.
</event>
<event>
 7    1  0.6888820E-006  0.3286681E+02  0.7818608E-02  0.1575998E+00
          2   -1    0    0  502    0  0.00000000000E+00  0.00000000000E+00  0.90212036001E+03  0.90212036001E+03  0.00000000000E+00 0. -1.
          1   -1    0    0  501    0 -0.00000000000E+00 -0.00000000000E+00 -0.52877555602E+02  0.52877555602E+02  0.00000000000E+00 0. -1.
         25    2    1    2    0    0 -0.33259535465E+02 -0.21004870134E+00  0.40386492649E+03  0.42407404093E+03  0.12500269008E+03 0.  0.
          2    1    1    2  501    0  0.14549353547E+02 -0.27764919665E+02 -0.36363031176E+02  0.48008795955E+02  0.00000000000E+00 0. -1.
          1    1    1    2  502    0  0.18710181917E+02  0.27974968367E+02  0.48174090910E+03  0.48291507873E+03  0.00000000000E+00 0. -1.
         22    1    3    3    0    0 -0.17786102984E+02  0.51588936980E+02  0.31771208994E+03  0.32236429078E+03  0.00000000000E+00 0. -1.
         22    1    3    3    0    0 -0.15473432481E+02 -0.51798985681E+02  0.86152836553E+02  0.10170975015E+03  0.00000000000E+00 0. -1.
</event>
<event>
 7    1  0.6888820E-006  0.1121652E+03  0.7818608E-02  0.1375168E+00
          2   -1    0    0  502    0  0.00000000000E+00  0.00000000000E+00  0.49363546032E+03  0.49363546032E+03  0.00000000000E+00 0. -1.
          1   -1    0    0  501    0 -0.00000000000E+00 -0.00000000000E+00 -0.62119484964E+03  0.62119484964E+03  0.00000000000E+00 0. -1.
         25    2    1    2    0    0 -0.10594560749E+03 -0.16841167494E+02  0.24044906446E+03  0.29146027882E+03  0.12500097946E+03 0.  0.
          2    1    1    2  501    0  0.11032390285E+03 -0.21452749412E+02 -0.58870286710E+03  0.59933517311E+03  0.00000000000E+00 0. -1.
          1    1    1    2  502    0 -0.43782953613E+01  0.38293916906E+02  0.22069441332E+03  0.22403485803E+03  0.00000000000E+00 0. -1.
         22    1    3    3    0    0 -0.12245441885E+03  0.56321149421E+01  0.23187963990E+03  0.26228795781E+03  0.00000000000E+00 0.  1.
         22    1    3    3    0    0  0.16508811359E+02 -0.22473282436E+02  0.85694245599E+01  0.29172321012E+02  0.00000000000E+00 0.  1.
</event>
<event>
 7    1  0.6888820E-006  0.7266792E+02  0.7818608E-02  0.1404688E+00
          2   -1    0    0  502    0  0.00000000000E+00  0.00000000000E+00  0.82248522805E+03  0.82248522805E+03  0.00000000000E+00 0. -1.
          1   -1    0    0  501    0 -0.00000000000E+00 -0.00000000000E+00 -0.96970512123E+02  0.96970512123E+02  0.00000000000E+00 0. -1.
         25    2    1    2    0    0  0.78221442941E+02  0.24190983215E+02  0.43275980361E+03  0.45782864148E+03  0.12498887763E+03 0.  0.
          2    1    1    2  501    0 -0.83661275612E+01 -0.46175558816E+02 -0.74003789634E+02  0.87628392673E+02  0.00000000000E+00 0. -1.
          1    1    1    2  502    0 -0.69855315380E+02  0.21984575601E+02  0.36675870194E+03  0.37399870602E+03  0.00000000000E+00 0. -1.
         22    1    3    3    0    0  0.62505245317E+02  0.41223149312E+02  0.42757382576E+03  0.43408021172E+03  0.00000000000E+00 0.  1.
         22    1    3    3    0    0  0.15716197624E+02 -0.17032166097E+02  0.51859778519E+01  0.23748429758E+02  0.00000000000E+00 0.  1.
</event>
<event>
 7    1  0.6888820E-006  0.3970393E+02  0.7818608E-02  0.1605374E+00
          2   -1    0    0  502    0  0.00000000000E+00  0.00000000000E+00  0.11550134691E+03  0.11550134691E+03  0.00000000000E+00 0. -1.
          1   -1    0    0  501    0 -0.00000000000E+00 -0.00000000000E+00 -0.13169250155E+04  0.13169250155E+04  0.00000000000E+00 0. -1.
         25    2    1    2    0    0 -0.29572561420E+02 -0.32902448686E+02 -0.26684468647E+03  0.29797220313E+03  0.12499695845E+03 0.  0.
          2    1    1    2  501    0  0.86825997498E+01  0.38767876448E+02 -0.10329524790E+04  0.10337161892E+04  0.00000000000E+00 0. -1.
          1    1    1    2  502    0  0.20889961670E+02 -0.58654277620E+01  0.98373496879E+02  0.10073797015E+03  0.00000000000E+00 0. -1.
         22    1    3    3    0    0 -0.75077598961E+02  0.46888015668E+00 -0.17087012247E+03  0.18663725369E+03  0.00000000000E+00 0. -1.
         22    1    3    3    0    0  0.45505037541E+02 -0.33371328843E+02 -0.95974564001E+02  0.11133494943E+03  0.00000000000E+00 0. -1.
</event>
<event>
 7    1  0.6888820E-006  0.1200633E+03  0.7818608E-02  0.1365708E+00
          2   -1    0    0  502    0  0.00000000000E+00  0.00000000000E+00  0.57132311159E+03  0.57132311159E+03  0.00000000000E+00 0. -1.
          1   -1    0    0  501    0 -0.00000000000E+00 -0.00000000000E+00 -0.87376747959E+03  0.87376747959E+03  0.00000000000E+00 0. -1.
         25    2    1    2    0    0  0.76849444165E+02  0.31086897015E+02 -0.29675147561E+03  0.33250271912E+03  0.12499755083E+03 0.  0.
          2    1    1    2  501    0  0.30815228086E+02  0.23804340184E+02 -0.55184900204E+03  0.55322106426E+03  0.00000000000E+00 0. -1.
          1    1    1    2  502    0 -0.10766467225E+03 -0.54891237198E+02  0.54615610964E+03  0.55936680780E+03  0.00000000000E+00 0. -1.
         22    1    3    3    0    0  0.27026276515E+02  0.74978465175E+02 -0.12372769436E+03  0.14717585473E+03  0.00000000000E+00 0.  1.
         22    1    3    3    0    0  0.49823167650E+02 -0.43891568160E+02 -0.17302378124E+03  0.18532686439E+03  0.00000000000E+00 0.  1.
</event>
<event>
 7    1  0.6888820E-006  0.9776495E+02  0.7818608E-02  0.1377494E+00
          2   -1    0    0  502    0  0.00000000000E+00  0.00000000000E+00  0.11399160597E+04  0.11399160597E+04  0.00000000000E+00 0. -1.
          1   -1    0    0  501    0 -0.00000000000E+00 -0.00000000000E+00 -0.36293234828E+03  0.36293234828E+03  0.00000000000E+00 0. -1.
         25    2    1    2    0    0  0.12870151551E+03  0.56464140194E+02  0.64956374742E+03  0.67624720489E+03  0.12499976369E+03 0.  0.
          2    1    1    2  501    0 -0.87797657720E+02 -0.42002119338E+02 -0.34179635296E+03  0.35538338964E+03  0.00000000000E+00 0. -1.
          1    1    1    2  502    0 -0.40903857794E+02 -0.14462020856E+02  0.46921631694E+03  0.47121781345E+03  0.00000000000E+00 0. -1.
         22    1    3    3    0    0  0.13435660856E+03  0.69438535708E+01  0.52781196652E+03  0.54468833966E+03  0.00000000000E+00 0.  1.
         22    1    3    3    0    0 -0.56550930427E+01  0.49520286624E+02  0.12175178091E+03  0.13155886522E+03  0.00000000000E+00 0.  1.
</event>
<event>
 7    1  0.6888820E-006  0.1333527E+03  0.7818608E-02  0.1347232E+00
          2   -1    0    0  502    0  0.00000000000E+00  0.00000000000E+00  0.15569909123E+03  0.15569909123E+03  0.00000000000E+00 0. -1.
          1   -1    0    0  501    0 -0.00000000000E+00 -0.00000000000E+00 -0.16120116806E+04  0.16120116806E+04  0.00000000000E+00 0. -1.
         25    2    1    2    0    0  0.74273393903E+02 -0.63857494944E+02 -0.31988704606E+03  0.35713610627E+03  0.12499663780E+03 0.  0.
          2    1    1    2  501    0  0.19421382629E+02 -0.36086698395E+02 -0.12388477390E+04  0.12395253771E+04  0.00000000000E+00 0. -1.
          1    1    1    2  502    0 -0.93694776531E+02  0.99944193339E+02  0.10242219569E+03  0.17104928851E+03  0.00000000000E+00 0. -1.
         22    1    3    3    0    0  0.57719420993E+02 -0.47951812286E+02 -0.59572466698E+02  0.95811203153E+02  0.00000000000E+00 0.  1.
         22    1    3    3    0    0  0.16553972910E+02 -0.15905682659E+02 -0.26031457936E+03  0.26132490312E+03  0.00000000000E+00 0.  1.
</event>
<event>
 7    1  0.6888820E-006  0.6813264E+02  0.7818608E-02  0.1517869E+00
          2   -1    0    0  502    0  0.00000000000E+00  0.00000000000E+00  0.64493712084E+02  0.64493712084E+02  0.00000000000E+00 0. -1.
          1   -1    0    0  501    0 -0.00000000000E+00 -0.00000000000E+00 -0.52431007204E+03  0.52431007204E+03  0.00000000000E+00 0. -1.
         25    2    1    2    0    0  0.53555969801E+02  0.70499652291E+02 -0.92952505804E+02  0.17916784036E+03  0.12499001483E+03 0.  0.
          2    1    1    2  501    0 -0.38191156351E+02 -0.54751859531E+02 -0.37877805335E+03  0.38461557983E+03  0.00000000000E+00 0. -1.
          1    1    1    2  502    0 -0.15364813450E+02 -0.15747792760E+02  0.11914199199E+02  0.25020363941E+02  0.00000000000E+00 0. -1.
         22    1    3    3    0    0  0.65540489393E+02  0.51121540132E+02 -0.11862178917E+03  0.14484507752E+03  0.00000000000E+00 0. -1.
         22    1    3    3    0    0 -0.11984519592E+02  0.19378112159E+02  0.25669283363E+02  0.34322762841E+02  0.00000000000E+00 0. -1.
</event>
<event>
 7    1  0.6888820E-006  0.1813614E+03  0.7818608E-02  0.1259858E+00
          2   -1    0    0  502    0  0.00000000000E+00  0.00000000000E+00  0.10713952571E+04  0.10713952571E+04  0.00000000000E+00 0. -1.
          1   -1    0    0  501    0 -0.00000000000E+00 -0.00000000000E+00 -0.15719667252E+04  0.15719667252E+04  0.00000000000E+00 0. -1.
         25    2    1    2    0    0 -0.12022652325E+03  0.30871907085E+02  0.41776984448E+01  0.17621328360E+03  0.12500470635E+03 0.  0.
          2    1    1    2  501    0 -0.52532102724E+02  0.41884654567E+02 -0.14762248251E+04  0.14777529158E+04  0.00000000000E+00 0. -1.
          1    1    1    2  502    0  0.17275862598E+03 -0.72756561652E+02  0.97147565848E+03  0.98939578286E+03  0.00000000000E+00 0. -1.
         22    1    3    3    0    0 -0.52562359799E+02 -0.46006688215E+02  0.19821685650E+02  0.72610717185E+02  0.00000000000E+00 0. -1.
         22    1    3    3    0    0 -0.67664163454E+02  0.76878595299E+02 -0.15643987205E+02  0.10360256641E+03  0.00000000000E+00 0. -1.
</event>
<event>
 7    1  0.6888820E-006  0.3001949E+02  0.7818608E-02  0.1602658E+00
          2   -1    0    0  502    0  0.00000000000E+00  0.00000000000E+00  0.27891993591E+02  0.27891993591E+02  0.00000000000E+00 0. -1.
          1   -1    0    0  501    0 -0.00000000000E+00 -0.00000000000E+00 -0.20388081870E+04  0.20388081870E+04  0.00000000000E+00 0. -1.
         25    2    1    2    0    0  0.20794553164E+02  0.33677828179E+02 -0.86010137216E+03  0.87003787660E+03  0.12499970709E+03 0.  0.
          2    1    1    2  501    0  0.86868936756E+01 -0.27844257518E+02 -0.11636267510E+04  0.11639922597E+04  0.00000000000E+00 0. -1.
          1    1    1    2  502    0 -0.29481446839E+02 -0.58335706612E+01  0.12811929766E+02  0.32670044364E+02  0.00000000000E+00 0. -1.
         22    1    3    3    0    0 -0.20971629090E+02  0.28758830449E+02 -0.67393548844E+02  0.76215287058E+02  0.00000000000E+00 0.  1.
         22    1    3    3    0    0  0.41766182253E+02  0.49189977303E+01 -0.79270782331E+03  0.79382258954E+03  0.00000000000E+00 0.  1.
</event>
<event>
 7    1  0.6888820E-006  0.1247293E+03  0.7818608E-02  0.1302204E+00
          2   -1    0    0  502    0  0.00000000000E+00  0.00000000000E+00  0.12604533646E+04  0.12604533646E+04  0.00000000000E+00 0. -1.
          1   -1    0    0  501    0 -0.00000000000E+00 -0.00000000000E+00 -0.44808950005E+03  0.44808950005E+03  0.00000000000E+00 0. -1.
         25    2    1    2    0    0 -0.10314264153E+03  0.53316625869E+02  0.88767933072E+01  0.17082086794E+03  0.12497961581E+03 0.  0.
          2    1    1    2  501    0  0.12739823954E+03  0.73415554557E+01 -0.35508018085E+03  0.37731438444E+03  0.00000000000E+00 0. -1.
          1    1    1    2  502    0 -0.24255598012E+02 -0.60658181325E+02  0.11585672521E+04  0.11604076123E+04  0.00000000000E+00 0. -1.
         22    1    3    3    0    0 -0.98084704280E+02  0.21744257166E+02 -0.43481023706E+02  0.10947155501E+03  0.00000000000E+00 0.  1.
         22    1    3    3    0    0 -0.50579372515E+01  0.31572368703E+02  0.52357817013E+02  0.61349312931E+02  0.00000000000E+00 0.  1.
</event>
<event>
 7    1  0.6888820E-006  0.9992173E+02  0.7818608E-02  0.1368974E+00
          2   -1    0    0  502    0  0.00000000000E+00  0.00000000000E+00  0.63477890291E+03  0.63477890291E+03  0.00000000000E+00 0. -1.
          1   -1    0    0  501    0 -0.00000000000E+00 -0.00000000000E+00 -0.49774344076E+03  0.49774344076E+03  0.00000000000E+00 0. -1.
         25    2    1    2    0    0 -0.17364118235E+02 -0.55088133144E+02  0.36428427932E+02  0.14244205369E+03  0.12500597298E+03 0.  0.
          2    1    1    2  501    0  0.39756813862E+02  0.94736721754E+02 -0.43782912551E+03  0.44972212959E+03  0.00000000000E+00 0. -1.
          1    1    1    2  502    0 -0.22392695627E+02 -0.39648588609E+02  0.53843615973E+03  0.54035816039E+03  0.00000000000E+00 0. -1.
         22    1    3    3    0    0  0.46730315931E+02  0.81436886809E+01  0.86321914038E+01  0.48213658032E+02  0.00000000000E+00 0. -1.
         22    1    3    3    0    0 -0.64094434166E+02 -0.63231821825E+02  0.27796236528E+02  0.94228395654E+02  0.00000000000E+00 0. -1.
</event>
<event>
 7    1  0.6888820E-006  0.4588166E+02  0.7818608E-02  0.1497454E+00
          2   -1    0    0  502    0  0.00000000000E+00  0.00000000000E+00  0.26327900337E+04  0.26327900337E+04  0.00000000000E+00 0. -1.
          1   -1    0    0  501    0 -0.00000000000E+00 -0.00000000000E+00 -0.11221104386E+04  0.11221104386E+04  0.00000000000E+00 0. -1.
         25    2    1    2    0    0 -0.12457909417E+02 -0.23639691435E+01  0.19105635646E+02  0.12708623608E+03  0.12500039292E+03 0.  0.
          2    1    1    2  501    0  0.39748227839E+02 -0.23409222080E+02 -0.10674843804E+04  0.10684806109E+04  0.00000000000E+00 0. -1.
          1    1    1    2  502    0 -0.27290318422E+02  0.25773191224E+02  0.25590583399E+04  0.25593336254E+04  0.00000000000E+00 0. -1.
         22    1    3    3    0    0 -0.40429044757E+02  0.48937507035E+02 -0.54369375327E+01  0.63709870071E+02  0.00000000000E+00 0. -1.
         22    1    3    3    0    0  0.27971135341E+02 -0.51301476178E+02  0.24542573179E+02  0.63376366009E+02  0.00000000000E+00 0. -1.
</event>
<event>
 7    1  0.6888820E-006  0.1239484E+03  0.7818608E-02  0.1367731E+00
          2   -1    0    0  502    0  0.00000000000E+00  0.00000000000E+00  0.21779052436E+04  0.21779052436E+04  0.00000000000E+00 0. -1.
          1   -1    0    0  501    0 -0.00000000000E+00 -0.00000000000E+00 -0.96645130536E+02  0.96645130536E+02  0.00000000000E+00 0. -1.
         25    2    1    2    0    0  0.57353666181E+02 -0.73787578397E+02  0.15616876392E+04  0.15694674748E+04  0.12500328939E+03 0.  0.
          2    1    1    2  501    0 -0.93306045712E+02  0.82899377871E+02 -0.49889345708E+02  0.13441455216E+03  0.00000000000E+00 0. -1.
          1    1    1    2  502    0  0.35952379531E+02 -0.91117994742E+01  0.56946181956E+03  0.57066834713E+03  0.00000000000E+00 0. -1.
         22    1    3    3    0    0 -0.91269643830E+01 -0.62924495191E+02  0.11918760235E+04  0.11935707976E+04  0.00000000000E+00 0.  1.
         22    1    3    3    0    0  0.66480630564E+02 -0.10863083205E+02  0.36981161571E+03  0.37589667720E+03  0.00000000000E+00 0.  1.
</event>
<event>
 7    1  0.6888820E-006  0.7388914E+02  0.7818608E-02  0.1437948E+00
          2   -1    0    0  502    0  0.00000000000E+00  0.00000000000E+00  0.31850055681E+04  0.31850055681E+04  0.00000000000E+00 0. -1.
          1   -1    0    0  501    0 -0.00000000000E+00 -0.00000000000E+00 -0.38909462690E+03  0.38909462690E+03  0.00000000000E+00 0. -1.
         25    2    1    2    0    0 -0.54328008936E+02  0.89077567355E+01  0.75131261747E+03  0.76362712297E+03  0.12499941228E+03 0.  0.
          2    1    1    2  501    0  0.70320343556E+02  0.23067954260E+02 -0.37922860989E+03  0.38638247863E+03  0.00000000000E+00 0. -1.
          1    1    1    2  502    0 -0.15992334620E+02 -0.31975710996E+02  0.24238269337E+04  0.24240905934E+04  0.00000000000E+00 0. -1.
         22    1    3    3    0    0 -0.25848572591E+02 -0.11157179855E+01  0.71877193633E+03  0.71923743645E+03  0.00000000000E+00 0. -1.
         22    1    3    3    0    0 -0.28479436345E+02  0.10023474721E+02  0.32540681141E+02  0.44389686518E+02  0.00000000000E+00 0. -1.
</event>
<event>
 7    1  0.6888820E-006  0.5763772E+02  0.7818608E-02  0.1554151E+00
          2   -1    0    0  502    0  0.00000000000E+00  0.00000000000E+00  0.60409696591E+02  0.60409696591E+02  0.00000000000E+00 0. -1.
          1   -1    0    0  501    0 -0.00000000000E+00 -0.00000000000E+00 -0.50712941133E+03  0.50712941133E+03  0.00000000000E+00 0. -1.
         25    2    1    2    0    0  0.19240895381E+02  0.38370318957E+02 -0.32153987969E+03  0.34763945279E+03  0.12499120558E+03 0.  0.
          2    1    1    2  501    0 -0.77089587968E+01  0.19006583201E+02 -0.15351336960E+03  0.15487747704E+03  0.00000000000E+00 0. -1.
          1    1    1    2  502    0 -0.11531936584E+02 -0.57376902158E+02  0.28333534550E+02  0.65022178084E+02  0.00000000000E+00 0. -1.
         22    1    3    3    0    0  0.70242060441E+02  0.34552463324E+02 -0.22751109285E+03  0.24060157345E+03  0.00000000000E+00 0.  1.
         22    1    3    3    0    0 -0.51001165060E+02  0.38178556339E+01 -0.94028786840E+02  0.10703787934E+03  0.00000000000E+00 0.  1.
</event>
<event>
 7    1  0.6888820E-006  0.5273447E+02  0.7818608E-02  0.1474050E+00
          2   -1    0    0  502    0  0.00000000000E+00  0.00000000000E+00  0.10100369418E+04  0.10100369418E+04  0.00000000000E+00 0. -1.
          1   -1    0    0  501    0 -0.00000000000E+00 -0.00000000000E+00 -0.71739136742E+03  0.71739136742E+03  0.00000000000E+00 0. -1.
         25    2    1    2    0    0  0.21200952327E+01 -0.43349198699E+02  0.52472051873E+03  0.54114700498E+03  0.12499924156E+03 0.  0.
          2    1    1    2  501    0  0.36057670151E+02  0.38537643117E+02 -0.70741769026E+03  0.70938360145E+03  0.00000000000E+00 0. -1.
          1    1    1    2  502    0 -0.38177765383E+02  0.48115555826E+01  0.47534274589E+03  0.47689770277E+03  0.00000000000E+00 0. -1.
         22    1    3    3    0    0  0.21022017299E+02 -0.61311186016E+02  0.12709922986E+03  0.14267165441E+03  0.00000000000E+00 0. -1.
         22    1    3    3    0    0 -0.18901922066E+02  0.17961987317E+02  0.39762128887E+03  0.39847535057E+03  0.00000000000E+00 0. -1.
</event>
<event>
 7    1  0.6888820E-006  0.1136216E+03  0.7818608E-02  0.1408137E+00
          2   -1    0    0  502    0  0.00000000000E+00  0.00000000000E+00  0.21080551600E+04  0.21080551600E+04  0.00000000000E+00 0. -1.
          1   -1    0    0  501    0 -0.00000000000E+00 -0.00000000000E+00 -0.26301334639E+03  0.26301334639E+03  0.00000000000E+00 0. -1.
         25    2    1    2    0    0  0.26804680900E+02 -0.80574073917E+02 -0.56073550379E+02  0.16118743448E+03  0.12500589457E+03 0.  0.
          2    1    1    2  501    0  0.11664691882E+02 -0.26781796996E+02 -0.15140386980E+03  0.15419617855E+03  0.00000000000E+00 0. -1.
          1    1    1    2  502    0 -0.38469372783E+02  0.10735587091E+03  0.20525192338E+04  0.20556848934E+04  0.00000000000E+00 0. -1.
         22    1    3    3    0    0 -0.30356693022E+02 -0.88359403429E+02 -0.35057335909E+02  0.99789427228E+02  0.00000000000E+00 0. -1.
         22    1    3    3    0    0  0.57161373922E+02  0.77853295114E+01 -0.21016214469E+02  0.61398007255E+02  0.00000000000E+00 0. -1.
</event>
<event>
 7    1  0.6888820E-006  0.1256931E+03  0.7818608E-02  0.1413405E+00
          2   -1    0    0  502    0  0.00000000000E+00  0.00000000000E+00  0.35814235290E+04  0.35814235290E+04  0.00000000000E+00 0. -1.
          1   -1    0    0  501    0 -0.00000000000E+00 -0.00000000000E+00 -0.16244864606E+02  0.16244864606E+02  0.00000000000E+00 0. -1.
         25    2    1    2    0    0 -0.12407579180E+03 -0.14363135020E+02  0.28040916533E+04  0.28096539457E+04  0.12499677088E+03 0.  0.
          2    1    1    2  501    0  0.12555044339E+03 -0.10938049885E+02  0.28943598345E+03  0.31568297909E+03  0.00000000000E+00 0. -1.
          1    1    1    2  502    0 -0.14746515907E+01  0.25301184905E+02  0.47165102761E+03  0.47233146878E+03  0.00000000000E+00 0. -1.
         22    1    3    3    0    0 -0.10884960164E+03 -0.57359195029E+02  0.16114015927E+04  0.16160920166E+04  0.00000000000E+00 0. -1.
         22    1    3    3    0    0 -0.15226190161E+02  0.42996060009E+02  0.11926900606E+04  0.11935619291E+04  0.00000000000E+00 0. -1.
</event>
<event>
 7    1  0.6888820E-006  0.3052847E+03  0.7818608E-02  0.1298870E+00
          2   -1    0    0  502    0  0.00000000000E+00  0.00000000000E+00  0.12108383012E+04  0.12108383012E+04  0.00000000000E+00 0. -1.
          1   -1    0    0  501    0 -0.00000000000E+00 -0.00000000000E+00 -0.14660630953E+03  0.14660630953E+03  0.00000000000E+00 0. -1.
         25    2    1    2    0    0  0.54440096261E+02  0.29443934047E+03  0.76097540557E+03  0.82726450233E+03  0.12499895853E+03 0.  0.
          2    1    1    2  501    0  0.24783930403E+02  0.11969779078E+02 -0.49266895185E+02  0.56433551887E+02  0.00000000000E+00 0. -1.
          1    1    1    2  502    0 -0.79224026664E+02 -0.30640911955E+03  0.35252348123E+03  0.47374655647E+03  0.00000000000E+00 0. -1.
         22    1    3    3    0    0  0.17690598792E+02  0.28140570603E+03  0.70258111477E+03  0.75704844727E+03  0.00000000000E+00 0. -1.
         22    1    3    3    0    0  0.36749497469E+02  0.13033634441E+02  0.58394290797E+02  0.70216055063E+02  0.00000000000E+00 0. -1.
</event>
<event>
 7    1  0.6888820E-006  0.4860122E+02  0.7818608E-02  0.1496502E+00
          2   -1    0    0  502    0  0.00000000000E+00  0.00000000000E+00  0.12245381161E+04  0.12245381161E+04  0.00000000000E+00 0. -1.
          1   -1    0    0  501    0 -0.00000000000E+00 -0.00000000000E+00 -0.30037921996E+03  0.30037921996E+03  0.00000000000E+00 0. -1.
         25    2    1    2    0    0  0.48620192993E+02 -0.42106505751E+02  0.12208377306E+03  0.18618798572E+03  0.12499854954E+03 0.  0.
          2    1    1    2  501    0 -0.48095581887E+02  0.64404225933E+01 -0.26583306302E+03  0.27022561210E+03  0.00000000000E+00 0. -1.
          1    1    1    2  502    0 -0.52461110644E+00  0.35666083157E+02  0.10679081861E+04  0.10685037383E+04  0.00000000000E+00 0. -1.
         22    1    3    3    0    0  0.15670791725E+02 -0.84833819846E+02  0.68646187263E+02  0.11024812801E+03  0.00000000000E+00 0.  1.
         22    1    3    3    0    0  0.32949401268E+02  0.42727314095E+02  0.53437585797E+02  0.75939857713E+02  0.00000000000E+00 0.  1.
</event>
<event>
 7    1  0.6888820E-006  0.6071486E+02  0.7818608E-02  0.1496476E+00
          2   -1    0    0  502    0  0.00000000000E+00  0.00000000000E+00  0.13298755440E+03  0.13298755440E+03  0.00000000000E+00 0. -1.
          1   -1    0    0  501    0 -0.00000000000E+00 -0.00000000000E+00 -0.19527801250E+04  0.19527801250E+04  0.00000000000E+00 0. -1.
         25    2    1    2    0    0  0.29510468201E+02 -0.18586226340E+02 -0.16459470269E+03  0.20959381038E+03  0.12498733398E+03 0.  0.
          2    1    1    2  501    0  0.28333102132E+02 -0.35805683724E+01 -0.17568781975E+04  0.17571102942E+04  0.00000000000E+00 0. -1.
          1    1    1    2  502    0 -0.57843570333E+02  0.22166794712E+02  0.10168032960E+03  0.11906357480E+03  0.00000000000E+00 0. -1.
         22    1    3    3    0    0  0.62619460652E+02 -0.34287763933E+02 -0.15657494990E+03  0.17208301062E+03  0.00000000000E+00 0.  1.
         22    1    3    3    0    0 -0.33108992451E+02  0.15701537593E+02 -0.80197527847E+01  0.37510799760E+02  0.00000000000E+00 0.  1.
</event>
<event>
 7    1  0.6888820E-006  0.8752069E+02  0.7818608E-02  0.1354497E+00
          2   -1    0    0  502    0  0.00000000000E+00  0.00000000000E+00  0.25402583703E+04  0.25402583703E+04  0.00000000000E+00 0. -1.
          1   -1    0    0  501    0 -0.00000000000E+00 -0.00000000000E+00 -0.13745176403E+03  0.13745176403E+03  0.00000000000E+00 0. -1.
         25    2    1    2    0    0 -0.61751894336E+02 -0.57769570495E+02  0.16491629472E+03  0.22353611083E+03  0.12498155404E+03 0.  0.
          2    1    1    2  501    0  0.89297574770E+02  0.59410959314E+01 -0.89192396936E+02  0.12635124515E+03  0.00000000000E+00 0. -1.
          1    1    1    2  502    0 -0.27545680433E+02  0.51828474564E+02  0.23270827085E+04  0.23278227783E+04  0.00000000000E+00 0. -1.
         22    1    3    3    0    0  0.15688594667E+02 -0.70621530465E+02  0.82185999058E+02  0.10949004982E+03  0.00000000000E+00 0. -1.
         22    1    3    3    0    0 -0.77440489004E+02  0.12851959969E+02  0.82730295661E+02  0.11404606101E+03  0.00000000000E+00 0. -1.
</event>
<event>
 7    1  0.6888820E-006  0.5478320E+02  0.7818608E-02  0.1421553E+00
          2   -1    0    0  502    0  0.00000000000E+00  0.00000000000E+00  0.10324019418E+03  0.10324019418E+03  0.00000000000E+00 0. -1.
          1   -1    0    0  501    0 -0.00000000000E+00 -0.00000000000E+00 -0.40333875950E+03  0.40333875950E+03  0.00000000000E+00 0. -1.
         25    2    1    2    0    0 -0.10227875857E+02  0.23109545494E+02 -0.19507188207E+02  0.12901524418E+03  0.12500296917E+03 0.  0.
          2    1    1    2  501    0 -0.42613732286E+02 -0.37565097476E+02 -0.31015371287E+03  0.31531316550E+03  0.00000000000E+00 0. -1.
          1    1    1    2  502    0  0.52841608143E+02  0.14455551982E+02  0.29562335755E+02  0.62250544010E+02  0.00000000000E+00 0. -1.
         22    1    3    3    0    0  0.37833148802E+02 -0.86857413010E+01 -0.50411730455E+02  0.63624930787E+02  0.00000000000E+00 0.  1.
         22    1    3    3    0    0 -0.48061024659E+02  0.31795286795E+02  0.30904542247E+02  0.65390313389E+02  0.00000000000E+00 0.  1.
</event>
<event>
 7    1  0.6888820E-006  0.1558569E+03  0.7818608E-02  0.1406615E+00
          2   -1    0    0  502    0  0.00000000000E+00  0.00000000000E+00  0.22631521705E+03  0.22631521705E+03  0.00000000000E+00 0. -1.
          1   -1    0    0  501    0 -0.00000000000E+00 -0.00000000000E+00 -0.27517235659E+04  0.27517235659E+04  0.00000000000E+00 0. -1.
         25    2    1    2    0    0 -0.13105953611E+03  0.81573131335E+02  0.67981690278E+01  0.19875487264E+03  0.12500602600E+03 0.  0.
          2    1    1    2  501    0  0.11971693427E+03 -0.99898028904E+02 -0.26524981400E+04  0.26570769923E+04  0.00000000000E+00 0. -1.
          1    1    1    2  502    0  0.11342601842E+02  0.18324897569E+02  0.12029162204E+03  0.12220691805E+03  0.00000000000E+00 0. -1.
         22    1    3    3    0    0 -0.83838783931E+01 -0.25188120427E+02 -0.20900111211E+02  0.33786764808E+02  0.00000000000E+00 0.  1.
         22    1    3    3    0    0 -0.12267565771E+03  0.10676125176E+03  0.27698280239E+02  0.16496810783E+03  0.00000000000E+00 0.  1.
</event>
<event>
 7    1  0.6888820E-006  0.1198740E+03  0.7818608E-02  0.1347379E+00
          2   -1    0    0  502    0  0.00000000000E+00  0.00000000000E+00  0.58115810673E+03  0.58115810673E+03  0.00000000000E+00 0. -1.
          1   -1    0    0  501    0 -0.00000000000E+00 -0.00000000000E+00 -0.36300465351E+03  0.36300465351E+03  0.00000000000E+00 0. -1.
         25    2    1    2    0    0  0.15739864145E+03 -0.18837092166E+02  0.24796136066E+03  0.31974607486E+03  0.12499419040E+03 0.  0.
          2    1    1    2  501    0 -0.11838601094E+03 -0.46397536835E+01 -0.31451592450E+03  0.33609082353E+03  0.00000000000E+00 0. -1.
          1    1    1    2  502    0 -0.39012630513E+02  0.23476845849E+02  0.28470801707E+03  0.28832586185E+03  0.00000000000E+00 0. -1.
         22    1    3    3    0    0  0.12256121002E+03 -0.67059025683E+01  0.77105791557E+02  0.14495351814E+03  0.00000000000E+00 0. -1.
         22    1    3    3    0    0  0.34837431437E+02 -0.12131189597E+02  0.17085556910E+03  0.17479255672E+03  0.00000000000E+00 0. -1.
</event>
<event>
 7    1  0.6888820E-006  0.9850523E+02  0.7818608E-02  0.1365577E+00
          2   -1    0    0  502    0  0.00000000000E+00  0.00000000000E+00  0.21932638971E+04  0.21932638971E+04  0.00000000000E+00 0. -1.
          1   -1    0    0  501    0 -0.00000000000E+00 -0.00000000000E+00 -0.35960596208E+03  0.35960596208E+03  0.00000000000E+00 0. -1.
         25    2    1    2    0    0 -0.10742352009E+02 -0.10628893868E+03  0.69118837775E+03  0.71048417226E+03  0.12503459074E+03 0.  0.
          2    1    1    2  501    0  0.52401236142E+02  0.83442196554E+02 -0.34263514520E+03  0.35652115287E+03  0.00000000000E+00 0. -1.
          1    1    1    2  502    0 -0.41658884133E+02  0.22846742123E+02  0.14851047025E+04  0.14858645341E+04  0.00000000000E+00 0. -1.
         22    1    3    3    0    0 -0.33024187311E+02 -0.72727679385E+02  0.64179415014E+03  0.64674542399E+03  0.00000000000E+00 0. -1.
         22    1    3    3    0    0  0.22281835302E+02 -0.33561259293E+02  0.49394227608E+02  0.63738748267E+02  0.00000000000E+00 0. -1.
</event>
<event>
 7    1  0.8401052E-006  0.9812642E+02  0.7818608E-02  0.1352542E+00
          2   -1    0    0  502    0  0.00000000000E+00  0.00000000000E+00  0.10615108557E+04  0.10615108557E+04  0.00000000000E+00 0. -1.
          1   -1    0    0  501    0 -0.00000000000E+00 -0.00000000000E+00 -0.11705106155E+04  0.11705106155E+04  0.00000000000E+00 0. -1.
         25    2    1    2    0    0 -0.94018076181E+02 -0.40089936781E+02 -0.24358493177E+03  0.29224273150E+03  0.12500237377E+03 0.  0.
          2    1    1    2  501    0  0.58665941230E+02  0.79879345435E+02 -0.89918947320E+03  0.90463479438E+03  0.00000000000E+00 0. -1.
          1    1    1    2  502    0  0.35352134951E+02 -0.39789408654E+02  0.10337746452E+04  0.10351439453E+04  0.00000000000E+00 0. -1.
         22    1    3    3    0    0 -0.10845497046E+03  0.46762578951E+01 -0.20262244218E+03  0.22986996776E+03  0.00000000000E+00 0. -1.
         22    1    3    3    0    0  0.14436894282E+02 -0.44766194677E+02 -0.40962489591E+02  0.62372763734E+02  0.00000000000E+00 0. -1.
</event>
<event>
 7    1  0.6888820E-006  0.1181073E+03  0.7818608E-02  0.1399099E+00
          2   -1    0    0  502    0  0.00000000000E+00  0.00000000000E+00  0.20680608363E+03  0.20680608363E+03  0.00000000000E+00 0. -1.
          1   -1    0    0  501    0 -0.00000000000E+00 -0.00000000000E+00 -0.32815674208E+03  0.32815674208E+03  0.00000000000E+00 0. -1.
         25    2    1    2    0    0 -0.62106412181E+01 -0.90370128925E+02 -0.19646830007E+03  0.24986910606E+03  0.12501777859E+03 0.  0.
          2    1    1    2  501    0 -0.51503664706E+01 -0.29733037783E+02 -0.81784704678E+02  0.87174065696E+02  0.00000000000E+00 0. -1.
          1    1    1    2  502    0  0.11361007689E+02  0.12010316671E+03  0.15690234630E+03  0.19791965396E+03  0.00000000000E+00 0. -1.
         22    1    3    3    0    0  0.19639330582E+01  0.23453375118E+02 -0.92654320345E+02  0.95596762059E+02  0.00000000000E+00 0. -1.
         22    1    3    3    0    0 -0.81745742763E+01 -0.11382350404E+03 -0.10381397973E+03  0.15427234400E+03  0.00000000000E+00 0. -1.
</event>
<event>
 7    1  0.6888820E-006  0.5038053E+02  0.7818608E-02  0.1518302E+00
          2   -1    0    0  502    0  0.00000000000E+00  0.00000000000E+00  0.12962144574E+04  0.12962144574E+04  0.00000000000E+00 0. -1.
          1   -1    0    0  501    0 -0.00000000000E+00 -0.00000000000E+00 -0.59055188020E+03  0.59055188020E+03  0.00000000000E+00 0. -1.
         25    2    1    2    0    0  0.60584441968E+01  0.72123248731E+02  0.71018806350E+03  0.72472779181E+03  0.12499927570E+03 0.  0.
          2    1    1    2  501    0 -0.15443078864E+02 -0.25331720720E+02 -0.58191968208E+03  0.58267546812E+03  0.00000000000E+00 0. -1.
          1    1    1    2  502    0  0.93846346673E+01 -0.46791528011E+02  0.57739419575E+03  0.57936307766E+03  0.00000000000E+00 0. -1.
         22    1    3    3    0    0 -0.48218495983E+02 -0.43113314394E+01  0.30636016464E+03  0.31016150859E+03  0.00000000000E+00 0. -1.
         22    1    3    3    0    0  0.54276940180E+02  0.76434580170E+02  0.40382789886E+03  0.41456628322E+03  0.00000000000E+00 0. -1.
</event>
<event>
 7    1  0.6888820E-006  0.8276153E+02  0.7818608E-02  0.1389524E+00
          2   -1    0    0  502    0  0.00000000000E+00  0.00000000000E+00  0.60100379101E+02  0.60100379101E+02  0.00000000000E+00 0. -1.
          1   -1    0    0  501    0 -0.00000000000E+00 -0.00000000000E+00 -0.95083899099E+03  0.95083899099E+03  0.00000000000E+00 0. -1.
         25    2    1    2    0    0  0.34683013338E+02 -0.32221442498E+02 -0.18809013685E+03  0.23074713405E+03  0.12500083008E+03 0.  0.
          2    1    1    2  501    0 -0.38564781369E+02  0.78543555477E+02 -0.72383692554E+03  0.72910645810E+03  0.00000000000E+00 0. -1.
          1    1    1    2  502    0  0.38817680305E+01 -0.46322112979E+02  0.21188450497E+02  0.51085777946E+02  0.00000000000E+00 0. -1.
         22    1    3    3    0    0 -0.40110801296E+02 -0.22130020137E+02 -0.12239827177E+03  0.13069028695E+03  0.00000000000E+00 0. -1.
         22    1    3    3    0    0  0.74793814634E+02 -0.10091422361E+02 -0.65691865080E+02  0.10005684709E+03  0.00000000000E+00 0. -1.
</event>
<event>
 7    1  0.6888820E-006  0.9069667E+02  0.7818608E-02  0.1404846E+00
          2   -1    0    0  502    0  0.00000000000E+00  0.00000000000E+00  0.17889404606E+04  0.17889404606E+04  0.00000000000E+00 0. -1.
          1   -1    0    0  501    0 -0.00000000000E+00 -0.00000000000E+00 -0.29430411066E+02  0.29430411066E+02  0.00000000000E+00 0. -1.
         25    2    1    2    0    0  0.67867110375E+02 -0.18744967295E+02  0.57140597364E+03  0.58913783047E+03  0.12498511156E+03 0.  0.
          2    1    1    2  501    0 -0.95053911130E+02 -0.71601748251E+01  0.91975335539E+02  0.13246122630E+03  0.00000000000E+00 0. -1.
          1    1    1    2  502    0  0.27186800755E+02  0.25905142120E+02  0.10961287404E+04  0.10967718149E+04  0.00000000000E+00 0. -1.
         22    1    3    3    0    0  0.63486510872E+02  0.45703582217E+02  0.28530077805E+03  0.29583084431E+03  0.00000000000E+00 0. -1.
         22    1    3    3    0    0  0.43805995034E+01 -0.64448549512E+02  0.28610519559E+03  0.29330698616E+03  0.00000000000E+00 0. -1.
</event>
<event>
 7    1  0.6888820E-006  0.1199587E+03  0.7818608E-02  0.1306329E+00
          2   -1    0    0  502    0  0.00000000000E+00  0.00000000000E+00  0.15275619705E+03  0.15275619705E+03  0.00000000000E+00 0. -1.
          1   -1    0    0  501    0 -0.00000000000E+00 -0.00000000000E+00 -0.10944286081E+04  0.10944286081E+04  0.00000000000E+00 0. -1.
         25    2    1    2    0    0 -0.19090856361E+02  0.18157466010E+03 -0.61068398579E+02  0.22954040515E+03  0.12500252119E+03 0.  0.
          2    1    1    2  501    0  0.14385709765E+02 -0.11633579331E+03 -0.92894458666E+03  0.93631138546E+03  0.00000000000E+00 0. -1.
          1    1    1    2  502    0  0.47051465954E+01 -0.65238866797E+02  0.48340574179E+02  0.81333014560E+02  0.00000000000E+00 0. -1.
         22    1    3    3    0    0  0.94825083918E+01  0.19091852333E+03 -0.54458226005E+02  0.19875990264E+03  0.00000000000E+00 0. -1.
         22    1    3    3    0    0 -0.28573364753E+02 -0.93438632314E+01 -0.66101725734E+01  0.30780502511E+02  0.00000000000E+00 0. -1.
</event>
<event>
 7    1  0.6888820E-006  0.7149246E+02  0.7818608E-02  0.1493687E+00
          2   -1    0    0  502    0  0.00000000000E+00  0.00000000000E+00  0.15648572057E+04  0.15648572057E+04  0.00000000000E+00 0. -1.
          1   -1    0    0  501    0 -0.00000000000E+00 -0.00000000000E+00 -0.14612374883E+02  0.14612374883E+02  0.00000000000E+00 0. -1.
         25    2    1    2    0    0  0.51820864328E+02  0.94361905712E+01  0.10175122989E+04  0.10265139333E+04  0.12500053277E+03 0.  0.
          2    1    1    2  501    0 -0.74216388471E+02  0.10420369157E+01  0.13180989201E+03  0.15127129864E+03  0.00000000000E+00 0. -1.
          1    1    1    2  502    0  0.22395524143E+02 -0.10478227487E+02  0.40092263990E+03  0.40168434864E+03  0.00000000000E+00 0. -1.
         22    1    3    3    0    0  0.13529554494E+02  0.65360312184E+02  0.43904296176E+03  0.44408753813E+03  0.00000000000E+00 0.  1.
         22    1    3    3    0    0  0.38291309833E+02 -0.55924121613E+02  0.57846933711E+03  0.58242639515E+03  0.00000000000E+00 0.  1.
</event>
<event>
 7    1  0.6888820E-006  0.1056804E+03  0.7818608E-02  0.1417165E+00
          2   -1    0    0  502    0  0.00000000000E+00  0.00000000000E+00  0.23131775430E+04  0.23131775430E+04  0.00000000000E+00 0. -1.
          1   -1    0    0  501    0 -0.00000000000E+00 -0.00000000000E+00 -0.19286438063E+02  0.19286438063E+02  0.00000000000E+00 0. -1.
         25    2    1    2    0    0 -0.67095878285E+02  0.10852129491E+03  0.11065137200E+04  0.11208374432E+04  0.12500093244E+03 0.  0.
          2    1    1    2  501    0  0.42882468356E+02 -0.92061003996E+02  0.20465777026E+03  0.22847086789E+03  0.00000000000E+00 0. -1.
          1    1    1    2  502    0  0.24213409930E+02 -0.16460290914E+02  0.98271961466E+03  0.98315566999E+03  0.00000000000E+00 0. -1.
         22    1    3    3    0    0 -0.14715075182E+02  0.91771364188E+02  0.95748949883E+03  0.96198994646E+03  0.00000000000E+00 0. -1.
         22    1    3    3    0    0 -0.52380803103E+02  0.16749930722E+02  0.14902422120E+03  0.15884749673E+03  0.00000000000E+00 0. -1.
</event>
<event>
 7    1  0.6888820E-006  0.1083469E+03  0.7818608E-02  0.1447489E+00
          2   -1    0    0  502    0  0.00000000000E+00  0.00000000000E+00  0.92099856141E+03  0.92099856141E+03  0.00000000000E+00 0. -1.
          1   -1    0    0  501    0 -0.00000000000E+00 -0.00000000000E+00 -0.12076279083E+04  0.12076279083E+04  0.00000000000E+00 0. -1.
         25    2    1    2    0    0 -0.54847294550E+02 -0.73523448471E+02 -0.13535128887E+03  0.20581215313E+03  0.12499899113E+03 0.  0.
          2    1    1    2  501    0 -0.22536322994E+02 -0.28029189446E+01 -0.10335866103E+04  0.10338360717E+04  0.00000000000E+00 0. -1.
          1    1    1    2  502    0  0.77383617544E+02  0.76326367416E+02  0.88230855222E+03  0.88897824492E+03  0.00000000000E+00 0. -1.
         22    1    3    3    0    0  0.30295844210E+02 -0.60868444152E+02 -0.48389957659E+02  0.83452942861E+02  0.00000000000E+00 0. -1.
         22    1    3    3    0    0 -0.85143138760E+02 -0.12655004319E+02 -0.86961331208E+02  0.12235921027E+03  0.00000000000E+00 0. -1.
</event>
<event>
 7    1  0.6888820E-006  0.1431313E+03  0.7818608E-02  0.1280890E+00
          2   -1    0    0  502    0  0.00000000000E+00  0.00000000000E+00  0.32377269592E+03  0.32377269592E+03  0.00000000000E+00 0. -1.
          1   -1    0    0  501    0 -0.00000000000E+00 -0.00000000000E+00 -0.14097775067E+03  0.14097775067E+03  0.00000000000E+00 0. -1.
         25    2    1    2    0    0 -0.66840311694E+00 -0.75459141052E+01  0.80144449584E+02  0.14867725648E+03  0.12499762483E+03 0.  0.
          2    1    1    2  501    0 -0.83300841674E+02 -0.11639395373E+03  0.18457793447E+02  0.14431657156E+03  0.00000000000E+00 0. -1.
          1    1    1    2  502    0  0.83969244791E+02  0.12393986784E+03  0.84192702213E+02  0.17175661855E+03  0.00000000000E+00 0. -1.
         22    1    3    3    0    0  0.27866991073E+02  0.21176375607E+02  0.98270611130E+02  0.10431740549E+03  0.00000000000E+00 0.  1.
         22    1    3    3    0    0 -0.28535394190E+02 -0.28722289713E+02 -0.18126161546E+02  0.44359850995E+02  0.00000000000E+00 0.  1.
</event>
<event>
 7    1  0.6888820E-006  0.1184458E+03  0.7818608E-02  0.1329177E+00
          2   -1    0    0  502    0  0.00000000000E+00  0.00000000000E+00  0.37528121812E+03  0.37528121812E+03  0.00000000000E+00 0. -1.
          1   -1    0    0  501    0 -0.00000000000E+00 -0.00000000000E+00 -0.16013406534E+04  0.16013406534E+04  0.00000000000E+00 0. -1.
         25    2    1    2    0    0  0.88421661136E+02 -0.81394026447E+02 -0.19385359553E+02  0.17448533756E+03  0.12500385258E+03 0.  0.
          2    1    1    2  501    0 -0.43075338666E+02  0.11066612032E+03 -0.14995923695E+04  0.15042871234E+04  0.00000000000E+00 0. -1.
          1    1    1    2  502    0 -0.45346322470E+02 -0.29272093875E+02  0.29291829385E+03  0.29784941047E+03  0.00000000000E+00 0. -1.
         22    1    3    3    0    0  0.21287506405E+02  0.22640820372E+02  0.28079884396E+02  0.41883703081E+02  0.00000000000E+00 0.  1.
         22    1    3    3    0    0  0.67134154731E+02 -0.10403484682E+03 -0.47465243949E+02  0.13260163448E+03  0.00000000000E+00 0.  1.
</event>
<event>
 7    1  0.6888820E-006  0.8910537E+02  0.7818608E-02  0.1375020E+00
          2   -1    0    0  502    0  0.00000000000E+00  0.00000000000E+00  0.18675675087E+04  0.18675675087E+04  0.00000000000E+00 0. -1.
          1   -1    0    0  501    0 -0.00000000000E+00 -0.00000000000E+00 -0.24043356549E+03  0.24043356549E+03  0.00000000000E+00 0. -1.
         25    2    1    2    0    0  0.85848542255E+01 -0.94563937845E+02  0.40656407486E+03  0.43581552810E+03  0.12499915801E+03 0.  0.
          2    1    1    2  501    0  0.37990136650E+02  0.80761514015E+02 -0.21656232192E+03  0.23423260214E+03  0.00000000000E+00 0. -1.
          1    1    1    2  502    0 -0.46574990876E+02  0.13802423830E+02  0.14371321903E+04  0.14379529440E+04  0.00000000000E+00 0. -1.
         22    1    3    3    0    0  0.21132860957E+02  0.19635351937E+02  0.27995510521E+02  0.40198177412E+02  0.00000000000E+00 0.  1.
         22    1    3    3    0    0 -0.12548006731E+02 -0.11419928978E+03  0.37856856434E+03  0.39561735069E+03  0.00000000000E+00 0.  1.
</event>
<event>
 7    1  0.6888820E-006  0.5826508E+02  0.7818608E-02  0.1525080E+00
          2   -1    0    0  502    0  0.00000000000E+00  0.00000000000E+00  0.95250750460E+03  0.95250750460E+03  0.00000000000E+00 0. -1.
          1   -1    0    0  501    0 -0.00000000000E+00 -0.00000000000E+00 -0.50887647042E+02  0.50887647042E+02  0.00000000000E+00 0. -1.
         25    2    1    2    0    0  0.20923404861E+02  0.73460065358E+02  0.55627813017E+03  0.57523343713E+03  0.12495590827E+03 0.  0.
          2    1    1    2  501    0  0.31463146141E+01 -0.24316255957E+02 -0.35645822607E+02  0.43264353326E+02  0.00000000000E+00 0. -1.
          1    1    1    2  502    0 -0.24069719475E+02 -0.49143809400E+02  0.38098754999E+03  0.38489736118E+03  0.00000000000E+00 0. -1.
         22    1    3    3    0    0 -0.46155323909E+02 -0.10752396166E+01  0.17835884778E+03  0.18423720755E+03  0.00000000000E+00 0.  1.
         22    1    3    3    0    0  0.67078728769E+02  0.74535304974E+02  0.37791928240E+03  0.39099622958E+03  0.00000000000E+00 0.  1.
</event>
<event>
 7    1  0.6888820E-006  0.3636931E+03  0.7818608E-02  0.1172351E+00
          2   -1    0    0  502    0  0.00000000000E+00  0.00000000000E+00  0.50001168048E+04  0.50001168048E+04  0.00000000000E+00 0. -1.
          1   -1    0    0  501    0 -0.00000000000E+00 -0.00000000000E+00 -0.17105867958E+04  0.17105867958E+04  0.00000000000E+00 0. -1.
         25    2    1    2    0    0 -0.35430272696E+03 -0.17387912368E+03  0.91519557254E+02  0.42398697523E+03  0.12499901529E+03 0.  0.
          2    1    1    2  501    0  0.68539324749E+02 -0.49544322059E+02 -0.15362519997E+04  0.15385780726E+04  0.00000000000E+00 0. -1.
          1    1    1    2  502    0  0.28576340221E+03  0.22342344574E+03  0.47342624514E+04  0.47481385528E+04  0.00000000000E+00 0. -1.
         22    1    3    3    0    0 -0.12551688535E+03 -0.18095927194E+02  0.73588253322E+02  0.14661917376E+03  0.00000000000E+00 0.  1.
         22    1    3    3    0    0 -0.22878584161E+03 -0.15578319649E+03  0.17931303933E+02  0.27736780147E+03  0.00000000000E+00 0.  1.
</event>
<event>
 7    1  0.8043763E-006  0.1265436E+03  0.7818608E-02  0.1304775E+00
          2   -1    0    0  502    0  0.00000000000E+00  0.00000000000E+00  0.13927939776E+04  0.13927939776E+04  0.00000000000E+00 0. -1.
          1   -1    0    0  501    0 -0.00000000000E+00 -0.00000000000E+00 -0.11048493851E+04  0.11048493851E+04  0.00000000000E+00 0. -1.
         25    2    1    2    0    0 -0.61716834925E+02  0.93911906595E+02 -0.25653094068E+03  0.30669142255E+03  0.12499236468E+03 0.  0.
          2    1    1    2  501    0 -0.51318280843E+02 -0.36356456912E+02 -0.81908918014E+03  0.82150011742E+03  0.00000000000E+00 0. -1.
          1    1    1    2  502    0  0.11303511577E+03 -0.57555449683E+02  0.13635647134E+04  0.13694518227E+04  0.00000000000E+00 0. -1.
         22    1    3    3    0    0 -0.56084926823E+02  0.19214387634E+02 -0.26809788556E+02  0.65065170955E+02  0.00000000000E+00 0. -1.
         22    1    3    3    0    0 -0.56319081013E+01  0.74697518961E+02 -0.22972115213E+03  0.24162625160E+03  0.00000000000E+00 0. -1.
</event>
<event>
 7    1  0.6888820E-006  0.5951953E+02  0.7818608E-02  0.1426589E+00
          2   -1    0    0  502    0  0.00000000000E+00  0.00000000000E+00  0.50216377421E+03  0.50216377421E+03  0.00000000000E+00 0. -1.
          1   -1    0    0  501    0 -0.00000000000E+00 -0.00000000000E+00 -0.14712565890E+04  0.14712565890E+04  0.00000000000E+00 0. -1.
         25    2    1    2    0    0 -0.24901512127E+02 -0.19137839767E+02  0.13974389490E+03  0.19010368759E+03  0.12499885461E+03 0.  0.
          2    1    1    2  501    0 -0.15035793017E+01  0.59653786190E+02 -0.14437234166E+04  0.14449561027E+04  0.00000000000E+00 0. -1.
          1    1    1    2  502    0  0.26405091429E+02 -0.40515946423E+02  0.33488670698E+03  0.33836057288E+03  0.00000000000E+00 0. -1.
         22    1    3    3    0    0 -0.11819468391E+02  0.53556597437E+02  0.64493262855E+02  0.84660438906E+02  0.00000000000E+00 0. -1.
         22    1    3    3    0    0 -0.13082043736E+02 -0.72694437205E+02  0.75250632049E+02  0.10544324868E+03  0.00000000000E+00 0. -1.
</event>
<event>
 7    1  0.6888820E-006  0.7422579E+02  0.7818608E-02  0.1382122E+00
          2   -1    0    0  502    0  0.00000000000E+00  0.00000000000E+00  0.95302259358E+02  0.95302259358E+02  0.00000000000E+00 0. -1.
          1   -1    0    0  501    0 -0.00000000000E+00 -0.00000000000E+00 -0.17656846394E+04  0.17656846394E+04  0.00000000000E+00 0. -1.
         25    2    1    2    0    0  0.84261634684E+01  0.20415803691E+02 -0.36092631784E+03  0.38259680636E+03  0.12499881622E+03 0.  0.
          2    1    1    2  501    0  0.32030298605E+02  0.44743802115E+02 -0.13758483534E+04  0.13769483067E+04  0.00000000000E+00 0. -1.
          1    1    1    2  502    0 -0.40456462073E+02 -0.65159605805E+02  0.66392291187E+02  0.10144178568E+03  0.00000000000E+00 0. -1.
         22    1    3    3    0    0 -0.54096156396E+02  0.30828272996E+02 -0.15170755985E+03  0.16398768328E+03  0.00000000000E+00 0.  1.
         22    1    3    3    0    0  0.62522319864E+02 -0.10412469305E+02 -0.20921875799E+03  0.21860912308E+03  0.00000000000E+00 0.  1.
</event>
<event>
 7    1  0.6888820E-006  0.2424888E+03  0.7818608E-02  0.1181530E+00
          2   -1    0    0  502    0  0.00000000000E+00  0.00000000000E+00  0.51396291717E+04  0.51396291717E+04  0.00000000000E+00 0. -1.
          1   -1    0    0  501    0 -0.00000000000E+00 -0.00000000000E+00 -0.38362418622E+02  0.38362418622E+02  0.00000000000E+00 0. -1.
         25    2    1    2    0    0 -0.45735480533E+02  0.14952259970E+03  0.18195819631E+04  0.18305605234E+04  0.12499826878E+03 0.  0.
          2    1    1    2  501    0  0.97778920363E+02 -0.25133901909E+03  0.54227048136E+03  0.60563131916E+03  0.00000000000E+00 0. -1.
          1    1    1    2  502    0 -0.52043439831E+02  0.10181641939E+03  0.27394143086E+04  0.27417997478E+04  0.00000000000E+00 0. -1.
         22    1    3    3    0    0 -0.77141510340E+02  0.13067320629E+03  0.11487025663E+04  0.11586819604E+04  0.00000000000E+00 0. -1.
         22    1    3    3    0    0  0.31406029808E+02  0.18849393414E+02  0.67087939682E+03  0.67187856299E+03  0.00000000000E+00 0. -1.
</event>
<event>
 7    1  0.6888820E-006  0.1042396E+03  0.7818608E-02  0.1296751E+00
          2   -1    0    0  502    0  0.00000000000E+00  0.00000000000E+00  0.94022698395E+03  0.94022698395E+03  0.00000000000E+00 0. -1.
          1   -1    0    0  501    0 -0.00000000000E+00 -0.00000000000E+00 -0.12046618511E+03  0.12046618511E+03  0.00000000000E+00 0. -1.
         25    2    1    2    0    0 -0.83711857310E+02 -0.17389310115E+02  0.49909680180E+03  0.52156509807E+03  0.12498988281E+03 0.  0.
          2    1    1    2  501    0  0.84830472848E+02 -0.64804940380E+02 -0.77914612556E+02  0.13216117535E+03  0.00000000000E+00 0. -1.
          1    1    1    2  502    0 -0.11186155381E+01  0.82194250495E+02  0.39857860960E+03  0.40696689564E+03  0.00000000000E+00 0. -1.
         22    1    3    3    0    0 -0.85931201053E+02  0.35600594562E+02  0.37956281092E+03  0.39079342507E+03  0.00000000000E+00 0.  1.
         22    1    3    3    0    0  0.22193437423E+01 -0.52989904677E+02  0.11953399088E+03  0.13077167300E+03  0.00000000000E+00 0.  1.
</event>
<event>
 7    1  0.6888820E-006  0.1461726E+03  0.7818608E-02  0.1217097E+00
          2   -1    0    0  502    0  0.00000000000E+00  0.00000000000E+00  0.23913171771E+03  0.23913171771E+03  0.00000000000E+00 0. -1.
          1   -1    0    0  501    0 -0.00000000000E+00 -0.00000000000E+00 -0.19455339480E+04  0.19455339480E+04  0.00000000000E+00 0. -1.
         25    2    1    2    0    0  0.31004741155E+01 -0.39117723294E+02 -0.38643713111E+03  0.40804514721E+03  0.12500950623E+03 0.  0.
          2    1    1    2  501    0 -0.10162670893E+03 -0.79204164949E+02 -0.15192944644E+04  0.15247481619E+04  0.00000000000E+00 0. -1.
          1    1    1    2  502    0  0.98526234812E+02  0.11832188824E+03  0.19932936521E+03  0.25187235660E+03  0.00000000000E+00 0. -1.
         22    1    3    3    0    0 -0.23407883293E+01 -0.71357037857E+02 -0.12017526542E+03  0.13978340589E+03  0.00000000000E+00 0.  1.
         22    1    3    3    0    0  0.54412624448E+01  0.32239314563E+02 -0.26626186569E+03  0.26826174133E+03  0.00000000000E+00 0.  1.
</event>
<event>
 7    1  0.6888820E-006  0.5233986E+02  0.7818608E-02  0.1502862E+00
          2   -1    0    0  502    0  0.00000000000E+00  0.00000000000E+00  0.24983665803E+04  0.24983665803E+04  0.00000000000E+00 0. -1.
          1   -1    0    0  501    0 -0.00000000000E+00 -0.00000000000E+00 -0.81213833171E+02  0.81213833171E+02  0.00000000000E+00 0. -1.
         25    2    1    2    0    0  0.13786618064E+02 -0.80526780956E+02  0.19534282679E+03  0.24588490199E+03  0.12500372698E+03 0.  0.
          2    1    1    2  501    0 -0.13852861502E+02  0.28518800125E+02 -0.51129121595E+02  0.60161539271E+02  0.00000000000E+00 0. -1.
          1    1    1    2  502    0  0.66243437975E-01  0.52007980830E+02  0.22729390420E+04  0.22735339722E+04  0.00000000000E+00 0. -1.
         22    1    3    3    0    0  0.10814741792E+02 -0.93065021677E+02  0.62969405398E+02  0.11288579590E+03  0.00000000000E+00 0.  1.
         22    1    3    3    0    0  0.29718762727E+01  0.12538240721E+02  0.13237342139E+03  0.13299910609E+03  0.00000000000E+00 0.  1.
</event>
<event>
 7    1  0.6888820E-006  0.7234363E+02  0.7818608E-02  0.1391769E+00
          2   -1    0    0  502    0  0.00000000000E+00  0.00000000000E+00  0.20930845397E+04  0.20930845397E+04  0.00000000000E+00 0. -1.
          1   -1    0    0  501    0 -0.00000000000E+00 -0.00000000000E+00 -0.51910246403E+02  0.51910246403E+02  0.00000000000E+00 0. -1.
         25    2    1    2    0    0 -0.77344489015E+02 -0.27171155231E+02  0.35376728354E+03  0.38405316267E+03  0.12500039679E+03 0.  0.
          2    1    1    2  501    0  0.68840319564E+02 -0.24360448029E+02  0.29765950608E+00  0.73024034584E+02  0.00000000000E+00 0. -1.
          1    1    1    2  502    0  0.85041694512E+01  0.51531603259E+02  0.16871093503E+04  0.16879175889E+04  0.00000000000E+00 0. -1.
         22    1    3    3    0    0  0.24755298311E+02 -0.31690600814E+02  0.53898212131E+02  0.67246830746E+02  0.00000000000E+00 0.  1.
         22    1    3    3    0    0 -0.10209978733E+03  0.45194455837E+01  0.29986907141E+03  0.31680633192E+03  0.00000000000E+00 0.  1.
</event>
<event>
 7    1  0.6888820E-006  0.7835960E+02  0.7818608E-02  0.1396449E+00
          2   -1    0    0  502    0  0.00000000000E+00  0.00000000000E+00  0.32670834384E+03  0.32670834384E+03  0.00000000000E+00 0. -1.
          1   -1    0    0  501    0 -0.00000000000E+00 -0.00000000000E+00 -0.79921405670E+03  0.79921405670E+03  0.00000000000E+00 0. -1.
         25    2    1    2    0    0  0.26203845936E+02 -0.75317132302E+02 -0.35069651536E+03  0.38075318990E+03  0.12500253506E+03 0.  0.
          2    1    1    2  501    0 -0.64330354569E+02  0.48784490139E+02 -0.42796288727E+03  0.43551182978E+03  0.00000000000E+00 0. -1.
          1    1    1    2  502    0  0.38126508633E+02  0.26532642164E+02  0.30615368977E+03  0.30965738086E+03  0.00000000000E+00 0. -1.
         22    1    3    3    0    0  0.76720589912E+02 -0.45367964644E+02 -0.22513609224E+03  0.24213748401E+03  0.00000000000E+00 0. -1.
         22    1    3    3    0    0 -0.50516743976E+02 -0.29949167658E+02 -0.12556042312E+03  0.13861570589E+03  0.00000000000E+00 0. -1.
</event>
<event>
 7    1  0.6888820E-006  0.9357407E+02  0.7818608E-02  0.1295167E+00
          2   -1    0    0  502    0  0.00000000000E+00  0.00000000000E+00  0.25666614650E+02  0.25666614650E+02  0.00000000000E+00 0. -1.
          1   -1    0    0  501    0 -0.00000000000E+00 -0.00000000000E+00 -0.20950887356E+04  0.20950887356E+04  0.00000000000E+00 0. -1.
         25    2    1    2    0    0  0.61891883211E+02  0.84747121645E+02 -0.41815027438E+03  0.44887299232E+03  0.12499852574E+03 0.  0.
          2    1    1    2  501    0 -0.96018943103E+02  0.23818035584E+01 -0.14074125478E+04  0.14106861416E+04  0.00000000000E+00 0. -1.
          1    1    1    2  502    0  0.34127059892E+02 -0.87128925204E+02 -0.24385929879E+03  0.26119621634E+03  0.00000000000E+00 0. -1.
         22    1    3    3    0    0  0.25715688676E+02 -0.22698881653E+02 -0.20102816432E+03  0.20393346641E+03  0.00000000000E+00 0.  1.
         22    1    3    3    0    0  0.36176194535E+02  0.10744600330E+03 -0.21712211005E+03  0.24493952590E+03  0.00000000000E+00 0.  1.
</event>
<event>
 7    1  0.6888820E-006  0.3773366E+02  0.7818608E-02  0.1544664E+00
          2   -1    0    0  502    0  0.00000000000E+00  0.00000000000E+00  0.91388828013E+01  0.91388828013E+01  0.00000000000E+00 0. -1.
          1   -1    0    0  501    0 -0.00000000000E+00 -0.00000000000E+00 -0.15535054639E+04  0.15535054639E+04  0.00000000000E+00 0. -1.
         25    2    1    2    0    0 -0.59548408599E+02 -0.34252355284E+02 -0.11059304338E+04  0.11150904096E+04  0.12500104111E+03 0.  0.
          2    1    1    2  501    0  0.29354604041E+02  0.15721577906E+02 -0.35942198901E+03  0.36096125412E+03  0.00000000000E+00 0. -1.
          1    1    1    2  502    0  0.30193804558E+02  0.18530777378E+02 -0.79014158343E+02  0.86592683078E+02  0.00000000000E+00 0. -1.
         22    1    3    3    0    0 -0.67192151024E+02 -0.67967048106E+02 -0.56251015443E+03  0.57057162444E+03  0.00000000000E+00 0.  1.
         22    1    3    3    0    0  0.76437424246E+01  0.33714692822E+02 -0.54342027937E+03  0.54451878511E+03  0.00000000000E+00 0.  1.
</event>
<event>
 7    1  0.6888820E-006  0.9466155E+02  0.7818608E-02  0.1461063E+00
          2   -1    0    0  502    0  0.00000000000E+00  0.00000000000E+00  0.46753739869E+03  0.46753739869E+03  0.00000000000E+00 0. -1.
          1   -1    0    0  501    0 -0.00000000000E+00 -0.00000000000E+00 -0.21396305892E+03  0.21396305892E+03  0.00000000000E+00 0. -1.
         25    2    1    2    0    0 -0.75121289958E+02  0.88037755698E+02  0.18336437666E+03  0.25028216256E+03  0.12499924654E+03 0.  0.
          2    1    1    2  501    0  0.65792384384E+02 -0.66431989261E+02 -0.16777719061E+03  0.19207038483E+03  0.00000000000E+00 0. -1.
          1    1    1    2  502    0  0.93289055734E+01 -0.21605766437E+02  0.23798715373E+03  0.23914791022E+03  0.00000000000E+00 0. -1.
         22    1    3    3    0    0 -0.68496335088E+01  0.95687268662E+02  0.74110802427E+02  0.12122451031E+03  0.00000000000E+00 0.  1.
         22    1    3    3    0    0 -0.68271656449E+02 -0.76495129647E+01  0.10925357423E+03  0.12905765225E+03  0.00000000000E+00 0.  1.
</event>
<event>
 7    1  0.6888820E-006  0.1193576E+03  0.7818608E-02  0.1279533E+00
          2   -1    0    0  502    0  0.00000000000E+00  0.00000000000E+00  0.11189610633E+04  0.11189610633E+04  0.00000000000E+00 0. -1.
          1   -1    0    0  501    0 -0.00000000000E+00 -0.00000000000E+00 -0.71017198684E+03  0.71017198684E+03  0.00000000000E+00 0. -1.
         25    2    1    2    0    0  0.13085522716E+03  0.13702639166E+03 -0.83469370175E+02  0.24185034414E+03  0.12500052287E+03 0.  0.
          2    1    1    2  501    0 -0.78397802259E+02 -0.31238597973E+02 -0.54087705233E+03  0.54742127392E+03  0.00000000000E+00 0. -1.
          1    1    1    2  502    0 -0.52457424897E+02 -0.10578779369E+03  0.10331354989E+04  0.10398614321E+04  0.00000000000E+00 0. -1.
         22    1    3    3    0    0  0.43446226315E+02  0.10747308196E+03 -0.93644336204E+02  0.14902113820E+03  0.00000000000E+00 0. -1.
         22    1    3    3    0    0  0.87409000841E+02  0.29553309708E+02  0.10174966029E+02  0.92829205945E+02  0.00000000000E+00 0. -1.
</event>
<event>
 7    1  0.6888820E-006  0.1084658E+03  0.7818608E-02  0.1398336E+00
          2   -1    0    0  502    0  0.00000000000E+00  0.00000000000E+00  0.56399682942E+03  0.56399682942E+03  0.00000000000E+00 0. -1.
          1   -1    0    0  501    0 -0.00000000000E+00 -0.00000000000E+00 -0.14265702643E+04  0.14265702643E+04  0.00000000000E+00 0. -1.
         25    2    1    2    0    0  0.71469684667E+02  0.73731129870E+02 -0.36283452633E+03  0.39726788828E+03  0.12501474402E+03 0.  0.
          2    1    1    2  501    0 -0.96807427568E+02 -0.52498916770E+02 -0.10431181672E+04  0.10489153088E+04  0.00000000000E+00 0. -1.
          1    1    1    2  502    0  0.25337742900E+02 -0.21232213100E+02  0.54337925869E+03  0.54438389659E+03  0.00000000000E+00 0. -1.
         22    1    3    3    0    0 -0.31210755701E+02  0.65190711880E+01 -0.35667380777E+02  0.47841107973E+02  0.00000000000E+00 0.  1.
         22    1    3    3    0    0  0.10268044037E+03  0.67212058682E+02 -0.32716714555E+03  0.34942678030E+03  0.00000000000E+00 0.  1.
</event>
<event>
 7    1  0.6888820E-006  0.1038876E+03  0.7818608E-02  0.1279124E+00
          2   -1    0    0  502    0  0.00000000000E+00  0.00000000000E+00  0.13019218588E+04  0.13019218588E+04  0.00000000000E+00 0. -1.
          1   -1    0    0  501    0 -0.00000000000E+00 -0.00000000000E+00 -0.74925363812E+03  0.74925363812E+03  0.00000000000E+00 0. -1.
         25    2    1    2    0    0 -0.56928496664E+01  0.35105241299E+02 -0.10585719323E+02  0.13039780122E+03  0.12500697022E+03 0.  0.
          2    1    1    2  501    0  0.10292201954E+03 -0.39696144163E+02 -0.67235322124E+03  0.68134248369E+03  0.00000000000E+00 0. -1.
          1    1    1    2  502    0 -0.97229169877E+02  0.45909028645E+01  0.12356071612E+04  0.12394352120E+04  0.00000000000E+00 0. -1.
         22    1    3    3    0    0 -0.64518958443E+02  0.23788835760E+02  0.35196285808E+01  0.68854865411E+02  0.00000000000E+00 0.  1.
         22    1    3    3    0    0  0.58826108777E+02  0.11316405538E+02 -0.14105347904E+02  0.61542935806E+02  0.00000000000E+00 0.  1.
</event>
<event>
 7    1  0.6888820E-006  0.5353016E+02  0.7818608E-02  0.1458636E+00
          2   -1    0    0  502    0  0.00000000000E+00  0.00000000000E+00  0.19128995828E+02  0.19128995828E+02  0.00000000000E+00 0. -1.
          1   -1    0    0  501    0 -0.00000000000E+00 -0.00000000000E+00 -0.95589639702E+03  0.95589639702E+03  0.00000000000E+00 0. -1.
         25    2    1    2    0    0 -0.67647446518E+01 -0.13244973020E+02 -0.60230338381E+03  0.61532319353E+03  0.12502829790E+03 0.  0.
          2    1    1    2  501    0  0.59434722991E+02  0.36871720716E+01 -0.26710845629E+03  0.27366587101E+03  0.00000000000E+00 0. -1.
          1    1    1    2  502    0 -0.52669978339E+02  0.95578009482E+01 -0.67355561097E+02  0.86036328303E+02  0.00000000000E+00 0. -1.
         22    1    3    3    0    0  0.58718262368E+02 -0.44356549943E+00 -0.30850934196E+03  0.31404783897E+03  0.00000000000E+00 0.  1.
         22    1    3    3    0    0 -0.65483007020E+02 -0.12801407520E+02 -0.29379404184E+03  0.30127535456E+03  0.00000000000E+00 0.  1.
</event>
<event>
 7    1  0.6888820E-006  0.5469171E+02  0.7818608E-02  0.1480124E+00
          2   -1    0    0  502    0  0.00000000000E+00  0.00000000000E+00  0.12464940719E+04  0.12464940719E+04  0.00000000000E+00 0. -1.
          1   -1    0    0  501    0 -0.00000000000E+00 -0.00000000000E+00 -0.10416369388E+03  0.10416369388E+03  0.00000000000E+00 0. -1.
         25    2    1    2    0    0 -0.47833330447E+02 -0.58051386755E+02  0.61465224640E+02  0.15830568519E+03  0.12499890046E+03 0.  0.
          2    1    1    2  501    0  0.12913280137E+02  0.51451850958E+02 -0.42778092223E+02  0.68146980455E+02  0.00000000000E+00 0. -1.
          1    1    1    2  502    0  0.34920050310E+02  0.65995357975E+01  0.11236432456E+04  0.11242051002E+04  0.00000000000E+00 0. -1.
         22    1    3    3    0    0 -0.42150379296E+02 -0.73764871510E+02  0.90923243546E+02  0.12443852683E+03  0.00000000000E+00 0. -1.
         22    1    3    3    0    0 -0.56829511505E+01  0.15713484755E+02 -0.29458018906E+02  0.33867158352E+02  0.00000000000E+00 0. -1.
</event>
<event>
 7    1  0.6888820E-006  0.5740678E+02  0.7818608E-02  0.1493069E+00
          2   -1    0    0  502    0  0.00000000000E+00  0.00000000000E+00  0.39156357132E+03  0.39156357132E+03  0.00000000000E+00 0. -1.
          1   -1    0    0  501    0 -0.00000000000E+00 -0.00000000000E+00 -0.11098133041E+04  0.11098133041E+04  0.00000000000E+00 0. -1.
         25    2    1    2    0    0  0.57159389334E+02  0.46419687850E+02  0.63622217784E+02  0.15841283609E+03  0.12499942733E+03 0.  0.
          2    1    1    2  501    0 -0.30691788683E+02  0.37875335838E+01 -0.10593194759E+04  0.10597707692E+04  0.00000000000E+00 0. -1.
          1    1    1    2  502    0 -0.26467600651E+02 -0.50207221434E+02  0.27744752529E+03  0.28319327015E+03  0.00000000000E+00 0. -1.
         22    1    3    3    0    0  0.12687494105E+02  0.17276680199E+02 -0.38052766181E+02  0.43674582991E+02  0.00000000000E+00 0.  1.
         22    1    3    3    0    0  0.44471895229E+02  0.29143007651E+02  0.10167498397E+03  0.11473825310E+03  0.00000000000E+00 0.  1.
</event>
<event>
 7    1  0.6888820E-006  0.9457327E+02  0.7818608E-02  0.1379172E+00
          2   -1    0    0  502    0  0.00000000000E+00  0.00000000000E+00  0.21845559387E+04  0.21845559387E+04  0.00000000000E+00 0. -1.
          1   -1    0    0  501    0 -0.00000000000E+00 -0.00000000000E+00 -0.10802889761E+03  0.10802889761E+03  0.00000000000E+00 0. -1.
         25    2    1    2    0    0  0.37803972626E+02 -0.12055255143E+03  0.88541306932E+03  0.90307072597E+03  0.12497349624E+03 0.  0.
          2    1    1    2  501    0 -0.51526392785E+02  0.78496527730E+02 -0.76508038871E+02  0.12112041129E+03  0.00000000000E+00 0. -1.
          1    1    1    2  502    0  0.13722420159E+02  0.42056023702E+02  0.12676220107E+04  0.12683936991E+04  0.00000000000E+00 0. -1.
         22    1    3    3    0    0 -0.46832695881E+01 -0.34331712197E+02  0.61688955712E+03  0.61786189813E+03  0.00000000000E+00 0. -1.
         22    1    3    3    0    0  0.42487242214E+02 -0.86220839235E+02  0.26852351220E+03  0.28520882784E+03  0.00000000000E+00 0. -1.
</event>
<event>
 7    1  0.6888820E-006  0.5487158E+02  0.7818608E-02  0.1431923E+00
          2   -1    0    0  502    0  0.00000000000E+00  0.00000000000E+00  0.12423709449E+04  0.12423709449E+04  0.00000000000E+00 0. -1.
          1   -1    0    0  501    0 -0.00000000000E+00 -0.00000000000E+00 -0.12180828737E+03  0.12180828737E+03  0.00000000000E+00 0. -1.
         25    2    1    2    0    0  0.12039768101E+02 -0.14346553005E+02  0.11404946164E+02  0.12690854432E+03  0.12499970490E+03 0.  0.
          2    1    1    2  501    0 -0.62413454946E+02  0.14843837606E+02 -0.47306370523E+02  0.79709921373E+02  0.00000000000E+00 0. -1.
          1    1    1    2  502    0  0.50373686845E+02 -0.49728460145E+00  0.11564640819E+04  0.11575607666E+04  0.00000000000E+00 0. -1.
         22    1    3    3    0    0 -0.13564425649E+02 -0.66471888502E+02  0.63912063825E+00  0.67844779308E+02  0.00000000000E+00 0.  1.
         22    1    3    3    0    0  0.25604193750E+02  0.52125335497E+02  0.10765825526E+02  0.59063765013E+02  0.00000000000E+00 0.  1.
</event>
<event>
 7    1  0.6888820E-006  0.3270807E+02  0.7818608E-02  0.1570315E+00
          2   -1    0    0  502    0  0.00000000000E+00  0.00000000000E+00  0.12832138609E+04  0.12832138609E+04  0.00000000000E+00 0. -1.
          1   -1    0    0  501    0 -0.00000000000E+00 -0.00000000000E+00 -0.12092116982E+03  0.12092116982E+03  0.00000000000E+00 0. -1.
         25    2    1    2    0    0  0.12770461128E+02  0.51258757168E+01  0.14645523812E+03  0.19303869540E+03  0.12500176747E+03 0.  0.
          2    1    1    2  501    0 -0.17484628281E+02  0.27553972268E+02 -0.94650213812E+02  0.10011791342E+03  0.00000000000E+00 0. -1.
          1    1    1    2  502    0  0.47141671525E+01 -0.32679847985E+02  0.11104876668E+04  0.11109784219E+04  0.00000000000E+00 0. -1.
         22    1    3    3    0    0  0.40727183825E+02 -0.22519617581E+02  0.14650738540E+03  0.15372134093E+03  0.00000000000E+00 0.  1.
         22    1    3    3    0    0 -0.27956722697E+02  0.27645493297E+02 -0.52147286481E-01  0.39317354475E+02  0.00000000000E+00 0.  1.
</event>
<event>
 7    1  0.6888820E-006  0.7080168E+02  0.7818608E-02  0.1399651E+00
          2   -1    0    0  502    0  0.00000000000E+00  0.00000000000E+00  0.23197177825E+04  0.23197177825E+04  0.00000000000E+00 0. -1.
          1   -1    0    0  501    0 -0.00000000000E+00 -0.00000000000E+00 -0.20017420210E+02  0.20017420210E+02  0.00000000000E+00 0. -1.
         25    2    1    2    0    0  0.37515275354E+02 -0.38004247167E+02  0.13439801394E+04  0.13508368188E+04  0.12500310851E+03 0.  0.
          2    1    1    2  501    0 -0.22135702649E+02 -0.44964265598E+02  0.28118847106E+02  0.57466895471E+02  0.00000000000E+00 0. -1.
          1    1    1    2  502    0 -0.15379572706E+02  0.82968512765E+02  0.92760137583E+03  0.93143148852E+03  0.00000000000E+00 0. -1.
         22    1    3    3    0    0 -0.45322326364E+02 -0.14283160669E+01  0.46280291697E+03  0.46501902468E+03  0.00000000000E+00 0.  1.
         22    1    3    3    0    0  0.82837601718E+02 -0.36575931100E+02  0.88117722242E+03  0.88581779408E+03  0.00000000000E+00 0.  1.
</event>
<event>
 7    1  0.6888820E-006  0.9735349E+02  0.7818608E-02  0.1338753E+00
          2   -1    0    0  502    0  0.00000000000E+00  0.00000000000E+00  0.16770577859E+04  0.16770577859E+04  0.00000000000E+00 0. -1.
          1   -1    0    0  501    0 -0.00000000000E+00 -0.00000000000E+00 -0.40601905967E+03  0.40601905967E+03  0.00000000000E+00 0. -1.
         25    2    1    2    0    0  0.61570770198E+02 -0.11438265925E+03  0.44789598772E+03  0.48281566782E+03  0.12500320316E+03 0.  0.
          2    1    1    2  501    0 -0.37251954725E+01  0.97027011228E+02 -0.38172499829E+03  0.39388080977E+03  0.00000000000E+00 0. -1.
          1    1    1    2  502    0 -0.57845574725E+02  0.17355648020E+02  0.12048677368E+04  0.12063803680E+04  0.00000000000E+00 0. -1.
         22    1    3    3    0    0  0.24710493973E+02  0.16790365382E+01  0.74768157053E+01  0.25871421476E+02  0.00000000000E+00 0. -1.
         22    1    3    3    0    0  0.36860276225E+02 -0.11606169579E+03  0.44041917201E+03  0.45694424634E+03  0.00000000000E+00 0. -1.
</event>
<event>
 7    1  0.6888820E-006  0.1811921E+03  0.7818608E-02  0.1242758E+00
          2   -1    0    0  502    0  0.00000000000E+00  0.00000000000E+00  0.39578757210E+03  0.39578757210E+03  0.00000000000E+00 0. -1.
          1   -1    0    0  501    0 -0.00000000000E+00 -0.00000000000E+00 -0.11945437455E+04  0.11945437455E+04  0.00000000000E+00 0. -1.
         25    2    1    2    0    0  0.48198185689E+02  0.14065405956E+03  0.14280299964E+03  0.24106419147E+03  0.12495046269E+03 0.  0.
          2    1    1    2  501    0  0.20076445587E+02 -0.18186115020E+03 -0.11299634223E+04  0.11446806879E+04  0.00000000000E+00 0. -1.
          1    1    1    2  502    0 -0.68274631276E+02  0.41207090637E+02  0.18840424921E+03  0.20458643825E+03  0.00000000000E+00 0. -1.
         22    1    3    3    0    0 -0.24938149912E+02 -0.71924019289E+01  0.56907976319E+01  0.26571171300E+02  0.00000000000E+00 0.  1.
         22    1    3    3    0    0  0.73136335601E+02  0.14784646149E+03  0.13711220200E+03  0.21449302017E+03  0.00000000000E+00 0.  1.
</event>
<event>
 7    1  0.6888820E-006  0.3904347E+02  0.7818608E-02  0.1520858E+00
          2   -1    0    0  502    0  0.00000000000E+00  0.00000000000E+00  0.50548496468E+03  0.50548496468E+03  0.00000000000E+00 0. -1.
          1   -1    0    0  501    0 -0.00000000000E+00 -0.00000000000E+00 -0.78842995104E+02  0.78842995104E+02  0.00000000000E+00 0. -1.
         25    2    1    2    0    0 -0.37616401992E+02 -0.33447294246E+02  0.21876969498E+03  0.25694048535E+03  0.12499807349E+03 0.  0.
          2    1    1    2  501    0  0.37168816467E+02 -0.58953330243E+01 -0.52202420455E+02  0.64353465877E+02  0.00000000000E+00 0. -1.
          1    1    1    2  502    0  0.44758552543E+00  0.39342627270E+02  0.26007469505E+03  0.26303400856E+03  0.00000000000E+00 0. -1.
         22    1    3    3    0    0  0.12790099437E+02  0.30445750871E+02  0.12697167073E+02  0.35380057114E+02  0.00000000000E+00 0. -1.
         22    1    3    3    0    0 -0.50406501429E+02 -0.63893045117E+02  0.20607252791E+03  0.22156042823E+03  0.00000000000E+00 0. -1.
</event>
<event>
 7    1  0.6888820E-006  0.5833648E+02  0.7818608E-02  0.1415184E+00
          2   -1    0    0  502    0  0.00000000000E+00  0.00000000000E+00  0.83712234381E+03  0.83712234381E+03  0.00000000000E+00 0. -1.
          1   -1    0    0  501    0 -0.00000000000E+00 -0.00000000000E+00 -0.57051881137E+03  0.57051881137E+03  0.00000000000E+00 0. -1.
         25    2    1    2    0    0 -0.87064417935E+02  0.28025328786E+02  0.11096706566E+02  0.15528296667E+03  0.12499612361E+03 0.  0.
          2    1    1    2  501    0  0.55769350347E+02  0.15808309335E+02 -0.49577300828E+03  0.49915027679E+03  0.00000000000E+00 0. -1.
          1    1    1    2  502    0  0.31295067588E+02 -0.43833638121E+02  0.75127983415E+03  0.75320791173E+03  0.00000000000E+00 0. -1.
         22    1    3    3    0    0  0.29019851001E+02 -0.92297592354E+01  0.13576990307E+02  0.33341788696E+02  0.00000000000E+00 0. -1.
         22    1    3    3    0    0 -0.11608426894E+03  0.37255088021E+02 -0.24802837416E+01  0.12194117797E+03  0.00000000000E+00 0. -1.
</event>
<event>
 7    1  0.6888820E-006  0.6023480E+02  0.7818608E-02  0.1467240E+00
          2   -1    0    0  502    0  0.00000000000E+00  0.00000000000E+00  0.64737476511E+03  0.64737476511E+03  0.00000000000E+00 0. -1.
          1   -1    0    0  501    0 -0.00000000000E+00 -0.00000000000E+00 -0.14674666064E+04  0.14674666064E+04  0.00000000000E+00 0. -1.
         25    2    1    2    0    0 -0.80695381482E+02 -0.44063241279E+02  0.25703056036E+03  0.30023718348E+03  0.12499737423E+03 0.  0.
          2    1    1    2  501    0  0.45663506381E+02  0.39179522083E+02 -0.14443873141E+04  0.14456399635E+04  0.00000000000E+00 0. -1.
          1    1    1    2  502    0  0.35031875101E+02  0.48837191964E+01  0.36726491254E+03  0.36896422451E+03  0.00000000000E+00 0. -1.
         22    1    3    3    0    0  0.26202260361E+02 -0.94325475129E+01  0.11918452356E+03  0.12239477954E+03  0.00000000000E+00 0. -1.
         22    1    3    3    0    0 -0.10689764184E+03 -0.34630693767E+02  0.13784603679E+03  0.17784240395E+03  0.00000000000E+00 0. -1.
</event>
<event>
 7    1  0.6888820E-006  0.1269869E+03  0.7818608E-02  0.1239038E+00
          2   -1    0    0  502    0  0.00000000000E+00  0.00000000000E+00  0.26529753892E+04  0.26529753892E+04  0.00000000000E+00 0. -1.
          1   -1    0    0  501    0 -0.00000000000E+00 -0.00000000000E+00 -0.10265309152E+04  0.10265309152E+04  0.00000000000E+00 0. -1.
         25    2    1    2    0    0 -0.98646201678E+02  0.57250354460E+01 -0.12121989998E+03  0.20020760430E+03  0.12499988612E+03 0.  0.
          2    1    1    2  501    0  0.79816403154E+02  0.11092610623E+03 -0.85907809000E+03  0.86987954567E+03  0.00000000000E+00 0. -1.
          1    1    1    2  502    0  0.18829798524E+02 -0.11665114168E+03  0.26067424640E+04  0.26094191545E+04  0.00000000000E+00 0. -1.
         22    1    3    3    0    0 -0.11006916205E+03 -0.77866072985E+01 -0.13740584997E+03  0.17622774837E+03  0.00000000000E+00 0.  1.
         22    1    3    3    0    0  0.11422960373E+02  0.13511642744E+02  0.16185949991E+02  0.23979855930E+02  0.00000000000E+00 0.  1.
</event>
<event>
 7    1  0.6888820E-006  0.5999365E+02  0.7818608E-02  0.1443803E+00
          2   -1    0    0  502    0  0.00000000000E+00  0.00000000000E+00  0.72562217908E+03  0.72562217908E+03  0.00000000000E+00 0. -1.
          1   -1    0    0  501    0 -0.00000000000E+00 -0.00000000000E+00 -0.27242962837E+03  0.27242962837E+03  0.00000000000E+00 0. -1.
         25    2    1    2    0    0 -0.16991795272E+02  0.10225872279E+02  0.80235346359E+02  0.14984579094E+03  0.12499104243E+03 0.  0.
          2    1    1    2  501    0 -0.39110712708E+02  0.15714708255E+02 -0.23417377212E+03  0.23793687284E+03  0.00000000000E+00 0. -1.
          1    1    1    2  502    0  0.56102507980E+02 -0.25940580534E+02  0.60713097648E+03  0.61026914367E+03  0.00000000000E+00 0. -1.
         22    1    3    3    0    0  0.16484407604E+02  0.26998722467E+01 -0.30031177870E+02  0.34364176819E+02  0.00000000000E+00 0. -1.
         22    1    3    3    0    0 -0.33476202876E+02  0.75260000323E+01  0.11026652423E+03  0.11548161413E+03  0.00000000000E+00 0. -1.
</event>
<event>
 7    1  0.6888820E-006  0.5813729E+02  0.7818608E-02  0.1410880E+00
          2   -1    0    0  502    0  0.00000000000E+00  0.00000000000E+00  0.32328255694E+03  0.32328255694E+03  0.00000000000E+00 0. -1.
          1   -1    0    0  501    0 -0.00000000000E+00 -0.00000000000E+00 -0.64460394420E+03  0.64460394420E+03  0.00000000000E+00 0. -1.
         25    2    1    2    0    0  0.41892312228E+02  0.69908343073E+02 -0.22615628097E+03  0.27094758262E+03  0.12499514731E+03 0.  0.
          2    1    1    2  501    0  0.14033933688E+02 -0.54090157599E+02 -0.39124139848E+03  0.39521200428E+03  0.00000000000E+00 0. -1.
          1    1    1    2  502    0 -0.55926245916E+02 -0.15818185474E+02  0.29607629220E+03  0.30172691424E+03  0.00000000000E+00 0. -1.
         22    1    3    3    0    0  0.20108382276E+02  0.10485075295E+03 -0.14645070606E+03  0.18123420410E+03  0.00000000000E+00 0. -1.
         22    1    3    3    0    0  0.21783929952E+02 -0.34942409882E+02 -0.79705574915E+02  0.89713378518E+02  0.00000000000E+00 0. -1.
</event>
<event>
 7    1  0.6888820E-006  0.4379933E+02  0.7818608E-02  0.1489994E+00
          2   -1    0    0  502    0  0.00000000000E+00  0.00000000000E+00  0.29145491591E+03  0.29145491591E+03  0.00000000000E+00 0. -1.
          1   -1    0    0  501    0 -0.00000000000E+00 -0.00000000000E+00 -0.16917026081E+03  0.16917026081E+03  0.00000000000E+00 0. -1.
         25    2    1    2    0    0  0.78870141165E+02  0.12553755472E+02  0.58037543067E+02  0.15928732657E+03  0.12500400016E+03 0.  0.
          2    1    1    2  501    0 -0.42126609211E+02  0.65393372497E+01 -0.11223721715E+03  0.12006084727E+03  0.00000000000E+00 0. -1.
          1    1    1    2  502    0 -0.36743531954E+02 -0.19093092722E+02  0.17648432917E+03  0.18127700288E+03  0.00000000000E+00 0. -1.
         22    1    3    3    0    0  0.11026754472E+03 -0.83948747990E+01  0.42608371176E+02  0.11851109077E+03  0.00000000000E+00 0. -1.
         22    1    3    3    0    0 -0.31397403558E+02  0.20948630271E+02  0.15429171891E+02  0.40776235795E+02  0.00000000000E+00 0. -1.
</event>
<event>
 7    1  0.6888820E-006  0.1540679E+03  0.7818608E-02  0.1288209E+00
          2   -1    0    0  502    0  0.00000000000E+00  0.00000000000E+00  0.12511147085E+03  0.12511147085E+03  0.00000000000E+00 0. -1.
          1   -1    0    0  501    0 -0.00000000000E+00 -0.00000000000E+00 -0.75876849954E+03  0.75876849954E+03  0.00000000000E+00 0. -1.
         25    2    1    2    0    0 -0.10918715064E+03 -0.93113700707E+01 -0.25290208617E+03  0.30264245162E+03  0.12499781139E+03 0.  0.
          2    1    1    2  501    0 -0.51258997160E+02 -0.31624029644E+02 -0.40886957097E+03  0.41328185311E+03  0.00000000000E+00 0. -1.
          1    1    1    2  502    0  0.16044614780E+03  0.40935399715E+02  0.28114628452E+02  0.16795566566E+03  0.00000000000E+00 0. -1.
         22    1    3    3    0    0 -0.43280675674E+02 -0.31074655906E+02 -0.15775975819E+02  0.55567369377E+02  0.00000000000E+00 0. -1.
         22    1    3    3    0    0 -0.65906474970E+02  0.21763285836E+02 -0.23712611035E+03  0.24707508224E+03  0.00000000000E+00 0. -1.
</event>
<event>
 7    1  0.6888820E-006  0.1563746E+03  0.7818608E-02  0.1291280E+00
          2   -1    0    0  502    0  0.00000000000E+00  0.00000000000E+00  0.13794015933E+04  0.13794015933E+04  0.00000000000E+00 0. -1.
          1   -1    0    0  501    0 -0.00000000000E+00 -0.00000000000E+00 -0.23569730144E+04  0.23569730144E+04  0.00000000000E+00 0. -1.
         25    2    1    2    0    0  0.16314904303E+03  0.18801583043E+02 -0.10215120983E+04  0.10421530741E+04  0.12499981229E+03 0.  0.
          2    1    1    2  501    0 -0.11381207079E+02 -0.56523769045E+02 -0.13200432117E+04  0.13213018387E+04  0.00000000000E+00 0. -1.
          1    1    1    2  502    0 -0.15176783596E+03  0.37722186002E+02  0.13639838889E+04  0.13729196949E+04  0.00000000000E+00 0. -1.
         22    1    3    3    0    0  0.67175916398E+02  0.68091890574E+02 -0.56697723866E+03  0.57498895508E+03  0.00000000000E+00 0. -1.
         22    1    3    3    0    0  0.95973126637E+02 -0.49290307531E+02 -0.45453485963E+03  0.46716411899E+03  0.00000000000E+00 0. -1.
</event>
<event>
 7    1  0.6888820E-006  0.1758016E+03  0.7818608E-02  0.1245146E+00
          2   -1    0    0  502    0  0.00000000000E+00  0.00000000000E+00  0.21195080555E+04  0.21195080555E+04  0.00000000000E+00 0. -1.
          1   -1    0    0  501    0 -0.00000000000E+00 -0.00000000000E+00 -0.12926054161E+03  0.12926054161E+03  0.00000000000E+00 0. -1.
         25    2    1    2    0    0 -0.14567770171E+02 -0.13305170664E+03  0.23747764008E+03  0.29989668817E+03  0.12500966952E+03 0.  0.
          2    1    1    2  501    0  0.83633070773E+02  0.17388903010E+03 -0.13078378010E+01  0.19296008850E+03  0.00000000000E+00 0. -1.
          1    1    1    2  502    0 -0.69065300602E+02 -0.40837323464E+02  0.17540777117E+04  0.17559118205E+04  0.00000000000E+00 0. -1.
         22    1    3    3    0    0  0.86614778380E+01 -0.15073257157E+03  0.21650984490E+03  0.26395424276E+03  0.00000000000E+00 0.  1.
         22    1    3    3    0    0 -0.23229248009E+02  0.17680864935E+02  0.20967795174E+02  0.35942445415E+02  0.00000000000E+00 0.  1.
</event>
<event>
 7    1  0.6888820E-006  0.1523525E+03  0.7818608E-02  0.1298926E+00
          2   -1    0    0  502    0  0.00000000000E+00  0.00000000000E+00  0.75037370103E+02  0.75037370103E+02  0.00000000000E+00 0. -1.
          1   -1    0    0  501    0 -0.00000000000E+00 -0.00000000000E+00 -0.29375898772E+04  0.29375898772E+04  0.00000000000E+00 0. -1.
         25    2    1    2    0    0 -0.61613837615E+02 -0.11633239269E+03 -0.66729783174E+03  0.69155018339E+03  0.12500307724E+03 0.  0.
          2    1    1    2  501    0 -0.53992994740E+02  0.11100932040E+02 -0.21601530082E+04  0.21608561944E+04  0.00000000000E+00 0. -1.
          1    1    1    2  502    0  0.11560683236E+03  0.10523146065E+03 -0.35101667221E+02  0.16022086955E+03  0.00000000000E+00 0. -1.
         22    1    3    3    0    0 -0.15791337383E+02 -0.18297254536E+02 -0.43071385722E+03  0.43139144945E+03  0.00000000000E+00 0.  1.
         22    1    3    3    0    0 -0.45822500233E+02 -0.98035138157E+02 -0.23658397452E+03  0.26015873393E+03  0.00000000000E+00 0.  1.
</event>
<event>
 7    1  0.6888820E-006  0.3463709E+03  0.7818608E-02  0.1202038E+00
          2   -1    0    0  502    0  0.00000000000E+00  0.00000000000E+00  0.53720681989E+03  0.53720681989E+03  0.00000000000E+00 0. -1.
          1   -1    0    0  501    0 -0.00000000000E+00 -0.00000000000E+00 -0.79150935747E+03  0.79150935747E+03  0.00000000000E+00 0. -1.
         25    2    1    2    0    0 -0.38140248780E+03  0.23525136769E+02 -0.40450877308E+02  0.40408410027E+03  0.12500558729E+03 0.  0.
          2    1    1    2  501    0  0.33643038388E+03  0.21823723193E+02 -0.51568760180E+03  0.61611312333E+03  0.00000000000E+00 0. -1.
          1    1    1    2  502    0  0.44972103917E+02 -0.45348859962E+02  0.30183594153E+03  0.30851895376E+03  0.00000000000E+00 0. -1.
         22    1    3    3    0    0 -0.91119705116E+02  0.53382791725E+02  0.16144231861E+02  0.10683238898E+03  0.00000000000E+00 0.  1.
         22    1    3    3    0    0 -0.29028278268E+03 -0.29857654956E+02 -0.56595109170E+02  0.29725171129E+03  0.00000000000E+00 0.  1.
</event>
<event>
 7    1  0.6888820E-006  0.1498291E+03  0.7818608E-02  0.1317990E+00
          2   -1    0    0  502    0  0.00000000000E+00  0.00000000000E+00  0.40731307179E+03  0.40731307179E+03  0.00000000000E+00 0. -1.
          1   -1    0    0  501    0 -0.00000000000E+00 -0.00000000000E+00 -0.39732175638E+03  0.39732175638E+03  0.00000000000E+00 0. -1.
         25    2    1    2    0    0 -0.14908552676E+03  0.66959853837E+02 -0.20993667662E+02  0.20682650213E+03  0.12500540623E+03 0.  0.
          2    1    1    2  501    0  0.36401028507E+02  0.29931688735E+02 -0.26364269578E+03  0.26782160463E+03  0.00000000000E+00 0. -1.
          1    1    1    2  502    0  0.11268449825E+03 -0.96891542572E+02  0.29462767885E+03  0.32998672142E+03  0.00000000000E+00 0. -1.
         22    1    3    3    0    0 -0.10227012444E+03  0.11626268948E+01  0.35513289726E+02  0.10826691000E+03  0.00000000000E+00 0.  1.
         22    1    3    3    0    0 -0.46815402323E+02  0.65797226943E+02 -0.56506957388E+02  0.98559592132E+02  0.00000000000E+00 0.  1.
</event>
<event>
 7    1  0.6888820E-006  0.1044772E+03  0.7818608E-02  0.1282827E+00
          2   -1    0    0  502    0  0.00000000000E+00  0.00000000000E+00  0.59808993371E+03  0.59808993371E+03  0.00000000000E+00 0. -1.
          1   -1    0    0  501    0 -0.00000000000E+00 -0.00000000000E+00 -0.28157689494E+03  0.28157689494E+03  0.00000000000E+00 0. -1.
         25    2    1    2    0    0 -0.14461946789E+03  0.47510160104E+02  0.11041937481E+03  0.22581077711E+03  0.12500425161E+03 0.  0.
          2    1    1    2  501    0  0.58848215465E+02 -0.84589225489E+02 -0.20651635713E+03  0.23079743347E+03  0.00000000000E+00 0. -1.
          1    1    1    2  502    0  0.85771252423E+02  0.37079065385E+02  0.41261002108E+03  0.42305861807E+03  0.00000000000E+00 0. -1.
         22    1    3    3    0    0 -0.11787961726E+03  0.53480828037E+02  0.13640584959E+03  0.18804882062E+03  0.00000000000E+00 0.  1.
         22    1    3    3    0    0 -0.26739850624E+02 -0.59706679330E+01 -0.25986474774E+02  0.37761956493E+02  0.00000000000E+00 0.  1.
</event>
<event>
 7    1  0.6888820E-006  0.4651034E+02  0.7818608E-02  0.1474068E+00
          2   -1    0    0  502    0  0.00000000000E+00  0.00000000000E+00  0.16120868845E+04  0.16120868845E+04  0.00000000000E+00 0. -1.
          1   -1    0    0  501    0 -0.00000000000E+00 -0.00000000000E+00 -0.69417116616E+02  0.69417116616E+02  0.00000000000E+00 0. -1.
         25    2    1    2    0    0  0.69165923098E+01  0.17543501537E+02  0.27658682009E+03  0.30410787271E+03  0.12500286197E+03 0.  0.
          2    1    1    2  501    0  0.33319923845E+02 -0.34397196616E+02 -0.44924711708E+02  0.65662882835E+02  0.00000000000E+00 0. -1.
          1    1    1    2  502    0 -0.40236516155E+02  0.16853695079E+02  0.13110076595E+04  0.13117332456E+04  0.00000000000E+00 0. -1.
         22    1    3    3    0    0  0.19002822430E+02  0.61930314403E+02  0.22872833375E+03  0.23772488671E+03  0.00000000000E+00 0. -1.
         22    1    3    3    0    0 -0.12086230120E+02 -0.44386812865E+02  0.47858486341E+02  0.66382985996E+02  0.00000000000E+00 0. -1.
</event>
<event>
 7    1  0.6888820E-006  0.2133212E+03  0.7818608E-02  0.1238794E+00
          2   -1    0    0  502    0  0.00000000000E+00  0.00000000000E+00  0.43143513905E+04  0.43143513905E+04  0.00000000000E+00 0. -1.
          1   -1    0    0  501    0 -0.00000000000E+00 -0.00000000000E+00 -0.38180751256E+04  0.38180751256E+04  0.00000000000E+00 0. -1.
         25    2    1    2    0    0  0.16569779719E+00 -0.25608135123E+03 -0.44508939638E+03  0.52849489103E+03  0.12499837268E+03 0.  0.
          2    1    1    2  501    0  0.50617675531E+02  0.49092440112E+02 -0.33282515072E+04  0.33289983947E+04  0.00000000000E+00 0. -1.
          1    1    1    2  502    0 -0.50783373328E+02  0.20698891112E+03  0.42696171684E+04  0.42749332305E+04  0.00000000000E+00 0. -1.
         22    1    3    3    0    0  0.13685331526E+02 -0.26496656358E+03 -0.39481893290E+03  0.47568535598E+03  0.00000000000E+00 0. -1.
         22    1    3    3    0    0 -0.13519633729E+02  0.88852123437E+01 -0.50270463472E+02  0.52809535050E+02  0.00000000000E+00 0. -1.
</event>
<event>
 7    1  0.6888820E-006  0.6729872E+02  0.7818608E-02  0.1443784E+00
          2   -1    0    0  502    0  0.00000000000E+00  0.00000000000E+00  0.25403343492E+03  0.25403343492E+03  0.00000000000E+00 0. -1.
          1   -1    0    0  501    0 -0.00000000000E+00 -0.00000000000E+00 -0.23879981087E+03  0.23879981087E+03  0.00000000000E+00 0. -1.
         25    2    1    2    0    0 -0.50213952162E+02  0.85189858438E+02 -0.20196060684E+02  0.16066218562E+03  0.12500281616E+03 0.  0.
          2    1    1    2  501    0  0.42201298817E+02 -0.48474151291E+02 -0.13931804128E+03  0.15342819034E+03  0.00000000000E+00 0. -1.
          1    1    1    2  502    0  0.80126533452E+01 -0.36715707146E+02  0.17474772602E+03  0.17874286983E+03  0.00000000000E+00 0. -1.
         22    1    3    3    0    0 -0.40583715479E+02  0.97016297535E+02  0.29055876241E+02  0.10910290506E+03  0.00000000000E+00 0.  1.
         22    1    3    3    0    0 -0.96302366831E+01 -0.11826439097E+02 -0.49251936926E+02  0.51559280554E+02  0.00000000000E+00 0.  1.
</event>
<event>
 7    1  0.6888820E-006  0.4028223E+03  0.7818608E-02  0.1248699E+00
          2   -1    0    0  502    0  0.00000000000E+00  0.00000000000E+00  0.74727833281E+03  0.74727833281E+03  0.00000000000E+00 0. -1.
          1   -1    0    0  501    0 -0.00000000000E+00 -0.00000000000E+00 -0.12432406014E+04  0.12432406014E+04  0.00000000000E+00 0. -1.
         25    2    1    2    0    0 -0.26461087785E+02  0.42380715334E+03 -0.76964575666E+02  0.44929022987E+03  0.12500188942E+03 0.  0.
          2    1    1    2  501    0  0.44686365371E+01 -0.39815457669E+03 -0.93910134674E+03  0.10200286148E+04  0.00000000000E+00 0. -1.
          1    1    1    2  502    0  0.21992451248E+02 -0.25652576657E+02  0.52010365380E+03  0.52120008950E+03  0.00000000000E+00 0. -1.
         22    1    3    3    0    0 -0.47946557901E+02  0.28714000682E+03 -0.28566896168E+00  0.29111567724E+03  0.00000000000E+00 0. -1.
         22    1    3    3    0    0  0.21485470116E+02  0.13666714653E+03 -0.76678906704E+02  0.15817455263E+03  0.00000000000E+00 0. -1.
</event>
<event>
 7    1  0.6888820E-006  0.8409960E+02  0.7818608E-02  0.1356458E+00
          2   -1    0    0  502    0  0.00000000000E+00  0.00000000000E+00  0.51771852574E+03  0.51771852574E+03  0.00000000000E+00 0. -1.
          1   -1    0    0  501    0 -0.00000000000E+00 -0.00000000000E+00 -0.18350530838E+04  0.18350530838E+04  0.00000000000E+00 0. -1.
         25    2    1    2    0    0  0.10058706131E+02  0.13214741831E+03 -0.39299736433E+03  0.43317013092E+03  0.12500126485E+03 0.  0.
          2    1    1    2  501    0 -0.30546776365E+02 -0.75672648364E+02 -0.14189795738E+04  0.14213242016E+04  0.00000000000E+00 0. -1.
          1    1    1    2  502    0  0.20488070234E+02 -0.56474769949E+02  0.49464238005E+03  0.49827727703E+03  0.00000000000E+00 0. -1.
         22    1    3    3    0    0  0.38334493874E+02  0.84871284115E+02 -0.10671501413E+03  0.14163602130E+03  0.00000000000E+00 0. -1.
         22    1    3    3    0    0 -0.28275787744E+02  0.47276134197E+02 -0.28628235020E+03  0.29153410962E+03  0.00000000000E+00 0. -1.
</event>
<event>
 7    1  0.6888820E-006  0.6307424E+02  0.7818608E-02  0.1411071E+00
          2   -1    0    0  502    0  0.00000000000E+00  0.00000000000E+00  0.10773955696E+04  0.10773955696E+04  0.00000000000E+00 0. -1.
          1   -1    0    0  501    0 -0.00000000000E+00 -0.00000000000E+00 -0.30321112570E+03  0.30321112570E+03  0.00000000000E+00 0. -1.
         25    2    1    2    0    0 -0.48079404771E+02  0.17507066057E+02 -0.16721470108E+03  0.21495144700E+03  0.12500096713E+03 0.  0.
          2    1    1    2  501    0 -0.54666451579E+01 -0.51139121216E+02 -0.10522577548E+03  0.11712197809E+03  0.00000000000E+00 0. -1.
          1    1    1    2  502    0  0.53546049929E+02  0.33632055159E+02  0.10466249205E+04  0.10485332702E+04  0.00000000000E+00 0. -1.
         22    1    3    3    0    0 -0.79473333879E+02  0.35822679235E+02 -0.15266625114E+03  0.17580176160E+03  0.00000000000E+00 0. -1.
         22    1    3    3    0    0  0.31393929108E+02 -0.18315613178E+02 -0.14548449942E+02  0.39149685396E+02  0.00000000000E+00 0. -1.
</event>
<event>
 7    1  0.6888820E-006  0.1008385E+03  0.7818608E-02  0.1312547E+00
          2   -1    0    0  502    0  0.00000000000E+00  0.00000000000E+00  0.27557233436E+04  0.27557233436E+04  0.00000000000E+00 0. -1.
          1   -1    0    0  501    0 -0.00000000000E+00 -0.00000000000E+00 -0.45411653031E+03  0.45411653031E+03  0.00000000000E+00 0. -1.
         25    2    1    2    0    0 -0.16101353628E+03 -0.59201931577E+02  0.25154003464E+03  0.32912927929E+03  0.12499386343E+03 0.  0.
          2    1    1    2  501    0  0.65258396368E+02  0.33899982900E+02 -0.41106284347E+03  0.41758894672E+03  0.00000000000E+00 0. -1.
          1    1    1    2  502    0  0.95755139912E+02  0.25301948677E+02  0.24611296221E+04  0.24631216479E+04  0.00000000000E+00 0. -1.
         22    1    3    3    0    0 -0.10450265132E+03 -0.35420142335E+02  0.55082072891E+02  0.12332649906E+03  0.00000000000E+00 0.  1.
         22    1    3    3    0    0 -0.56510884958E+02 -0.23781789242E+02  0.19645796175E+03  0.20580278023E+03  0.00000000000E+00 0.  1.
</event>
<event>
 7    1  0.6888820E-006  0.5473268E+02  0.7818608E-02  0.1435186E+00
          2   -1    0    0  502    0  0.00000000000E+00  0.00000000000E+00  0.30531315443E+04  0.30531315443E+04  0.00000000000E+00 0. -1.
          1   -1    0    0  501    0 -0.00000000000E+00 -0.00000000000E+00 -0.61832140790E+03  0.61832140790E+03  0.00000000000E+00 0. -1.
         25    2    1    2    0    0  0.10960976031E+02 -0.10316512089E+03  0.57351879138E+01  0.16254976075E+03  0.12500538859E+03 0.  0.
          2    1    1    2  501    0 -0.75374592337E+01  0.48696454314E+02 -0.53853837211E+03  0.54078806957E+03  0.00000000000E+00 0. -1.
          1    1    1    2  502    0 -0.34235167971E+01  0.54468666571E+02  0.29676133206E+04  0.29681151219E+04  0.00000000000E+00 0. -1.
         22    1    3    3    0    0  0.62667756657E+01  0.24814629260E+02 -0.19306024754E+02  0.32058710117E+02  0.00000000000E+00 0.  1.
         22    1    3    3    0    0  0.46942003650E+01 -0.12797975015E+03  0.25041212668E+02  0.13049105064E+03  0.00000000000E+00 0.  1.
</event>
<event>
 7    1  0.6888820E-006  0.3418679E+02  0.7818608E-02  0.1585084E+00
          2   -1    0    0  502    0  0.00000000000E+00  0.00000000000E+00  0.12390901309E+04  0.12390901309E+04  0.00000000000E+00 0. -1.
          1   -1    0    0  501    0 -0.00000000000E+00 -0.00000000000E+00 -0.39151523008E+03  0.39151523008E+03  0.00000000000E+00 0. -1.
         25    2    1    2    0    0  0.39687738460E+01 -0.43249014829E+02  0.14723879469E+03  0.19796753286E+03  0.12500261179E+03 0.  0.
          2    1    1    2  501    0  0.20708667718E+02  0.19570182971E+02 -0.36532180899E+03  0.36643125563E+03  0.00000000000E+00 0. -1.
          1    1    1    2  502    0 -0.24677441564E+02  0.23678831858E+02  0.10656579151E+04  0.10662065725E+04  0.00000000000E+00 0. -1.
         22    1    3    3    0    0  0.94124581615E+00 -0.64747894907E+02  0.16012321856E+03  0.17272122325E+03  0.00000000000E+00 0.  1.
         22    1    3    3    0    0  0.30275280298E+01  0.21498880078E+02 -0.12884423868E+02  0.25246309611E+02  0.00000000000E+00 0.  1.
</event>
<event>
 7    1  0.6888820E-006  0.6881031E+02  0.7818608E-02  0.1499306E+00
          2   -1    0    0  502    0  0.00000000000E+00  0.00000000000E+00  0.38915464640E+03  0.38915464640E+03  0.00000000000E+00 0. -1.
          1   -1    0    0  501    0 -0.00000000000E+00 -0.00000000000E+00 -0.17056761388E+03  0.17056761388E+03  0.00000000000E+00 0. -1.
         25    2    1    2    0    0 -0.88664756611E+02  0.21850345234E+02  0.82412206359E+02  0.17537443737E+03  0.12500217948E+03 0.  0.
          2    1    1    2  501    0  0.66242948536E+02 -0.11460998678E+02 -0.11432818254E+03  0.13262886580E+03  0.00000000000E+00 0. -1.
          1    1    1    2  502    0  0.22421808074E+02 -0.10389346557E+02  0.25050300870E+03  0.25171895711E+03  0.00000000000E+00 0. -1.
         22    1    3    3    0    0  0.19379844789E+02 -0.25557713057E+02  0.11220954007E+01  0.32094145554E+02  0.00000000000E+00 0.  1.
         22    1    3    3    0    0 -0.10804460140E+03  0.47408058292E+02  0.81290110958E+02  0.14328029181E+03  0.00000000000E+00 0.  1.
</event>
<event>
 7    1  0.6888820E-006  0.8967604E+02  0.7818608E-02  0.1354315E+00
          2   -1    0    0  502    0  0.00000000000E+00  0.00000000000E+00  0.68660209959E+03  0.68660209959E+03  0.00000000000E+00 0. -1.
          1   -1    0    0  501    0 -0.00000000000E+00 -0.00000000000E+00 -0.63959514393E+03  0.63959514393E+03  0.00000000000E+00 0. -1.
         25    2    1    2    0    0 -0.61578282372E+02  0.11502748390E+03  0.24762567953E+03  0.30653859981E+03  0.12499691635E+03 0.  0.
          2    1    1    2  501    0 -0.14969628314E+00 -0.57371194090E+02 -0.60441034043E+03  0.60712711679E+03  0.00000000000E+00 0. -1.
          1    1    1    2  502    0  0.61727978656E+02 -0.57656289811E+02  0.40379161656E+03  0.41253152693E+03  0.00000000000E+00 0. -1.
         22    1    3    3    0    0 -0.66262035718E+02  0.86211684546E+02  0.25431772645E+03  0.27658745075E+03  0.00000000000E+00 0. -1.
         22    1    3    3    0    0  0.46837533452E+01  0.28815799356E+02 -0.66920469133E+01  0.29951149057E+02  0.00000000000E+00 0. -1.
</event>
<event>
 7    1  0.6888820E-006  0.6427782E+02  0.7818608E-02  0.1434476E+00
          2   -1    0    0  502    0  0.00000000000E+00  0.00000000000E+00  0.25365028665E+04  0.25365028665E+04  0.00000000000E+00 0. -1.
          1   -1    0    0  501    0 -0.00000000000E+00 -0.00000000000E+00 -0.56749857342E+02  0.56749857342E+02  0.00000000000E+00 0. -1.
         25    2    1    2    0    0  0.13211145726E+02 -0.95078707609E+02  0.10270304827E+04  0.10390542702E+04  0.12501067525E+03 0.  0.
          2    1    1    2  501    0  0.13397829749E+02  0.62345958695E+02 -0.30282030657E+02  0.70594063407E+02  0.00000000000E+00 0. -1.
          1    1    1    2  502    0 -0.26608975475E+02  0.32732748914E+02  0.14830045571E+04  0.14836043903E+04  0.00000000000E+00 0. -1.
         22    1    3    3    0    0  0.10655527420E+02  0.26096782104E+02  0.35998422229E+03  0.36108617060E+03  0.00000000000E+00 0.  1.
         22    1    3    3    0    0  0.25556183063E+01 -0.12117548971E+03  0.66704626045E+03  0.67796809960E+03  0.00000000000E+00 0.  1.
</event>
<event>
 7    1  0.6888820E-006  0.1149429E+03  0.7818608E-02  0.1349796E+00
          2   -1    0    0  502    0  0.00000000000E+00  0.00000000000E+00  0.72930379528E+03  0.72930379528E+03  0.00000000000E+00 0. -1.
          1   -1    0    0  501    0 -0.00000000000E+00 -0.00000000000E+00 -0.11147357369E+04  0.11147357369E+04  0.00000000000E+00 0. -1.
         25    2    1    2    0    0 -0.82141613069E+02 -0.66253213623E+02  0.28274982681E+03  0.32666515393E+03  0.12500370122E+03 0.  0.
          2    1    1    2  501    0  0.23997039554E+02 -0.39845383640E+02 -0.10836504378E+04  0.10846482305E+04  0.00000000000E+00 0. -1.
          1    1    1    2  502    0  0.58144573515E+02  0.10609859726E+03  0.41546866936E+03  0.43272614780E+03  0.00000000000E+00 0. -1.
         22    1    3    3    0    0 -0.42247233087E+02 -0.10082980990E+03  0.21033651273E+03  0.23705047533E+03  0.00000000000E+00 0.  1.
         22    1    3    3    0    0 -0.39894379982E+02  0.34576596276E+02  0.72413314085E+02  0.89614678602E+02  0.00000000000E+00 0.  1.
</event>
<event>
 7    1  0.6888820E-006  0.1544507E+03  0.7818608E-02  0.1329788E+00
          2   -1    0    0  502    0  0.00000000000E+00  0.00000000000E+00  0.13033531882E+04  0.13033531882E+04  0.00000000000E+00 0. -1.
          1   -1    0    0  501    0 -0.00000000000E+00 -0.00000000000E+00 -0.86472463532E+02  0.86472463532E+02  0.00000000000E+00 0. -1.
         25    2    1    2    0    0  0.88022436475E+01  0.12358948542E+03  0.18971941804E+03  0.25878382532E+03  0.12499508096E+03 0.  0.
          2    1    1    2  501    0 -0.20081385949E+02  0.35939497564E+02 -0.36745005141E+02  0.55182469586E+02  0.00000000000E+00 0. -1.
          1    1    1    2  502    0  0.11279142301E+02 -0.15952898298E+03  0.10639063118E+04  0.10758593568E+04  0.00000000000E+00 0. -1.
         22    1    3    3    0    0 -0.26692157340E+02  0.11932205077E+03  0.87118063534E+02  0.15013254163E+03  0.00000000000E+00 0.  1.
         22    1    3    3    0    0  0.35494400988E+02  0.42674346503E+01  0.10260135451E+03  0.10865128369E+03  0.00000000000E+00 0.  1.
</event>
<event>
 7    1  0.6888820E-006  0.5605167E+02  0.7818608E-02  0.1510319E+00
          2   -1    0    0  502    0  0.00000000000E+00  0.00000000000E+00  0.47655543392E+03  0.47655543392E+03  0.00000000000E+00 0. -1.
          1   -1    0    0  501    0 -0.00000000000E+00 -0.00000000000E+00 -0.11505439911E+03  0.11505439911E+03  0.00000000000E+00 0. -1.
         25    2    1    2    0    0 -0.33806798694E+02  0.65411128605E+02  0.30254906333E+03  0.33553482210E+03  0.12500466286E+03 0.  0.
          2    1    1    2  501    0  0.75867890339E+01 -0.55195367414E+02 -0.89256970892E+02  0.10521831972E+03  0.00000000000E+00 0. -1.
          1    1    1    2  502    0  0.26220009660E+02 -0.10215761191E+02  0.14820894237E+03  0.15085669121E+03  0.00000000000E+00 0. -1.
         22    1    3    3    0    0 -0.41046849925E+02  0.57073051555E+02  0.59118977054E+02  0.91854398645E+02  0.00000000000E+00 0.  1.
         22    1    3    3    0    0  0.72400512311E+01  0.83380770501E+01  0.24343008627E+03  0.24368042345E+03  0.00000000000E+00 0.  1.
</event>
<event>
 7    1  0.6888820E-006  0.6965348E+02  0.7818608E-02  0.1431582E+00
          2   -1    0    0  502    0  0.00000000000E+00  0.00000000000E+00  0.56673420989E+03  0.56673420989E+03  0.00000000000E+00 0. -1.
          1   -1    0    0  501    0 -0.00000000000E+00 -0.00000000000E+00 -0.51357844687E+03  0.51357844687E+03  0.00000000000E+00 0. -1.
         25    2    1    2    0    0 -0.68244034611E+02 -0.64018057682E+02 -0.16927868903E+03  0.23029479408E+03  0.12499943060E+03 0.  0.
          2    1    1    2  501    0  0.39782575695E+02  0.65278698956E+00 -0.31026636748E+03  0.31280712628E+03  0.00000000000E+00 0. -1.
          1    1    1    2  502    0  0.28461458916E+02  0.63365270692E+02  0.53270081954E+03  0.53721073640E+03  0.00000000000E+00 0. -1.
         22    1    3    3    0    0 -0.53220774904E+02 -0.65526116017E+02 -0.18809506080E+03  0.20616952893E+03  0.00000000000E+00 0.  1.
         22    1    3    3    0    0 -0.15023259707E+02  0.15080583349E+01  0.18816371768E+02  0.24125265152E+02  0.00000000000E+00 0.  1.
</event>
<event>
 7    1  0.6888820E-006  0.9446401E+02  0.7818608E-02  0.1401336E+00
          2   -1    0    0  502    0  0.00000000000E+00  0.00000000000E+00  0.16470355330E+03  0.16470355330E+03  0.00000000000E+00 0. -1.
          1   -1    0    0  501    0 -0.00000000000E+00 -0.00000000000E+00 -0.62791351614E+03  0.62791351614E+03  0.00000000000E+00 0. -1.
         25    2    1    2    0    0  0.71451205345E+02 -0.40251212804E+02 -0.35464247646E+03  0.38486563052E+03  0.12499933029E+03 0.  0.
          2    1    1    2  501    0  0.23110680729E+02  0.28979553100E+02 -0.24144425275E+03  0.24427289094E+03  0.00000000000E+00 0. -1.
          1    1    1    2  502    0 -0.94561886074E+02  0.11271659704E+02  0.13287676637E+03  0.16347854798E+03  0.00000000000E+00 0. -1.
         22    1    3    3    0    0 -0.32287788018E+02  0.87535264342E+01 -0.10314534744E+03  0.10843471851E+03  0.00000000000E+00 0.  1.
         22    1    3    3    0    0  0.10373899336E+03 -0.49004739239E+02 -0.25149712902E+03  0.27643091201E+03  0.00000000000E+00 0.  1.
</event>
<event>
 7    1  0.6888820E-006  0.1408694E+03  0.7818608E-02  0.1236220E+00
          2   -1    0    0  502    0  0.00000000000E+00  0.00000000000E+00  0.28017921026E+03  0.28017921026E+03  0.00000000000E+00 0. -1.
          1   -1    0    0  501    0 -0.00000000000E+00 -0.00000000000E+00 -0.31124515027E+04  0.31124515027E+04  0.00000000000E+00 0. -1.
         25    2    1    2    0    0 -0.46640934222E+02  0.33915225556E+02  0.30412225532E+02  0.14098180185E+03  0.12500138288E+03 0.  0.
          2    1    1    2  501    0 -0.89161075990E+02 -0.10906187959E+03 -0.30242981184E+04  0.30275771336E+04  0.00000000000E+00 0. -1.
          1    1    1    2  502    0  0.13580201021E+03  0.75146654035E+02  0.16161360047E+03  0.22407177744E+03  0.00000000000E+00 0. -1.
         22    1    3    3    0    0 -0.26414933776E+02 -0.42850606402E+02  0.35243295108E+02  0.61449272132E+02  0.00000000000E+00 0. -1.
         22    1    3    3    0    0 -0.20226000446E+02  0.76765831958E+02 -0.48310695761E+01  0.79532529719E+02  0.00000000000E+00 0. -1.
</event>
<event>
 7    1  0.6888820E-006  0.3191151E+02  0.7818608E-02  0.1616657E+00
          2   -1    0    0  502    0  0.00000000000E+00  0.00000000000E+00  0.43284026997E+03  0.43284026997E+03  0.00000000000E+00 0. -1.
          1   -1    0    0  501    0 -0.00000000000E+00 -0.00000000000E+00 -0.19266062471E+04  0.19266062471E+04  0.00000000000E+00 0. -1.
         25    2    1    2    0    0 -0.32128636825E+02  0.18083450368E+02 -0.14173688885E+04  0.14233475057E+04  0.12499718139E+03 0.  0.
          2    1    1    2  501    0  0.31658391184E+02  0.71606100336E+01 -0.50535619723E+03  0.50639748631E+03  0.00000000000E+00 0. -1.
          1    1    1    2  502    0  0.47024564041E+00 -0.25244060401E+02  0.42895910865E+03  0.42970152502E+03  0.00000000000E+00 0. -1.
         22    1    3    3    0    0  0.16485512059E+01 -0.46167234495E+02 -0.29119325605E+03  0.29483494303E+03  0.00000000000E+00 0.  1.
         22    1    3    3    0    0 -0.33777188031E+02  0.64250684863E+02 -0.11261756325E+04  0.11285125627E+04  0.00000000000E+00 0.  1.
</event>
<event>
 7    1  0.6888820E-006  0.1246655E+03  0.7818608E-02  0.1336615E+00
          2   -1    0    0  502    0  0.00000000000E+00  0.00000000000E+00  0.13689684597E+04  0.13689684597E+04  0.00000000000E+00 0. -1.
          1   -1    0    0  501    0 -0.00000000000E+00 -0.00000000000E+00 -0.12766836525E+03  0.12766836525E+03  0.00000000000E+00 0. -1.
         25    2    1    2    0    0 -0.84465000949E+02  0.11944047040E+03  0.57311424577E+02  0.20077049263E+03  0.12499531578E+03 0.  0.
          2    1    1    2  501    0  0.48038591318E+02 -0.88452871499E+00 -0.41881462939E+02  0.63738101516E+02  0.00000000000E+00 0. -1.
          1    1    1    2  502    0  0.36426409631E+02 -0.11855594168E+03  0.12258701328E+04  0.12321282308E+04  0.00000000000E+00 0. -1.
         22    1    3    3    0    0 -0.11203303420E+03  0.10552074589E+03  0.67772335757E+02  0.16816396183E+03  0.00000000000E+00 0.  1.
         22    1    3    3    0    0  0.27568033251E+02  0.13919724511E+02 -0.10460911180E+02  0.32606530796E+02  0.00000000000E+00 0.  1.
</event>
<event>
 7    1  0.9453071E-006  0.4306784E+02  0.7818608E-02  0.1495627E+00
          2   -1    0    0  502    0  0.00000000000E+00  0.00000000000E+00  0.18769167943E+04  0.18769167943E+04  0.00000000000E+00 0. -1.
          1   -1    0    0  501    0 -0.00000000000E+00 -0.00000000000E+00 -0.88285163175E+03  0.88285163175E+03  0.00000000000E+00 0. -1.
         25    2    1    2    0    0 -0.35278056083E+02  0.43062726726E+02 -0.14125089568E+03  0.19666830933E+03  0.12501067431E+03 0.  0.
          2    1    1    2  501    0 -0.52184241868E+01 -0.42849082258E+02 -0.71301752404E+03  0.71432294195E+03  0.00000000000E+00 0. -1.
          1    1    1    2  502    0  0.40496480270E+02 -0.21364446759E+00  0.18483335823E+04  0.18487771748E+04  0.00000000000E+00 0. -1.
         22    1    3    3    0    0 -0.63094520967E+02  0.66497875062E+02 -0.12907129046E+03  0.15831071974E+03  0.00000000000E+00 0. -1.
         22    1    3    3    0    0  0.27816464883E+02 -0.23435148336E+02 -0.12179605225E+02  0.38357589595E+02  0.00000000000E+00 0. -1.
</event>
<event>
 7    1  0.6888820E-006  0.1181420E+03  0.7818608E-02  0.1399704E+00
          2   -1    0    0  502    0  0.00000000000E+00  0.00000000000E+00  0.22054779636E+04  0.22054779636E+04  0.00000000000E+00 0. -1.
          1   -1    0    0  501    0 -0.00000000000E+00 -0.00000000000E+00 -0.19013027616E+03  0.19013027616E+03  0.00000000000E+00 0. -1.
         25    2    1    2    0    0 -0.55886249905E+02 -0.72873080663E+02  0.43009430169E+03  0.45720939526E+03  0.12500225579E+03 0.  0.
          2    1    1    2  501    0  0.61346496910E+02  0.10239495195E+03 -0.15625539462E+03  0.19663129765E+03  0.00000000000E+00 0. -1.
          1    1    1    2  502    0 -0.54602470049E+01 -0.29521871283E+02  0.17415087803E+04  0.17417675468E+04  0.00000000000E+00 0. -1.
         22    1    3    3    0    0 -0.37322796418E+02 -0.99773331351E+02  0.21826005398E+03  0.24286860634E+03  0.00000000000E+00 0. -1.
         22    1    3    3    0    0 -0.18563453487E+02  0.26900250688E+02  0.21183424771E+03  0.21434078892E+03  0.00000000000E+00 0. -1.
</event>
<event>
 7    1  0.6888820E-006  0.1321855E+03  0.7818608E-02  0.1257590E+00
          2   -1    0    0  502    0  0.00000000000E+00  0.00000000000E+00  0.21689633393E+04  0.21689633393E+04  0.00000000000E+00 0. -1.
          1   -1    0    0  501    0 -0.00000000000E+00 -0.00000000000E+00 -0.38678233350E+02  0.38678233350E+02  0.00000000000E+00 0. -1.
         25    2    1    2    0    0  0.21212316955E+03 -0.35370383645E+02  0.11658077689E+04  0.11920487157E+04  0.12500033368E+03 0.  0.
          2    1    1    2  501    0 -0.11853422608E+03  0.24120210194E+02  0.13698354264E+03  0.18274747124E+03  0.00000000000E+00 0. -1.
          1    1    1    2  502    0 -0.93588943469E+02  0.11250173451E+02  0.82749379444E+03  0.83284538576E+03  0.00000000000E+00 0. -1.
         22    1    3    3    0    0  0.17524569429E+03  0.24262285889E+02  0.89447839243E+03  0.91180661679E+03  0.00000000000E+00 0. -1.
         22    1    3    3    0    0  0.36877475254E+02 -0.59632669534E+02  0.27132937649E+03  0.28024209891E+03  0.00000000000E+00 0. -1.
</event>
<event>
 7    1  0.6888820E-006  0.8631108E+02  0.7818608E-02  0.1412465E+00
          2   -1    0    0  502    0  0.00000000000E+00  0.00000000000E+00  0.19057725082E+04  0.19057725082E+04  0.00000000000E+00 0. -1.
          1   -1    0    0  501    0 -0.00000000000E+00 -0.00000000000E+00 -0.14790013712E+04  0.14790013712E+04  0.00000000000E+00 0. -1.
         25    2    1    2    0    0 -0.93538889510E+02  0.57223508419E+02  0.10835959820E+04  0.10962800127E+04  0.12500224057E+03 0.  0.
          2    1    1    2  501    0  0.57115849695E+02 -0.64681350461E+02 -0.14709707402E+04  0.14734995134E+04  0.00000000000E+00 0. -1.
          1    1    1    2  502    0  0.36423039815E+02  0.74578420417E+01  0.81414589517E+03  0.81499435327E+03  0.00000000000E+00 0. -1.
         22    1    3    3    0    0 -0.84343750776E+02  0.68040862309E+02  0.10732641834E+04  0.10787212033E+04  0.00000000000E+00 0. -1.
         22    1    3    3    0    0 -0.91951387339E+01 -0.10817353890E+02  0.10331798661E+02  0.17558809330E+02  0.00000000000E+00 0. -1.
</event>
<event>
 7    1  0.6888820E-006  0.8324295E+02  0.7818608E-02  0.1430974E+00
          2   -1    0    0  502    0  0.00000000000E+00  0.00000000000E+00  0.89804373763E+03  0.89804373763E+03  0.00000000000E+00 0. -1.
          1   -1    0    0  501    0 -0.00000000000E+00 -0.00000000000E+00 -0.41624591070E+03  0.41624591070E+03  0.00000000000E+00 0. -1.
         25    2    1    2    0    0  0.63514728860E+02 -0.13524183672E+01  0.11521097151E+03  0.18147801555E+03  0.12499900942E+03 0.  0.
          2    1    1    2  501    0  0.16839419459E+02  0.28897464194E+02 -0.37996931122E+03  0.38143847073E+03  0.00000000000E+00 0. -1.
          1    1    1    2  502    0 -0.80354148319E+02 -0.27545045827E+02  0.74655616664E+03  0.75137316205E+03  0.00000000000E+00 0. -1.
         22    1    3    3    0    0 -0.29137045286E+02  0.17858939040E+02  0.67157559771E+02  0.75352816444E+02  0.00000000000E+00 0. -1.
         22    1    3    3    0    0  0.92651774146E+02 -0.19211357407E+02  0.48053411735E+02  0.10612519911E+03  0.00000000000E+00 0. -1.
</event>
<event>
 7    1  0.6888820E-006  0.1016998E+03  0.7818608E-02  0.1434055E+00
          2   -1    0    0  502    0  0.00000000000E+00  0.00000000000E+00  0.11603084206E+04  0.11603084206E+04  0.00000000000E+00 0. -1.
          1   -1    0    0  501    0 -0.00000000000E+00 -0.00000000000E+00 -0.40294320173E+03  0.40294320173E+03  0.00000000000E+00 0. -1.
         25    2    1    2    0    0 -0.31055057190E+02 -0.10805018316E+03  0.11939915420E+03  0.20620399057E+03  0.12499867618E+03 0.  0.
          2    1    1    2  501    0 -0.18189483519E+02  0.19608899267E+02 -0.35647037203E+03  0.35747236589E+03  0.00000000000E+00 0. -1.
          1    1    1    2  502    0  0.49244540709E+02  0.88441283891E+02  0.99443643670E+03  0.99957526587E+03  0.00000000000E+00 0. -1.
         22    1    3    3    0    0 -0.59827917267E+02 -0.45543017570E+01  0.51926647800E+02  0.79350476374E+02  0.00000000000E+00 0.  1.
         22    1    3    3    0    0  0.28772860076E+02 -0.10349588140E+03  0.67472506398E+02  0.12685351420E+03  0.00000000000E+00 0.  1.
</event>
<event>
 7    1  0.6888820E-006  0.1732186E+03  0.7818608E-02  0.1294501E+00
          2   -1    0    0  502    0  0.00000000000E+00  0.00000000000E+00  0.29085262604E+03  0.29085262604E+03  0.00000000000E+00 0. -1.
          1   -1    0    0  501    0 -0.00000000000E+00 -0.00000000000E+00 -0.12296798566E+04  0.12296798566E+04  0.00000000000E+00 0. -1.
         25    2    1    2    0    0 -0.81453533213E+02 -0.10746063682E+03  0.54538809597E+02  0.19178520080E+03  0.12499845980E+03 0.  0.
          2    1    1    2  501    0  0.76734299438E+02  0.15775117640E+03 -0.11504469874E+04  0.11637447560E+04  0.00000000000E+00 0. -1.
          1    1    1    2  502    0  0.47192337755E+01 -0.50290539581E+02  0.15708094724E+03  0.16500252581E+03  0.00000000000E+00 0. -1.
         22    1    3    3    0    0 -0.22319160578E+02  0.25322029045E+02 -0.60779370647E+01  0.34297104875E+02  0.00000000000E+00 0.  1.
         22    1    3    3    0    0 -0.59134372635E+02 -0.13278266586E+03  0.60616746662E+02  0.15748809592E+03  0.00000000000E+00 0.  1.
</event>
<event>
 7    1  0.6888820E-006  0.1776721E+03  0.7818608E-02  0.1300689E+00
          2   -1    0    0  502    0  0.00000000000E+00  0.00000000000E+00  0.29524968548E+04  0.29524968548E+04  0.00000000000E+00 0. -1.
          1   -1    0    0  501    0 -0.00000000000E+00 -0.00000000000E+00 -0.23069188826E+02  0.23069188826E+02  0.00000000000E+00 0. -1.
         25    2    1    2    0    0 -0.36291648299E+02  0.15535706734E+03  0.11187078440E+04  0.11369188545E+04  0.12499735720E+03 0.  0.
          2    1    1    2  501    0  0.32097425302E+02  0.33652378349E+02  0.51866803990E+02  0.69662706204E+02  0.00000000000E+00 0. -1.
          1    1    1    2  502    0  0.41942229969E+01 -0.18900944569E+03  0.17588530179E+04  0.17689844829E+04  0.00000000000E+00 0. -1.
         22    1    3    3    0    0 -0.43868959963E+02  0.30200478405E+02  0.63480649043E+03  0.63703676098E+03  0.00000000000E+00 0.  1.
         22    1    3    3    0    0  0.75773116642E+01  0.12515658893E+03  0.48390135360E+03  0.49988209352E+03  0.00000000000E+00 0.  1.
</event>
<event>
 7    1  0.6888820E-006  0.7695837E+02  0.7818608E-02  0.1338853E+00
          2   -1    0    0  502    0  0.00000000000E+00  0.00000000000E+00  0.10882883684E+04  0.10882883684E+04  0.00000000000E+00 0. -1.
          1   -1    0    0  501    0 -0.00000000000E+00 -0.00000000000E+00 -0.27104552106E+02  0.27104552106E+02  0.00000000000E+00 0. -1.
         25    2    1    2    0    0  0.17332889686E+02 -0.82904251453E+01  0.32018898776E+03  0.34426013398E+03  0.12499956700E+03 0.  0.
          2    1    1    2  501    0  0.76320544022E+02 -0.13168355046E+01  0.11454673010E+03  0.13764996503E+03  0.00000000000E+00 0. -1.
          1    1    1    2  502    0 -0.93653433708E+02  0.96072606499E+01  0.62644809842E+03  0.63348282148E+03  0.00000000000E+00 0. -1.
         22    1    3    3    0    0  0.31439721859E+02  0.33260931016E+02  0.28318490645E+03  0.28685961180E+03  0.00000000000E+00 0.  1.
         22    1    3    3    0    0 -0.14106832174E+02 -0.41551356161E+02  0.37004081316E+02  0.57400522183E+02  0.00000000000E+00 0.  1.
</event>
<event>
 7    1  0.6888820E-006  0.4699836E+02  0.7818608E-02  0.1484363E+00
          2   -1    0    0  502    0  0.00000000000E+00  0.00000000000E+00  0.10484307300E+04  0.10484307300E+04  0.00000000000E+00 0. -1.
          1   -1    0    0  501    0 -0.00000000000E+00 -0.00000000000E+00 -0.49907678335E+03  0.49907678335E+03  0.00000000000E+00 0. -1.
         25    2    1    2    0    0  0.70582921676E+02  0.41423653830E+02  0.21836552869E+03  0.26458748281E+03  0.12500065605E+03 0.  0.
          2    1    1    2  501    0 -0.25715834241E+02 -0.30820215912E+02 -0.47445917540E+03  0.47615407061E+03  0.00000000000E+00 0. -1.
          1    1    1    2  502    0 -0.44867087435E+02 -0.10603437918E+02  0.80544759339E+03  0.80676595994E+03  0.00000000000E+00 0. -1.
         22    1    3    3    0    0 -0.27733878234E+02  0.19512643658E+02  0.13884382042E+02  0.36642698169E+02  0.00000000000E+00 0. -1.
         22    1    3    3    0    0  0.98316799910E+02  0.21911010172E+02  0.20448114665E+03  0.22794478464E+03  0.00000000000E+00 0. -1.
</event>
<event>
 7    1  0.6888820E-006  0.6741194E+02  0.7818608E-02  0.1392883E+00
          2   -1    0    0  502    0  0.00000000000E+00  0.00000000000E+00  0.83725375297E+03  0.83725375297E+03  0.00000000000E+00 0. -1.
          1   -1    0    0  501    0 -0.00000000000E+00 -0.00000000000E+00 -0.10268403222E+03  0.10268403222E+03  0.00000000000E+00 0. -1.
         25    2    1    2    0    0 -0.69187837803E+02  0.38502778764E+02  0.59070364265E+03  0.60895395043E+03  0.12499879773E+03 0.  0.
          2    1    1    2  501    0  0.65462673593E+02  0.16924299149E+02 -0.77444362930E+02  0.10280769857E+03  0.00000000000E+00 0. -1.
          1    1    1    2  502    0  0.37251642102E+01 -0.55427077913E+02  0.22131044104E+03  0.22817613619E+03  0.00000000000E+00 0. -1.
         22    1    3    3    0    0 -0.31121768958E+02 -0.10904761568E+02  0.29351143551E+02  0.44147117184E+02  0.00000000000E+00 0.  1.
         22    1    3    3    0    0 -0.38066068845E+02  0.49407540332E+02  0.56135249910E+03  0.56480683325E+03  0.00000000000E+00 0.  1.
</event>
<event>
 7    1  0.7681471E-006  0.4956357E+02  0.7818608E-02  0.1488253E+00
          2   -1    0    0  502    0  0.00000000000E+00  0.00000000000E+00  0.22035145245E+04  0.22035145245E+04  0.00000000000E+00 0. -1.
          1   -1    0    0  501    0 -0.00000000000E+00 -0.00000000000E+00 -0.69483856713E+03  0.69483856713E+03  0.00000000000E+00 0. -1.
         25    2    1    2    0    0 -0.22969222626E+02  0.45235733040E+01 -0.36702755399E+03  0.38843843242E+03  0.12500856966E+03 0.  0.
          2    1    1    2  501    0  0.53957997500E+02  0.15764676583E+02 -0.31445647779E+03  0.31944149221E+03  0.00000000000E+00 0. -1.
          1    1    1    2  502    0 -0.30988774874E+02 -0.20288249887E+02  0.21901599892E+04  0.21904731670E+04  0.00000000000E+00 0. -1.
         22    1    3    3    0    0 -0.36309545475E+02  0.46962332268E+02 -0.89687566375E+02  0.10755325800E+03  0.00000000000E+00 0.  1.
         22    1    3    3    0    0  0.13340322849E+02 -0.42438758964E+02 -0.27733998762E+03  0.28088517442E+03  0.00000000000E+00 0.  1.
</event>
<event>
 7    1  0.6888820E-006  0.8780040E+02  0.7818608E-02  0.1381399E+00
          2   -1    0    0  502    0  0.00000000000E+00  0.00000000000E+00  0.99217725239E+03  0.99217725239E+03  0.00000000000E+00 0. -1.
          1   -1    0    0  501    0 -0.00000000000E+00 -0.00000000000E+00 -0.19609733063E+03  0.19609733063E+03  0.00000000000E+00 0. -1.
         25    2    1    2    0    0 -0.22834245731E+02 -0.79767442063E+02 -0.94397961034E+02  0.17725420970E+03  0.12499532878E+03 0.  0.
          2    1    1    2  501    0  0.68572417698E+02  0.69886096402E+02 -0.19506568286E+02  0.99833607295E+02  0.00000000000E+00 0. -1.
          1    1    1    2  502    0 -0.45738171967E+02  0.98813456602E+01  0.90998445108E+03  0.91118676602E+03  0.00000000000E+00 0. -1.
         22    1    3    3    0    0 -0.26255105456E+02 -0.62577960392E+02  0.12435562589E+02  0.68992571384E+02  0.00000000000E+00 0.  1.
         22    1    3    3    0    0  0.34208597249E+01 -0.17189481671E+02 -0.10683352362E+03  0.10826163832E+03  0.00000000000E+00 0.  1.
</event>
<event>
 7    1  0.6888820E-006  0.1419559E+03  0.7818608E-02  0.1316233E+00
          2   -1    0    0  502    0  0.00000000000E+00  0.00000000000E+00  0.97092174527E+02  0.97092174527E+02  0.00000000000E+00 0. -1.
          1   -1    0    0  501    0 -0.00000000000E+00 -0.00000000000E+00 -0.12110995684E+04  0.12110995684E+04  0.00000000000E+00 0. -1.
         25    2    1    2    0    0  0.51870143861E+02  0.91216413122E+02 -0.40091193682E+02  0.16805642544E+03  0.12499884989E+03 0.  0.
          2    1    1    2  501    0 -0.10066201737E+03 -0.10435905933E+03 -0.10795931586E+04  0.10892864835E+04  0.00000000000E+00 0. -1.
          1    1    1    2  502    0  0.48791873506E+02  0.13142646204E+02  0.56769583530E+01  0.50848834063E+02  0.00000000000E+00 0. -1.
         22    1    3    3    0    0  0.50696371273E+02  0.11675989828E+03 -0.54768094829E+02  0.13857323016E+03  0.00000000000E+00 0.  1.
         22    1    3    3    0    0  0.11737725877E+01 -0.25543485160E+02  0.14676901147E+02  0.29483195272E+02  0.00000000000E+00 0.  1.
</event>
<event>
 7    1  0.6888820E-006  0.8868053E+02  0.7818608E-02  0.1369526E+00
          2   -1    0    0  502    0  0.00000000000E+00  0.00000000000E+00  0.12822558336E+04  0.12822558336E+04  0.00000000000E+00 0. -1.
          1   -1    0    0  501    0 -0.00000000000E+00 -0.00000000000E+00 -0.15838641268E+03  0.15838641268E+03  0.00000000000E+00 0. -1.
         25    2    1    2    0    0 -0.12811386251E+03 -0.35802521136E+02  0.33200043853E+03  0.37887214700E+03  0.12499932121E+03 0.  0.
          2    1    1    2  501    0  0.43493711199E+02  0.26771951857E+02 -0.12808310627E+03  0.13789025503E+03  0.00000000000E+00 0. -1.
          1    1    1    2  502    0  0.84620151309E+02  0.90305692793E+01  0.91995208869E+03  0.92387984428E+03  0.00000000000E+00 0. -1.
         22    1    3    3    0    0  0.42681317300E+01 -0.54807682511E+01  0.15796290300E+03  0.15811557322E+03  0.00000000000E+00 0. -1.
         22    1    3    3    0    0 -0.13238199424E+03 -0.30321752885E+02  0.17403753553E+03  0.22075657378E+03  0.00000000000E+00 0. -1.
</event>
<event>
 7    1  0.6888820E-006  0.6845731E+02  0.7818608E-02  0.1383487E+00
          2   -1    0    0  502    0  0.00000000000E+00  0.00000000000E+00  0.56282241584E+03  0.56282241584E+03  0.00000000000E+00 0. -1.
          1   -1    0    0  501    0 -0.00000000000E+00 -0.00000000000E+00 -0.46675859947E+03  0.46675859947E+03  0.00000000000E+00 0. -1.
         25    2    1    2    0    0 -0.21523370949E+02 -0.72489559291E+02 -0.22502506660E+02  0.14781863862E+03  0.12500398160E+03 0.  0.
          2    1    1    2  501    0 -0.40669850834E+02  0.42750638792E+02 -0.37691633251E+03  0.38150697975E+03  0.00000000000E+00 0. -1.
          1    1    1    2  502    0  0.62193221783E+02  0.29738920500E+02  0.49548265554E+03  0.50025539695E+03  0.00000000000E+00 0. -1.
         22    1    3    3    0    0 -0.56093749672E+02 -0.76571946023E+01 -0.43508699860E+02  0.71401318930E+02  0.00000000000E+00 0.  1.
         22    1    3    3    0    0  0.34570378723E+02 -0.64832364689E+02  0.21006193199E+02  0.76417319692E+02  0.00000000000E+00 0.  1.
</event>
<event>
 7    1  0.6888820E-006  0.1246929E+03  0.7818608E-02  0.1313023E+00
          2   -1    0    0  502    0  0.00000000000E+00  0.00000000000E+00  0.19225886624E+04  0.19225886624E+04  0.00000000000E+00 0. -1.
          1   -1    0    0  501    0 -0.00000000000E+00 -0.00000000000E+00 -0.10114769564E+03  0.10114769564E+03  0.00000000000E+00 0. -1.
         25    2    1    2    0    0 -0.17326992089E+03  0.95157613445E+01  0.64346744054E+03  0.67807675650E+03  0.12499890188E+03 0.  0.
          2    1    1    2  501    0  0.56438469805E+02 -0.17919132531E+02 -0.70292502199E+02  0.91909912687E+02  0.00000000000E+00 0. -1.
          1    1    1    2  502    0  0.11683145108E+03  0.84033711870E+01  0.12482660284E+04  0.12537496888E+04  0.00000000000E+00 0. -1.
         22    1    3    3    0    0 -0.35504733864E+02  0.55269004856E+02  0.15124102591E+03  0.16489116696E+03  0.00000000000E+00 0.  1.
         22    1    3    3    0    0 -0.13776518702E+03 -0.45753243511E+02  0.49222641464E+03  0.51318558954E+03  0.00000000000E+00 0.  1.
</event>
<event>
 7    1  0.6888820E-006  0.5757475E+02  0.7818608E-02  0.1409945E+00
          2   -1    0    0  502    0  0.00000000000E+00  0.00000000000E+00  0.10472135957E+03  0.10472135957E+03  0.00000000000E+00 0. -1.
          1   -1    0    0  501    0 -0.00000000000E+00 -0.00000000000E+00 -0.74542271068E+03  0.74542271068E+03  0.00000000000E+00 0. -1.
         25    2    1    2    0    0  0.69518476508E+02 -0.22523639828E+02 -0.12229607285E+02  0.14526480386E+03  0.12494865753E+03 0.  0.
          2    1    1    2  501    0 -0.20637896869E+02  0.53748756912E+02 -0.64260530589E+03  0.64517937879E+03  0.00000000000E+00 0. -1.
          1    1    1    2  502    0 -0.48880579639E+02 -0.31225117085E+02  0.14133562063E+02  0.59699887599E+02  0.00000000000E+00 0. -1.
         22    1    3    3    0    0  0.79391905995E+02  0.23597926130E+02 -0.38434078125E+02  0.91307804795E+02  0.00000000000E+00 0. -1.
         22    1    3    3    0    0 -0.98734294871E+01 -0.46121565958E+02  0.26204470840E+02  0.53956999066E+02  0.00000000000E+00 0. -1.
</event>
<event>
 7    1  0.6888820E-006  0.1347303E+03  0.7818608E-02  0.1329541E+00
          2   -1    0    0  502    0  0.00000000000E+00  0.00000000000E+00  0.31141922844E+04  0.31141922844E+04  0.00000000000E+00 0. -1.
          1   -1    0    0  501    0 -0.00000000000E+00 -0.00000000000E+00 -0.45261467767E+03  0.45261467767E+03  0.00000000000E+00 0. -1.
         25    2    1    2    0    0 -0.45636533518E+02 -0.79256869451E+02 -0.30112488271E+03  0.33863238048E+03  0.12502539573E+03 0.  0.
          2    1    1    2  501    0 -0.12188866167E+01 -0.47282164065E+02 -0.12700282103E+03  0.13552418704E+03  0.00000000000E+00 0. -1.
          1    1    1    2  502    0  0.46855420135E+02  0.12653903352E+03  0.30897053104E+04  0.30926503945E+04  0.00000000000E+00 0. -1.
         22    1    3    3    0    0 -0.64416869734E+02 -0.14939374008E+02 -0.63266935584E+02  0.91517337922E+02  0.00000000000E+00 0.  1.
         22    1    3    3    0    0  0.18780336216E+02 -0.64317495443E+02 -0.23785794712E+03  0.24711504256E+03  0.00000000000E+00 0.  1.
</event>
<event>
 7    1  0.6888820E-006  0.1246073E+03  0.7818608E-02  0.1291605E+00
          2   -1    0    0  502    0  0.00000000000E+00  0.00000000000E+00  0.12851157046E+03  0.12851157046E+03  0.00000000000E+00 0. -1.
          1   -1    0    0  501    0 -0.00000000000E+00 -0.00000000000E+00 -0.25387764176E+04  0.25387764176E+04  0.00000000000E+00 0. -1.
         25    2    1    2    0    0 -0.13629931771E+03  0.11884545787E+03 -0.82213656310E+03  0.85102009488E+03  0.12499970656E+03 0.  0.
          2    1    1    2  501    0  0.10388197279E+03 -0.54401532544E+02 -0.16885525344E+04  0.16926194648E+04  0.00000000000E+00 0. -1.
          1    1    1    2  502    0  0.32417344921E+02 -0.64443925327E+02  0.10042425043E+03  0.12364842837E+03  0.00000000000E+00 0. -1.
         22    1    3    3    0    0 -0.29228659166E+02  0.92506642375E+02 -0.24622022286E+03  0.26464351786E+03  0.00000000000E+00 0.  1.
         22    1    3    3    0    0 -0.10707065854E+03  0.26338815495E+02 -0.57591634024E+03  0.58637657702E+03  0.00000000000E+00 0.  1.
</event>
<event>
 7    1  0.6888820E-006  0.1192734E+03  0.7818608E-02  0.1379564E+00
          2   -1    0    0  502    0  0.00000000000E+00  0.00000000000E+00  0.22261805644E+04  0.22261805644E+04  0.00000000000E+00 0. -1.
          1   -1    0    0  501    0 -0.00000000000E+00 -0.00000000000E+00 -0.59857105918E+03  0.59857105918E+03  0.00000000000E+00 0. -1.
         25    2    1    2    0    0  0.10678517916E+03  0.75595348364E+02  0.10501437982E+04  0.10656194429E+04  0.12500027621E+03 0.  0.
          2    1    1    2  501    0 -0.75888762134E+02 -0.91964751309E+02 -0.58455209969E+03  0.59658844856E+03  0.00000000000E+00 0. -1.
          1    1    1    2  502    0 -0.30896417029E+02  0.16369402945E+02  0.11620178067E+04  0.11625437321E+04  0.00000000000E+00 0. -1.
         22    1    3    3    0    0  0.64584240531E+02 -0.19104856043E+02  0.25497877629E+03  0.26372390109E+03  0.00000000000E+00 0.  1.
         22    1    3    3    0    0  0.42200938631E+02  0.94700204407E+02  0.79516502191E+03  0.80189554183E+03  0.00000000000E+00 0.  1.
</event>
<event>
 7    1  0.8886516E-006  0.1059156E+03  0.7818608E-02  0.1346952E+00
          2   -1    0    0  502    0  0.00000000000E+00  0.00000000000E+00  0.85389442667E+03  0.85389442667E+03  0.00000000000E+00 0. -1.
          1   -1    0    0  501    0 -0.00000000000E+00 -0.00000000000E+00 -0.24632598335E+04  0.24632598335E+04  0.00000000000E+00 0. -1.
         25    2    1    2    0    0 -0.97317595549E+02 -0.12038594579E+03 -0.52502756453E+03  0.56146458523E+03  0.12500018642E+03 0.  0.
          2    1    1    2  501    0  0.21169885366E+02  0.47190066522E+02 -0.19163259931E+04  0.19170238336E+04  0.00000000000E+00 0. -1.
          1    1    1    2  502    0  0.76147710183E+02  0.73195879271E+02  0.83198815080E+03  0.83866584143E+03  0.00000000000E+00 0. -1.
         22    1    3    3    0    0  0.44334575512E+01 -0.50830851408E+02 -0.30525560825E+03  0.30949057719E+03  0.00000000000E+00 0.  1.
         22    1    3    3    0    0 -0.10175105310E+03 -0.69555094384E+02 -0.21977195628E+03  0.25197400804E+03  0.00000000000E+00 0.  1.
</event>
<event>
 7    1  0.6888820E-006  0.6628442E+02  0.7818608E-02  0.1481552E+00
          2   -1    0    0  502    0  0.00000000000E+00  0.00000000000E+00  0.34105774398E+03  0.34105774398E+03  0.00000000000E+00 0. -1.
          1   -1    0    0  501    0 -0.00000000000E+00 -0.00000000000E+00 -0.11573513829E+03  0.11573513829E+03  0.00000000000E+00 0. -1.
         25    2    1    2    0    0  0.90081719490E+02  0.21866587688E+02  0.58865368244E+02  0.16638438669E+03  0.12500307481E+03 0.  0.
          2    1    1    2  501    0 -0.27025457528E+02 -0.10597682032E+02 -0.53742373035E+02  0.61081330032E+02  0.00000000000E+00 0. -1.
          1    1    1    2  502    0 -0.63056261962E+02 -0.11268905656E+02  0.22019961048E+03  0.22932716556E+03  0.00000000000E+00 0. -1.
         22    1    3    3    0    0  0.62898983784E+02  0.70282715162E+02  0.58250430382E+02  0.11085600954E+03  0.00000000000E+00 0.  1.
         22    1    3    3    0    0  0.27182735706E+02 -0.48416127474E+02  0.61493786260E+00  0.55528377148E+02  0.00000000000E+00 0.  1.
</event>
<event>
 7    1  0.6888820E-006  0.3798545E+03  0.7818608E-02  0.1057424E+00
          2   -1    0    0  502    0  0.00000000000E+00  0.00000000000E+00  0.71291526502E+03  0.71291526502E+03  0.00000000000E+00 0. -1.
          1   -1    0    0  501    0 -0.00000000000E+00 -0.00000000000E+00 -0.10055071992E+04  0.10055071992E+04  0.00000000000E+00 0. -1.
         25    2    1    2    0    0  0.49176769154E+03  0.15424735354E+03 -0.63461096377E+03  0.82703538475E+03  0.12501497419E+03 0.  0.
          2    1    1    2  501    0 -0.14872172166E+03 -0.31327588939E+03 -0.45741319265E+02  0.34978879578E+03  0.00000000000E+00 0. -1.
          1    1    1    2  502    0 -0.34304596989E+03  0.15902853585E+03  0.38776034890E+03  0.54159828365E+03  0.00000000000E+00 0. -1.
         22    1    3    3    0    0  0.28796023448E+03  0.14262715254E+03 -0.33236720531E+03  0.46231110786E+03  0.00000000000E+00 0. -1.
         22    1    3    3    0    0  0.20380745706E+03  0.11620200995E+02 -0.30224375846E+03  0.36472427689E+03  0.00000000000E+00 0. -1.
</event>
<event>
 7    1  0.6888820E-006  0.6595632E+02  0.7818608E-02  0.1402465E+00
          2   -1    0    0  502    0  0.00000000000E+00  0.00000000000E+00  0.10681842392E+03  0.10681842392E+03  0.00000000000E+00 0. -1.
          1   -1    0    0  501    0 -0.00000000000E+00 -0.00000000000E+00 -0.16326358807E+04  0.16326358807E+04  0.00000000000E+00 0. -1.
         25    2    1    2    0    0 -0.83205362088E+02 -0.59333354010E+02 -0.53946927730E+03  0.56311100343E+03  0.12499328724E+03 0.  0.
          2    1    1    2  501    0  0.62853444739E+02  0.10812966630E+02 -0.10730400542E+04  0.10749336880E+04  0.00000000000E+00 0. -1.
          1    1    1    2  502    0  0.20351917349E+02  0.48520387380E+02  0.86691874634E+02  0.10140961325E+03  0.00000000000E+00 0. -1.
         22    1    3    3    0    0 -0.11147020134E+03 -0.62773757799E+02 -0.37566761332E+03  0.39685300320E+03  0.00000000000E+00 0.  1.
         22    1    3    3    0    0  0.28264839252E+02  0.34404037886E+01 -0.16380166399E+03  0.16625800023E+03  0.00000000000E+00 0.  1.
</event>
<event>
 7    1  0.6888820E-006  0.5692789E+02  0.7818608E-02  0.1465210E+00
          2   -1    0    0  502    0  0.00000000000E+00  0.00000000000E+00  0.38861210629E+03  0.38861210629E+03  0.00000000000E+00 0. -1.
          1   -1    0    0  501    0 -0.00000000000E+00 -0.00000000000E+00 -0.41356873484E+03  0.41356873484E+03  0.00000000000E+00 0. -1.
         25    2    1    2    0    0 -0.38761146403E+02 -0.53868405642E+01  0.89177270261E+02  0.15845681422E+03  0.12499812767E+03 0.  0.
          2    1    1    2  501    0  0.37642456115E+02  0.43346725394E+02 -0.37537363749E+03  0.37973841105E+03  0.00000000000E+00 0. -1.
          1    1    1    2  502    0  0.11186902882E+01 -0.37959884830E+02  0.26123973867E+03  0.26398561587E+03  0.00000000000E+00 0. -1.
         22    1    3    3    0    0 -0.70900500353E+02 -0.11490236413E+02  0.10077175620E+03  0.12374915487E+03  0.00000000000E+00 0. -1.
         22    1    3    3    0    0  0.32139353949E+02  0.61033958484E+01 -0.11594485943E+02  0.34707659348E+02  0.00000000000E+00 0. -1.
</event>
<event>
 7    1  0.6888820E-006  0.6451663E+02  0.7818608E-02  0.1424737E+00
          2   -1    0    0  502    0  0.00000000000E+00  0.00000000000E+00  0.20668012118E+04  0.20668012118E+04  0.00000000000E+00 0. -1.
          1   -1    0    0  501    0 -0.00000000000E+00 -0.00000000000E+00 -0.44937839323E+02  0.44937839323E+02  0.00000000000E+00 0. -1.
         25    2    1    2    0    0  0.41472435145E+02 -0.44675487887E+02  0.16212397279E+03  0.21359923784E+03  0.12499835903E+03 0.  0.
          2    1    1    2  501    0 -0.40464883478E+02 -0.20251954677E+02  0.88443964214E+01  0.46106092994E+02  0.00000000000E+00 0. -1.
          1    1    1    2  502    0 -0.10075516672E+01  0.64927442564E+02  0.18508950032E+04  0.18520337202E+04  0.00000000000E+00 0. -1.
         22    1    3    3    0    0  0.34178565291E+02  0.24406950994E+02  0.56222413993E+01  0.42373142207E+02  0.00000000000E+00 0. -1.
         22    1    3    3    0    0  0.72938698543E+01 -0.69082438881E+02  0.15650173139E+03  0.17122609564E+03  0.00000000000E+00 0. -1.
</event>
<event>
 7    1  0.6888820E-006  0.8539819E+02  0.7818608E-02  0.1314645E+00
          2   -1    0    0  502    0  0.00000000000E+00  0.00000000000E+00  0.36245595347E+04  0.36245595347E+04  0.00000000000E+00 0. -1.
          1   -1    0    0  501    0 -0.00000000000E+00 -0.00000000000E+00 -0.73789898025E+03  0.73789898025E+03  0.00000000000E+00 0. -1.
         25    2    1    2    0    0 -0.26535020413E+02 -0.22249955797E+02 -0.11228458511E+03  0.17155340550E+03  0.12499430005E+03 0.  0.
          2    1    1    2  501    0 -0.23546644708E+02  0.91183459382E+02 -0.59175113788E+03  0.59919802814E+03  0.00000000000E+00 0. -1.
          1    1    1    2  502    0  0.50081665121E+02 -0.68933503585E+02  0.35906962774E+04  0.35917070813E+04  0.00000000000E+00 0. -1.
         22    1    3    3    0    0 -0.28151768077E+02  0.15166031432E+02  0.17514541881E+02  0.36459425840E+02  0.00000000000E+00 0. -1.
         22    1    3    3    0    0  0.16167476635E+01 -0.37415987229E+02 -0.12979912699E+03  0.13509397966E+03  0.00000000000E+00 0. -1.
</event>
<event>
 7    1  0.6888820E-006  0.1144746E+03  0.7818608E-02  0.1308346E+00
          2   -1    0    0  502    0  0.00000000000E+00  0.00000000000E+00  0.47285326976E+02  0.47285326976E+02  0.00000000000E+00 0. -1.
          1   -1    0    0  501    0 -0.00000000000E+00 -0.00000000000E+00 -0.11251354390E+04  0.11251354390E+04  0.00000000000E+00 0. -1.
         25    2    1    2    0    0 -0.71757696940E+02  0.27017537438E+02 -0.27068571583E+03  0.30785124900E+03  0.12499008104E+03 0.  0.
          2    1    1    2  501    0 -0.66304584217E+02 -0.11494362328E+02 -0.65528388359E+03  0.65873013165E+03  0.00000000000E+00 0. -1.
          1    1    1    2  502    0  0.13806228116E+03 -0.15523175110E+02 -0.15188051263E+03  0.20583938535E+03  0.00000000000E+00 0. -1.
         22    1    3    3    0    0 -0.68653235462E+02  0.71877551756E+02 -0.20985818992E+03  0.23220703922E+03  0.00000000000E+00 0. -1.
         22    1    3    3    0    0 -0.31044614781E+01 -0.44860014318E+02 -0.60827525905E+02  0.75644209781E+02  0.00000000000E+00 0. -1.
</event>
<event>
 7    1  0.6888820E-006  0.3665099E+02  0.7818608E-02  0.1572755E+00
          2   -1    0    0  502    0  0.00000000000E+00  0.00000000000E+00  0.44418677464E+03  0.44418677464E+03  0.00000000000E+00 0. -1.
          1   -1    0    0  501    0 -0.00000000000E+00 -0.00000000000E+00 -0.64589511834E+02  0.64589511834E+02  0.00000000000E+00 0. -1.
         25    2    1    2    0    0  0.33271522668E+02  0.25588903824E+02  0.82221008172E+02  0.15539350059E+03  0.12500023848E+03 0.  0.
          2    1    1    2  501    0  0.34169211424E+01 -0.28478153276E+02 -0.19302590147E+02  0.34572685034E+02  0.00000000000E+00 0. -1.
          1    1    1    2  502    0 -0.36688443810E+02  0.28892494519E+01  0.31667884478E+03  0.31881010085E+03  0.00000000000E+00 0. -1.
         22    1    3    3    0    0  0.67426362015E+02 -0.22691054082E+02  0.56739949982E+02  0.90997912909E+02  0.00000000000E+00 0.  1.
         22    1    3    3    0    0 -0.34154839347E+02  0.48279957906E+02  0.25481058190E+02  0.64395587681E+02  0.00000000000E+00 0.  1.
</event>
<event>
 7    1  0.6888820E-006  0.7485541E+02  0.7818608E-02  0.1455934E+00
          2   -1    0    0  502    0  0.00000000000E+00  0.00000000000E+00  0.63388636911E+03  0.63388636911E+03  0.00000000000E+00 0. -1.
          1   -1    0    0  501    0 -0.00000000000E+00 -0.00000000000E+00 -0.21881581272E+03  0.21881581272E+03  0.00000000000E+00 0. -1.
         25    2    1    2    0    0  0.44255582975E+02 -0.64865675400E+01 -0.97384356208E+02  0.16465254215E+03  0.12500445840E+03 0.  0.
          2    1    1    2  501    0  0.30891573764E+02  0.26724712020E+00 -0.82625014840E+02  0.88211415520E+02  0.00000000000E+00 0. -1.
          1    1    1    2  502    0 -0.75147156739E+02  0.62193204198E+01  0.59507992744E+03  0.59983822416E+03  0.00000000000E+00 0. -1.
         22    1    3    3    0    0 -0.49356437867E+01  0.41307079836E+02 -0.85446651707E+02  0.95035602340E+02  0.00000000000E+00 0. -1.
         22    1    3    3    0    0  0.49191226762E+02 -0.47793647376E+02 -0.11937704501E+02  0.69616939810E+02  0.00000000000E+00 0. -1.
</event>
<event>
 7    1  0.6888820E-006  0.1303881E+03  0.7818608E-02  0.1370085E+00
          2   -1    0    0  502    0  0.00000000000E+00  0.00000000000E+00  0.64585966184E+03  0.64585966184E+03  0.00000000000E+00 0. -1.
          1   -1    0    0  501    0 -0.00000000000E+00 -0.00000000000E+00 -0.11338719194E+04  0.11338719194E+04  0.00000000000E+00 0. -1.
         25    2    1    2    0    0  0.56379252452E+02 -0.13732677212E+03 -0.24268298591E+03  0.31073571651E+03  0.12499756565E+03 0.  0.
          2    1    1    2  501    0 -0.33279484236E+02  0.93783317209E+01 -0.84989981585E+03  0.85060282985E+03  0.00000000000E+00 0. -1.
          1    1    1    2  502    0 -0.23099768217E+02  0.12794844040E+03  0.60457054419E+03  0.61839303489E+03  0.00000000000E+00 0. -1.
         22    1    3    3    0    0  0.23908009156E+02  0.89423963924E+01  0.14276905801E-02  0.25525660757E+02  0.00000000000E+00 0. -1.
         22    1    3    3    0    0  0.32471243297E+02 -0.14626916851E+03 -0.24268441360E+03  0.28521005576E+03  0.00000000000E+00 0. -1.
</event>
<event>
 7    1  0.6888820E-006  0.4911360E+02  0.7818608E-02  0.1538763E+00
          2   -1    0    0  502    0  0.00000000000E+00  0.00000000000E+00  0.28093418991E+03  0.28093418991E+03  0.00000000000E+00 0. -1.
          1   -1    0    0  501    0 -0.00000000000E+00 -0.00000000000E+00 -0.29708252533E+04  0.29708252533E+04  0.00000000000E+00 0. -1.
         25    2    1    2    0    0  0.50224741171E+02 -0.43115590419E+02 -0.18733185482E+02  0.14267652696E+03  0.12499672134E+03 0.  0.
          2    1    1    2  501    0 -0.46084070400E+02  0.16856776225E+02 -0.28891044444E+04  0.28895211338E+04  0.00000000000E+00 0. -1.
          1    1    1    2  502    0 -0.41406707708E+01  0.26258814194E+02  0.21794656644E+03  0.21956178242E+03  0.00000000000E+00 0. -1.
         22    1    3    3    0    0  0.16050416792E+02  0.24287517160E+02  0.38221905944E+02  0.48045951578E+02  0.00000000000E+00 0. -1.
         22    1    3    3    0    0  0.34174324379E+02 -0.67403107579E+02 -0.56955091427E+02  0.94630575384E+02  0.00000000000E+00 0. -1.
</event>
<event>
 7    1  0.6888820E-006  0.4866994E+02  0.7818608E-02  0.1568376E+00
          2   -1    0    0  502    0  0.00000000000E+00  0.00000000000E+00  0.49161814190E+03  0.49161814190E+03  0.00000000000E+00 0. -1.
          1   -1    0    0  501    0 -0.00000000000E+00 -0.00000000000E+00 -0.43338417072E+03  0.43338417072E+03  0.00000000000E+00 0. -1.
         25    2    1    2    0    0 -0.21314232853E+02  0.41397929705E+02 -0.38325413402E+01  0.13345418766E+03  0.12500898658E+03 0.  0.
          2    1    1    2  501    0 -0.18189429098E+02 -0.12725046840E+02 -0.36300499866E+03  0.36368311921E+03  0.00000000000E+00 0. -1.
          1    1    1    2  502    0  0.39503661951E+02 -0.28672882865E+02  0.42507151118E+03  0.42786500574E+03  0.00000000000E+00 0. -1.
         22    1    3    3    0    0  0.24172961615E+02 -0.19307909164E+02  0.36251248533E+02  0.47657952639E+02  0.00000000000E+00 0. -1.
         22    1    3    3    0    0 -0.45487194468E+02  0.60705838869E+02 -0.40083789874E+02  0.85796235022E+02  0.00000000000E+00 0. -1.
</event>
<event>
 7    1  0.6888820E-006  0.4028537E+03  0.7818608E-02  0.1148567E+00
          2   -1    0    0  502    0  0.00000000000E+00  0.00000000000E+00  0.22300487943E+04  0.22300487943E+04  0.00000000000E+00 0. -1.
          1   -1    0    0  501    0 -0.00000000000E+00 -0.00000000000E+00 -0.85775180194E+03  0.85775180194E+03  0.00000000000E+00 0. -1.
         25    2    1    2    0    0 -0.13116385276E+03  0.36698726565E+03  0.74077081608E+03  0.84631521546E+03  0.12499773016E+03 0.  0.
          2    1    1    2  501    0  0.89802402814E+02  0.45523844766E+02 -0.77172918918E+03  0.77826912660E+03  0.00000000000E+00 0. -1.
          1    1    1    2  502    0  0.41361449950E+02 -0.41251111041E+03  0.14032553654E+04  0.14632162541E+04  0.00000000000E+00 0. -1.
         22    1    3    3    0    0  0.95723635961E+01  0.15096969469E+03  0.28633477990E+03  0.32383805372E+03  0.00000000000E+00 0.  1.
         22    1    3    3    0    0 -0.14073621636E+03  0.21601757096E+03  0.45443603618E+03  0.52247716174E+03  0.00000000000E+00 0.  1.
</event>
<event>
 7    1  0.6888820E-006  0.4754972E+02  0.7818608E-02  0.1488824E+00
          2   -1    0    0  502    0  0.00000000000E+00  0.00000000000E+00  0.56805729117E+03  0.56805729117E+03  0.00000000000E+00 0. -1.
          1   -1    0    0  501    0 -0.00000000000E+00 -0.00000000000E+00 -0.17695974989E+04  0.17695974989E+04  0.00000000000E+00 0. -1.
         25    2    1    2    0    0 -0.72281437018E+02  0.32398076767E+02 -0.13004683616E+02  0.14855416747E+03  0.12499990944E+03 0.  0.
          2    1    1    2  501    0  0.38451442362E+02  0.48530590631E+00 -0.16874862748E+04  0.16879243693E+04  0.00000000000E+00 0. -1.
          1    1    1    2  502    0  0.33829994656E+02 -0.32883382673E+02  0.49895075060E+03  0.50117625335E+03  0.00000000000E+00 0. -1.
         22    1    3    3    0    0 -0.33666144556E+02 -0.32619930528E+02  0.35423013155E+02  0.58755927513E+02  0.00000000000E+00 0. -1.
         22    1    3    3    0    0 -0.38615292462E+02  0.65018007295E+02 -0.48427696772E+02  0.89798239956E+02  0.00000000000E+00 0. -1.
</event>
<event>
 7    1  0.6888820E-006  0.7245118E+02  0.7818608E-02  0.1377629E+00
          2   -1    0    0  502    0  0.00000000000E+00  0.00000000000E+00  0.51427502314E+02  0.51427502314E+02  0.00000000000E+00 0. -1.
          1   -1    0    0  501    0 -0.00000000000E+00 -0.00000000000E+00 -0.25537033425E+04  0.25537033425E+04  0.00000000000E+00 0. -1.
         25    2    1    2    0    0 -0.21895581414E+02  0.26257194736E+02 -0.19769036278E+03  0.23639133279E+03  0.12502210174E+03 0.  0.
          2    1    1    2  501    0 -0.13588061084E+02 -0.72740412979E+02 -0.23089150914E+04  0.23101005827E+04  0.00000000000E+00 0. -1.
          1    1    1    2  502    0  0.35483642498E+02  0.46483218243E+02  0.43296140451E+01  0.58638929227E+02  0.00000000000E+00 0. -1.
         22    1    3    3    0    0  0.30250868397E+02  0.46692678098E+02 -0.15864281169E+03  0.16811562369E+03  0.00000000000E+00 0. -1.
         22    1    3    3    0    0 -0.52146449811E+02 -0.20435483363E+02 -0.39047551089E+02  0.68275709108E+02  0.00000000000E+00 0. -1.
</event>
<event>
 7    1  0.6888820E-006  0.6033553E+02  0.7818608E-02  0.1402537E+00
          2   -1    0    0  502    0  0.00000000000E+00  0.00000000000E+00  0.75627258747E+03  0.75627258747E+03  0.00000000000E+00 0. -1.
          1   -1    0    0  501    0 -0.00000000000E+00 -0.00000000000E+00 -0.69836424561E+02  0.69836424561E+02  0.00000000000E+00 0. -1.
         25    2    1    2    0    0  0.73095514700E+02 -0.47362161060E+02  0.26029664529E+03  0.30160085028E+03  0.12499040271E+03 0.  0.
          2    1    1    2  501    0 -0.59262700041E+02 -0.84336378045E+01 -0.28465319868E+02  0.66283242965E+02  0.00000000000E+00 0. -1.
          1    1    1    2  502    0 -0.13832814659E+02  0.55795798865E+02  0.45460483749E+03  0.45822491879E+03  0.00000000000E+00 0. -1.
         22    1    3    3    0    0  0.10178012313E+03 -0.98455976990E+01  0.14914375375E+03  0.18083138152E+03  0.00000000000E+00 0. -1.
         22    1    3    3    0    0 -0.28684608430E+02 -0.37516563361E+02  0.11115289154E+03  0.12076946876E+03  0.00000000000E+00 0. -1.
</event>
<event>
 7    1  0.6888820E-006  0.2581600E+02  0.7818608E-02  0.1668824E+00
          2   -1    0    0  502    0  0.00000000000E+00  0.00000000000E+00  0.11233867453E+04  0.11233867453E+04  0.00000000000E+00 0. -1.
          1   -1    0    0  501    0 -0.00000000000E+00 -0.00000000000E+00 -0.48284550506E+02  0.48284550506E+02  0.00000000000E+00 0. -1.
         25    2    1    2    0    0  0.16845801790E+01  0.41156650817E+01  0.36041576406E+03  0.38150343051E+03  0.12500227199E+03 0.  0.
          2    1    1    2  501    0 -0.10472653263E+02  0.20682203311E+02 -0.33927694109E+02  0.41091585850E+02  0.00000000000E+00 0. -1.
          1    1    1    2  502    0  0.87880730845E+01 -0.24797868392E+02  0.74861412486E+03  0.74907627946E+03  0.00000000000E+00 0. -1.
         22    1    3    3    0    0  0.59542730668E+02 -0.86919256873E+01  0.12479135404E+03  0.13854157640E+03  0.00000000000E+00 0.  1.
         22    1    3    3    0    0 -0.57858150489E+02  0.12807590769E+02  0.23562441001E+03  0.24296185411E+03  0.00000000000E+00 0.  1.
</event>
<event>
 7    1  0.6888820E-006  0.1472064E+03  0.7818608E-02  0.1317603E+00
          2   -1    0    0  502    0  0.00000000000E+00  0.00000000000E+00  0.90466043231E+03  0.90466043231E+03  0.00000000000E+00 0. -1.
          1   -1    0    0  501    0 -0.00000000000E+00 -0.00000000000E+00 -0.61874889623E+03  0.61874889623E+03  0.00000000000E+00 0. -1.
         25    2    1    2    0    0 -0.35046934250E+02  0.13783480360E+03  0.33547136231E+03  0.38521776853E+03  0.12499989431E+03 0.  0.
          2    1    1    2  501    0  0.80944654724E+02 -0.12333686385E+03 -0.58361477230E+03  0.60197194416E+03  0.00000000000E+00 0. -1.
          1    1    1    2  502    0 -0.45897720473E+02 -0.14497939752E+02  0.53405494607E+03  0.53621961585E+03  0.00000000000E+00 0. -1.
         22    1    3    3    0    0 -0.30918075860E+02  0.86548595208E+02  0.31778932914E+03  0.33081209842E+03  0.00000000000E+00 0.  1.
         22    1    3    3    0    0 -0.41288583906E+01  0.51286208394E+02  0.17682033173E+02  0.54405670110E+02  0.00000000000E+00 0.  1.
</event>
<event>
 7    1  0.6888820E-006  0.1016442E+03  0.7818608E-02  0.1453436E+00
          2   -1    0    0  502    0  0.00000000000E+00  0.00000000000E+00  0.24567529755E+04  0.24567529755E+04  0.00000000000E+00 0. -1.
          1   -1    0    0  501    0 -0.00000000000E+00 -0.00000000000E+00 -0.10221810807E+02  0.10221810807E+02  0.00000000000E+00 0. -1.
         25    2    1    2    0    0 -0.62650779334E+02  0.55839224321E+02  0.18167483562E+04  0.18229764385E+04  0.12500146517E+03 0.  0.
          2    1    1    2  501    0  0.84255280022E+02 -0.64213169560E+02  0.42913530566E+03  0.44201741360E+03  0.00000000000E+00 0. -1.
          1    1    1    2  502    0 -0.21604500687E+02  0.83739452394E+01  0.20064750278E+03  0.20198093420E+03  0.00000000000E+00 0. -1.
         22    1    3    3    0    0  0.25686295159E+02  0.45036534541E+02  0.10109300061E+04  0.10122586391E+04  0.00000000000E+00 0.  1.
         22    1    3    3    0    0 -0.88337074493E+02  0.10802689780E+02  0.80581835012E+03  0.81071779938E+03  0.00000000000E+00 0.  1.
</event>
<event>
 7    1  0.6888820E-006  0.3547263E+02  0.7818608E-02  0.1584344E+00
          2   -1    0    0  502    0  0.00000000000E+00  0.00000000000E+00  0.14258046819E+03  0.14258046819E+03  0.00000000000E+00 0. -1.
          1   -1    0    0  501    0 -0.00000000000E+00 -0.00000000000E+00 -0.44408510526E+03  0.44408510526E+03  0.00000000000E+00 0. -1.
         25    2    1    2    0    0  0.70750977321E+01  0.98347531523E+01 -0.36627889208E+02  0.13081844444E+03  0.12500033504E+03 0.  0.
          2    1    1    2  501    0 -0.68866948113E+01  0.26711572364E+02 -0.35631214700E+03  0.35737834400E+03  0.00000000000E+00 0. -1.
          1    1    1    2  502    0 -0.18840292076E+00 -0.36546325516E+02  0.91435399145E+02  0.98468785009E+02  0.00000000000E+00 0. -1.
         22    1    3    3    0    0  0.38272874974E+02 -0.44070181223E+02 -0.35912276305E+02  0.68532367690E+02  0.00000000000E+00 0.  1.
         22    1    3    3    0    0 -0.31197777242E+02  0.53904934375E+02 -0.71561290307E+00  0.62286076748E+02  0.00000000000E+00 0.  1.
</event>
<event>
 7    1  0.6888820E-006  0.3251666E+02  0.7818608E-02  0.1631841E+00
          2   -1    0    0  502    0  0.00000000000E+00  0.00000000000E+00  0.64608947333E+02  0.64608947333E+02  0.00000000000E+00 0. -1.
          1   -1    0    0  501    0 -0.00000000000E+00 -0.00000000000E+00 -0.14986098855E+04  0.14986098855E+04  0.00000000000E+00 0. -1.
         25    2    1    2    0    0 -0.15767564630E+02 -0.47648779139E+02 -0.15165032474E+03  0.20283193276E+03  0.12499579874E+03 0.  0.
          2    1    1    2  501    0 -0.37801929781E+01  0.22361160798E+02 -0.13147089833E+04  0.13149045677E+04  0.00000000000E+00 0. -1.
          1    1    1    2  502    0  0.19547757608E+02  0.25287618340E+02  0.32358369807E+02  0.45482332453E+02  0.00000000000E+00 0. -1.
         22    1    3    3    0    0 -0.25035457519E+02 -0.81654181393E+02 -0.59272571079E+02  0.10395872813E+03  0.00000000000E+00 0. -1.
         22    1    3    3    0    0  0.92678928888E+01  0.34005402254E+02 -0.92377753664E+02  0.98873204627E+02  0.00000000000E+00 0. -1.
</event>
<event>
 7    1  0.6888820E-006  0.1128513E+03  0.7818608E-02  0.1286166E+00
          2   -1    0    0  502    0  0.00000000000E+00  0.00000000000E+00  0.88410176374E+03  0.88410176374E+03  0.00000000000E+00 0. -1.
          1   -1    0    0  501    0 -0.00000000000E+00 -0.00000000000E+00 -0.64179225736E+03  0.64179225736E+03  0.00000000000E+00 0. -1.
         25    2    1    2    0    0  0.84426282412E+02  0.10884728483E+02 -0.15077101841E+03  0.21354798485E+03  0.12499826945E+03 0.  0.
          2    1    1    2  501    0 -0.10370929089E+03  0.70689645675E+02 -0.44894476624E+03  0.46615882074E+03  0.00000000000E+00 0. -1.
          1    1    1    2  502    0  0.19283008476E+02 -0.81574374158E+02  0.84202529103E+03  0.84618721550E+03  0.00000000000E+00 0. -1.
         22    1    3    3    0    0  0.17333936382E+02  0.54766126616E+02 -0.21298727960E+02  0.61265241269E+02  0.00000000000E+00 0. -1.
         22    1    3    3    0    0  0.67092346030E+02 -0.43881398133E+02 -0.12947229045E+03  0.15228274358E+03  0.00000000000E+00 0. -1.
</event>
<event>
 7    1  0.6888820E-006  0.1411949E+03  0.7818608E-02  0.1381834E+00
          2   -1    0    0  502    0  0.00000000000E+00  0.00000000000E+00  0.30546573977E+04  0.30546573977E+04  0.00000000000E+00 0. -1.
          1   -1    0    0  501    0 -0.00000000000E+00 -0.00000000000E+00 -0.41939937937E+02  0.41939937937E+02  0.00000000000E+00 0. -1.
         25    2    1    2    0    0  0.92811577769E+02 -0.70986843476E+02  0.30033240257E+03  0.34565495280E+03  0.12499869378E+03 0.  0.
          2    1    1    2  501    0  0.12459282961E+02 -0.26181822175E+02 -0.53071126582E+01  0.29476889067E+02  0.00000000000E+00 0. -1.
          1    1    1    2  502    0 -0.10527086073E+03  0.97168665651E+02  0.27176921698E+04  0.27214654937E+04  0.00000000000E+00 0. -1.
         22    1    3    3    0    0  0.98382425416E+01 -0.81403938031E+02  0.10537049851E+03  0.13351529538E+03  0.00000000000E+00 0. -1.
         22    1    3    3    0    0  0.82973335228E+02  0.10417094555E+02  0.19496190405E+03  0.21213965742E+03  0.00000000000E+00 0. -1.
</event>
<event>
 7    1  0.6888820E-006  0.9981210E+02  0.7818608E-02  0.1298009E+00
          2   -1    0    0  502    0  0.00000000000E+00  0.00000000000E+00  0.21708016158E+03  0.21708016158E+03  0.00000000000E+00 0. -1.
          1   -1    0    0  501    0 -0.00000000000E+00 -0.00000000000E+00 -0.92172652108E+03  0.92172652108E+03  0.00000000000E+00 0. -1.
         25    2    1    2    0    0  0.31509523574E+02  0.57356920934E+01 -0.29874907344E+03  0.32542609371E+03  0.12500154137E+03 0.  0.
          2    1    1    2  501    0 -0.70513205973E+02  0.86140135505E+02 -0.59190656908E+03  0.60228367210E+03  0.00000000000E+00 0. -1.
          1    1    1    2  502    0  0.39003682400E+02 -0.91875827598E+02  0.18600928301E+03  0.21109691685E+03  0.00000000000E+00 0. -1.
         22    1    3    3    0    0 -0.47940415766E+02 -0.22582692069E+01 -0.13424353587E+03  0.14256475780E+03  0.00000000000E+00 0.  1.
         22    1    3    3    0    0  0.79449939340E+02  0.79939613003E+01 -0.16450553757E+03  0.18286133591E+03  0.00000000000E+00 0.  1.
</event>
<event>
 7    1  0.6888820E-006  0.2374989E+02  0.7818608E-02  0.1710601E+00
          2   -1    0    0  502    0  0.00000000000E+00  0.00000000000E+00  0.15218806171E+03  0.15218806171E+03  0.00000000000E+00 0. -1.
          1   -1    0    0  501    0 -0.00000000000E+00 -0.00000000000E+00 -0.20469132229E+03  0.20469132229E+03  0.00000000000E+00 0. -1.
         25    2    1    2    0    0  0.16874220695E+02  0.90821757519E+01  0.13952588553E+02  0.12723071223E+03  0.12500301663E+03 0.  0.
          2    1    1    2  501    0 -0.30628163829E+01 -0.23725770224E+02 -0.14582116651E+03  0.14777044907E+03  0.00000000000E+00 0. -1.
          1    1    1    2  502    0 -0.13811404312E+02  0.14643594473E+02  0.79365317380E+02  0.81878222691E+02  0.00000000000E+00 0. -1.
         22    1    3    3    0    0  0.18725087860E+02 -0.34358022749E+02 -0.41319254498E+02  0.56906796035E+02  0.00000000000E+00 0.  1.
         22    1    3    3    0    0 -0.18508671655E+01  0.43440198501E+02  0.55271843051E+02  0.70323916198E+02  0.00000000000E+00 0.  1.
</event>
<event>
 7    1  0.6888820E-006  0.5611402E+02  0.7818608E-02  0.1436562E+00
          2   -1    0    0  502    0  0.00000000000E+00  0.00000000000E+00  0.15676914425E+04  0.15676914425E+04  0.00000000000E+00 0. -1.
          1   -1    0    0  501    0 -0.00000000000E+00 -0.00000000000E+00 -0.11729510371E+04  0.11729510371E+04  0.00000000000E+00 0. -1.
         25    2    1    2    0    0 -0.63650331359E+02  0.56241968866E+02  0.24861689391E+03  0.29094506963E+03  0.12499659940E+03 0.  0.
          2    1    1    2  501    0  0.55277021961E+02 -0.94158144725E+01 -0.11506681440E+04  0.11520335865E+04  0.00000000000E+00 0. -1.
          1    1    1    2  502    0  0.83733093976E+01 -0.46826154393E+02  0.12967916555E+04  0.12976638235E+04  0.00000000000E+00 0. -1.
         22    1    3    3    0    0 -0.17199442079E+02  0.86252335400E+01 -0.11527842022E+02  0.22430037965E+02  0.00000000000E+00 0. -1.
         22    1    3    3    0    0 -0.46450889280E+02  0.47616735326E+02  0.26014473593E+03  0.26851503167E+03  0.00000000000E+00 0. -1.
</event>
<event>
 7    1  0.6888820E-006  0.4820319E+02  0.7818608E-02  0.1481720E+00
          2   -1    0    0  502    0  0.00000000000E+00  0.00000000000E+00  0.97085756715E+03  0.97085756715E+03  0.00000000000E+00 0. -1.
          1   -1    0    0  501    0 -0.00000000000E+00 -0.00000000000E+00 -0.96394134620E+03  0.96394134620E+03  0.00000000000E+00 0. -1.
         25    2    1    2    0    0  0.11506499622E+02  0.31285046713E+01 -0.11374370607E+03  0.16942618970E+03  0.12500166404E+03 0.  0.
          2    1    1    2  501    0  0.16568790747E+02  0.36264728510E+02 -0.82125208994E+03  0.82221934458E+03  0.00000000000E+00 0. -1.
          1    1    1    2  502    0 -0.28075290369E+02 -0.39393233181E+02  0.94191201696E+03  0.94315337907E+03  0.00000000000E+00 0. -1.
         22    1    3    3    0    0 -0.27879686602E+02  0.49156699276E+02 -0.24572153182E+02  0.61623442948E+02  0.00000000000E+00 0. -1.
         22    1    3    3    0    0  0.39386186224E+02 -0.46028194605E+02 -0.89171552887E+02  0.10780274676E+03  0.00000000000E+00 0. -1.
</event>
<event>
 7    1  0.6888820E-006  0.2789339E+02  0.7818608E-02  0.1673497E+00
          2   -1    0    0  502    0  0.00000000000E+00  0.00000000000E+00  0.93377147219E+03  0.93377147219E+03  0.00000000000E+00 0. -1.
          1   -1    0    0  501    0 -0.00000000000E+00 -0.00000000000E+00 -0.78858296554E+02  0.78858296554E+02  0.00000000000E+00 0. -1.
         25    2    1    2    0    0  0.77355324462E+01 -0.39075449420E+02  0.49002379985E+03  0.50728176253E+03  0.12499893187E+03 0.  0.
          2    1    1    2  501    0  0.88949393556E+01  0.26397784880E+02 -0.67204224397E+02  0.72748682253E+02  0.00000000000E+00 0. -1.
          1    1    1    2  502    0 -0.16630471802E+02  0.12677664541E+02  0.43209360019E+03  0.43259932396E+03  0.00000000000E+00 0. -1.
         22    1    3    3    0    0  0.34546298372E+02 -0.24997083633E+02  0.47933135207E+02  0.64155174165E+02  0.00000000000E+00 0.  1.
         22    1    3    3    0    0 -0.26810765926E+02 -0.14078365787E+02  0.44209066464E+03  0.44312658836E+03  0.00000000000E+00 0.  1.
</event>
<event>
 7    1  0.6888820E-006  0.4084147E+03  0.7818608E-02  0.1177894E+00
          2   -1    0    0  502    0  0.00000000000E+00  0.00000000000E+00  0.27661349014E+04  0.27661349014E+04  0.00000000000E+00 0. -1.
          1   -1    0    0  501    0 -0.00000000000E+00 -0.00000000000E+00 -0.87960320543E+03  0.87960320543E+03  0.00000000000E+00 0. -1.
         25    2    1    2    0    0  0.33519329506E+03  0.74603880915E+02 -0.34350792803E+03  0.50154075586E+03  0.12500059626E+03 0.  0.
          2    1    1    2  501    0  0.70252142384E+02 -0.81600921385E+01 -0.43852438458E+03  0.44419093472E+03  0.00000000000E+00 0. -1.
          1    1    1    2  502    0 -0.40544543745E+03 -0.66443788777E+02  0.26685640086E+04  0.27000064162E+04  0.00000000000E+00 0. -1.
         22    1    3    3    0    0  0.11465695918E+03  0.38049610880E+02 -0.20682138564E+03  0.23951842671E+03  0.00000000000E+00 0.  1.
         22    1    3    3    0    0  0.22053633588E+03  0.36554270035E+02 -0.13668654239E+03  0.26202232915E+03  0.00000000000E+00 0.  1.
</event>
<event>
 7    1  0.6888820E-006  0.4891341E+02  0.7818608E-02  0.1451447E+00
          2   -1    0    0  502    0  0.00000000000E+00  0.00000000000E+00  0.26258299832E+03  0.26258299832E+03  0.00000000000E+00 0. -1.
          1   -1    0    0  501    0 -0.00000000000E+00 -0.00000000000E+00 -0.99268009835E+03  0.99268009835E+03  0.00000000000E+00 0. -1.
         25    2    1    2    0    0 -0.41243986782E+02  0.38368757468E+02  0.13236508444E+03  0.19057454935E+03  0.12499966114E+03 0.  0.
          2    1    1    2  501    0  0.47216883822E+02  0.12770570349E+02 -0.95635527620E+03  0.95760531322E+03  0.00000000000E+00 0. -1.
          1    1    1    2  502    0 -0.59728970406E+01 -0.51139327817E+02  0.93893091732E+02  0.10708323409E+03  0.00000000000E+00 0. -1.
         22    1    3    3    0    0 -0.59975235024E+02  0.73936342580E+02  0.78681819105E+02  0.12350886700E+03  0.00000000000E+00 0. -1.
         22    1    3    3    0    0  0.18731248242E+02 -0.35567585112E+02  0.53683265338E+02  0.67065682348E+02  0.00000000000E+00 0. -1.
</event>
<event>
 7    1  0.6888820E-006  0.4619784E+02  0.7818608E-02  0.1472704E+00
          2   -1    0    0  502    0  0.00000000000E+00  0.00000000000E+00  0.14911738910E+03  0.14911738910E+03  0.00000000000E+00 0. -1.
          1   -1    0    0  501    0 -0.00000000000E+00 -0.00000000000E+00 -0.75344025370E+03  0.75344025370E+03  0.00000000000E+00 0. -1.
         25    2    1    2    0    0 -0.16554524113E+02 -0.34249951239E+02 -0.30724890233E+02  0.13421918492E+03  0.12499463705E+03 0.  0.
          2    1    1    2  501    0 -0.29643464672E+02  0.35433115422E+02 -0.66463753762E+03  0.66624117036E+03  0.00000000000E+00 0. -1.
          1    1    1    2  502    0  0.46197988785E+02 -0.11831641826E+01  0.91039563249E+02  0.10209728753E+03  0.00000000000E+00 0. -1.
         22    1    3    3    0    0 -0.17291689995E+02 -0.57659615320E+02  0.31351347300E+02  0.67871501820E+02  0.00000000000E+00 0.  1.
         22    1    3    3    0    0  0.73716588198E+00  0.23409664081E+02 -0.62076237533E+02  0.66347683096E+02  0.00000000000E+00 0.  1.
</event>
<event>
 7    1  0.6888820E-006  0.2358622E+03  0.7818608E-02  0.1248044E+00
          2   -1    0    0  502    0  0.00000000000E+00  0.00000000000E+00  0.40019442010E+04  0.40019442010E+04  0.00000000000E+00 0. -1.
          1   -1    0    0  501    0 -0.00000000000E+00 -0.00000000000E+00 -0.12312933900E+04  0.12312933900E+04  0.00000000000E+00 0. -1.
         25    2    1    2    0    0 -0.20870771410E+03 -0.14028738077E+03 -0.13127129258E+03  0.30999420399E+03  0.12499918050E+03 0.  0.
          2    1    1    2  501    0  0.21910612156E+03  0.83137844200E+02 -0.99685635922E+03  0.10240322234E+04  0.00000000000E+00 0. -1.
          1    1    1    2  502    0 -0.10398407458E+02  0.57149536571E+02  0.38987784628E+04  0.38992111636E+04  0.00000000000E+00 0. -1.
         22    1    3    3    0    0 -0.96137215393E+02  0.53797933636E+01 -0.53430277389E+02  0.11011857655E+03  0.00000000000E+00 0. -1.
         22    1    3    3    0    0 -0.11257049871E+03 -0.14566717413E+03 -0.77841015188E+02  0.19987562744E+03  0.00000000000E+00 0. -1.
</event>
<event>
 7    1  0.6888820E-006  0.1093342E+03  0.7818608E-02  0.1301946E+00
          2   -1    0    0  502    0  0.00000000000E+00  0.00000000000E+00  0.49629307499E+03  0.49629307499E+03  0.00000000000E+00 0. -1.
          1   -1    0    0  501    0 -0.00000000000E+00 -0.00000000000E+00 -0.20505400858E+04  0.20505400858E+04  0.00000000000E+00 0. -1.
         25    2    1    2    0    0  0.14275965723E+03  0.51245175775E+02 -0.15235706182E+02  0.19713968106E+03  0.12500215732E+03 0.  0.
          2    1    1    2  501    0 -0.73835055288E+02 -0.80055618799E+02 -0.19393697179E+04  0.19424251389E+04  0.00000000000E+00 0. -1.
          1    1    1    2  502    0 -0.68924601945E+02  0.28810443024E+02  0.40035841327E+03  0.40726834084E+03  0.00000000000E+00 0. -1.
         22    1    3    3    0    0  0.12250503194E+03  0.81765732051E+02 -0.40367007261E+02  0.15271742881E+03  0.00000000000E+00 0.  1.
         22    1    3    3    0    0  0.20254625297E+02 -0.30520556277E+02  0.25131301079E+02  0.44422252254E+02  0.00000000000E+00 0.  1.
</event>
<event>
 7    1  0.6888820E-006  0.2327157E+03  0.7818608E-02  0.1217399E+00
          2   -1    0    0  502    0  0.00000000000E+00  0.00000000000E+00  0.77450212747E+03  0.77450212747E+03  0.00000000000E+00 0. -1.
          1   -1    0    0  501    0 -0.00000000000E+00 -0.00000000000E+00 -0.97201845972E+03  0.97201845972E+03  0.00000000000E+00 0. -1.
         25    2    1    2    0    0  0.55961208294E+02 -0.22822724477E+03  0.30525804657E+03  0.40500178864E+03  0.12499856687E+03 0.  0.
          2    1    1    2  501    0  0.74599243629E+02  0.30709063767E+02 -0.88675032315E+03  0.89041239286E+03  0.00000000000E+00 0. -1.
          1    1    1    2  502    0 -0.13056045192E+03  0.19751818100E+03  0.38397594434E+03  0.45110640570E+03  0.00000000000E+00 0. -1.
         22    1    3    3    0    0  0.55527526257E+02 -0.31753658441E+02  0.42047171857E+02  0.76547799824E+02  0.00000000000E+00 0.  1.
         22    1    3    3    0    0  0.43368203689E+00 -0.19647358633E+03  0.26321087471E+03  0.32845398882E+03  0.00000000000E+00 0.  1.
</event>
<event>
 7    1  0.6888820E-006  0.6998620E+02  0.7818608E-02  0.1498433E+00
          2   -1    0    0  502    0  0.00000000000E+00  0.00000000000E+00  0.54871721086E+03  0.54871721086E+03  0.00000000000E+00 0. -1.
          1   -1    0    0  501    0 -0.00000000000E+00 -0.00000000000E+00 -0.32305250598E+02  0.32305250598E+02  0.00000000000E+00 0. -1.
         25    2    1    2    0    0 -0.11016952568E+02  0.69944196224E+02  0.38880984873E+03  0.41450162685E+03  0.12499974546E+03 0.  0.
          2    1    1    2  501    0  0.34034012330E+02 -0.61717649563E+02  0.53481902331E+02  0.88474268235E+02  0.00000000000E+00 0. -1.
          1    1    1    2  502    0 -0.23017059761E+02 -0.82265466604E+01  0.74120209199E+02  0.78046566367E+02  0.00000000000E+00 0. -1.
         22    1    3    3    0    0  0.15639524945E+01 -0.36349151800E+02  0.10944927158E+03  0.11533798088E+03  0.00000000000E+00 0.  1.
         22    1    3    3    0    0 -0.12580905063E+02  0.10629334802E+03  0.27936057715E+03  0.29916364597E+03  0.00000000000E+00 0.  1.
</event>
<event>
 7    1  0.1094545E-005  0.1028991E+03  0.7818608E-02  0.1301377E+00
          2   -1    0    0  502    0  0.00000000000E+00  0.00000000000E+00  0.93641874911E+03  0.93641874911E+03  0.00000000000E+00 0. -1.
          1   -1    0    0  501    0 -0.00000000000E+00 -0.00000000000E+00 -0.10221620420E+04  0.10221620420E+04  0.00000000000E+00 0. -1.
         25    2    1    2    0    0 -0.10841766736E+02 -0.22973146740E+02 -0.32497116430E+03  0.34910693930E+03  0.12499635222E+03 0.  0.
          2    1    1    2  501    0 -0.60042892612E+02 -0.52550910289E+02 -0.67988089249E+03  0.68454713139E+03  0.00000000000E+00 0. -1.
          1    1    1    2  502    0  0.70884659348E+02  0.75524057029E+02  0.91910876394E+03  0.92492672038E+03  0.00000000000E+00 0. -1.
         22    1    3    3    0    0  0.22674875003E+02  0.25534313371E+02 -0.25643713332E+03  0.25870089768E+03  0.00000000000E+00 0.  1.
         22    1    3    3    0    0 -0.33516641739E+02 -0.48507460111E+02 -0.68534030979E+02  0.90406041624E+02  0.00000000000E+00 0.  1.
</event>
<event>
 7    1  0.6888820E-006  0.1305538E+03  0.7818608E-02  0.1329811E+00
          2   -1    0    0  502    0  0.00000000000E+00  0.00000000000E+00  0.40482763976E+03  0.40482763976E+03  0.00000000000E+00 0. -1.
          1   -1    0    0  501    0 -0.00000000000E+00 -0.00000000000E+00 -0.13785677218E+03  0.13785677218E+03  0.00000000000E+00 0. -1.
         25    2    1    2    0    0  0.31388313411E+02 -0.12200856379E+03  0.11842283310E+03  0.21335390267E+03  0.12499841809E+03 0.  0.
          2    1    1    2  501    0 -0.47171857540E+02 -0.12084280292E+02 -0.62228949971E+02  0.79016809531E+02  0.00000000000E+00 0. -1.
          1    1    1    2  502    0  0.15783544128E+02  0.13409284409E+03  0.21077698445E+03  0.25031369973E+03  0.00000000000E+00 0. -1.
         22    1    3    3    0    0 -0.20994854564E+02 -0.65686696522E+01 -0.17040027388E+02  0.27826136500E+02  0.00000000000E+00 0.  1.
         22    1    3    3    0    0  0.52383167975E+02 -0.11543989414E+03  0.13546286049E+03  0.18552776617E+03  0.00000000000E+00 0.  1.
</event>
<event>
 7    1  0.6888820E-006  0.7316740E+02  0.7818608E-02  0.1359811E+00
          2   -1    0    0  502    0  0.00000000000E+00  0.00000000000E+00  0.98138122003E+03  0.98138122003E+03  0.00000000000E+00 0. -1.
          1   -1    0    0  501    0 -0.00000000000E+00 -0.00000000000E+00 -0.41360914545E+03  0.41360914545E+03  0.00000000000E+00 0. -1.
         25    2    1    2    0    0 -0.11888233381E+01  0.98889014490E+01 -0.17132278819E+03  0.21230867818E+03  0.12499709357E+03 0.  0.
          2    1    1    2  501    0  0.47736020888E+02  0.47196942392E+02 -0.21526222041E+03  0.22548636899E+03  0.00000000000E+00 0. -1.
          1    1    1    2  502    0 -0.46547197550E+02 -0.57085843841E+02  0.95435708319E+03  0.95719531831E+03  0.00000000000E+00 0. -1.
         22    1    3    3    0    0 -0.28908075517E+02  0.52228320423E+02 -0.14148133410E+03  0.15355924650E+03  0.00000000000E+00 0.  1.
         22    1    3    3    0    0  0.27719252179E+02 -0.42339418974E+02 -0.29841454089E+02  0.58749431679E+02  0.00000000000E+00 0.  1.
</event>
<event>
 7    1  0.6888820E-006  0.1806528E+03  0.7818608E-02  0.1233252E+00
          2   -1    0    0  502    0  0.00000000000E+00  0.00000000000E+00  0.40592505763E+03  0.40592505763E+03  0.00000000000E+00 0. -1.
          1   -1    0    0  501    0 -0.00000000000E+00 -0.00000000000E+00 -0.22396288160E+04  0.22396288160E+04  0.00000000000E+00 0. -1.
         25    2    1    2    0    0 -0.69785185149E+02  0.80322127698E+02 -0.16984750639E+03  0.23621122907E+03  0.12500381214E+03 0.  0.
          2    1    1    2  501    0 -0.80833097744E+02  0.35083654902E+02 -0.20114239255E+04  0.20133531882E+04  0.00000000000E+00 0. -1.
          1    1    1    2  502    0  0.15061828289E+03 -0.11540578260E+03  0.34756767354E+03  0.39598945628E+03  0.00000000000E+00 0. -1.
         22    1    3    3    0    0  0.26998636416E+02  0.15092060178E+02 -0.99387561052E+00  0.30946476980E+02  0.00000000000E+00 0.  1.
         22    1    3    3    0    0 -0.96783821565E+02  0.65230067520E+02 -0.16885363078E+03  0.20526475209E+03  0.00000000000E+00 0.  1.
</event>
<event>
 7    1  0.6888820E-006  0.2744217E+03  0.7818608E-02  0.1272466E+00
          2   -1    0    0  502    0  0.00000000000E+00  0.00000000000E+00  0.12625119576E+04  0.12625119576E+04  0.00000000000E+00 0. -1.
          1   -1    0    0  501    0 -0.00000000000E+00 -0.00000000000E+00 -0.19874515184E+04  0.19874515184E+04  0.00000000000E+00 0. -1.
         25    2    1    2    0    0 -0.75979988264E+02 -0.29088995067E+03  0.56718722806E+03  0.65399985596E+03  0.12499815163E+03 0.  0.
          2    1    1    2  501    0  0.42259490946E+02  0.27075231192E+03 -0.19337850075E+04  0.19531044862E+04  0.00000000000E+00 0. -1.
          1    1    1    2  502    0  0.33720497318E+02  0.20137638745E+02  0.64165821865E+03  0.64285913387E+03  0.00000000000E+00 0. -1.
         22    1    3    3    0    0 -0.91618947445E+02 -0.26549131339E+03  0.55453163366E+03  0.62159874658E+03  0.00000000000E+00 0. -1.
         22    1    3    3    0    0  0.15638959181E+02 -0.25398637278E+02  0.12655594396E+02  0.32401109385E+02  0.00000000000E+00 0. -1.
</event>
<event>
 7    1  0.6888820E-006  0.8612948E+02  0.7818608E-02  0.1462648E+00
          2   -1    0    0  502    0  0.00000000000E+00  0.00000000000E+00  0.92746910665E+03  0.92746910665E+03  0.00000000000E+00 0. -1.
          1   -1    0    0  501    0 -0.00000000000E+00 -0.00000000000E+00 -0.43548530717E+03  0.43548530717E+03  0.00000000000E+00 0. -1.
         25    2    1    2    0    0  0.60454058113E+02 -0.31500740457E+02  0.73014517132E+03  0.74389829628E+03  0.12500285685E+03 0.  0.
          2    1    1    2  501    0 -0.83692430440E+02  0.20833780723E+02 -0.42338280569E+03  0.43207808263E+03  0.00000000000E+00 0. -1.
          1    1    1    2  502    0  0.23238372326E+02  0.10666959735E+02  0.18522143385E+03  0.18697803490E+03  0.00000000000E+00 0. -1.
         22    1    3    3    0    0  0.49942304834E+02 -0.70123550167E+02  0.30634087814E+03  0.31820791901E+03  0.00000000000E+00 0. -1.
         22    1    3    3    0    0  0.10511753280E+02  0.38622809709E+02  0.42380429317E+03  0.42569037727E+03  0.00000000000E+00 0. -1.
</event>
<event>
 7    1  0.6888820E-006  0.6621860E+02  0.7818608E-02  0.1485923E+00
          2   -1    0    0  502    0  0.00000000000E+00  0.00000000000E+00  0.25625558631E+04  0.25625558631E+04  0.00000000000E+00 0. -1.
          1   -1    0    0  501    0 -0.00000000000E+00 -0.00000000000E+00 -0.43779141178E+03  0.43779141178E+03  0.00000000000E+00 0. -1.
         25    2    1    2    0    0  0.59555409318E+02  0.86688528339E+00  0.32176684403E+03  0.35029649083E+03  0.12500452513E+03 0.  0.
          2    1    1    2  501    0  0.12439162670E+01 -0.28151423266E+02 -0.42255856985E+03  0.42349710142E+03  0.00000000000E+00 0. -1.
          1    1    1    2  502    0 -0.60799325585E+02  0.27284537983E+02  0.22255561771E+04  0.22265536826E+04  0.00000000000E+00 0. -1.
         22    1    3    3    0    0 -0.76996965147E+01 -0.12339306728E+02 -0.57833807964E+01  0.15652198260E+02  0.00000000000E+00 0. -1.
         22    1    3    3    0    0  0.67255105833E+02  0.13206192011E+02  0.32755022483E+03  0.33464429257E+03  0.00000000000E+00 0. -1.
</event>
<event>
 7    1  0.6888820E-006  0.2890086E+03  0.7818608E-02  0.1233520E+00
          2   -1    0    0  502    0  0.00000000000E+00  0.00000000000E+00  0.12824207215E+04  0.12824207215E+04  0.00000000000E+00 0. -1.
          1   -1    0    0  501    0 -0.00000000000E+00 -0.00000000000E+00 -0.76791578536E+03  0.76791578536E+03  0.00000000000E+00 0. -1.
         25    2    1    2    0    0  0.22352207777E+03 -0.25767296227E+03  0.47364626722E+03  0.59692792674E+03  0.12499875417E+03 0.  0.
          2    1    1    2  501    0 -0.18740284351E+03  0.21628828301E+03 -0.67619104765E+03  0.73425797921E+03  0.00000000000E+00 0. -1.
          1    1    1    2  502    0 -0.36119234261E+02  0.41384679252E+02  0.71704971659E+03  0.71915060093E+03  0.00000000000E+00 0. -1.
         22    1    3    3    0    0  0.29241099081E+01 -0.87049045353E+01 -0.75928452485E+01  0.11915413576E+02  0.00000000000E+00 0. -1.
         22    1    3    3    0    0  0.22059796786E+03 -0.24896805773E+03  0.48123911247E+03  0.58501251317E+03  0.00000000000E+00 0. -1.
</event>
<event>
 7    1  0.6888820E-006  0.7706746E+02  0.7818608E-02  0.1369759E+00
          2   -1    0    0  502    0  0.00000000000E+00  0.00000000000E+00  0.26663787604E+03  0.26663787604E+03  0.00000000000E+00 0. -1.
          1   -1    0    0  501    0 -0.00000000000E+00 -0.00000000000E+00 -0.42221613831E+03  0.42221613831E+03  0.00000000000E+00 0. -1.
         25    2    1    2    0    0 -0.36862293004E+02  0.71919460513E+02  0.12887806342E+03  0.19689089134E+03  0.12500092166E+03 0.  0.
          2    1    1    2  501    0  0.58156888029E+02  0.76345643591E+01 -0.36917903032E+03  0.37380966631E+03  0.00000000000E+00 0. -1.
          1    1    1    2  502    0 -0.21294595025E+02 -0.79554024872E+02  0.84722704624E+02  0.11815345670E+03  0.00000000000E+00 0. -1.
         22    1    3    3    0    0  0.26147278612E+02 -0.21938792860E+02  0.43134556909E+02  0.55005279844E+02  0.00000000000E+00 0.  1.
         22    1    3    3    0    0 -0.63009571616E+02  0.93858253373E+02  0.85743506512E+02  0.14188561150E+03  0.00000000000E+00 0.  1.
</event>
<event>
 7    1  0.6888820E-006  0.4490061E+02  0.7818608E-02  0.1508556E+00
          2   -1    0    0  502    0  0.00000000000E+00  0.00000000000E+00  0.38752959281E+03  0.38752959281E+03  0.00000000000E+00 0. -1.
          1   -1    0    0  501    0 -0.00000000000E+00 -0.00000000000E+00 -0.30801566433E+04  0.30801566433E+04  0.00000000000E+00 0. -1.
         25    2    1    2    0    0 -0.26665677784E+02 -0.68468273713E+02 -0.41391186155E+03  0.43857280866E+03  0.12499646587E+03 0.  0.
          2    1    1    2  501    0  0.29844705313E+02  0.33059789768E+02 -0.26528848369E+04  0.26532586783E+04  0.00000000000E+00 0. -1.
          1    1    1    2  502    0 -0.31790275293E+01  0.35408483945E+02  0.37416964800E+03  0.37585474912E+03  0.00000000000E+00 0. -1.
         22    1    3    3    0    0  0.28100866210E+02 -0.86209626998E+01 -0.28328110947E+03  0.28480197798E+03  0.00000000000E+00 0. -1.
         22    1    3    3    0    0 -0.54766543994E+02 -0.59847311013E+02 -0.13063075209E+03  0.15377083068E+03  0.00000000000E+00 0. -1.
</event>
<event>
 7    1  0.6888820E-006  0.1558285E+03  0.7818608E-02  0.1287785E+00
          2   -1    0    0  502    0  0.00000000000E+00  0.00000000000E+00  0.12586435057E+04  0.12586435057E+04  0.00000000000E+00 0. -1.
          1   -1    0    0  501    0 -0.00000000000E+00 -0.00000000000E+00 -0.25121022885E+04  0.25121022885E+04  0.00000000000E+00 0. -1.
         25    2    1    2    0    0  0.75915417630E+01 -0.10619560777E+03 -0.18511264665E+03  0.24744380939E+03  0.12500643280E+03 0.  0.
          2    1    1    2  501    0  0.41583912626E+02 -0.42956297938E+02 -0.22904089608E+04  0.22911891395E+04  0.00000000000E+00 0. -1.
          1    1    1    2  502    0 -0.49175454389E+02  0.14915190571E+03  0.12220628246E+04  0.12321128453E+04  0.00000000000E+00 0. -1.
         22    1    3    3    0    0  0.23978105807E+02 -0.11375567454E+03 -0.80787964973E+02  0.14156976490E+03  0.00000000000E+00 0.  1.
         22    1    3    3    0    0 -0.16386564044E+02  0.75600667738E+01 -0.10432468167E+03  0.10587404449E+03  0.00000000000E+00 0.  1.
</event>
<event>
 7    1  0.6888820E-006  0.8679577E+02  0.7818608E-02  0.1366833E+00
          2   -1    0    0  502    0  0.00000000000E+00  0.00000000000E+00  0.14702681827E+03  0.14702681827E+03  0.00000000000E+00 0. -1.
          1   -1    0    0  501    0 -0.00000000000E+00 -0.00000000000E+00 -0.20044905413E+04  0.20044905413E+04  0.00000000000E+00 0. -1.
         25    2    1    2    0    0  0.45705531207E+02 -0.49855390613E+02 -0.35344895744E+03  0.38095293592E+03  0.12499767322E+03 0.  0.
          2    1    1    2  501    0 -0.95601820310E+01  0.89110746470E+02 -0.16306679840E+04  0.16331289589E+04  0.00000000000E+00 0. -1.
          1    1    1    2  502    0 -0.36145349176E+02 -0.39255355857E+02  0.12665321845E+03  0.13743546476E+03  0.00000000000E+00 0. -1.
         22    1    3    3    0    0 -0.40927596408E+02 -0.35682250469E+02 -0.13949357629E+03  0.14968884050E+03  0.00000000000E+00 0.  1.
         22    1    3    3    0    0  0.86633127616E+02 -0.14173140144E+02 -0.21395538116E+03  0.23126409541E+03  0.00000000000E+00 0.  1.
</event>
<event>
 7    1  0.6888820E-006  0.4650945E+02  0.7818608E-02  0.1465543E+00
          2   -1    0    0  502    0  0.00000000000E+00  0.00000000000E+00  0.65394165740E+03  0.65394165740E+03  0.00000000000E+00 0. -1.
          1   -1    0    0  501    0 -0.00000000000E+00 -0.00000000000E+00 -0.85030791229E+03  0.85030791229E+03  0.00000000000E+00 0. -1.
         25    2    1    2    0    0 -0.51418132738E+01  0.11668411656E+02 -0.18659427397E+03  0.22495576925E+03  0.12500033987E+03 0.  0.
          2    1    1    2  501    0  0.47964940177E+02  0.64784639960E+01 -0.64276987207E+03  0.64458957052E+03  0.00000000000E+00 0. -1.
          1    1    1    2  502    0 -0.42823126904E+02 -0.18146875652E+02  0.63299789114E+03  0.63470422992E+03  0.00000000000E+00 0. -1.
         22    1    3    3    0    0  0.54977164587E+02  0.16700887829E+02 -0.52146788932E+02  0.77593143229E+02  0.00000000000E+00 0.  1.
         22    1    3    3    0    0 -0.60118977861E+02 -0.50324761737E+01 -0.13444748503E+03  0.14736262602E+03  0.00000000000E+00 0.  1.
</event>
<event>
 7    1  0.6888820E-006  0.8582634E+02  0.7818608E-02  0.1387623E+00
          2   -1    0    0  502    0  0.00000000000E+00  0.00000000000E+00  0.10023565454E+04  0.10023565454E+04  0.00000000000E+00 0. -1.
          1   -1    0    0  501    0 -0.00000000000E+00 -0.00000000000E+00 -0.14134192968E+04  0.14134192968E+04  0.00000000000E+00 0. -1.
         25    2    1    2    0    0  0.95099952352E+02 -0.22579764549E+02  0.11217793077E+03  0.19432235021E+03  0.12499376358E+03 0.  0.
          2    1    1    2  501    0 -0.64663964248E+02  0.56423043252E+02 -0.13703938766E+04  0.13730784264E+04  0.00000000000E+00 0. -1.
          1    1    1    2  502    0 -0.30435988104E+02 -0.33843278702E+02  0.84715319444E+03  0.84837506549E+03  0.00000000000E+00 0. -1.
         22    1    3    3    0    0  0.10411137936E+03 -0.10225956019E+02  0.13254448910E+03  0.16885434871E+03  0.00000000000E+00 0. -1.
         22    1    3    3    0    0 -0.90114270058E+01 -0.12353808530E+02 -0.20366558328E+02  0.25468001493E+02  0.00000000000E+00 0. -1.
</event>
<event>
 7    1  0.6888820E-006  0.1191082E+03  0.7818608E-02  0.1392924E+00
          2   -1    0    0  502    0  0.00000000000E+00  0.00000000000E+00  0.74195457790E+03  0.74195457790E+03  0.00000000000E+00 0. -1.
          1   -1    0    0  501    0 -0.00000000000E+00 -0.00000000000E+00 -0.11470296190E+03  0.11470296190E+03  0.00000000000E+00 0. -1.
         25    2    1    2    0    0  0.53517594976E+02 -0.10076426507E+03  0.34070131276E+03  0.38042088412E+03  0.12500037791E+03 0.  0.
          2    1    1    2  501    0  0.29689639666E+02  0.10315311468E+02 -0.81956103149E+02  0.87776324812E+02  0.00000000000E+00 0. -1.
          1    1    1    2  502    0 -0.83207234642E+02  0.90448953599E+02  0.36850640639E+03  0.38846033086E+03  0.00000000000E+00 0. -1.
         22    1    3    3    0    0  0.17276209778E+01 -0.18306264342E+02  0.23868802879E+03  0.23939523611E+03  0.00000000000E+00 0. -1.
         22    1    3    3    0    0  0.51789973998E+02 -0.82458000724E+02  0.10201328397E+03  0.14102564801E+03  0.00000000000E+00 0. -1.
</event>
<event>
 7    1  0.6888820E-006  0.1106070E+03  0.7818608E-02  0.1395279E+00
          2   -1    0    0  502    0  0.00000000000E+00  0.00000000000E+00  0.15297885619E+04  0.15297885619E+04  0.00000000000E+00 0. -1.
          1   -1    0    0  501    0 -0.00000000000E+00 -0.00000000000E+00 -0.21849855930E+03  0.21849855930E+03  0.00000000000E+00 0. -1.
         25    2    1    2    0    0  0.57711514846E+02 -0.52805156834E+02  0.10805805299E+04  0.10905959050E+04  0.12500457183E+03 0.  0.
          2    1    1    2  501    0 -0.77671253850E+02  0.79354807347E+02 -0.19836690458E+03  0.22733111964E+03  0.00000000000E+00 0. -1.
          1    1    1    2  502    0  0.19959739004E+02 -0.26549650513E+02  0.42907637725E+03  0.43036009648E+03  0.00000000000E+00 0. -1.
         22    1    3    3    0    0  0.86715972934E+02 -0.10827401823E+02  0.84763162737E+03  0.85212456149E+03  0.00000000000E+00 0. -1.
         22    1    3    3    0    0 -0.29004458088E+02 -0.41977755011E+02  0.23294890252E+03  0.23847134354E+03  0.00000000000E+00 0. -1.
</event>
<event>
 7    1  0.6888820E-006  0.4999643E+02  0.7818608E-02  0.1504973E+00
          2   -1    0    0  502    0  0.00000000000E+00  0.00000000000E+00  0.27567252048E+04  0.27567252048E+04  0.00000000000E+00 0. -1.
          1   -1    0    0  501    0 -0.00000000000E+00 -0.00000000000E+00 -0.28642759470E+03  0.28642759470E+03  0.00000000000E+00 0. -1.
         25    2    1    2    0    0  0.12208305040E+02 -0.26891747727E+02  0.84621511509E+02  0.15381013484E+03  0.12499819423E+03 0.  0.
          2    1    1    2  501    0  0.32465947264E+02  0.40351330244E+01 -0.25053095754E+03  0.25265803118E+03  0.00000000000E+00 0. -1.
          1    1    1    2  502    0 -0.44674252304E+02  0.22856614703E+02  0.26362070561E+04  0.26366846334E+04  0.00000000000E+00 0. -1.
         22    1    3    3    0    0  0.11296239705E+02  0.36399713341E+02 -0.10518745689E+02  0.39537174579E+02  0.00000000000E+00 0.  1.
         22    1    3    3    0    0  0.91206533495E+00 -0.63291461068E+02  0.95140257198E+02  0.11427296026E+03  0.00000000000E+00 0.  1.
</event>
<event>
 7    1  0.6888820E-006  0.3924800E+02  0.7818608E-02  0.1539464E+00
          2   -1    0    0  502    0  0.00000000000E+00  0.00000000000E+00  0.10874397387E+04  0.10874397387E+04  0.00000000000E+00 0. -1.
          1   -1    0    0  501    0 -0.00000000000E+00 -0.00000000000E+00 -0.12554736520E+03  0.12554736520E+03  0.00000000000E+00 0. -1.
         25    2    1    2    0    0 -0.57089008611E+02  0.40832250335E+02  0.54641118944E+03  0.56490413656E+03  0.12500027196E+03 0.  0.
          2    1    1    2  501    0  0.26818468275E+02 -0.19423830836E+02 -0.11328146712E+03  0.11802205827E+03  0.00000000000E+00 0. -1.
          1    1    1    2  502    0  0.30270540336E+02 -0.21408419498E+02  0.52876265120E+03  0.53006090909E+03  0.00000000000E+00 0. -1.
         22    1    3    3    0    0 -0.47104670727E+02  0.75221856942E+02  0.49080386250E+03  0.49876408172E+03  0.00000000000E+00 0.  1.
         22    1    3    3    0    0 -0.99843378837E+01 -0.34389606608E+02  0.55607326933E+02  0.66140054840E+02  0.00000000000E+00 0.  1.
</event>
<event>
 7    1  0.1241484E-005  0.1177871E+03  0.7818608E-02  0.1264763E+00
          2   -1    0    0  502    0  0.00000000000E+00  0.00000000000E+00  0.11187932427E+04  0.11187932427E+04  0.00000000000E+00 0. -1.
          1   -1    0    0  501    0 -0.00000000000E+00 -0.00000000000E+00 -0.14471119383E+04  0.14471119383E+04  0.00000000000E+00 0. -1.
         25    2    1    2    0    0 -0.43795554879E+02  0.51716810609E+02 -0.39527341223E+03  0.42007028001E+03  0.12500116242E+03 0.  0.
          2    1    1    2  501    0  0.49282596097E+01 -0.14233101502E+03 -0.10323450771E+04  0.10421222404E+04  0.00000000000E+00 0. -1.
          1    1    1    2  502    0  0.38867295269E+02  0.90614204409E+02  0.10992997938E+04  0.11037126606E+04  0.00000000000E+00 0. -1.
         22    1    3    3    0    0 -0.81540661424E+02  0.54033269952E+02 -0.22004188533E+03  0.24080470308E+03  0.00000000000E+00 0.  1.
         22    1    3    3    0    0  0.37745106545E+02 -0.23164593425E+01 -0.17523152690E+03  0.17926557692E+03  0.00000000000E+00 0.  1.
</event>
<event>
 7    1  0.6888820E-006  0.6498774E+02  0.7818608E-02  0.1499151E+00
          2   -1    0    0  502    0  0.00000000000E+00  0.00000000000E+00  0.13247706970E+04  0.13247706970E+04  0.00000000000E+00 0. -1.
          1   -1    0    0  501    0 -0.00000000000E+00 -0.00000000000E+00 -0.31203259682E+03  0.31203259682E+03  0.00000000000E+00 0. -1.
         25    2    1    2    0    0 -0.83010290731E+02  0.36652485212E+02  0.64072058703E+02  0.16722650292E+03  0.12500144612E+03 0.  0.
          2    1    1    2  501    0  0.23728593567E+02 -0.11092310519E+02 -0.25893246338E+03  0.26025392619E+03  0.00000000000E+00 0. -1.
          1    1    1    2  502    0  0.59281697164E+02 -0.25560174692E+02  0.12075985049E+04  0.12093228647E+04  0.00000000000E+00 0. -1.
         22    1    3    3    0    0 -0.80869829454E+01 -0.39822049684E+02  0.40966770295E+02  0.57701570191E+02  0.00000000000E+00 0.  1.
         22    1    3    3    0    0 -0.74923307786E+02  0.76474534895E+02  0.23105288409E+02  0.10952493273E+03  0.00000000000E+00 0.  1.
</event>
<event>
 7    1  0.6888820E-006  0.2614700E+03  0.7818608E-02  0.1196747E+00
          2   -1    0    0  502    0  0.00000000000E+00  0.00000000000E+00  0.21310994456E+04  0.21310994456E+04  0.00000000000E+00 0. -1.
          1   -1    0    0  501    0 -0.00000000000E+00 -0.00000000000E+00 -0.40363707625E+03  0.40363707625E+03  0.00000000000E+00 0. -1.
         25    2    1    2    0    0  0.13935726370E+03 -0.11795274479E+03  0.62943389543E+03  0.66719235562E+03  0.12500125491E+03 0.  0.
          2    1    1    2  501    0 -0.17930455597E+03  0.19817054633E+03 -0.33678382322E+03  0.42993607990E+03  0.00000000000E+00 0. -1.
          1    1    1    2  502    0  0.39947292265E+02 -0.80217801540E+02  0.14348122971E+04  0.14376080863E+04  0.00000000000E+00 0. -1.
         22    1    3    3    0    0  0.61936902143E+02  0.17131767790E+02  0.21838630336E+03  0.22764501930E+03  0.00000000000E+00 0.  1.
         22    1    3    3    0    0  0.77420361559E+02 -0.13508451258E+03  0.41104759207E+03  0.43954733632E+03  0.00000000000E+00 0.  1.
</event>
<event>
 7    1  0.6888820E-006  0.7981970E+02  0.7818608E-02  0.1420928E+00
          2   -1    0    0  502    0  0.00000000000E+00  0.00000000000E+00  0.18823448456E+03  0.18823448456E+03  0.00000000000E+00 0. -1.
          1   -1    0    0  501    0 -0.00000000000E+00 -0.00000000000E+00 -0.25455295182E+03  0.25455295182E+03  0.00000000000E+00 0. -1.
         25    2    1    2    0    0  0.20776177137E+02 -0.39236233073E+02 -0.15547946910E+03  0.20437724566E+03  0.12500024684E+03 0.  0.
          2    1    1    2  501    0  0.13543979163E+02 -0.35137137336E+02 -0.58488232222E+02  0.69562425922E+02  0.00000000000E+00 0. -1.
          1    1    1    2  502    0 -0.34320156300E+02  0.74373370409E+02  0.14764923406E+03  0.16884776479E+03  0.00000000000E+00 0. -1.
         22    1    3    3    0    0 -0.44992116792E+02 -0.40337646278E+02 -0.10619906971E+03  0.12218698249E+03  0.00000000000E+00 0. -1.
         22    1    3    3    0    0  0.65768293929E+02  0.11014132048E+01 -0.49280399387E+02  0.82190263178E+02  0.00000000000E+00 0. -1.
</event>
<event>
 7    1  0.6888820E-006  0.9891841E+02  0.7818608E-02  0.1357361E+00
          2   -1    0    0  502    0  0.00000000000E+00  0.00000000000E+00  0.15022339423E+04  0.15022339423E+04  0.00000000000E+00 0. -1.
          1   -1    0    0  501    0 -0.00000000000E+00 -0.00000000000E+00 -0.49295151078E+03  0.49295151078E+03  0.00000000000E+00 0. -1.
         25    2    1    2    0    0  0.29775028462E+02  0.11053095106E+03 -0.15927043072E+02  0.17024115600E+03  0.12499894814E+03 0.  0.
          2    1    1    2  501    0 -0.48845559899E+02 -0.13543873199E+02 -0.39653821112E+03  0.39976477846E+03  0.00000000000E+00 0. -1.
          1    1    1    2  502    0  0.19070531437E+02 -0.96987077857E+02  0.14217476857E+04  0.14251795186E+04  0.00000000000E+00 0. -1.
         22    1    3    3    0    0 -0.37123837798E+02  0.55401117499E+02  0.28861523681E+02  0.72666709724E+02  0.00000000000E+00 0. -1.
         22    1    3    3    0    0  0.66898866260E+02  0.55129833558E+02 -0.44788566753E+02  0.97574446279E+02  0.00000000000E+00 0. -1.
</event>
<event>
 7    1  0.6888820E-006  0.9215659E+02  0.7818608E-02  0.1422376E+00
          2   -1    0    0  502    0  0.00000000000E+00  0.00000000000E+00  0.25405424479E+03  0.25405424479E+03  0.00000000000E+00 0. -1.
          1   -1    0    0  501    0 -0.00000000000E+00 -0.00000000000E+00 -0.22704497317E+03  0.22704497317E+03  0.00000000000E+00 0. -1.
         25    2    1    2    0    0  0.43782318592E+02 -0.83769863461E+02 -0.13944557095E+03  0.20977364628E+03  0.12500253586E+03 0.  0.
          2    1    1    2  501    0 -0.31320695124E+02 -0.77105598963E+01 -0.36287490093E+02  0.48551216403E+02  0.00000000000E+00 0. -1.
          1    1    1    2  502    0 -0.12461623468E+02  0.91480423357E+02  0.20274233266E+03  0.22277435528E+03  0.00000000000E+00 0. -1.
         22    1    3    3    0    0  0.67795333108E+02 -0.29737131982E+02 -0.13041186930E+03  0.14995919399E+03  0.00000000000E+00 0.  1.
         22    1    3    3    0    0 -0.24013014516E+02 -0.54032731479E+02 -0.90337016518E+01  0.59814452290E+02  0.00000000000E+00 0.  1.
</event>
<event>
 7    1  0.6888820E-006  0.6326541E+02  0.7818608E-02  0.1531969E+00
          2   -1    0    0  502    0  0.00000000000E+00  0.00000000000E+00  0.13671803073E+03  0.13671803073E+03  0.00000000000E+00 0. -1.
          1   -1    0    0  501    0 -0.00000000000E+00 -0.00000000000E+00 -0.62341910123E+03  0.62341910123E+03  0.00000000000E+00 0. -1.
         25    2    1    2    0    0 -0.77827318746E+02  0.14531133477E+02 -0.31222702046E+03  0.34551248033E+03  0.12499966551E+03 0.  0.
          2    1    1    2  501    0  0.14931484316E+02 -0.15574508496E+02 -0.28587632078E+03  0.28668935335E+03  0.00000000000E+00 0. -1.
          1    1    1    2  502    0  0.62895834430E+02  0.10433750194E+01  0.11140227075E+03  0.12793529828E+03  0.00000000000E+00 0. -1.
         22    1    3    3    0    0 -0.11085041123E+02  0.40287786936E+02 -0.23262344037E+02  0.47823849312E+02  0.00000000000E+00 0. -1.
         22    1    3    3    0    0 -0.66742277623E+02 -0.25756653460E+02 -0.28896467642E+03  0.29768863102E+03  0.00000000000E+00 0. -1.
</event>
<event>
 7    1  0.6888820E-006  0.1371601E+03  0.7818608E-02  0.1376798E+00
          2   -1    0    0  502    0  0.00000000000E+00  0.00000000000E+00  0.28190517823E+04  0.28190517823E+04  0.00000000000E+00 0. -1.
          1   -1    0    0  501    0 -0.00000000000E+00 -0.00000000000E+00 -0.14990253711E+03  0.14990253711E+03  0.00000000000E+00 0. -1.
         25    2    1    2    0    0 -0.10229130657E+03 -0.12274324234E+03  0.88241184668E+03  0.90543051127E+03  0.12499731448E+03 0.  0.
          2    1    1    2  501    0  0.71969334063E+02  0.11582631763E+03 -0.10464283915E+03  0.17188788406E+03  0.00000000000E+00 0. -1.
          1    1    1    2  502    0  0.30321972509E+02  0.69169247166E+01  0.18913802376E+04  0.18916359240E+04  0.00000000000E+00 0. -1.
         22    1    3    3    0    0 -0.47585799283E+02  0.18476669326E+02  0.19945987895E+03  0.20588841375E+03  0.00000000000E+00 0.  1.
         22    1    3    3    0    0 -0.54705507289E+02 -0.14121991167E+03  0.68295196773E+03  0.69954209752E+03  0.00000000000E+00 0.  1.
</event>
<event>
 7    1  0.6888820E-006  0.4578632E+02  0.7818608E-02  0.1591639E+00
          2   -1    0    0  502    0  0.00000000000E+00  0.00000000000E+00  0.30460094266E+03  0.30460094266E+03  0.00000000000E+00 0. -1.
          1   -1    0    0  501    0 -0.00000000000E+00 -0.00000000000E+00 -0.91288883490E+03  0.91288883490E+03  0.00000000000E+00 0. -1.
         25    2    1    2    0    0 -0.50975914950E+01 -0.25044086947E+02  0.24841456404E+02  0.12998657375E+03  0.12500487859E+03 0.  0.
          2    1    1    2  501    0  0.72738262413E+01  0.45367470936E+02 -0.85924150394E+03  0.86046910349E+03  0.00000000000E+00 0. -1.
          1    1    1    2  502    0 -0.21762347462E+01 -0.20323383990E+02  0.22611215530E+03  0.22703410032E+03  0.00000000000E+00 0. -1.
         22    1    3    3    0    0  0.30497504015E+02  0.10274126075E+01 -0.40766702671E+02  0.50922267962E+02  0.00000000000E+00 0.  1.
         22    1    3    3    0    0 -0.35595095510E+02 -0.26071499554E+02  0.65608159074E+02  0.79064305793E+02  0.00000000000E+00 0.  1.
</event>
<event>
 7    1  0.6888820E-006  0.8338316E+02  0.7818608E-02  0.1382556E+00
          2   -1    0    0  502    0  0.00000000000E+00  0.00000000000E+00  0.41019861421E+02  0.41019861421E+02  0.00000000000E+00 0. -1.
          1   -1    0    0  501    0 -0.00000000000E+00 -0.00000000000E+00 -0.83598497937E+03  0.83598497937E+03  0.00000000000E+00 0. -1.
         25    2    1    2    0    0  0.80830496994E+01  0.19212742891E+02 -0.52470173859E+03  0.53978823937E+03  0.12499985479E+03 0.  0.
          2    1    1    2  501    0  0.52283570306E+02 -0.76733367590E+02 -0.22255933349E+03  0.24115189891E+03  0.00000000000E+00 0. -1.
          1    1    1    2  502    0 -0.60366620006E+02  0.57520624699E+02 -0.47704045869E+02  0.96064702514E+02  0.00000000000E+00 0. -1.
         22    1    3    3    0    0 -0.30388433037E+02  0.22737630224E+02 -0.46473104268E+02  0.60001717567E+02  0.00000000000E+00 0. -1.
         22    1    3    3    0    0  0.38471482736E+02 -0.35248873334E+01 -0.47822863433E+03  0.47978652180E+03  0.00000000000E+00 0. -1.
</event>
<event>
 7    1  0.6888820E-006  0.2555838E+03  0.7818608E-02  0.1252066E+00
          2   -1    0    0  502    0  0.00000000000E+00  0.00000000000E+00  0.11290050666E+04  0.11290050666E+04  0.00000000000E+00 0. -1.
          1   -1    0    0  501    0 -0.00000000000E+00 -0.00000000000E+00 -0.16804601808E+04  0.16804601808E+04  0.00000000000E+00 0. -1.
         25    2    1    2    0    0  0.18123430841E+03 -0.96453889993E+02 -0.59886077244E+03  0.64529753856E+03  0.12500184426E+03 0.  0.
          2    1    1    2  501    0  0.45925298674E+02 -0.23293253039E+02 -0.10428290072E+04  0.10440996346E+04  0.00000000000E+00 0. -1.
          1    1    1    2  502    0 -0.22715960709E+03  0.11974714303E+03  0.10902346654E+04  0.11200680743E+04  0.00000000000E+00 0. -1.
         22    1    3    3    0    0  0.57953989220E+02 -0.59854566013E+02 -0.10015245717E+03  0.13027566394E+03  0.00000000000E+00 0.  1.
         22    1    3    3    0    0  0.12328031919E+03 -0.36599323980E+02 -0.49870831527E+03  0.51502187462E+03  0.00000000000E+00 0.  1.
</event>
<event>
 7    1  0.6888820E-006  0.8337779E+02  0.7818608E-02  0.1428334E+00
          2   -1    0    0  502    0  0.00000000000E+00  0.00000000000E+00  0.20071878570E+04  0.20071878570E+04  0.00000000000E+00 0. -1.
          1   -1    0    0  501    0 -0.00000000000E+00 -0.00000000000E+00 -0.90955447203E+02  0.90955447203E+02  0.00000000000E+00 0. -1.
         25    2    1    2    0    0  0.74901325289E+02 -0.59510628862E+02  0.93783100121E+03  0.95094864487E+03  0.12499845945E+03 0.  0.
          2    1    1    2  501    0 -0.79167951157E+02  0.25711675774E+02 -0.63526219339E+02  0.10471024451E+03  0.00000000000E+00 0. -1.
          1    1    1    2  502    0  0.42666258675E+01  0.33798953088E+02  0.10419276279E+04  0.10424844148E+04  0.00000000000E+00 0. -1.
         22    1    3    3    0    0 -0.81720570299E+01 -0.56389634137E+02  0.61323049929E+03  0.61587191737E+03  0.00000000000E+00 0. -1.
         22    1    3    3    0    0  0.83073382319E+02 -0.31209947256E+01  0.32460050193E+03  0.33507672750E+03  0.00000000000E+00 0. -1.
</event>
<event>
 7    1  0.6888820E-006  0.2676770E+02  0.7818608E-02  0.1680775E+00
          2   -1    0    0  502    0  0.00000000000E+00  0.00000000000E+00  0.11990912200E+04  0.11990912200E+04  0.00000000000E+00 0. -1.
          1   -1    0    0  501    0 -0.00000000000E+00 -0.00000000000E+00 -0.15345607428E+03  0.15345607428E+03  0.00000000000E+00 0. -1.
         25    2    1    2    0    0  0.17267316427E+02  0.17236621424E+02 -0.70037549203E+02  0.14535995746E+03  0.12501598937E+03 0.  0.
          2    1    1    2  501    0 -0.27817585633E+02  0.85381312124E+00 -0.41421970113E+02  0.49903172999E+02  0.00000000000E+00 0. -1.
          1    1    1    2  502    0  0.10550269206E+02 -0.18090434546E+02  0.11570946650E+04  0.11572841638E+04  0.00000000000E+00 0. -1.
         22    1    3    3    0    0  0.52350773566E+02  0.27347786783E+02 -0.86956744235E+02  0.10511888652E+03  0.00000000000E+00 0. -1.
         22    1    3    3    0    0 -0.35083457138E+02 -0.10111165358E+02  0.16919195032E+02  0.40241070938E+02  0.00000000000E+00 0. -1.
</event>
<event>
 7    1  0.6888820E-006  0.1682830E+03  0.7818608E-02  0.1278844E+00
          2   -1    0    0  502    0  0.00000000000E+00  0.00000000000E+00  0.32824229304E+04  0.32824229304E+04  0.00000000000E+00 0. -1.
          1   -1    0    0  501    0 -0.00000000000E+00 -0.00000000000E+00 -0.11338529709E+04  0.11338529709E+04  0.00000000000E+00 0. -1.
         25    2    1    2    0    0 -0.14933979153E+00  0.14177779976E+03  0.11379940740E+04  0.11535844419E+04  0.12500234148E+03 0.  0.
          2    1    1    2  501    0 -0.48974761477E+02  0.35094993446E+02 -0.11213047242E+04  0.11229222904E+04  0.00000000000E+00 0. -1.
          1    1    1    2  502    0  0.49124101269E+02 -0.17687279321E+03  0.21318806098E+04  0.21397691690E+04  0.00000000000E+00 0. -1.
         22    1    3    3    0    0 -0.21982302518E+02  0.19173647076E+02  0.62539743665E+03  0.62607731483E+03  0.00000000000E+00 0.  1.
         22    1    3    3    0    0  0.21832962726E+02  0.12260415269E+03  0.51259663731E+03  0.52750712706E+03  0.00000000000E+00 0.  1.
</event>
<event>
 7    1  0.6888820E-006  0.9853515E+02  0.7818608E-02  0.1308296E+00
          2   -1    0    0  502    0  0.00000000000E+00  0.00000000000E+00  0.23845343774E+03  0.23845343774E+03  0.00000000000E+00 0. -1.
          1   -1    0    0  501    0 -0.00000000000E+00 -0.00000000000E+00 -0.12041557740E+04  0.12041557740E+04  0.00000000000E+00 0. -1.
         25    2    1    2    0    0  0.11603120190E+03 -0.11066105664E+03  0.27717969811E+02  0.20518796862E+03  0.12499882938E+03 0.  0.
          2    1    1    2  501    0 -0.41004483400E+02  0.88557904453E+02 -0.11004996750E+04  0.11048182678E+04  0.00000000000E+00 0. -1.
          1    1    1    2  502    0 -0.75026718497E+02  0.22103152185E+02  0.10707936893E+03  0.13260297536E+03  0.00000000000E+00 0. -1.
         22    1    3    3    0    0 -0.23836957553E+02 -0.96982664701E+01 -0.11655077871E+02  0.28250624030E+02  0.00000000000E+00 0.  1.
         22    1    3    3    0    0  0.13986815945E+03 -0.10096279017E+03  0.39373047681E+02  0.17693734459E+03  0.00000000000E+00 0.  1.
</event>
<event>
 7    1  0.6888820E-006  0.7075307E+02  0.7818608E-02  0.1497997E+00
          2   -1    0    0  502    0  0.00000000000E+00  0.00000000000E+00  0.20630843197E+04  0.20630843197E+04  0.00000000000E+00 0. -1.
          1   -1    0    0  501    0 -0.00000000000E+00 -0.00000000000E+00 -0.11826776322E+03  0.11826776322E+03  0.00000000000E+00 0. -1.
         25    2    1    2    0    0 -0.87210698849E+02  0.19867125040E+02  0.11881850918E+04  0.11980855766E+04  0.12499931172E+03 0.  0.
          2    1    1    2  501    0  0.70560189748E+02 -0.22358912721E+01 -0.10213463911E+03  0.12415806093E+03  0.00000000000E+00 0. -1.
          1    1    1    2  502    0  0.16650509101E+02 -0.17631233768E+02  0.85876610382E+03  0.85910844538E+03  0.00000000000E+00 0. -1.
         22    1    3    3    0    0 -0.58931470213E+02 -0.28457588828E+02  0.98950293108E+03  0.99166466266E+03  0.00000000000E+00 0. -1.
         22    1    3    3    0    0 -0.28279228636E+02  0.48324713868E+02  0.19868216070E+03  0.20642091397E+03  0.00000000000E+00 0. -1.
</event>
<event>
 7    1  0.6888820E-006  0.6238118E+02  0.7818608E-02  0.1481517E+00
          2   -1    0    0  502    0  0.00000000000E+00  0.00000000000E+00  0.10182671257E+04  0.10182671257E+04  0.00000000000E+00 0. -1.
          1   -1    0    0  501    0 -0.00000000000E+00 -0.00000000000E+00 -0.87166193376E+03  0.87166193376E+03  0.00000000000E+00 0. -1.
         25    2    1    2    0    0 -0.75275567610E+02  0.21332240088E+02 -0.17406573634E+03  0.22813268450E+03  0.12499666244E+03 0.  0.
          2    1    1    2  501    0  0.61499145901E+02  0.62742807189E+01 -0.66889704401E+03  0.67174754710E+03  0.00000000000E+00 0. -1.
          1    1    1    2  502    0  0.13776421709E+02 -0.27606520807E+02  0.98956797230E+03  0.99004882788E+03  0.00000000000E+00 0. -1.
         22    1    3    3    0    0 -0.59871342649E+02  0.42118905079E+02 -0.25783644715E+02  0.77610412770E+02  0.00000000000E+00 0. -1.
         22    1    3    3    0    0 -0.15404224961E+02 -0.20786664991E+02 -0.14828209163E+03  0.15052227173E+03  0.00000000000E+00 0. -1.
</event>
<event>
 7    1  0.6888820E-006  0.9085534E+02  0.7818608E-02  0.1368185E+00
          2   -1    0    0  502    0  0.00000000000E+00  0.00000000000E+00  0.13320348354E+04  0.13320348354E+04  0.00000000000E+00 0. -1.
          1   -1    0    0  501    0 -0.00000000000E+00 -0.00000000000E+00 -0.20829822353E+03  0.20829822353E+03  0.00000000000E+00 0. -1.
         25    2    1    2    0    0 -0.29259720605E+02 -0.12134033337E+03  0.76451974564E+03  0.78466266996E+03  0.12500182563E+03 0.  0.
          2    1    1    2  501    0 -0.94248579374E+01  0.49518990829E+02 -0.19197083094E+03  0.19847860926E+03  0.00000000000E+00 0. -1.
          1    1    1    2  502    0  0.38684578542E+02  0.71821342544E+02  0.55118769720E+03  0.55719177974E+03  0.00000000000E+00 0. -1.
         22    1    3    3    0    0 -0.48039225063E+02  0.51976701036E+01  0.18666394185E+03  0.19281651928E+03  0.00000000000E+00 0.  1.
         22    1    3    3    0    0  0.18779504459E+02 -0.12653800348E+03  0.57785580379E+03  0.59184615069E+03  0.00000000000E+00 0.  1.
</event>
<event>
 7    1  0.6888820E-006  0.1341024E+03  0.7818608E-02  0.1298913E+00
          2   -1    0    0  502    0  0.00000000000E+00  0.00000000000E+00  0.16752268089E+03  0.16752268089E+03  0.00000000000E+00 0. -1.
          1   -1    0    0  501    0 -0.00000000000E+00 -0.00000000000E+00 -0.25930501095E+04  0.25930501095E+04  0.00000000000E+00 0. -1.
         25    2    1    2    0    0 -0.14225127459E+02  0.15869990354E+03 -0.52738083391E+02  0.20926991714E+03  0.12499831657E+03 0.  0.
          2    1    1    2  501    0 -0.40153173280E+02 -0.12762387183E+03 -0.24490035481E+04  0.24526553995E+04  0.00000000000E+00 0. -1.
          1    1    1    2  502    0  0.54378300739E+02 -0.31076031705E+02  0.76214202944E+02  0.98647473705E+02  0.00000000000E+00 0. -1.
         22    1    3    3    0    0 -0.40973201595E+02  0.98624229474E+02  0.22710534887E+02  0.10918475298E+03  0.00000000000E+00 0.  1.
         22    1    3    3    0    0  0.26748074136E+02  0.60075674061E+02 -0.75448618278E+02  0.10008516416E+03  0.00000000000E+00 0.  1.
</event>
<event>
 7    1  0.6888820E-006  0.1777985E+03  0.7818608E-02  0.1323732E+00
          2   -1    0    0  502    0  0.00000000000E+00  0.00000000000E+00  0.29168203692E+04  0.29168203692E+04  0.00000000000E+00 0. -1.
          1   -1    0    0  501    0 -0.00000000000E+00 -0.00000000000E+00 -0.30528692442E+02  0.30528692442E+02  0.00000000000E+00 0. -1.
         25    2    1    2    0    0  0.11871524760E+03  0.90106471151E+02  0.14005402595E+04  0.14139837000E+04  0.12499759750E+03 0.  0.
          2    1    1    2  501    0 -0.14038130159E+03 -0.12099556764E+03  0.34195960081E+03  0.38895141832E+03  0.00000000000E+00 0. -1.
          1    1    1    2  502    0  0.21666053987E+02  0.30889096491E+02  0.11437918164E+04  0.11444139433E+04  0.00000000000E+00 0. -1.
         22    1    3    3    0    0  0.92324595853E+02  0.62599114626E+02  0.48548127221E+03  0.49813105285E+03  0.00000000000E+00 0.  1.
         22    1    3    3    0    0  0.26390651752E+02  0.27507356525E+02  0.91505898725E+03  0.91585264716E+03  0.00000000000E+00 0.  1.
</event>
<event>
 7    1  0.6888820E-006  0.9935694E+02  0.7818608E-02  0.1402020E+00
          2   -1    0    0  502    0  0.00000000000E+00  0.00000000000E+00  0.97419656492E+03  0.97419656492E+03  0.00000000000E+00 0. -1.
          1   -1    0    0  501    0 -0.00000000000E+00 -0.00000000000E+00 -0.73452452178E+03  0.73452452178E+03  0.00000000000E+00 0. -1.
         25    2    1    2    0    0  0.19241585690E+02 -0.64843003152E+02  0.88317861437E+02  0.16732909511E+03  0.12499651093E+03 0.  0.
          2    1    1    2  501    0 -0.43051612359E+02  0.90565739300E+02 -0.69103553252E+03  0.69827337173E+03  0.00000000000E+00 0. -1.
          1    1    1    2  502    0  0.23810026669E+02 -0.25722736148E+02  0.84238971422E+03  0.84311861986E+03  0.00000000000E+00 0. -1.
         22    1    3    3    0    0  0.14761107271E+02  0.34573512964E+02  0.45420936428E+02  0.58959982637E+02  0.00000000000E+00 0. -1.
         22    1    3    3    0    0  0.44804784191E+01 -0.99416516116E+02  0.42896925009E+02  0.10836911248E+03  0.00000000000E+00 0. -1.
</event>
<event>
 7    1  0.6888820E-006  0.6868191E+02  0.7818608E-02  0.1479266E+00
          2   -1    0    0  502    0  0.00000000000E+00  0.00000000000E+00  0.88279743870E+03  0.88279743870E+03  0.00000000000E+00 0. -1.
          1   -1    0    0  501    0 -0.00000000000E+00 -0.00000000000E+00 -0.61545943814E+03  0.61545943814E+03  0.00000000000E+00 0. -1.
         25    2    1    2    0    0 -0.14245475388E+02  0.70471626688E+02  0.65810554085E+02  0.15851093365E+03  0.12500201327E+03 0.  0.
          2    1    1    2  501    0 -0.14046219987E+02 -0.67277590570E+02 -0.56676962067E+03  0.57092151247E+03  0.00000000000E+00 0. -1.
          1    1    1    2  502    0  0.28291695375E+02 -0.31940361177E+01  0.76829706714E+03  0.76882443072E+03  0.00000000000E+00 0. -1.
         22    1    3    3    0    0  0.18108774130E+02 -0.22147377789E+02 -0.14177209017E+02  0.31928471603E+02  0.00000000000E+00 0. -1.
         22    1    3    3    0    0 -0.32354249518E+02  0.92619004477E+02  0.79987763102E+02  0.12658246205E+03  0.00000000000E+00 0. -1.
</event>
<event>
 7    1  0.6888820E-006  0.7534971E+02  0.7818608E-02  0.1423328E+00
          2   -1    0    0  502    0  0.00000000000E+00  0.00000000000E+00  0.70938569676E+03  0.70938569676E+03  0.00000000000E+00 0. -1.
          1   -1    0    0  501    0 -0.00000000000E+00 -0.00000000000E+00 -0.61092314890E+03  0.61092314890E+03  0.00000000000E+00 0. -1.
         25    2    1    2    0    0 -0.32918339561E+02  0.22243583680E+02  0.23420321394E+03  0.26843152474E+03  0.12500377580E+03 0.  0.
          2    1    1    2  501    0  0.48394964129E+02 -0.58219663042E+02 -0.59055095867E+03  0.59538394042E+03  0.00000000000E+00 0. -1.
          1    1    1    2  502    0 -0.15476624567E+02  0.35976079363E+02  0.45481029259E+03  0.45649338050E+03  0.00000000000E+00 0. -1.
         22    1    3    3    0    0  0.38950041668E+02  0.24884067152E+02  0.39252995021E+02  0.60639262546E+02  0.00000000000E+00 0.  1.
         22    1    3    3    0    0 -0.71868381229E+02 -0.26404834723E+01  0.19495021892E+03  0.20779226220E+03  0.00000000000E+00 0.  1.
</event>
<event>
 7    1  0.6888820E-006  0.1397873E+03  0.7818608E-02  0.1277269E+00
          2   -1    0    0  502    0  0.00000000000E+00  0.00000000000E+00  0.76844766777E+03  0.76844766777E+03  0.00000000000E+00 0. -1.
          1   -1    0    0  501    0 -0.00000000000E+00 -0.00000000000E+00 -0.45601255576E+03  0.45601255576E+03  0.00000000000E+00 0. -1.
         25    2    1    2    0    0  0.66797184036E+02  0.34659532275E+02  0.15062923660E+03  0.20970783508E+03  0.12500024881E+03 0.  0.
          2    1    1    2  501    0 -0.14041815010E+03 -0.33391732643E+02 -0.41184040931E+03  0.43639980228E+03  0.00000000000E+00 0. -1.
          1    1    1    2  502    0  0.73620966063E+02 -0.12677996322E+01  0.57364628472E+03  0.57835258617E+03  0.00000000000E+00 0. -1.
         22    1    3    3    0    0 -0.18385412535E+02 -0.62310361568E+00  0.10543259247E+03  0.10702543253E+03  0.00000000000E+00 0. -1.
         22    1    3    3    0    0  0.85182596571E+02  0.35282635891E+02  0.45196644131E+02  0.10268240256E+03  0.00000000000E+00 0. -1.
</event>
<event>
 7    1  0.6888820E-006  0.1669445E+03  0.7818608E-02  0.1275993E+00
          2   -1    0    0  502    0  0.00000000000E+00  0.00000000000E+00  0.21445850805E+03  0.21445850805E+03  0.00000000000E+00 0. -1.
          1   -1    0    0  501    0 -0.00000000000E+00 -0.00000000000E+00 -0.16926626945E+04  0.16926626945E+04  0.00000000000E+00 0. -1.
         25    2    1    2    0    0 -0.19756116340E+03 -0.25166090386E+01 -0.87137823492E+02  0.24951394441E+03  0.12500984589E+03 0.  0.
          2    1    1    2  501    0  0.43439200294E+02  0.44812568624E+02 -0.14755239615E+04  0.14768432860E+04  0.00000000000E+00 0. -1.
          1    1    1    2  502    0  0.15412196310E+03 -0.42295959585E+02  0.84457598477E+02  0.18076397221E+03  0.00000000000E+00 0. -1.
         22    1    3    3    0    0 -0.42659975052E+02  0.21516398316E+02 -0.79277969096E+02  0.92562547782E+02  0.00000000000E+00 0. -1.
         22    1    3    3    0    0 -0.15490118834E+03 -0.24033007354E+02 -0.78598543963E+01  0.15695139663E+03  0.00000000000E+00 0. -1.
</event>
<event>
 7    1  0.6888820E-006  0.1106285E+03  0.7818608E-02  0.1308897E+00
          2   -1    0    0  502    0  0.00000000000E+00  0.00000000000E+00  0.39691980892E+02  0.39691980892E+02  0.00000000000E+00 0. -1.
          1   -1    0    0  501    0 -0.00000000000E+00 -0.00000000000E+00 -0.24122810454E+04  0.24122810454E+04  0.00000000000E+00 0. -1.
         25    2    1    2    0    0 -0.65854956495E+02  0.27140931238E+02 -0.29471594438E+03  0.32795835872E+03  0.12500276694E+03 0.  0.
          2    1    1    2  501    0 -0.50221667964E+02  0.47730954682E+02 -0.18877009984E+04  0.18889720801E+04  0.00000000000E+00 0. -1.
          1    1    1    2  502    0  0.11607662446E+03 -0.74871885919E+02 -0.19017212171E+03  0.23504258746E+03  0.00000000000E+00 0. -1.
         22    1    3    3    0    0  0.26272163661E+01 -0.44055804829E+02 -0.74334753874E+02  0.86449244291E+02  0.00000000000E+00 0. -1.
         22    1    3    3    0    0 -0.68482172861E+02  0.71196736067E+02 -0.22038119050E+03  0.24150911443E+03  0.00000000000E+00 0. -1.
</event>
<event>
 7    1  0.6888820E-006  0.2394038E+02  0.7818608E-02  0.1683431E+00
          2   -1    0    0  502    0  0.00000000000E+00  0.00000000000E+00  0.11010351712E+04  0.11010351712E+04  0.00000000000E+00 0. -1.
          1   -1    0    0  501    0 -0.00000000000E+00 -0.00000000000E+00 -0.82130970776E+01  0.82130970776E+01  0.00000000000E+00 0. -1.
         25    2    1    2    0    0  0.73132858353E+01  0.46848344828E+01  0.59483075192E+03  0.60788499215E+03  0.12500043369E+03 0.  0.
          2    1    1    2  501    0 -0.65266464106E+01 -0.27751622956E+02  0.15525893192E+03  0.15785463449E+03  0.00000000000E+00 0. -1.
          1    1    1    2  502    0 -0.78663942475E+00  0.23066788474E+02  0.34273239030E+03  0.34350864165E+03  0.00000000000E+00 0. -1.
         22    1    3    3    0    0  0.62123454759E+02  0.42675143673E+01  0.20587398036E+03  0.21508517174E+03  0.00000000000E+00 0.  1.
         22    1    3    3    0    0 -0.54810168924E+02  0.41732011551E+00  0.38895677156E+03  0.39279982041E+03  0.00000000000E+00 0.  1.
</event>
<event>
 7    1  0.6888820E-006  0.9283929E+02  0.7818608E-02  0.1307443E+00
          2   -1    0    0  502    0  0.00000000000E+00  0.00000000000E+00  0.61617007837E+03  0.61617007837E+03  0.00000000000E+00 0. -1.
          1   -1    0    0  501    0 -0.00000000000E+00 -0.00000000000E+00 -0.76898016287E+03  0.76898016287E+03  0.00000000000E+00 0. -1.
         25    2    1    2    0    0  0.42190771841E+02 -0.62909768845E+02 -0.21061819056E+03  0.25636344871E+03  0.12499798156E+03 0.  0.
          2    1    1    2  501    0  0.51432265830E+02  0.65983996355E+02 -0.52848078735E+03  0.53506177993E+03  0.00000000000E+00 0. -1.
          1    1    1    2  502    0 -0.93623037671E+02 -0.30742275094E+01  0.58628889341E+03  0.59372501260E+03  0.00000000000E+00 0. -1.
         22    1    3    3    0    0 -0.15980708836E+02 -0.25795682941E+02  0.42925559620E+01  0.30646799995E+02  0.00000000000E+00 0.  1.
         22    1    3    3    0    0  0.58171480677E+02 -0.37114085905E+02 -0.21491074652E+03  0.22571664871E+03  0.00000000000E+00 0.  1.
</event>
<event>
 7    1  0.6888820E-006  0.5426764E+02  0.7818608E-02  0.1486897E+00
          2   -1    0    0  502    0  0.00000000000E+00  0.00000000000E+00  0.12194485442E+03  0.12194485442E+03  0.00000000000E+00 0. -1.
          1   -1    0    0  501    0 -0.00000000000E+00 -0.00000000000E+00 -0.20343529252E+04  0.20343529252E+04  0.00000000000E+00 0. -1.
         25    2    1    2    0    0 -0.25862244774E+02  0.69843125821E+01 -0.25808349239E+03  0.28800949736E+03  0.12499898077E+03 0.  0.
          2    1    1    2  501    0  0.39838885388E+02 -0.38144162305E+02 -0.17581374765E+04  0.17590024162E+04  0.00000000000E+00 0. -1.
          1    1    1    2  502    0 -0.13976640614E+02  0.31159849723E+02  0.10381289809E+03  0.10928586609E+03  0.00000000000E+00 0. -1.
         22    1    3    3    0    0 -0.29208513589E+02 -0.48703621333E+02 -0.19815724560E+03  0.20613460161E+03  0.00000000000E+00 0. -1.
         22    1    3    3    0    0  0.33462688150E+01  0.55687933915E+02 -0.59926246797E+02  0.81874895749E+02  0.00000000000E+00 0. -1.
</event>
<event>
 7    1  0.6888820E-006  0.3764102E+02  0.7818608E-02  0.1528512E+00
          2   -1    0    0  502    0  0.00000000000E+00  0.00000000000E+00  0.18246791322E+03  0.18246791322E+03  0.00000000000E+00 0. -1.
          1   -1    0    0  501    0 -0.00000000000E+00 -0.00000000000E+00 -0.53002001698E+03  0.53002001698E+03  0.00000000000E+00 0. -1.
         25    2    1    2    0    0  0.58943701968E+01 -0.38097757007E+01 -0.23408708105E+03  0.26546420848E+03  0.12500090590E+03 0.  0.
          2    1    1    2  501    0 -0.38199437593E+02 -0.14432983676E+02 -0.27666375345E+03  0.27966111728E+03  0.00000000000E+00 0. -1.
          1    1    1    2  502    0  0.32305067396E+02  0.18242759377E+02  0.16319873074E+03  0.16736260444E+03  0.00000000000E+00 0. -1.
         22    1    3    3    0    0  0.17198616782E+02  0.23667528801E+02  0.24345956402E+00  0.29257539393E+02  0.00000000000E+00 0.  1.
         22    1    3    3    0    0 -0.11304246585E+02 -0.27477304502E+02 -0.23433054062E+03  0.23620666908E+03  0.00000000000E+00 0.  1.
</event>
<event>
 7    1  0.6888820E-006  0.2547434E+03  0.7818608E-02  0.1248861E+00
          2   -1    0    0  502    0  0.00000000000E+00  0.00000000000E+00  0.10371310861E+04  0.10371310861E+04  0.00000000000E+00 0. -1.
          1   -1    0    0  501    0 -0.00000000000E+00 -0.00000000000E+00 -0.12333126428E+04  0.12333126428E+04  0.00000000000E+00 0. -1.
         25    2    1    2    0    0 -0.12727594100E+03 -0.24859165802E+03  0.19648266386E+03  0.36363294506E+03  0.12500601563E+03 0.  0.
          2    1    1    2  501    0  0.74268210829E+02  0.24260787190E+03 -0.11347708226E+04  0.11627893904E+04  0.00000000000E+00 0. -1.
          1    1    1    2  502    0  0.53007730168E+02  0.59837861141E+01  0.74210660197E+03  0.74402139340E+03  0.00000000000E+00 0. -1.
         22    1    3    3    0    0 -0.88353398290E+02 -0.17860344169E+03  0.64842827793E+02  0.20954738053E+03  0.00000000000E+00 0. -1.
         22    1    3    3    0    0 -0.38922542707E+02 -0.69988216326E+02  0.13163983607E+03  0.15408556453E+03  0.00000000000E+00 0. -1.
</event>
<event>
 7    1  0.6888820E-006  0.1037117E+03  0.7818608E-02  0.1400386E+00
          2   -1    0    0  502    0  0.00000000000E+00  0.00000000000E+00  0.19973576997E+04  0.19973576997E+04  0.00000000000E+00 0. -1.
          1   -1    0    0  501    0 -0.00000000000E+00 -0.00000000000E+00 -0.33025033244E+03  0.33025033244E+03  0.00000000000E+00 0. -1.
         25    2    1    2    0    0 -0.25539877697E+02 -0.12361706104E+03  0.85179553958E+03  0.87012163442E+03  0.12499021684E+03 0.  0.
          2    1    1    2  501    0 -0.11487931645E+02  0.32017136470E+02 -0.31803111331E+03  0.31984505410E+03  0.00000000000E+00 0. -1.
          1    1    1    2  502    0  0.37027809342E+02  0.91599924574E+02  0.11333429410E+04  0.11376413437E+04  0.00000000000E+00 0. -1.
         22    1    3    3    0    0 -0.31336945468E+02 -0.16464026228E+02  0.52429241763E+03  0.52548606784E+03  0.00000000000E+00 0. -1.
         22    1    3    3    0    0  0.57970677710E+01 -0.10715303482E+03  0.32750312195E+03  0.34463556658E+03  0.00000000000E+00 0. -1.
</event>
<event>
 7    1  0.7087581E-006  0.9920427E+02  0.7818608E-02  0.1334869E+00
          2   -1    0    0  502    0  0.00000000000E+00  0.00000000000E+00  0.15713359678E+04  0.15713359678E+04  0.00000000000E+00 0. -1.
          1   -1    0    0  501    0 -0.00000000000E+00 -0.00000000000E+00 -0.66033424451E+03  0.66033424451E+03  0.00000000000E+00 0. -1.
         25    2    1    2    0    0 -0.10370850084E+03 -0.30873680342E+02 -0.11311989359E+03  0.20032465202E+03  0.12500087439E+03 0.  0.
          2    1    1    2  501    0  0.89755777212E+01  0.60643793223E+02 -0.50012475303E+03  0.50386803753E+03  0.00000000000E+00 0. -1.
          1    1    1    2  502    0  0.94732923116E+02 -0.29770112881E+02  0.15242463699E+04  0.15274775228E+04  0.00000000000E+00 0. -1.
         22    1    3    3    0    0 -0.41533232459E+02  0.38062478270E+00 -0.12319684938E+03  0.13001006873E+03  0.00000000000E+00 0. -1.
         22    1    3    3    0    0 -0.62175268378E+02 -0.31254305124E+02  0.10076955783E+02  0.70314583299E+02  0.00000000000E+00 0. -1.
</event>
<event>
 7    1  0.6888820E-006  0.2428278E+03  0.7818608E-02  0.1265307E+00
          2   -1    0    0  502    0  0.00000000000E+00  0.00000000000E+00  0.57983767278E+03  0.57983767278E+03  0.00000000000E+00 0. -1.
          1   -1    0    0  501    0 -0.00000000000E+00 -0.00000000000E+00 -0.23741997112E+04  0.23741997112E+04  0.00000000000E+00 0. -1.
         25    2    1    2    0    0 -0.87459803859E+01 -0.23308116899E+03 -0.84394270050E+03  0.88445711701E+03  0.12498714571E+03 0.  0.
          2    1    1    2  501    0  0.47034631691E+02 -0.71399536766E+01 -0.14831644132E+04  0.14839271923E+04  0.00000000000E+00 0. -1.
          1    1    1    2  502    0 -0.38288651305E+02  0.24022112266E+03  0.53274507529E+03  0.58565307464E+03  0.00000000000E+00 0. -1.
         22    1    3    3    0    0 -0.48718984972E+02 -0.38156739304E+02 -0.14292974335E+03  0.15575104425E+03  0.00000000000E+00 0. -1.
         22    1    3    3    0    0  0.39973004586E+02 -0.19492442968E+03 -0.70101295715E+03  0.72870607276E+03  0.00000000000E+00 0. -1.
</event>
<event>
 7    1  0.6888820E-006  0.8475831E+02  0.7818608E-02  0.1498025E+00
          2   -1    0    0  502    0  0.00000000000E+00  0.00000000000E+00  0.16516065098E+04  0.16516065098E+04  0.00000000000E+00 0. -1.
          1   -1    0    0  501    0 -0.00000000000E+00 -0.00000000000E+00 -0.42772788829E+03  0.42772788829E+03  0.00000000000E+00 0. -1.
         25    2    1    2    0    0 -0.65224325709E+02 -0.73675490388E+02 -0.69630237648E+02  0.17365487641E+03  0.12500142222E+03 0.  0.
          2    1    1    2  501    0 -0.41771494425E+00  0.20235542896E+02 -0.30462950864E+03  0.30530114513E+03  0.00000000000E+00 0. -1.
          1    1    1    2  502    0  0.65642040654E+02  0.53439947492E+02  0.15981383678E+04  0.16003783766E+04  0.00000000000E+00 0. -1.
         22    1    3    3    0    0 -0.48644789518E+02  0.27355058101E+02 -0.15894724056E+02  0.58028070826E+02  0.00000000000E+00 0. -1.
         22    1    3    3    0    0 -0.16579536191E+02 -0.10103054849E+03 -0.53735513593E+02  0.11562680558E+03  0.00000000000E+00 0. -1.
</event>
<event>
 7    1  0.6888820E-006  0.1001288E+03  0.7818608E-02  0.1427888E+00
          2   -1    0    0  502    0  0.00000000000E+00  0.00000000000E+00  0.11608579108E+04  0.11608579108E+04  0.00000000000E+00 0. -1.
          1   -1    0    0  501    0 -0.00000000000E+00 -0.00000000000E+00 -0.98027149310E+02  0.98027149310E+02  0.00000000000E+00 0. -1.
         25    2    1    2    0    0 -0.17388118922E+02 -0.71403685568E+02  0.62582281909E+03  0.64240125670E+03  0.12499736286E+03 0.  0.
          2    1    1    2  501    0  0.30611215860E+02  0.96610055389E+02 -0.60588305057E+02  0.11807409559E+03  0.00000000000E+00 0. -1.
          1    1    1    2  502    0 -0.13223096938E+02 -0.25206369822E+02  0.49759624742E+03  0.49840970779E+03  0.00000000000E+00 0. -1.
         22    1    3    3    0    0 -0.15440540120E+02 -0.10627573051E+03  0.51966691785E+03  0.53064738451E+03  0.00000000000E+00 0.  1.
         22    1    3    3    0    0 -0.19475788018E+01  0.34872044945E+02  0.10615590124E+03  0.11175387219E+03  0.00000000000E+00 0.  1.
</event>
<event>
 7    1  0.6888820E-006  0.1316507E+03  0.7818608E-02  0.1284008E+00
          2   -1    0    0  502    0  0.00000000000E+00  0.00000000000E+00  0.23853202721E+04  0.23853202721E+04  0.00000000000E+00 0. -1.
          1   -1    0    0  501    0 -0.00000000000E+00 -0.00000000000E+00 -0.54327876812E+02  0.54327876812E+02  0.00000000000E+00 0. -1.
         25    2    1    2    0    0 -0.69808416859E+02 -0.12297235774E+03  0.59820300423E+03  0.62726974756E+03  0.12500034442E+03 0.  0.
          2    1    1    2  501    0 -0.28438538985E+01  0.13293096591E+03  0.74386711658E+02  0.15235521676E+03  0.00000000000E+00 0. -1.
          1    1    1    2  502    0  0.72652270757E+02 -0.99586081667E+01  0.16584026794E+04  0.16600231845E+04  0.00000000000E+00 0. -1.
         22    1    3    3    0    0 -0.10114718543E+03 -0.58362865107E+02  0.35826404075E+03  0.37681573752E+03  0.00000000000E+00 0.  1.
         22    1    3    3    0    0  0.31338768569E+02 -0.64609492637E+02  0.23993896347E+03  0.25045401004E+03  0.00000000000E+00 0.  1.
</event>
<event>
 7    1  0.6888820E-006  0.1315689E+03  0.7818608E-02  0.1253411E+00
          2   -1    0    0  502    0  0.00000000000E+00  0.00000000000E+00  0.17891063379E+03  0.17891063379E+03  0.00000000000E+00 0. -1.
          1   -1    0    0  501    0 -0.00000000000E+00 -0.00000000000E+00 -0.17383037692E+04  0.17383037692E+04  0.00000000000E+00 0. -1.
         25    2    1    2    0    0  0.41907921143E+02 -0.79815150882E+02 -0.14239214153E+02  0.15477293403E+03  0.12500069490E+03 0.  0.
          2    1    1    2  501    0 -0.39493249867E+02 -0.90458768108E+02 -0.15845757684E+04  0.15876469606E+04  0.00000000000E+00 0. -1.
          1    1    1    2  502    0 -0.24146712761E+01  0.17027391899E+03  0.39421847180E+02  0.17479450838E+03  0.00000000000E+00 0. -1.
         22    1    3    3    0    0 -0.63018084738E+01 -0.23677669671E+02  0.50707227703E+02  0.56316674018E+02  0.00000000000E+00 0.  1.
         22    1    3    3    0    0  0.48209729617E+02 -0.56137481211E+02 -0.64946441856E+02  0.98456260015E+02  0.00000000000E+00 0.  1.
</event>
<event>
 7    1  0.6888820E-006  0.7857124E+02  0.7818608E-02  0.1346327E+00
          2   -1    0    0  502    0  0.00000000000E+00  0.00000000000E+00  0.75024321207E+03  0.75024321207E+03  0.00000000000E+00 0. -1.
          1   -1    0    0  501    0 -0.00000000000E+00 -0.00000000000E+00 -0.35512387381E+03  0.35512387381E+03  0.00000000000E+00 0. -1.
         25    2    1    2    0    0 -0.23509237186E+02  0.20101490573E+02  0.23772492586E+03  0.27036068754E+03  0.12500002734E+03 0.  0.
          2    1    1    2  501    0 -0.15729522281E+02 -0.78184935990E+02 -0.33157863096E+03  0.34103473518E+03  0.00000000000E+00 0. -1.
          1    1    1    2  502    0  0.39238759468E+02  0.58083445416E+02  0.48897304336E+03  0.49397166316E+03  0.00000000000E+00 0. -1.
         22    1    3    3    0    0 -0.19299616738E+02  0.63355184104E+02  0.67068518376E+02  0.94257841670E+02  0.00000000000E+00 0.  1.
         22    1    3    3    0    0 -0.42096204483E+01 -0.43253693531E+02  0.17065640749E+03  0.17610284587E+03  0.00000000000E+00 0.  1.
</event>
<event>
 7    1  0.6888820E-006  0.1599283E+03  0.7818608E-02  0.1306751E+00
          2   -1    0    0  502    0  0.00000000000E+00  0.00000000000E+00  0.12436660262E+04  0.12436660262E+04  0.00000000000E+00 0. -1.
          1   -1    0    0  501    0 -0.00000000000E+00 -0.00000000000E+00 -0.12319288972E+03  0.12319288972E+03  0.00000000000E+00 0. -1.
         25    2    1    2    0    0 -0.91036697783E+01 -0.15449711112E+03  0.26503795060E+03  0.33138367651E+03  0.12497116327E+03 0.  0.
          2    1    1    2  501    0  0.48788560462E+02 -0.28654487684E+01 -0.75808110551E+02  0.90196474731E+02  0.00000000000E+00 0. -1.
          1    1    1    2  502    0 -0.39684890684E+02  0.15736255989E+03  0.93124329645E+03  0.94527876469E+03  0.00000000000E+00 0. -1.
         22    1    3    3    0    0 -0.29467443551E+02 -0.11610403880E+03  0.86810795165E+02  0.14793441862E+03  0.00000000000E+00 0. -1.
         22    1    3    3    0    0  0.20363773773E+02 -0.38393072315E+02  0.17822715544E+03  0.18344925789E+03  0.00000000000E+00 0. -1.
</event>
<event>
 7    1  0.6888820E-006  0.1040284E+03  0.7818608E-02  0.1377201E+00
          2   -1    0    0  502    0  0.00000000000E+00  0.00000000000E+00  0.16703579884E+04  0.16703579884E+04  0.00000000000E+00 0. -1.
          1   -1    0    0  501    0 -0.00000000000E+00 -0.00000000000E+00 -0.61217707041E+03  0.61217707041E+03  0.00000000000E+00 0. -1.
         25    2    1    2    0    0 -0.90258643074E+02  0.74637362187E+02  0.53711575024E+03  0.56377005974E+03  0.12500397039E+03 0.  0.
          2    1    1    2  501    0  0.52325973411E+02 -0.89854002290E+02 -0.59395914212E+03  0.60299188363E+03  0.00000000000E+00 0. -1.
          1    1    1    2  502    0  0.37932669663E+02  0.15216640103E+02  0.11150243098E+04  0.11157731154E+04  0.00000000000E+00 0. -1.
         22    1    3    3    0    0 -0.65952955466E+02 -0.10818265964E+02  0.12057004145E+03  0.13785485885E+03  0.00000000000E+00 0.  1.
         22    1    3    3    0    0 -0.24305687608E+02  0.85455628151E+02  0.41654570879E+03  0.42591520089E+03  0.00000000000E+00 0.  1.
</event>
<event>
 7    1  0.6888820E-006  0.3783635E+02  0.7818608E-02  0.1578171E+00
          2   -1    0    0  502    0  0.00000000000E+00  0.00000000000E+00  0.56714319019E+02  0.56714319019E+02  0.00000000000E+00 0. -1.
          1   -1    0    0  501    0 -0.00000000000E+00 -0.00000000000E+00 -0.10339823514E+04  0.10339823514E+04  0.00000000000E+00 0. -1.
         25    2    1    2    0    0 -0.54124530076E+01 -0.29667798646E+02 -0.64020483618E+03  0.65299208031E+03  0.12500780679E+03 0.  0.
          2    1    1    2  501    0 -0.21048509431E+02  0.34307476623E+02 -0.38266604572E+03  0.38477700718E+03  0.00000000000E+00 0. -1.
          1    1    1    2  502    0  0.26460962439E+02 -0.46396779770E+01  0.45602849550E+02  0.52927582904E+02  0.00000000000E+00 0. -1.
         22    1    3    3    0    0  0.14844419824E+02  0.17474621000E+02 -0.19298233473E+02  0.29969000554E+02  0.00000000000E+00 0.  1.
         22    1    3    3    0    0 -0.20256872832E+02 -0.47142419646E+02 -0.62090660271E+03  0.62302307976E+03  0.00000000000E+00 0.  1.
</event>
<event>
 7    1  0.6888820E-006  0.8694880E+02  0.7818608E-02  0.1430423E+00
          2   -1    0    0  502    0  0.00000000000E+00  0.00000000000E+00  0.44947662095E+03  0.44947662095E+03  0.00000000000E+00 0. -1.
          1   -1    0    0  501    0 -0.00000000000E+00 -0.00000000000E+00 -0.12567858977E+04  0.12567858977E+04  0.00000000000E+00 0. -1.
         25    2    1    2    0    0 -0.11513229002E+02  0.78242737124E+02 -0.55725751237E+02  0.15806281707E+03  0.12499605767E+03 0.  0.
          2    1    1    2  501    0 -0.19905689816E+02 -0.85080788944E+02 -0.11475790839E+04  0.11509008346E+04  0.00000000000E+00 0. -1.
          1    1    1    2  502    0  0.31418918818E+02  0.68380518198E+01  0.39599555844E+03  0.39729886699E+03  0.00000000000E+00 0. -1.
         22    1    3    3    0    0 -0.32445498139E+02 -0.22730883917E+02  0.24006472147E+01  0.39688367820E+02  0.00000000000E+00 0. -1.
         22    1    3    3    0    0  0.20932269137E+02  0.10097362104E+03 -0.58126398451E+02  0.11837444925E+03  0.00000000000E+00 0. -1.
</event>
<event>
 7    1  0.6888820E-006  0.5368357E+02  0.7818608E-02  0.1450333E+00
          2   -1    0    0  502    0  0.00000000000E+00  0.00000000000E+00  0.13997962975E+04  0.13997962975E+04  0.00000000000E+00 0. -1.
          1   -1    0    0  501    0 -0.00000000000E+00 -0.00000000000E+00 -0.34822782683E+02  0.34822782683E+02  0.00000000000E+00 0. -1.
         25    2    1    2    0    0  0.11725682580E+02 -0.51030951780E+02  0.26314863477E+03  0.29599384664E+03  0.12499401424E+03 0.  0.
          2    1    1    2  501    0  0.32854737204E+02  0.45830696454E+02  0.26400265982E+02  0.62264440399E+02  0.00000000000E+00 0. -1.
          1    1    1    2  502    0 -0.44580419784E+02  0.52002553255E+01  0.10754246140E+04  0.10763607931E+04  0.00000000000E+00 0. -1.
         22    1    3    3    0    0 -0.41451475324E+02 -0.18474319177E+02  0.20755042080E+03  0.21245400078E+03  0.00000000000E+00 0. -1.
         22    1    3    3    0    0  0.53177157904E+02 -0.32556632603E+02  0.55598213978E+02  0.83539845862E+02  0.00000000000E+00 0. -1.
</event>
<event>
 7    1  0.6888820E-006  0.7335583E+02  0.7818608E-02  0.1385402E+00
          2   -1    0    0  502    0  0.00000000000E+00  0.00000000000E+00  0.26989670054E+04  0.26989670054E+04  0.00000000000E+00 0. -1.
          1   -1    0    0  501    0 -0.00000000000E+00 -0.00000000000E+00 -0.35007370715E+02  0.35007370715E+02  0.00000000000E+00 0. -1.
         25    2    1    2    0    0 -0.70048228251E+02  0.34235379201E+02  0.83564294363E+03  0.84853072969E+03  0.12500581798E+03 0.  0.
          2    1    1    2  501    0  0.41422167529E+02  0.34982118385E+02 -0.13597829552E+01  0.54234616060E+02  0.00000000000E+00 0. -1.
          1    1    1    2  502    0  0.28626060722E+02 -0.69217497586E+02  0.18296764740E+04  0.18312090303E+04  0.00000000000E+00 0. -1.
         22    1    3    3    0    0 -0.75999151008E+02  0.18505604544E+02  0.82484365733E+03  0.82854413727E+03  0.00000000000E+00 0.  1.
         22    1    3    3    0    0  0.59509227570E+01  0.15729774657E+02  0.10799286294E+02  0.19986592427E+02  0.00000000000E+00 0.  1.
</event>
<event>
 7    1  0.6888820E-006  0.1570671E+03  0.7818608E-02  0.1366960E+00
          2   -1    0    0  502    0  0.00000000000E+00  0.00000000000E+00  0.60751697887E+03  0.60751697887E+03  0.00000000000E+00 0. -1.
          1   -1    0    0  501    0 -0.00000000000E+00 -0.00000000000E+00 -0.42028555648E+03  0.42028555648E+03  0.00000000000E+00 0. -1.
         25    2    1    2    0    0  0.16701305387E+02 -0.17845385925E+03  0.25693597941E+03  0.33729295410E+03  0.12500290352E+03 0.  0.
          2    1    1    2  501    0 -0.31146340487E+02  0.15278218273E+03 -0.36334857544E+03  0.39539180209E+03  0.00000000000E+00 0. -1.
          1    1    1    2  502    0  0.14445035101E+02  0.25671676524E+02  0.29364401843E+03  0.29511777915E+03  0.00000000000E+00 0. -1.
         22    1    3    3    0    0  0.30393662764E+01  0.18793716731E+02  0.36565473560E+02  0.41224693966E+02  0.00000000000E+00 0. -1.
         22    1    3    3    0    0  0.13661939110E+02 -0.19724757598E+03  0.22037050585E+03  0.29606826014E+03  0.00000000000E+00 0. -1.
</event>
<event>
 7    1  0.6888820E-006  0.8830243E+02  0.7818608E-02  0.1308244E+00
          2   -1    0    0  502    0  0.00000000000E+00  0.00000000000E+00  0.26064141726E+04  0.26064141726E+04  0.00000000000E+00 0. -1.
          1   -1    0    0  501    0 -0.00000000000E+00 -0.00000000000E+00 -0.42937867089E+02  0.42937867089E+02  0.00000000000E+00 0. -1.
         25    2    1    2    0    0  0.31128322107E+02  0.10721829690E+03  0.44764360709E+03  0.47798917058E+03  0.12499645032E+03 0.  0.
          2    1    1    2  501    0  0.49982799811E+02 -0.74879900280E+02  0.48643399541E+02  0.10233015226E+03  0.00000000000E+00 0. -1.
          1    1    1    2  502    0 -0.81111121918E+02 -0.32338396619E+02  0.20671892989E+04  0.20690327168E+04  0.00000000000E+00 0. -1.
         22    1    3    3    0    0  0.23099130994E+02  0.10506357578E+03  0.45459695902E+03  0.46715128166E+03  0.00000000000E+00 0.  1.
         22    1    3    3    0    0  0.80291911123E+01  0.21547211214E+01 -0.69533519307E+01  0.10837888914E+02  0.00000000000E+00 0.  1.
</event>
<event>
 7    1  0.6888820E-006  0.4713312E+02  0.7818608E-02  0.1507583E+00
          2   -1    0    0  502    0  0.00000000000E+00  0.00000000000E+00  0.18533076133E+04  0.18533076133E+04  0.00000000000E+00 0. -1.
          1   -1    0    0  501    0 -0.00000000000E+00 -0.00000000000E+00 -0.27919168487E+03  0.27919168487E+03  0.00000000000E+00 0. -1.
         25    2    1    2    0    0 -0.37023758331E+02  0.66819699688E+02  0.39964348722E+03  0.42564851208E+03  0.12500443196E+03 0.  0.
          2    1    1    2  501    0  0.44705714415E+01 -0.33797331225E+02 -0.26472267104E+03  0.26690885742E+03  0.00000000000E+00 0. -1.
          1    1    1    2  502    0  0.32553186889E+02 -0.33022368463E+02  0.14391951123E+04  0.14399419287E+04  0.00000000000E+00 0. -1.
         22    1    3    3    0    0  0.19560635806E+02  0.21285572189E+02  0.30490782952E+03  0.30627516804E+03  0.00000000000E+00 0. -1.
         22    1    3    3    0    0 -0.56584394136E+02  0.45534127499E+02  0.94735657700E+02  0.11937334404E+03  0.00000000000E+00 0. -1.
</event>
<event>
 7    1  0.6888820E-006  0.4085943E+02  0.7818608E-02  0.1604757E+00
          2   -1    0    0  502    0  0.00000000000E+00  0.00000000000E+00  0.47812442536E+03  0.47812442536E+03  0.00000000000E+00 0. -1.
          1   -1    0    0  501    0 -0.00000000000E+00 -0.00000000000E+00 -0.35576981731E+03  0.35576981731E+03  0.00000000000E+00 0. -1.
         25    2    1    2    0    0  0.17162322458E+02 -0.35183684811E+02  0.27332336432E+03  0.30308508263E+03  0.12498987496E+03 0.  0.
          2    1    1    2  501    0  0.17552435617E+02  0.11821447960E+02 -0.33824947218E+03  0.33891081431E+03  0.00000000000E+00 0. -1.
          1    1    1    2  502    0 -0.34714758075E+02  0.23362236851E+02  0.18728071591E+03  0.19189834572E+03  0.00000000000E+00 0. -1.
         22    1    3    3    0    0  0.38719229872E+02 -0.30121804250E+02  0.27444659318E+02  0.56211308277E+02  0.00000000000E+00 0.  1.
         22    1    3    3    0    0 -0.21556907414E+02 -0.50618805613E+01  0.24587870500E+03  0.24687377436E+03  0.00000000000E+00 0.  1.
</event>
<event>
 7    1  0.6888820E-006  0.5172335E+02  0.7818608E-02  0.1437186E+00
          2   -1    0    0  502    0  0.00000000000E+00  0.00000000000E+00  0.68542395650E+03  0.68542395650E+03  0.00000000000E+00 0. -1.
          1   -1    0    0  501    0 -0.00000000000E+00 -0.00000000000E+00 -0.10668615925E+04  0.10668615925E+04  0.00000000000E+00 0. -1.
         25    2    1    2    0    0 -0.10059443005E+03  0.16872372533E+02  0.30030235031E+03  0.34089660954E+03  0.12500032192E+03 0.  0.
          2    1    1    2  501    0  0.49247423902E+02 -0.15487405570E+02 -0.10441155306E+04  0.10453910320E+04  0.00000000000E+00 0. -1.
          1    1    1    2  502    0  0.51347006149E+02 -0.13849669626E+01  0.36237554430E+03  0.36599790748E+03  0.00000000000E+00 0. -1.
         22    1    3    3    0    0 -0.61804193629E+01  0.17792086927E+02 -0.64759748331E+01  0.19917183303E+02  0.00000000000E+00 0.  1.
         22    1    3    3    0    0 -0.94414010687E+02 -0.91971439361E+00  0.30677832515E+03  0.32097942624E+03  0.00000000000E+00 0.  1.
</event>
<event>
 7    1  0.6888820E-006  0.1166159E+03  0.7818608E-02  0.1257226E+00
          2   -1    0    0  502    0  0.00000000000E+00  0.00000000000E+00  0.20181123553E+04  0.20181123553E+04  0.00000000000E+00 0. -1.
          1   -1    0    0  501    0 -0.00000000000E+00 -0.00000000000E+00 -0.10282859678E+03  0.10282859678E+03  0.00000000000E+00 0. -1.
         25    2    1    2    0    0 -0.60494517327E+01  0.18160525470E+03  0.55572385537E+03  0.59788922000E+03  0.12500180625E+03 0.  0.
          2    1    1    2  501    0  0.64559777662E+02 -0.85620040239E+02 -0.43336952825E+02  0.11565832293E+03  0.00000000000E+00 0. -1.
          1    1    1    2  502    0 -0.58510325929E+02 -0.95985214462E+02  0.14028968559E+04  0.14073934091E+04  0.00000000000E+00 0. -1.
         22    1    3    3    0    0 -0.55635226975E+02  0.36611378235E+02  0.14700093946E+03  0.16138447168E+03  0.00000000000E+00 0. -1.
         22    1    3    3    0    0  0.49585775242E+02  0.14499387647E+03  0.40872291591E+03  0.43650474833E+03  0.00000000000E+00 0. -1.
</event>
<event>
 7    1  0.6888820E-006  0.3930718E+02  0.7818608E-02  0.1586484E+00
          2   -1    0    0  502    0  0.00000000000E+00  0.00000000000E+00  0.78406576443E+03  0.78406576443E+03  0.00000000000E+00 0. -1.
          1   -1    0    0  501    0 -0.00000000000E+00 -0.00000000000E+00 -0.10395811226E+04  0.10395811226E+04  0.00000000000E+00 0. -1.
         25    2    1    2    0    0 -0.43262566997E+02 -0.19392220677E+02 -0.26703467251E+03  0.29863257505E+03  0.12500476245E+03 0.  0.
          2    1    1    2  501    0  0.20893924625E+02 -0.12926818419E+02 -0.75604509537E+03  0.75644421139E+03  0.00000000000E+00 0. -1.
          1    1    1    2  502    0  0.22368642372E+02  0.32319039096E+02  0.76756440971E+03  0.76857010058E+03  0.00000000000E+00 0. -1.
         22    1    3    3    0    0  0.41171758283E+02 -0.12446083843E+02 -0.13561380024E+03  0.14227129541E+03  0.00000000000E+00 0. -1.
         22    1    3    3    0    0 -0.84434325280E+02 -0.69461368338E+01 -0.13142087227E+03  0.15636127964E+03  0.00000000000E+00 0. -1.
</event>
<event>
 7    1  0.6888820E-006  0.1151286E+03  0.7818608E-02  0.1301002E+00
          2   -1    0    0  502    0  0.00000000000E+00  0.00000000000E+00  0.16711581870E+04  0.16711581870E+04  0.00000000000E+00 0. -1.
          1   -1    0    0  501    0 -0.00000000000E+00 -0.00000000000E+00 -0.15964247776E+04  0.15964247776E+04  0.00000000000E+00 0. -1.
         25    2    1    2    0    0 -0.36678397866E+02  0.35881929090E+02  0.71874086113E+02  0.15304649435E+03  0.12499810988E+03 0.  0.
          2    1    1    2  501    0 -0.69302240699E+02  0.17843293784E+02 -0.15527488404E+04  0.15543970359E+04  0.00000000000E+00 0. -1.
          1    1    1    2  502    0  0.10598063856E+03 -0.53725222873E+02  0.15556081638E+04  0.15601394343E+04  0.00000000000E+00 0. -1.
         22    1    3    3    0    0  0.25748219471E+02 -0.33113000547E+02  0.19264807332E+02  0.46158145681E+02  0.00000000000E+00 0. -1.
         22    1    3    3    0    0 -0.62426617337E+02  0.68994929637E+02  0.52609278782E+02  0.10688834867E+03  0.00000000000E+00 0. -1.
</event>
<event>
 7    1  0.6888820E-006  0.6195504E+02  0.7818608E-02  0.1406909E+00
          2   -1    0    0  502    0  0.00000000000E+00  0.00000000000E+00  0.87896968175E+02  0.87896968175E+02  0.00000000000E+00 0. -1.
          1   -1    0    0  501    0 -0.00000000000E+00 -0.00000000000E+00 -0.19931412123E+04  0.19931412123E+04  0.00000000000E+00 0. -1.
         25    2    1    2    0    0 -0.27302860501E+02 -0.73713825748E+02 -0.62149142735E+03  0.63879246279E+03  0.12500016779E+03 0.  0.
          2    1    1    2  501    0 -0.24231164178E+02  0.57281410374E+02 -0.13529708956E+04  0.13543997023E+04  0.00000000000E+00 0. -1.
          1    1    1    2  502    0  0.51534024680E+02  0.16432415374E+02  0.69218078844E+02  0.87846015354E+02  0.00000000000E+00 0. -1.
         22    1    3    3    0    0 -0.68722934527E+02 -0.94950932600E+01 -0.34671303888E+03  0.35358581682E+03  0.00000000000E+00 0. -1.
         22    1    3    3    0    0  0.41420074026E+02 -0.64218732488E+02 -0.27477838847E+03  0.28520664597E+03  0.00000000000E+00 0. -1.
</event>
<event>
 7    1  0.6888820E-006  0.5673395E+02  0.7818608E-02  0.1478888E+00
          2   -1    0    0  502    0  0.00000000000E+00  0.00000000000E+00  0.29095923928E+04  0.29095923928E+04  0.00000000000E+00 0. -1.
          1   -1    0    0  501    0 -0.00000000000E+00 -0.00000000000E+00 -0.37893073784E+03  0.37893073784E+03  0.00000000000E+00 0. -1.
         25    2    1    2    0    0  0.19944345085E+02  0.55342666305E+02  0.18712074148E+03  0.23259258144E+03  0.12499819771E+03 0.  0.
          2    1    1    2  501    0 -0.34557328333E+02 -0.41055514790E+00 -0.35505652738E+03  0.35673451632E+03  0.00000000000E+00 0. -1.
          1    1    1    2  502    0  0.14612983248E+02 -0.54932111157E+02  0.26985974409E+04  0.26991960329E+04  0.00000000000E+00 0. -1.
         22    1    3    3    0    0  0.56322719868E+01  0.23015147265E+02 -0.14577406132E+02  0.27819422368E+02  0.00000000000E+00 0. -1.
         22    1    3    3    0    0  0.14312073098E+02  0.32327519041E+02  0.20169814761E+03  0.20477315907E+03  0.00000000000E+00 0. -1.
</event>
<event>
 7    1  0.6888820E-006  0.7110913E+02  0.7818608E-02  0.1357362E+00
          2   -1    0    0  502    0  0.00000000000E+00  0.00000000000E+00  0.48040588668E+03  0.48040588668E+03  0.00000000000E+00 0. -1.
          1   -1    0    0  501    0 -0.00000000000E+00 -0.00000000000E+00 -0.34001505459E+03  0.34001505459E+03  0.00000000000E+00 0. -1.
         25    2    1    2    0    0 -0.45581497743E+02  0.61292947730E+02  0.81521441307E+02  0.16764731891E+03  0.12500151906E+03 0.  0.
          2    1    1    2  501    0 -0.27776882498E+02 -0.64809299667E+02 -0.28887625369E+03  0.29735717659E+03  0.00000000000E+00 0. -1.
          1    1    1    2  502    0  0.73358380241E+02  0.35163519374E+01  0.34774564447E+03  0.35541644578E+03  0.00000000000E+00 0. -1.
         22    1    3    3    0    0 -0.16575383750E+02  0.40124943578E+02  0.11227057773E+03  0.12037207761E+03  0.00000000000E+00 0.  1.
         22    1    3    3    0    0 -0.29006113993E+02  0.21168004152E+02 -0.30749136428E+02  0.47275241298E+02  0.00000000000E+00 0.  1.
</event>
<event>
 7    1  0.7995568E-006  0.4658814E+02  0.7818608E-02  0.1466472E+00
          2   -1    0    0  502    0  0.00000000000E+00  0.00000000000E+00  0.18370114048E+04  0.18370114048E+04  0.00000000000E+00 0. -1.
          1   -1    0    0  501    0 -0.00000000000E+00 -0.00000000000E+00 -0.90685872150E+03  0.90685872150E+03  0.00000000000E+00 0. -1.
         25    2    1    2    0    0 -0.15651419862E+02  0.98845957129E+00 -0.11391548303E+03  0.16984660828E+03  0.12500075630E+03 0.  0.
          2    1    1    2  501    0  0.86520505215E+01  0.45163784026E+02 -0.76398508580E+03  0.76536777871E+03  0.00000000000E+00 0. -1.
          1    1    1    2  502    0  0.69993693402E+01 -0.46152243597E+02  0.18080532521E+04  0.18086557393E+04  0.00000000000E+00 0. -1.
         22    1    3    3    0    0 -0.68780606422E+02 -0.77852809693E+01 -0.45728327280E+02  0.82960607130E+02  0.00000000000E+00 0. -1.
         22    1    3    3    0    0  0.53129186560E+02  0.87737405406E+01 -0.68187155748E+02  0.86886001155E+02  0.00000000000E+00 0. -1.
</event>
<event>
 7    1  0.6888820E-006  0.7495238E+02  0.7818608E-02  0.1497970E+00
          2   -1    0    0  502    0  0.00000000000E+00  0.00000000000E+00  0.23625590569E+04  0.23625590569E+04  0.00000000000E+00 0. -1.
          1   -1    0    0  501    0 -0.00000000000E+00 -0.00000000000E+00 -0.20850294577E+03  0.20850294577E+03  0.00000000000E+00 0. -1.
         25    2    1    2    0    0  0.59899722031E+02 -0.18382755275E+02  0.74462841429E+03  0.75764268519E+03  0.12500024264E+03 0.  0.
          2    1    1    2  501    0 -0.62850350579E+02  0.41088257933E+02 -0.19493292369E+03  0.20889532366E+03  0.00000000000E+00 0. -1.
          1    1    1    2  502    0  0.29506285484E+01 -0.22705502658E+02  0.16043606206E+04  0.16045239938E+04  0.00000000000E+00 0. -1.
         22    1    3    3    0    0 -0.27335233462E+02 -0.28898434919E+02  0.11022129119E+03  0.11717963799E+03  0.00000000000E+00 0.  1.
         22    1    3    3    0    0  0.87234955493E+02  0.10515679644E+02  0.63440712311E+03  0.64046304720E+03  0.00000000000E+00 0.  1.
</event>
<event>
 7    1  0.6888820E-006  0.1811428E+03  0.7818608E-02  0.1390070E+00
          2   -1    0    0  502    0  0.00000000000E+00  0.00000000000E+00  0.14329203317E+04  0.14329203317E+04  0.00000000000E+00 0. -1.
          1   -1    0    0  501    0 -0.00000000000E+00 -0.00000000000E+00 -0.10130919012E+04  0.10130919012E+04  0.00000000000E+00 0. -1.
         25    2    1    2    0    0 -0.68976307634E+02 -0.18874909026E+03 -0.39176082714E+03  0.45769494657E+03  0.12499667335E+03 0.  0.
          2    1    1    2  501    0  0.12819424750E+02  0.16815915114E+02 -0.58232923661E+03  0.58271301038E+03  0.00000000000E+00 0. -1.
          1    1    1    2  502    0  0.56156882883E+02  0.17193317515E+03  0.13939184942E+04  0.14056042760E+04  0.00000000000E+00 0. -1.
         22    1    3    3    0    0  0.17850205975E+02 -0.68390081614E+02 -0.21805444105E+03  0.22922384775E+03  0.00000000000E+00 0.  1.
         22    1    3    3    0    0 -0.86826513609E+02 -0.12035900865E+03 -0.17370638608E+03  0.22847109882E+03  0.00000000000E+00 0.  1.
</event>
<event>
 7    1  0.6888820E-006  0.1378914E+03  0.7818608E-02  0.1339697E+00
          2   -1    0    0  502    0  0.00000000000E+00  0.00000000000E+00  0.86810267265E+03  0.86810267265E+03  0.00000000000E+00 0. -1.
          1   -1    0    0  501    0 -0.00000000000E+00 -0.00000000000E+00 -0.34187814503E+03  0.34187814503E+03  0.00000000000E+00 0. -1.
         25    2    1    2    0    0  0.14476420146E+02 -0.14989266015E+03  0.11759488217E+02  0.19606364900E+03  0.12500117034E+03 0.  0.
          2    1    1    2  501    0 -0.50025760429E+02  0.12698485454E+03 -0.23043323081E+03  0.26781934929E+03  0.00000000000E+00 0. -1.
          1    1    1    2  502    0  0.35549340282E+02  0.22907805608E+02  0.74489827021E+03  0.74609781940E+03  0.00000000000E+00 0. -1.
         22    1    3    3    0    0 -0.30207167230E+02 -0.77357819140E+02  0.55906488391E+02  0.10011114113E+03  0.00000000000E+00 0. -1.
         22    1    3    3    0    0  0.44683587376E+02 -0.72534841011E+02 -0.44147000174E+02  0.95952507865E+02  0.00000000000E+00 0. -1.
</event>
<event>
 7    1  0.6888820E-006  0.1031670E+03  0.7818608E-02  0.1287510E+00
          2   -1    0    0  502    0  0.00000000000E+00  0.00000000000E+00  0.20087285565E+03  0.20087285565E+03  0.00000000000E+00 0. -1.
          1   -1    0    0  501    0 -0.00000000000E+00 -0.00000000000E+00 -0.11780969101E+04  0.11780969101E+04  0.00000000000E+00 0. -1.
         25    2    1    2    0    0  0.70147356142E+02 -0.86930746351E+02  0.23246200552E+01  0.16765398121E+03  0.12499938929E+03 0.  0.
          2    1    1    2  501    0 -0.10399891632E+03  0.29592199987E+01 -0.10748445879E+04  0.10798682418E+04  0.00000000000E+00 0. -1.
          1    1    1    2  502    0  0.33851560178E+02  0.83971526352E+02  0.95295913410E+02  0.13144754268E+03  0.00000000000E+00 0. -1.
         22    1    3    3    0    0  0.37628818742E+02 -0.54569152646E+02 -0.60579373456E+02  0.89797443777E+02  0.00000000000E+00 0. -1.
         22    1    3    3    0    0  0.32518537400E+02 -0.32361593705E+02  0.62903993511E+02  0.77856537435E+02  0.00000000000E+00 0. -1.
</event>
<event>
 7    1  0.6888820E-006  0.1087231E+03  0.7818608E-02  0.1403467E+00
          2   -1    0    0  502    0  0.00000000000E+00  0.00000000000E+00  0.41903251374E+03  0.41903251374E+03  0.00000000000E+00 0. -1.
          1   -1    0    0  501    0 -0.00000000000E+00 -0.00000000000E+00 -0.19821836414E+03  0.19821836414E+03  0.00000000000E+00 0. -1.
         25    2    1    2    0    0 -0.95832937160E+02  0.41143953083E+02  0.87249845328E+02  0.18470008053E+03  0.12499923007E+03 0.  0.
          2    1    1    2  501    0  0.11005349689E+02  0.29694214248E+02 -0.13682809044E+03  0.14044497291E+03  0.00000000000E+00 0. -1.
          1    1    1    2  502    0  0.84827587471E+02 -0.70838167331E+02  0.27039239472E+03  0.29210582444E+03  0.00000000000E+00 0. -1.
         22    1    3    3    0    0  0.24567755438E+02  0.24386657095E+02  0.43303726375E+02  0.55439123095E+02  0.00000000000E+00 0. -1.
         22    1    3    3    0    0 -0.12040069260E+03  0.16757295988E+02  0.43946118953E+02  0.12926095744E+03  0.00000000000E+00 0. -1.
</event>
<event>
 7    1  0.6888820E-006  0.7828114E+02  0.7818608E-02  0.1359680E+00
          2   -1    0    0  502    0  0.00000000000E+00  0.00000000000E+00  0.61754924812E+02  0.61754924812E+02  0.00000000000E+00 0. -1.
          1   -1    0    0  501    0 -0.00000000000E+00 -0.00000000000E+00 -0.63243755427E+03  0.63243755427E+03  0.00000000000E+00 0. -1.
         25    2    1    2    0    0 -0.20841247699E+02  0.64724011680E+02 -0.84683302209E+02  0.16559153896E+03  0.12500296320E+03 0.  0.
          2    1    1    2  501    0 -0.61805466050E+02 -0.11202636161E+02 -0.37499717292E+03  0.38022137550E+03  0.00000000000E+00 0. -1.
          1    1    1    2  502    0  0.82646713749E+02 -0.53521375519E+02 -0.11100215433E+03  0.14837956462E+03  0.00000000000E+00 0. -1.
         22    1    3    3    0    0 -0.36948069308E+02  0.80393796023E+02 -0.10358437471E+03  0.13622791545E+03  0.00000000000E+00 0.  1.
         22    1    3    3    0    0  0.16106821608E+02 -0.15669784343E+02  0.18901072504E+02  0.29363623507E+02  0.00000000000E+00 0.  1.
</event>
<event>
 7    1  0.6888820E-006  0.5713035E+02  0.7818608E-02  0.1460944E+00
          2   -1    0    0  502    0  0.00000000000E+00  0.00000000000E+00  0.84650821068E+03  0.84650821068E+03  0.00000000000E+00 0. -1.
          1   -1    0    0  501    0 -0.00000000000E+00 -0.00000000000E+00 -0.26892355748E+03  0.26892355748E+03  0.00000000000E+00 0. -1.
         25    2    1    2    0    0 -0.21289971201E+02 -0.48723730853E+01  0.39975139802E+02  0.13304012351E+03  0.12499863907E+03 0.  0.
          2    1    1    2  501    0 -0.35687764442E+02  0.15797209138E+02 -0.21956052792E+03  0.22300222816E+03  0.00000000000E+00 0. -1.
          1    1    1    2  502    0  0.56977735643E+02 -0.10924836053E+02  0.75717004131E+03  0.75938941648E+03  0.00000000000E+00 0. -1.
         22    1    3    3    0    0  0.12161405736E+02  0.55652915745E+02  0.25371715053E+02  0.62360810972E+02  0.00000000000E+00 0.  1.
         22    1    3    3    0    0 -0.33451376937E+02 -0.60525288830E+02  0.14603424748E+02  0.70679312541E+02  0.00000000000E+00 0.  1.
</event>
<event>
 7    1  0.6888820E-006  0.5647145E+02  0.7818608E-02  0.1531649E+00
          2   -1    0    0  502    0  0.00000000000E+00  0.00000000000E+00  0.43261793731E+04  0.43261793731E+04  0.00000000000E+00 0. -1.
          1   -1    0    0  501    0 -0.00000000000E+00 -0.00000000000E+00 -0.95822178915E+03  0.95822178915E+03  0.00000000000E+00 0. -1.
         25    2    1    2    0    0  0.22271525111E+02  0.30599892944E+02  0.24046850075E+04  0.24082292444E+04  0.12500293530E+03 0.  0.
          2    1    1    2  501    0  0.96759526546E+01  0.22206066326E+02 -0.95580013942E+03  0.95610702328E+03  0.00000000000E+00 0. -1.
          1    1    1    2  502    0 -0.31947477765E+02 -0.52805959270E+02  0.19190727159E+04  0.19200648947E+04  0.00000000000E+00 0. -1.
         22    1    3    3    0    0 -0.39686606287E+01 -0.46745175108E+02  0.68401475635E+03  0.68562165118E+03  0.00000000000E+00 0.  1.
         22    1    3    3    0    0  0.26240185740E+02  0.77345068053E+02  0.17206702511E+04  0.17226075932E+04  0.00000000000E+00 0.  1.
</event>
<event>
 7    1  0.6888820E-006  0.1038854E+03  0.7818608E-02  0.1420249E+00
          2   -1    0    0  502    0  0.00000000000E+00  0.00000000000E+00  0.21859267877E+04  0.21859267877E+04  0.00000000000E+00 0. -1.
          1   -1    0    0  501    0 -0.00000000000E+00 -0.00000000000E+00 -0.67655543277E+03  0.67655543277E+03  0.00000000000E+00 0. -1.
         25    2    1    2    0    0 -0.12064057739E+03  0.34258676249E+02  0.77666545229E+03  0.79659829054E+03  0.12502722063E+03 0.  0.
          2    1    1    2  501    0  0.10320151665E+03 -0.10981555412E+02 -0.66239686853E+03  0.67047800787E+03  0.00000000000E+00 0. -1.
          1    1    1    2  502    0  0.17439060744E+02 -0.23277120838E+02  0.13951027712E+04  0.13954059221E+04  0.00000000000E+00 0. -1.
         22    1    3    3    0    0 -0.59075894398E+02 -0.37360848604E+02  0.48531612057E+03  0.49032390436E+03  0.00000000000E+00 0. -1.
         22    1    3    3    0    0 -0.61564682996E+02  0.71619524853E+02  0.29134933172E+03  0.30627438618E+03  0.00000000000E+00 0. -1.
</event>
<event>
 7    1  0.6888820E-006  0.6505788E+02  0.7818608E-02  0.1502274E+00
          2   -1    0    0  502    0  0.00000000000E+00  0.00000000000E+00  0.67078523092E+03  0.67078523092E+03  0.00000000000E+00 0. -1.
          1   -1    0    0  501    0 -0.00000000000E+00 -0.00000000000E+00 -0.13514785899E+03  0.13514785899E+03  0.00000000000E+00 0. -1.
         25    2    1    2    0    0 -0.45417518937E+01  0.50399877446E+02  0.87989380624E+02  0.16102178259E+03  0.12500043284E+03 0.  0.
          2    1    1    2  501    0 -0.23912204644E+02  0.91699457921E+01 -0.94934084019E+02  0.98327827929E+02  0.00000000000E+00 0. -1.
          1    1    1    2  502    0  0.28453956538E+02 -0.59569823238E+02  0.54258207532E+03  0.54658347939E+03  0.00000000000E+00 0. -1.
         22    1    3    3    0    0 -0.54503017492E+02  0.58800945240E+01  0.74927376153E+02  0.92840002825E+02  0.00000000000E+00 0.  1.
         22    1    3    3    0    0  0.49961265599E+02  0.44519782922E+02  0.13062004471E+02  0.68181779769E+02  0.00000000000E+00 0.  1.
</event>
<event>
 7    1  0.6888820E-006  0.9369289E+02  0.7818608E-02  0.1330255E+00
          2   -1    0    0  502    0  0.00000000000E+00  0.00000000000E+00  0.27763857442E+04  0.27763857442E+04  0.00000000000E+00 0. -1.
          1   -1    0    0  501    0 -0.00000000000E+00 -0.00000000000E+00 -0.14886671057E+04  0.14886671057E+04  0.00000000000E+00 0. -1.
         25    2    1    2    0    0  0.11779764453E+03 -0.65114363434E+02  0.23312178660E+03  0.29679817368E+03  0.12500889218E+03 0.  0.
          2    1    1    2  501    0 -0.24840442009E+02  0.62858556899E+02 -0.14551835637E+04  0.14567523639E+04  0.00000000000E+00 0. -1.
          1    1    1    2  502    0 -0.92957202525E+02  0.22558065352E+01  0.25097804156E+04  0.25115023123E+04  0.00000000000E+00 0. -1.
         22    1    3    3    0    0  0.85819878210E+02 -0.43667279415E+02  0.47769133933E+02  0.10748847819E+03  0.00000000000E+00 0. -1.
         22    1    3    3    0    0  0.31977766324E+02 -0.21447084019E+02  0.18535265267E+03  0.18930969548E+03  0.00000000000E+00 0. -1.
</event>
<event>
 7    1  0.6888820E-006  0.8172219E+02  0.7818608E-02  0.1327371E+00
          2   -1    0    0  502    0  0.00000000000E+00  0.00000000000E+00  0.22085302919E+03  0.22085302919E+03  0.00000000000E+00 0. -1.
          1   -1    0    0  501    0 -0.00000000000E+00 -0.00000000000E+00 -0.53136527467E+03  0.53136527467E+03  0.00000000000E+00 0. -1.
         25    2    1    2    0    0  0.48517050707E+01  0.37565803434E+01 -0.56360889853E+02  0.13725456866E+03  0.12499846309E+03 0.  0.
          2    1    1    2  501    0  0.54311147484E+02  0.61064026385E+02 -0.41970501031E+03  0.42758719782E+03  0.00000000000E+00 0. -1.
          1    1    1    2  502    0 -0.59162852554E+02 -0.64820606728E+02  0.16555365469E+03  0.18737653738E+03  0.00000000000E+00 0. -1.
         22    1    3    3    0    0 -0.11035890012E+02 -0.41358934507E+02 -0.74644971723E+02  0.86047801456E+02  0.00000000000E+00 0. -1.
         22    1    3    3    0    0  0.15887595082E+02  0.45115514850E+02  0.18284081871E+02  0.51206767205E+02  0.00000000000E+00 0. -1.
</event>
<event>
 7    1  0.6888820E-006  0.8704436E+02  0.7818608E-02  0.1418656E+00
          2   -1    0    0  502    0  0.00000000000E+00  0.00000000000E+00  0.14228551479E+03  0.14228551479E+03  0.00000000000E+00 0. -1.
          1   -1    0    0  501    0 -0.00000000000E+00 -0.00000000000E+00 -0.20752824047E+04  0.20752824047E+04  0.00000000000E+00 0. -1.
         25    2    1    2    0    0  0.32157239776E+02  0.11330691388E+03 -0.29759066133E+03  0.34359543696E+03  0.12500031114E+03 0.  0.
          2    1    1    2  501    0  0.25751762717E+01 -0.35046134959E+02 -0.17391240707E+04  0.17394790589E+04  0.00000000000E+00 0. -1.
          1    1    1    2  502    0 -0.34732416048E+02 -0.78260778918E+02  0.10371784208E+03  0.13449342366E+03  0.00000000000E+00 0. -1.
         22    1    3    3    0    0 -0.18406475595E+02 -0.21161779231E+02 -0.51427180380E+02  0.58577932072E+02  0.00000000000E+00 0.  1.
         22    1    3    3    0    0  0.50563715371E+02  0.13446869311E+03 -0.24616348096E+03  0.28501750489E+03  0.00000000000E+00 0.  1.
</event>
<event>
 7    1  0.6888820E-006  0.1248832E+03  0.7818608E-02  0.1237846E+00
          2   -1    0    0  502    0  0.00000000000E+00  0.00000000000E+00  0.32718068312E+04  0.32718068312E+04  0.00000000000E+00 0. -1.
          1   -1    0    0  501    0 -0.00000000000E+00 -0.00000000000E+00 -0.42696583200E+02  0.42696583200E+02  0.00000000000E+00 0. -1.
         25    2    1    2    0    0 -0.66366964906E+02  0.33126324450E+02  0.49673474816E+03  0.51756378157E+03  0.12499972222E+03 0.  0.
          2    1    1    2  501    0  0.31569697950E+02 -0.14965952754E+03  0.15876156674E+03  0.22045374817E+03  0.00000000000E+00 0. -1.
          1    1    1    2  502    0  0.34797266956E+02  0.11653320309E+03  0.25736139331E+04  0.25764858846E+04  0.00000000000E+00 0. -1.
         22    1    3    3    0    0 -0.18150672950E+02  0.69602984096E+02  0.37270666489E+03  0.37958435212E+03  0.00000000000E+00 0. -1.
         22    1    3    3    0    0 -0.48216291956E+02 -0.36476659646E+02  0.12402808328E+03  0.13797942945E+03  0.00000000000E+00 0. -1.
</event>
<event>
 7    1  0.7294674E-006  0.6672737E+02  0.7818608E-02  0.1373667E+00
          2   -1    0    0  502    0  0.00000000000E+00  0.00000000000E+00  0.57593572842E+03  0.57593572842E+03  0.00000000000E+00 0. -1.
          1   -1    0    0  501    0 -0.00000000000E+00 -0.00000000000E+00 -0.86638378123E+03  0.86638378123E+03  0.00000000000E+00 0. -1.
         25    2    1    2    0    0  0.36524994303E+01  0.29432650156E+01 -0.15363878866E+03  0.19812141942E+03  0.12500086357E+03 0.  0.
          2    1    1    2  501    0 -0.19111590640E+02  0.62748194531E+02 -0.68687907306E+03  0.69000394913E+03  0.00000000000E+00 0. -1.
          1    1    1    2  502    0  0.15459091210E+02 -0.65691459546E+02  0.55006980890E+03  0.55419414110E+03  0.00000000000E+00 0. -1.
         22    1    3    3    0    0  0.73237105677E+01  0.63656430054E+02 -0.73380084236E+02  0.97418758903E+02  0.00000000000E+00 0. -1.
         22    1    3    3    0    0 -0.36712111374E+01 -0.60713165038E+02 -0.80258704423E+02  0.10070266052E+03  0.00000000000E+00 0. -1.
</event>
<event>
 7    1  0.6888820E-006  0.8803822E+02  0.7818608E-02  0.1407956E+00
          2   -1    0    0  502    0  0.00000000000E+00  0.00000000000E+00  0.66414916947E+03  0.66414916947E+03  0.00000000000E+00 0. -1.
          1   -1    0    0  501    0 -0.00000000000E+00 -0.00000000000E+00 -0.13870511831E+03  0.13870511831E+03  0.00000000000E+00 0. -1.
         25    2    1    2    0    0  0.54272777834E+02 -0.21350344605E+01  0.69222155205E+02  0.15285951357E+03  0.12499692529E+03 0.  0.
          2    1    1    2  501    0  0.35696473137E+02 -0.12293796123E+02 -0.89280336445E+02  0.96934792997E+02  0.00000000000E+00 0. -1.
          1    1    1    2  502    0 -0.89969250971E+02  0.14428830584E+02  0.54550223239E+03  0.55305998121E+03  0.00000000000E+00 0. -1.
         22    1    3    3    0    0  0.81988176580E+02 -0.86103204801E+01  0.86557461209E+02  0.11953406547E+03  0.00000000000E+00 0. -1.
         22    1    3    3    0    0 -0.27715398746E+02  0.64752860195E+01 -0.17335306004E+02  0.33325448098E+02  0.00000000000E+00 0. -1.
</event>
<event>
 7    1  0.6888820E-006  0.9242573E+02  0.7818608E-02  0.1306070E+00
          2   -1    0    0  502    0  0.00000000000E+00  0.00000000000E+00  0.46543532337E+03  0.46543532337E+03  0.00000000000E+00 0. -1.
          1   -1    0    0  501    0 -0.00000000000E+00 -0.00000000000E+00 -0.12190287466E+04  0.12190287466E+04  0.00000000000E+00 0. -1.
         25    2    1    2    0    0  0.30261400061E+02  0.39517850739E+01  0.86147134296E+02  0.15485017274E+03  0.12500351319E+03 0.  0.
          2    1    1    2  501    0 -0.29023961233E+02 -0.89036832692E+02 -0.11775417442E+04  0.11812597120E+04  0.00000000000E+00 0. -1.
          1    1    1    2  502    0 -0.12374388285E+01  0.85085047618E+02  0.33780118671E+03  0.34835418517E+03  0.00000000000E+00 0. -1.
         22    1    3    3    0    0  0.29845236641E+02 -0.19761975488E+02 -0.23400074793E+02  0.42764907642E+02  0.00000000000E+00 0. -1.
         22    1    3    3    0    0  0.41616342000E+00  0.23713760562E+02  0.10954720909E+03  0.11208526509E+03  0.00000000000E+00 0. -1.
</event>
<event>
 7    1  0.6888820E-006  0.1408462E+03  0.7818608E-02  0.1314962E+00
          2   -1    0    0  502    0  0.00000000000E+00  0.00000000000E+00  0.37075060084E+03  0.37075060084E+03  0.00000000000E+00 0. -1.
          1   -1    0    0  501    0 -0.00000000000E+00 -0.00000000000E+00 -0.20187082711E+04  0.20187082711E+04  0.00000000000E+00 0. -1.
         25    2    1    2    0    0  0.17426940941E+03  0.22677156217E+01 -0.69666273865E+03  0.72893015256E+03  0.12500090520E+03 0.  0.
          2    1    1    2  501    0 -0.37835643417E+02 -0.34960342430E+02 -0.12915019821E+04  0.12925289673E+04  0.00000000000E+00 0. -1.
          1    1    1    2  502    0 -0.13643376599E+03  0.32692626808E+02  0.34020705049E+03  0.36799975211E+03  0.00000000000E+00 0. -1.
         22    1    3    3    0    0  0.12763707516E+03  0.55942161392E+02 -0.52366063057E+03  0.54188670807E+03  0.00000000000E+00 0.  1.
         22    1    3    3    0    0  0.46632334247E+02 -0.53674445770E+02 -0.17300210808E+03  0.18704344449E+03  0.00000000000E+00 0.  1.
</event>
<event>
 7    1  0.1176926E-005  0.9315290E+02  0.7818608E-02  0.1445698E+00
          2   -1    0    0  502    0  0.00000000000E+00  0.00000000000E+00  0.25402458670E+04  0.25402458670E+04  0.00000000000E+00 0. -1.
          1   -1    0    0  501    0 -0.00000000000E+00 -0.00000000000E+00 -0.12021486410E+04  0.12021486410E+04  0.00000000000E+00 0. -1.
         25    2    1    2    0    0 -0.44751061203E+02 -0.11119397116E+03 -0.42805183619E+03  0.46176115398E+03  0.12501292799E+03 0.  0.
          2    1    1    2  501    0  0.94987214672E+01  0.25024761851E+02 -0.75614650820E+03  0.75662012019E+03  0.00000000000E+00 0. -1.
          1    1    1    2  502    0  0.35252339736E+02  0.86169209308E+02  0.25222955704E+04  0.25240132338E+04  0.00000000000E+00 0. -1.
         22    1    3    3    0    0 -0.35961295780E+02 -0.52945212042E+02 -0.38108285154E+03  0.38642017288E+03  0.00000000000E+00 0.  1.
         22    1    3    3    0    0 -0.87897654228E+01 -0.58248759117E+02 -0.46968984648E+02  0.75340981104E+02  0.00000000000E+00 0.  1.
</event>
<event>
 7    1  0.6888820E-006  0.9947931E+02  0.7818608E-02  0.1436917E+00
          2   -1    0    0  502    0  0.00000000000E+00  0.00000000000E+00  0.20469405952E+03  0.20469405952E+03  0.00000000000E+00 0. -1.
          1   -1    0    0  501    0 -0.00000000000E+00 -0.00000000000E+00 -0.57363277954E+03  0.57363277954E+03  0.00000000000E+00 0. -1.
         25    2    1    2    0    0  0.11974863332E+03 -0.35077589271E+02  0.51318945965E+01  0.17669267335E+03  0.12499516800E+03 0.  0.
          2    1    1    2  501    0 -0.94657865985E+02  0.25770850540E+02 -0.48125866422E+03  0.49115593269E+03  0.00000000000E+00 0. -1.
          1    1    1    2  502    0 -0.25090767339E+02  0.93067387310E+01  0.10718804961E+03  0.11047823301E+03  0.00000000000E+00 0. -1.
         22    1    3    3    0    0  0.40348133394E+02  0.27168524341E+02  0.46832557877E+02  0.67523248297E+02  0.00000000000E+00 0. -1.
         22    1    3    3    0    0  0.79400499931E+02 -0.62246113612E+02 -0.41700663281E+02  0.10916942506E+03  0.00000000000E+00 0. -1.
</event>
<event>
 7    1  0.6888820E-006  0.5445964E+02  0.7818608E-02  0.1425258E+00
          2   -1    0    0  502    0  0.00000000000E+00  0.00000000000E+00  0.40543277107E+03  0.40543277107E+03  0.00000000000E+00 0. -1.
          1   -1    0    0  501    0 -0.00000000000E+00 -0.00000000000E+00 -0.89782105993E+03  0.89782105993E+03  0.00000000000E+00 0. -1.
         25    2    1    2    0    0  0.29614861517E+02  0.56139589672E+02  0.31831074703E+02  0.14376021322E+03  0.12500035215E+03 0.  0.
          2    1    1    2  501    0  0.24783289191E+02 -0.47293078409E+02 -0.83861043454E+03  0.84030845980E+03  0.00000000000E+00 0. -1.
          1    1    1    2  502    0 -0.54398150708E+02 -0.88465112624E+01  0.31439107098E+03  0.31918515798E+03  0.00000000000E+00 0. -1.
         22    1    3    3    0    0  0.76496317079E+02  0.40235712635E+02  0.36932230526E+02  0.93992493048E+02  0.00000000000E+00 0. -1.
         22    1    3    3    0    0 -0.46881455561E+02  0.15903877037E+02 -0.51011558228E+01  0.49767720171E+02  0.00000000000E+00 0. -1.
</event>
<event>
 7    1  0.6888820E-006  0.1449279E+03  0.7818608E-02  0.1218345E+00
          2   -1    0    0  502    0  0.00000000000E+00  0.00000000000E+00  0.15600893384E+04  0.15600893384E+04  0.00000000000E+00 0. -1.
          1   -1    0    0  501    0 -0.00000000000E+00 -0.00000000000E+00 -0.27830638556E+04  0.27830638556E+04  0.00000000000E+00 0. -1.
         25    2    1    2    0    0  0.27012143990E+03 -0.90003494454E+01 -0.15676947102E+02  0.29819063094E+03  0.12500114850E+03 0.  0.
          2    1    1    2  501    0 -0.14298843309E+03 -0.79254981593E+01 -0.26212731738E+04  0.26251821950E+04  0.00000000000E+00 0. -1.
          1    1    1    2  502    0 -0.12713300682E+03  0.16925847605E+02  0.14139756036E+04  0.14197803680E+04  0.00000000000E+00 0. -1.
         22    1    3    3    0    0  0.25830512416E+03 -0.30918711423E+02  0.12673494137E+02  0.26045752309E+03  0.00000000000E+00 0. -1.
         22    1    3    3    0    0  0.11816315745E+02  0.21918361977E+02 -0.28350441240E+02  0.37733107850E+02  0.00000000000E+00 0. -1.
</event>
<event>
 7    1  0.6888820E-006  0.1184733E+03  0.7818608E-02  0.1275109E+00
          2   -1    0    0  502    0  0.00000000000E+00  0.00000000000E+00  0.35428742446E+04  0.35428742446E+04  0.00000000000E+00 0. -1.
          1   -1    0    0  501    0 -0.00000000000E+00 -0.00000000000E+00 -0.21027735065E+02  0.21027735065E+02  0.00000000000E+00 0. -1.
         25    2    1    2    0    0 -0.80389733916E+01 -0.12657617635E+03  0.61429445715E+03  0.63958505161E+03  0.12500081858E+03 0.  0.
          2    1    1    2  501    0  0.88686246802E+02  0.89663064331E+02  0.51842063016E+03  0.53353975040E+03  0.00000000000E+00 0. -1.
          1    1    1    2  502    0 -0.80647273411E+02  0.36913112020E+02  0.23891314222E+04  0.23907771777E+04  0.00000000000E+00 0. -1.
         22    1    3    3    0    0 -0.64766493945E+02 -0.56839048516E+02  0.25288905778E+03  0.26716708577E+03  0.00000000000E+00 0. -1.
         22    1    3    3    0    0  0.56727520553E+02 -0.69737127835E+02  0.36140539937E+03  0.37241796584E+03  0.00000000000E+00 0. -1.
</event>
<event>
 7    1  0.6888820E-006  0.4273060E+02  0.7818608E-02  0.1512356E+00
          2   -1    0    0  502    0  0.00000000000E+00  0.00000000000E+00  0.46947933102E+03  0.46947933102E+03  0.00000000000E+00 0. -1.
          1   -1    0    0  501    0 -0.00000000000E+00 -0.00000000000E+00 -0.13325065226E+03  0.13325065226E+03  0.00000000000E+00 0. -1.
         25    2    1    2    0    0 -0.48476177803E+02  0.40793739829E+02  0.16395153056E+03  0.21568265841E+03  0.12499934297E+03 0.  0.
          2    1    1    2  501    0  0.67306479982E+01 -0.35779483907E+02 -0.10265444492E+03  0.10891927356E+03  0.00000000000E+00 0. -1.
          1    1    1    2  502    0  0.41745529804E+02 -0.50142559213E+01  0.27493159313E+03  0.27812805130E+03  0.00000000000E+00 0. -1.
         22    1    3    3    0    0  0.16127294256E+02 -0.56439961512E+01  0.12667358141E+03  0.12782073595E+03  0.00000000000E+00 0.  1.
         22    1    3    3    0    0 -0.64603472058E+02  0.46437735980E+02  0.37277949147E+02  0.87861922455E+02  0.00000000000E+00 0.  1.
</event>
<event>
 7    1  0.6888820E-006  0.6567638E+02  0.7818608E-02  0.1462620E+00
          2   -1    0    0  502    0  0.00000000000E+00  0.00000000000E+00  0.22625906675E+03  0.22625906675E+03  0.00000000000E+00 0. -1.
          1   -1    0    0  501    0 -0.00000000000E+00 -0.00000000000E+00 -0.16094342965E+03  0.16094342965E+03  0.00000000000E+00 0. -1.
         25    2    1    2    0    0 -0.13319940287E+02  0.37348469255E+02  0.63662874762E+02  0.14577663557E+03  0.12500214755E+03 0.  0.
          2    1    1    2  501    0  0.42852542562E+02 -0.53245834924E+02 -0.10741576233E+03  0.12731694835E+03  0.00000000000E+00 0. -1.
          1    1    1    2  502    0 -0.29532602275E+02  0.15897365669E+02  0.10906852467E+03  0.11410891247E+03  0.00000000000E+00 0. -1.
         22    1    3    3    0    0 -0.55804820119E+02 -0.94310321545E+01  0.59995619622E+02  0.82477855755E+02  0.00000000000E+00 0.  1.
         22    1    3    3    0    0  0.42484879832E+02  0.46779501409E+02  0.36672551400E+01  0.63298779820E+02  0.00000000000E+00 0.  1.
</event>
<event>
 7    1  0.6888820E-006  0.9302161E+02  0.7818608E-02  0.1337402E+00
          2   -1    0    0  502    0  0.00000000000E+00  0.00000000000E+00  0.13689872590E+04  0.13689872590E+04  0.00000000000E+00 0. -1.
          1   -1    0    0  501    0 -0.00000000000E+00 -0.00000000000E+00 -0.92823515308E+03  0.92823515308E+03  0.00000000000E+00 0. -1.
         25    2    1    2    0    0  0.13744975766E+03 -0.31197840264E+01  0.53564464961E+03  0.56695876714E+03  0.12499953618E+03 0.  0.
          2    1    1    2  501    0 -0.84382580832E+02  0.38808321483E+02 -0.90895757038E+03  0.91369052229E+03  0.00000000000E+00 0. -1.
          1    1    1    2  502    0 -0.53067176829E+02 -0.35688537457E+02  0.81406502673E+03  0.81657312269E+03  0.00000000000E+00 0. -1.
         22    1    3    3    0    0  0.14986534851E+03  0.27098773852E+02  0.46017135967E+03  0.48471811033E+03  0.00000000000E+00 0. -1.
         22    1    3    3    0    0 -0.12415590852E+02 -0.30218557879E+02  0.75473289945E+02  0.82240656804E+02  0.00000000000E+00 0. -1.
</event>
<event>
 7    1  0.7067023E-006  0.1192881E+03  0.7818608E-02  0.1312967E+00
          2   -1    0    0  502    0  0.00000000000E+00  0.00000000000E+00  0.15264192147E+04  0.15264192147E+04  0.00000000000E+00 0. -1.
          1   -1    0    0  501    0 -0.00000000000E+00 -0.00000000000E+00 -0.11042617839E+04  0.11042617839E+04  0.00000000000E+00 0. -1.
         25    2    1    2    0    0  0.12242302849E+03  0.44432386824E+02 -0.19788215029E+03  0.26784948853E+03  0.12499747277E+03 0.  0.
          2    1    1    2  501    0 -0.79674500133E+02 -0.89240474882E+02 -0.86664225456E+03  0.87486038070E+03  0.00000000000E+00 0. -1.
          1    1    1    2  502    0 -0.42748528359E+02  0.44808088058E+02  0.14866818357E+04  0.14879711294E+04  0.00000000000E+00 0. -1.
         22    1    3    3    0    0  0.12565835000E+03  0.62637024270E+02 -0.11088819662E+03  0.17891229663E+03  0.00000000000E+00 0. -1.
         22    1    3    3    0    0 -0.32353215048E+01 -0.18204637446E+02 -0.86993953667E+02  0.88937191907E+02  0.00000000000E+00 0. -1.
</event>
<event>
 7    1  0.6891578E-006  0.5725506E+02  0.7818608E-02  0.1428926E+00
          2   -1    0    0  502    0  0.00000000000E+00  0.00000000000E+00  0.10698738994E+04  0.10698738994E+04  0.00000000000E+00 0. -1.
          1   -1    0    0  501    0 -0.00000000000E+00 -0.00000000000E+00 -0.11501249515E+04  0.11501249515E+04  0.00000000000E+00 0. -1.
         25    2    1    2    0    0  0.52834063236E+02  0.86308768924E+02 -0.18486607720E+03  0.24503188317E+03  0.12499806174E+03 0.  0.
          2    1    1    2  501    0 -0.40954635612E+02 -0.38370789785E+02 -0.93374652950E+03  0.93543154803E+03  0.00000000000E+00 0. -1.
          1    1    1    2  502    0 -0.11879427624E+02 -0.47937979140E+02  0.10383615547E+04  0.10395354197E+04  0.00000000000E+00 0. -1.
         22    1    3    3    0    0  0.50712688046E+02 -0.90713283795E+01 -0.21448693970E+02  0.55804231026E+02  0.00000000000E+00 0.  1.
         22    1    3    3    0    0  0.21213751896E+01  0.95380097304E+02 -0.16341738323E+03  0.18922765215E+03  0.00000000000E+00 0.  1.
</event>
<event>
 7    1  0.6888820E-006  0.1140535E+03  0.7818608E-02  0.1292226E+00
          2   -1    0    0  502    0  0.00000000000E+00  0.00000000000E+00  0.15835375598E+03  0.15835375598E+03  0.00000000000E+00 0. -1.
          1   -1    0    0  501    0 -0.00000000000E+00 -0.00000000000E+00 -0.43519329543E+03  0.43519329543E+03  0.00000000000E+00 0. -1.
         25    2    1    2    0    0 -0.78473095757E+02 -0.10269934854E+03 -0.44002905450E+02  0.18511237633E+03  0.12500061293E+03 0.  0.
          2    1    1    2  501    0  0.11081061202E+03  0.31325760495E+02 -0.28961513676E+03  0.31166844955E+03  0.00000000000E+00 0. -1.
          1    1    1    2  502    0 -0.32337516260E+02  0.71373588046E+02  0.56778502760E+02  0.96766225534E+02  0.00000000000E+00 0. -1.
         22    1    3    3    0    0 -0.31469359075E+02 -0.66560648901E+02  0.38837407734E+02  0.83240523678E+02  0.00000000000E+00 0.  1.
         22    1    3    3    0    0 -0.47003736683E+02 -0.36138699639E+02 -0.82840313184E+02  0.10187185265E+03  0.00000000000E+00 0.  1.
</event>
<event>
 7    1  0.6888820E-006  0.1383726E+03  0.7818608E-02  0.1221045E+00
          2   -1    0    0  502    0  0.00000000000E+00  0.00000000000E+00  0.51675776916E+03  0.51675776916E+03  0.00000000000E+00 0. -1.
          1   -1    0    0  501    0 -0.00000000000E+00 -0.00000000000E+00 -0.92456587779E+03  0.92456587779E+03  0.00000000000E+00 0. -1.
         25    2    1    2    0    0  0.91197764068E+02  0.68514445268E+02  0.10548717456E+02  0.16954820639E+03  0.12499622982E+03 0.  0.
          2    1    1    2  501    0  0.49980822337E+02 -0.12063070623E+03 -0.82651073377E+03  0.83676152093E+03  0.00000000000E+00 0. -1.
          1    1    1    2  502    0 -0.14117858641E+03  0.52116260958E+02  0.40815390767E+03  0.43501391962E+03  0.00000000000E+00 0. -1.
         22    1    3    3    0    0  0.34174544639E+02 -0.24228984036E+02  0.38769063243E+02  0.57078747651E+02  0.00000000000E+00 0.  1.
         22    1    3    3    0    0  0.57023219429E+02  0.92743429303E+02 -0.28220345787E+02  0.11246945874E+03  0.00000000000E+00 0.  1.
</event>
<event>
 7    1  0.6888820E-006  0.4064922E+02  0.7818608E-02  0.1506014E+00
          2   -1    0    0  502    0  0.00000000000E+00  0.00000000000E+00  0.30116122525E+04  0.30116122525E+04  0.00000000000E+00 0. -1.
          1   -1    0    0  501    0 -0.00000000000E+00 -0.00000000000E+00 -0.22972267088E+04  0.22972267088E+04  0.00000000000E+00 0. -1.
         25    2    1    2    0    0 -0.27893906585E+02  0.23510901720E+02  0.88833697783E+03  0.89783007823E+03  0.12500172271E+03 0.  0.
          2    1    1    2  501    0  0.36010344228E+02  0.17308697482E+02 -0.22921016415E+04  0.22924498404E+04  0.00000000000E+00 0. -1.
          1    1    1    2  502    0 -0.81164376424E+01 -0.40819599202E+02  0.21181502074E+04  0.21185590427E+04  0.00000000000E+00 0. -1.
         22    1    3    3    0    0  0.22075236185E+02  0.41756045363E+02  0.71393384133E+03  0.71549452351E+03  0.00000000000E+00 0.  1.
         22    1    3    3    0    0 -0.49969142771E+02 -0.18245143643E+02  0.17440313650E+03  0.18233555472E+03  0.00000000000E+00 0.  1.
</event>
<event>
 7    1  0.6888820E-006  0.9505381E+02  0.7818608E-02  0.1402005E+00
          2   -1    0    0  502    0  0.00000000000E+00  0.00000000000E+00  0.17283624560E+04  0.17283624560E+04  0.00000000000E+00 0. -1.
          1   -1    0    0  501    0 -0.00000000000E+00 -0.00000000000E+00 -0.60512007758E+03  0.60512007758E+03  0.00000000000E+00 0. -1.
         25    2    1    2    0    0  0.59644740339E+02  0.25361424461E+02 -0.35565453441E+03  0.38251007508E+03  0.12499245094E+03 0.  0.
          2    1    1    2  501    0  0.34593825477E+02 -0.12079121813E+02 -0.23328624597E+03  0.23614637516E+03  0.00000000000E+00 0. -1.
          1    1    1    2  502    0 -0.94238565816E+02 -0.13282302648E+02  0.17121831588E+04  0.17148260834E+04  0.00000000000E+00 0. -1.
         22    1    3    3    0    0  0.51684636180E+02  0.53262741154E+02 -0.96514801893E+02  0.12175109115E+03  0.00000000000E+00 0. -1.
         22    1    3    3    0    0  0.79601041587E+01 -0.27901316693E+02 -0.25913973252E+03  0.26075898393E+03  0.00000000000E+00 0. -1.
</event>
<event>
 7    1  0.6888820E-006  0.6070139E+02  0.7818608E-02  0.1461988E+00
          2   -1    0    0  502    0  0.00000000000E+00  0.00000000000E+00  0.70557324128E+03  0.70557324128E+03  0.00000000000E+00 0. -1.
          1   -1    0    0  501    0 -0.00000000000E+00 -0.00000000000E+00 -0.24825760472E+03  0.24825760472E+03  0.00000000000E+00 0. -1.
         25    2    1    2    0    0 -0.25666352288E+02  0.56160777679E+02 -0.21627664092E+01  0.13943056386E+03  0.12499363980E+03 0.  0.
          2    1    1    2  501    0 -0.26609370456E+02 -0.24917886365E+02 -0.17411315605E+03  0.17788859089E+03  0.00000000000E+00 0. -1.
          1    1    1    2  502    0  0.52275722744E+02 -0.31242891315E+02  0.63359155902E+03  0.63651169125E+03  0.00000000000E+00 0. -1.
         22    1    3    3    0    0 -0.57754622505E+02  0.22060639659E+02 -0.44603599151E+02  0.76234829967E+02  0.00000000000E+00 0. -1.
         22    1    3    3    0    0  0.32088270216E+02  0.34100138021E+02  0.42440832742E+02  0.63195733894E+02  0.00000000000E+00 0. -1.
</event>
<event>
 7    1  0.6888820E-006  0.1437745E+03  0.7818608E-02  0.1360079E+00
          2   -1    0    0  502    0  0.00000000000E+00  0.00000000000E+00  0.73410698476E+03  0.73410698476E+03  0.00000000000E+00 0. -1.
          1   -1    0    0  501    0 -0.00000000000E+00 -0.00000000000E+00 -0.18389335860E+03  0.18389335860E+03  0.00000000000E+00 0. -1.
         25    2    1    2    0    0 -0.12394087834E+03 -0.59766629732E+02  0.45295331295E+03  0.48961730907E+03  0.12500005714E+03 0.  0.
          2    1    1    2  501    0  0.11169336320E+03  0.91575309360E+02 -0.13256238284E+03  0.19604649961E+03  0.00000000000E+00 0. -1.
          1    1    1    2  502    0  0.12247515142E+02 -0.31808679628E+02  0.22982269605E+03  0.23233653468E+03  0.00000000000E+00 0. -1.
         22    1    3    3    0    0 -0.16123379471E+02 -0.18977256538E+02  0.29407348539E+01  0.25074839037E+02  0.00000000000E+00 0. -1.
         22    1    3    3    0    0 -0.10781749887E+03 -0.40789373194E+02  0.45001257809E+03  0.46454247004E+03  0.00000000000E+00 0. -1.
</event>
<event>
 7    1  0.6888820E-006  0.5367921E+02  0.7818608E-02  0.1563486E+00
          2   -1    0    0  502    0  0.00000000000E+00  0.00000000000E+00  0.10793283230E+04  0.10793283230E+04  0.00000000000E+00 0. -1.
          1   -1    0    0  501    0 -0.00000000000E+00 -0.00000000000E+00 -0.72160958722E+03  0.72160958722E+03  0.00000000000E+00 0. -1.
         25    2    1    2    0    0 -0.22718697694E+02 -0.59180078905E+02  0.35173990840E+03  0.37863432901E+03  0.12499828393E+03 0.  0.
          2    1    1    2  501    0  0.19843526894E+02  0.60855427448E+01 -0.70702011537E+03  0.70732470827E+03  0.00000000000E+00 0. -1.
          1    1    1    2  502    0  0.28751707999E+01  0.53094536161E+02  0.71299894277E+03  0.71497887295E+03  0.00000000000E+00 0. -1.
         22    1    3    3    0    0 -0.83982458831E+01  0.20101122253E+02  0.23941754448E+03  0.24040662690E+03  0.00000000000E+00 0.  1.
         22    1    3    3    0    0 -0.14320451811E+02 -0.79281201158E+02  0.11232236391E+03  0.13822770211E+03  0.00000000000E+00 0.  1.
</event>
<event>
 7    1  0.6888820E-006  0.7740660E+02  0.7818608E-02  0.1409691E+00
          2   -1    0    0  502    0  0.00000000000E+00  0.00000000000E+00  0.22895523014E+03  0.22895523014E+03  0.00000000000E+00 0. -1.
          1   -1    0    0  501    0 -0.00000000000E+00 -0.00000000000E+00 -0.15136120603E+04  0.15136120603E+04  0.00000000000E+00 0. -1.
         25    2    1    2    0    0  0.61522386778E+02  0.88108484524E+02 -0.25759024788E+03  0.30581764017E+03  0.12499433634E+03 0.  0.
          2    1    1    2  501    0 -0.21968228197E+02 -0.72945284338E+02 -0.12285254974E+04  0.12308852567E+04  0.00000000000E+00 0. -1.
          1    1    1    2  502    0 -0.39554158581E+02 -0.15163200186E+02  0.20145891504E+03  0.20586439359E+03  0.00000000000E+00 0. -1.
         22    1    3    3    0    0  0.17370875963E+01  0.64093717263E+02 -0.22432565260E+03  0.23330885212E+03  0.00000000000E+00 0. -1.
         22    1    3    3    0    0  0.59785299182E+02  0.24014767261E+02 -0.33264595286E+02  0.72508788049E+02  0.00000000000E+00 0. -1.
</event>
<event>
 7    1  0.6888820E-006  0.1066219E+03  0.7818608E-02  0.1449746E+00
          2   -1    0    0  502    0  0.00000000000E+00  0.00000000000E+00  0.70535998780E+03  0.70535998780E+03  0.00000000000E+00 0. -1.
          1   -1    0    0  501    0 -0.00000000000E+00 -0.00000000000E+00 -0.31978405774E+03  0.31978405774E+03  0.00000000000E+00 0. -1.
         25    2    1    2    0    0  0.84879469914E+02  0.43070506590E+02  0.22209543074E+03  0.27203199186E+03  0.12496171930E+03 0.  0.
          2    1    1    2  501    0  0.20121645415E+02 -0.10499321617E+02 -0.28776956908E+03  0.28866319692E+03  0.00000000000E+00 0. -1.
          1    1    1    2  502    0 -0.10500111533E+03 -0.32571184973E+02  0.45125006840E+03  0.46444885676E+03  0.00000000000E+00 0. -1.
         22    1    3    3    0    0  0.10244406211E+03 -0.82850965985E+01  0.14288486116E+03  0.17600997766E+03  0.00000000000E+00 0. -1.
         22    1    3    3    0    0 -0.17564592199E+02  0.51355603188E+02  0.79210569576E+02  0.96022014197E+02  0.00000000000E+00 0. -1.
</event>
<event>
 7    1  0.6888820E-006  0.1008036E+03  0.7818608E-02  0.1285547E+00
          2   -1    0    0  502    0  0.00000000000E+00  0.00000000000E+00  0.18356570611E+04  0.18356570611E+04  0.00000000000E+00 0. -1.
          1   -1    0    0  501    0 -0.00000000000E+00 -0.00000000000E+00 -0.13509975462E+03  0.13509975462E+03  0.00000000000E+00 0. -1.
         25    2    1    2    0    0 -0.79292742175E+02 -0.13523234862E+02  0.73620723698E+03  0.75106319479E+03  0.12499843976E+03 0.  0.
          2    1    1    2  501    0 -0.11452679840E+02  0.93692445010E+02 -0.10633406892E+03  0.14218429006E+03  0.00000000000E+00 0. -1.
          1    1    1    2  502    0  0.90745422014E+02 -0.80169210148E+02  0.10706841384E+04  0.10775093309E+04  0.00000000000E+00 0. -1.
         22    1    3    3    0    0  0.26901633130E+02 -0.21933905581E+01  0.52163810264E+02  0.58733056523E+02  0.00000000000E+00 0. -1.
         22    1    3    3    0    0 -0.10619437530E+03 -0.11329844304E+02  0.68404342672E+03  0.69233013827E+03  0.00000000000E+00 0. -1.
</event>
<event>
 7    1  0.6888820E-006  0.6263156E+02  0.7818608E-02  0.1447857E+00
          2   -1    0    0  502    0  0.00000000000E+00  0.00000000000E+00  0.12143437589E+03  0.12143437589E+03  0.00000000000E+00 0. -1.
          1   -1    0    0  501    0 -0.00000000000E+00 -0.00000000000E+00 -0.11075113456E+04  0.11075113456E+04  0.00000000000E+00 0. -1.
         25    2    1    2    0    0 -0.54345096114E+02 -0.76015932606E+02 -0.88301319406E+02  0.17931385876E+03  0.12499810180E+03 0.  0.
          2    1    1    2  501    0  0.19022203642E+02  0.59064764595E+02 -0.96758859109E+03  0.96957628491E+03  0.00000000000E+00 0. -1.
          1    1    1    2  502    0  0.35322892472E+02  0.16951168011E+02  0.69812940813E+02  0.80055577785E+02  0.00000000000E+00 0. -1.
         22    1    3    3    0    0 -0.24230807451E+02 -0.10730002057E+03 -0.77519381251E+02  0.13457221449E+03  0.00000000000E+00 0. -1.
         22    1    3    3    0    0 -0.30114288662E+02  0.31284087965E+02 -0.10781938155E+02  0.44741644268E+02  0.00000000000E+00 0. -1.
</event>
<event>
 7    1  0.6888820E-006  0.8232404E+02  0.7818608E-02  0.1417191E+00
          2   -1    0    0  502    0  0.00000000000E+00  0.00000000000E+00  0.48941010878E+03  0.48941010878E+03  0.00000000000E+00 0. -1.
          1   -1    0    0  501    0 -0.00000000000E+00 -0.00000000000E+00 -0.14465237306E+04  0.14465237306E+04  0.00000000000E+00 0. -1.
         25    2    1    2    0    0  0.27321495674E+02 -0.11586815086E+03 -0.19046715841E+03  0.25704978305E+03  0.12499984010E+03 0.  0.
          2    1    1    2  501    0 -0.12119209613E+02  0.35569786596E+02 -0.12188126154E+04  0.12193917650E+04  0.00000000000E+00 0. -1.
          1    1    1    2  502    0 -0.15202286060E+02  0.80298364266E+02  0.45216615201E+03  0.45949229137E+03  0.00000000000E+00 0. -1.
         22    1    3    3    0    0  0.29213992480E+02 -0.71713243713E+02 -0.18663709381E+02  0.79652876460E+02  0.00000000000E+00 0. -1.
         22    1    3    3    0    0 -0.18924968064E+01 -0.44154907149E+02 -0.17180344903E+03  0.17739690659E+03  0.00000000000E+00 0. -1.
</event>
<event>
 7    1  0.6888820E-006  0.6359001E+02  0.7818608E-02  0.1440673E+00
          2   -1    0    0  502    0  0.00000000000E+00  0.00000000000E+00  0.15475325806E+04  0.15475325806E+04  0.00000000000E+00 0. -1.
          1   -1    0    0  501    0 -0.00000000000E+00 -0.00000000000E+00 -0.69695303125E+03  0.69695303125E+03  0.00000000000E+00 0. -1.
         25    2    1    2    0    0  0.53504187006E+02 -0.36906385389E+02  0.27150213704E+03  0.30588188953E+03  0.12500216245E+03 0.  0.
          2    1    1    2  501    0 -0.20228894504E+02  0.60349463964E+02 -0.67794305001E+03  0.68092440479E+03  0.00000000000E+00 0. -1.
          1    1    1    2  502    0 -0.33275292502E+02 -0.23443078575E+02  0.12570204623E+04  0.12576793175E+04  0.00000000000E+00 0. -1.
         22    1    3    3    0    0 -0.81099035633E+01 -0.36251413543E+02  0.11809763693E+02  0.38979559235E+02  0.00000000000E+00 0. -1.
         22    1    3    3    0    0  0.61614090569E+02 -0.65497184670E+00  0.25969237335E+03  0.26690233030E+03  0.00000000000E+00 0. -1.
</event>
<event>
 7    1  0.6888820E-006  0.7127745E+02  0.7818608E-02  0.1459898E+00
          2   -1    0    0  502    0  0.00000000000E+00  0.00000000000E+00  0.56796979284E+02  0.56796979284E+02  0.00000000000E+00 0. -1.
          1   -1    0    0  501    0 -0.00000000000E+00 -0.00000000000E+00 -0.20000437501E+04  0.20000437501E+04  0.00000000000E+00 0. -1.
         25    2    1    2    0    0  0.69461495453E+02  0.54082643992E+02 -0.55657888401E+03  0.57719591378E+03  0.12500094809E+03 0.  0.
          2    1    1    2  501    0 -0.66468562304E+02 -0.22705151889E+02 -0.14268485399E+04  0.14285763366E+04  0.00000000000E+00 0. -1.
          1    1    1    2  502    0 -0.29929331492E+01 -0.31377492104E+02  0.40180653120E+02  0.51068478974E+02  0.00000000000E+00 0. -1.
         22    1    3    3    0    0 -0.30483014440E+02  0.40957086188E+02 -0.21998182018E+03  0.22582891375E+03  0.00000000000E+00 0.  1.
         22    1    3    3    0    0  0.99944509893E+02  0.13125557804E+02 -0.33659706384E+03  0.35136700003E+03  0.00000000000E+00 0.  1.
</event>
<event>
 7    1  0.6888820E-006  0.3859931E+02  0.7818608E-02  0.1623592E+00
          2   -1    0    0  502    0  0.00000000000E+00  0.00000000000E+00  0.88251432897E+01  0.88251432897E+01  0.00000000000E+00 0. -1.
          1   -1    0    0  501    0 -0.00000000000E+00 -0.00000000000E+00 -0.15399493355E+04  0.15399493355E+04  0.00000000000E+00 0. -1.
         25    2    1    2    0    0  0.38099962740E+02 -0.15770342201E+02 -0.11937622504E+04  0.12009970585E+04  0.12500125252E+03 0.  0.
          2    1    1    2  501    0 -0.24406647927E+02  0.30405072521E+02 -0.31633587038E+03  0.31872956529E+03  0.00000000000E+00 0. -1.
          1    1    1    2  502    0 -0.13693314814E+02 -0.14634730320E+02 -0.21026071438E+02  0.29047855036E+02  0.00000000000E+00 0. -1.
         22    1    3    3    0    0  0.86825833555E+01 -0.53083423519E+02 -0.23579872926E+03  0.24185590302E+03  0.00000000000E+00 0. -1.
         22    1    3    3    0    0  0.29417379385E+02  0.37313081319E+02 -0.95796352112E+03  0.95914115544E+03  0.00000000000E+00 0. -1.
</event>
<event>
 7    1  0.6888820E-006  0.3552969E+02  0.7818608E-02  0.1616321E+00
          2   -1    0    0  502    0  0.00000000000E+00  0.00000000000E+00  0.28220677168E+04  0.28220677168E+04  0.00000000000E+00 0. -1.
          1   -1    0    0  501    0 -0.00000000000E+00 -0.00000000000E+00 -0.14779174536E+02  0.14779174536E+02  0.00000000000E+00 0. -1.
         25    2    1    2    0    0 -0.31252591910E+02 -0.56691564315E+01  0.12504411219E+04  0.12570753767E+04  0.12500655762E+03 0.  0.
          2    1    1    2  501    0  0.31441819038E+02 -0.17052164171E+02  0.16731635796E+02  0.39488123832E+02  0.00000000000E+00 0. -1.
          1    1    1    2  502    0 -0.18922712816E+00  0.22721320602E+02  0.15401157846E+04  0.15402833908E+04  0.00000000000E+00 0. -1.
         22    1    3    3    0    0  0.21063413000E+02  0.44691375278E+02  0.31847832663E+03  0.32228780759E+03  0.00000000000E+00 0. -1.
         22    1    3    3    0    0 -0.52316004911E+02 -0.50360531710E+02  0.93196279531E+03  0.93478756911E+03  0.00000000000E+00 0. -1.
</event>
<event>
 7    1  0.6888820E-006  0.3193960E+02  0.7818608E-02  0.1593084E+00
          2   -1    0    0  502    0  0.00000000000E+00  0.00000000000E+00  0.21409161961E+02  0.21409161961E+02  0.00000000000E+00 0. -1.
          1   -1    0    0  501    0 -0.00000000000E+00 -0.00000000000E+00 -0.16760451096E+04  0.16760451096E+04  0.00000000000E+00 0. -1.
         25    2    1    2    0    0  0.12064851128E+02 -0.16120737946E+02 -0.21685732803E+03  0.25110850735E+03  0.12499177141E+03 0.  0.
          2    1    1    2  501    0  0.13970253216E+02  0.28995332209E+02 -0.13904046358E+04  0.13907771024E+04  0.00000000000E+00 0. -1.
          1    1    1    2  502    0 -0.26035104344E+02 -0.12874594263E+02 -0.47373983851E+02  0.55568661866E+02  0.00000000000E+00 0. -1.
         22    1    3    3    0    0  0.11639837567E+02 -0.52272035761E+02 -0.31230141527E+02  0.61993332552E+02  0.00000000000E+00 0.  1.
         22    1    3    3    0    0  0.42501356141E+00  0.36151297815E+02 -0.18562718650E+03  0.18911517480E+03  0.00000000000E+00 0.  1.
</event>
<event>
 7    1  0.6888820E-006  0.1299896E+03  0.7818608E-02  0.1261477E+00
          2   -1    0    0  502    0  0.00000000000E+00  0.00000000000E+00  0.15710030512E+04  0.15710030512E+04  0.00000000000E+00 0. -1.
          1   -1    0    0  501    0 -0.00000000000E+00 -0.00000000000E+00 -0.79739909785E+02  0.79739909785E+02  0.00000000000E+00 0. -1.
         25    2    1    2    0    0 -0.99757067036E+02 -0.44327440456E+02  0.17764840209E+03  0.24310494669E+03  0.12499866376E+03 0.  0.
          2    1    1    2  501    0  0.14821846872E+03 -0.34179930518E+02  0.82442386431E+02  0.17301366767E+03  0.00000000000E+00 0. -1.
          1    1    1    2  502    0 -0.48461401681E+02  0.78507370974E+02  0.12311723529E+04  0.12346243467E+04  0.00000000000E+00 0. -1.
         22    1    3    3    0    0  0.12736161748E+02 -0.47612039314E+02  0.80717998144E+02  0.94575426661E+02  0.00000000000E+00 0. -1.
         22    1    3    3    0    0 -0.11249322878E+03  0.32845988580E+01  0.96930403947E+02  0.14852952003E+03  0.00000000000E+00 0. -1.
</event>
<event>
 7    1  0.6888820E-006  0.9524423E+02  0.7818608E-02  0.1325179E+00
          2   -1    0    0  502    0  0.00000000000E+00  0.00000000000E+00  0.22265730611E+04  0.22265730611E+04  0.00000000000E+00 0. -1.
          1   -1    0    0  501    0 -0.00000000000E+00 -0.00000000000E+00 -0.13635134482E+03  0.13635134482E+03  0.00000000000E+00 0. -1.
         25    2    1    2    0    0  0.34032725163E+02  0.20853922428E+02  0.60003648238E+02  0.14428671060E+03  0.12500041837E+03 0.  0.
          2    1    1    2  501    0  0.62382490627E+02 -0.30715684074E+02 -0.80113886362E+02  0.10608139881E+03  0.00000000000E+00 0. -1.
          1    1    1    2  502    0 -0.96415215790E+02  0.98617616451E+01  0.21103319544E+04  0.21125562965E+04  0.00000000000E+00 0. -1.
         22    1    3    3    0    0 -0.13453268204E+02 -0.38293560694E+02 -0.91915690800E+01  0.41615768143E+02  0.00000000000E+00 0.  1.
         22    1    3    3    0    0  0.47485993367E+02  0.59147483122E+02  0.69195217318E+02  0.10267094246E+03  0.00000000000E+00 0.  1.
</event>
<event>
 7    1  0.6888820E-006  0.7658262E+02  0.7818608E-02  0.1467649E+00
          2   -1    0    0  502    0  0.00000000000E+00  0.00000000000E+00  0.35289204714E+04  0.35289204714E+04  0.00000000000E+00 0. -1.
          1   -1    0    0  501    0 -0.00000000000E+00 -0.00000000000E+00 -0.10196770894E+02  0.10196770894E+02  0.00000000000E+00 0. -1.
         25    2    1    2    0    0  0.40602286337E+02 -0.77653856195E+02  0.13301401874E+04  0.13388714081E+04  0.12500024842E+03 0.  0.
          2    1    1    2  501    0 -0.53305329125E+02  0.52995002272E+02  0.24067018650E+03  0.25213501750E+03  0.00000000000E+00 0. -1.
          1    1    1    2  502    0  0.12703042788E+02  0.24658853923E+02  0.19479133266E+04  0.19481108168E+04  0.00000000000E+00 0. -1.
         22    1    3    3    0    0  0.81051359215E+02 -0.37420294172E+02  0.98612320669E+03  0.99015583623E+03  0.00000000000E+00 0.  1.
         22    1    3    3    0    0 -0.40449072878E+02 -0.40233562023E+02  0.34401698072E+03  0.34871557183E+03  0.00000000000E+00 0.  1.
</event>
<event>
 7    1  0.6888820E-006  0.6356065E+02  0.7818608E-02  0.1415782E+00
          2   -1    0    0  502    0  0.00000000000E+00  0.00000000000E+00  0.11237565812E+04  0.11237565812E+04  0.00000000000E+00 0. -1.
          1   -1    0    0  501    0 -0.00000000000E+00 -0.00000000000E+00 -0.39128548609E+03  0.39128548609E+03  0.00000000000E+00 0. -1.
         25    2    1    2    0    0 -0.37143697377E+02 -0.93283221538E+02 -0.91356628565E+01  0.16059259719E+03  0.12500043304E+03 0.  0.
          2    1    1    2  501    0  0.43624727808E+02  0.44508077324E+02 -0.30266717248E+03  0.30901699488E+03  0.00000000000E+00 0. -1.
          1    1    1    2  502    0 -0.64810304311E+01  0.48775144214E+02  0.10442739304E+04  0.10454324752E+04  0.00000000000E+00 0. -1.
         22    1    3    3    0    0 -0.48958686896E+02 -0.98474379136E+02 -0.47739841919E+02  0.11988848517E+03  0.00000000000E+00 0. -1.
         22    1    3    3    0    0  0.11814989519E+02  0.51911575979E+01  0.38604179062E+02  0.40704112024E+02  0.00000000000E+00 0. -1.
</event>
<event>
 7    1  0.6888820E-006  0.6329936E+02  0.7818608E-02  0.1425557E+00
          2   -1    0    0  502    0  0.00000000000E+00  0.00000000000E+00  0.10942426970E+04  0.10942426970E+04  0.00000000000E+00 0. -1.
          1   -1    0    0  501    0 -0.00000000000E+00 -0.00000000000E+00 -0.44180941253E+03  0.44180941253E+03  0.00000000000E+00 0. -1.
         25    2    1    2    0    0 -0.19471336913E+02 -0.68930633542E+02  0.23538480336E+02  0.14597649469E+03  0.12499804696E+03 0.  0.
          2    1    1    2  501    0 -0.32390105743E+02  0.32426288779E+02 -0.37820949790E+03  0.38097638700E+03  0.00000000000E+00 0. -1.
          1    1    1    2  502    0  0.51861442657E+02  0.36504344763E+02  0.10071043021E+04  0.10090992279E+04  0.00000000000E+00 0. -1.
         22    1    3    3    0    0 -0.31129704153E+01 -0.13511501845E+02 -0.50322901549E+02  0.52198138734E+02  0.00000000000E+00 0.  1.
         22    1    3    3    0    0 -0.16358366498E+02 -0.55419131697E+02  0.73861381886E+02  0.93778355961E+02  0.00000000000E+00 0.  1.
</event>
<event>
 7    1  0.6888820E-006  0.2695024E+03  0.7818608E-02  0.1315079E+00
          2   -1    0    0  502    0  0.00000000000E+00  0.00000000000E+00  0.68379655284E+03  0.68379655284E+03  0.00000000000E+00 0. -1.
          1   -1    0    0  501    0 -0.00000000000E+00 -0.00000000000E+00 -0.18642819146E+04  0.18642819146E+04  0.00000000000E+00 0. -1.
         25    2    1    2    0    0  0.26241865756E+03 -0.29744622533E+01 -0.96298681857E+02  0.30622231573E+03  0.12500508495E+03 0.  0.
          2    1    1    2  501    0 -0.26937807747E+03 -0.23003554481E+02 -0.16517127849E+04  0.16736931726E+04  0.00000000000E+00 0. -1.
          1    1    1    2  502    0  0.69594199110E+01  0.25978016734E+02  0.56752610505E+03  0.56816297907E+03  0.00000000000E+00 0. -1.
         22    1    3    3    0    0  0.24743429051E+03 -0.24475151365E+02 -0.50893874083E+02  0.25379705982E+03  0.00000000000E+00 0. -1.
         22    1    3    3    0    0  0.14984367051E+02  0.21500689112E+02 -0.45404807774E+02  0.52425255910E+02  0.00000000000E+00 0. -1.
</event>
<event>
 7    1  0.6888820E-006  0.1839319E+03  0.7818608E-02  0.1301592E+00
          2   -1    0    0  502    0  0.00000000000E+00  0.00000000000E+00  0.13012526383E+04  0.13012526383E+04  0.00000000000E+00 0. -1.
          1   -1    0    0  501    0 -0.00000000000E+00 -0.00000000000E+00 -0.33702503857E+03  0.33702503857E+03  0.00000000000E+00 0. -1.
         25    2    1    2    0    0 -0.20613334228E+02  0.22451526995E+03  0.34064319018E+03  0.42719351149E+03  0.12499798900E+03 0.  0.
          2    1    1    2  501    0  0.17089193766E+02 -0.18010429067E+03 -0.26528401456E+03  0.32109999135E+03  0.00000000000E+00 0. -1.
          1    1    1    2  502    0  0.35241404626E+01 -0.44410979277E+02  0.88886842408E+03  0.88998417400E+03  0.00000000000E+00 0. -1.
         22    1    3    3    0    0 -0.17364665895E+02  0.19112511203E+03  0.34355137755E+03  0.39351987127E+03  0.00000000000E+00 0.  1.
         22    1    3    3    0    0 -0.32486683337E+01  0.33390157920E+02 -0.29081873657E+01  0.33673640219E+02  0.00000000000E+00 0.  1.
</event>
<event>
 7    1  0.6888820E-006  0.1215237E+03  0.7818608E-02  0.1300169E+00
          2   -1    0    0  502    0  0.00000000000E+00  0.00000000000E+00  0.64117710167E+03  0.64117710167E+03  0.00000000000E+00 0. -1.
          1   -1    0    0  501    0 -0.00000000000E+00 -0.00000000000E+00 -0.10316818455E+04  0.10316818455E+04  0.00000000000E+00 0. -1.
         25    2    1    2    0    0  0.11981002730E+03 -0.54990458874E+02  0.19988982597E+02  0.18276495027E+03  0.12500029764E+03 0.  0.
          2    1    1    2  501    0 -0.50759535316E+02 -0.45726396247E+02 -0.94213490561E+03  0.94460870952E+03  0.00000000000E+00 0. -1.
          1    1    1    2  502    0 -0.69050491986E+02  0.10071685512E+03  0.53164117918E+03  0.54548528738E+03  0.00000000000E+00 0. -1.
         22    1    3    3    0    0 -0.10929539729E+02  0.14816963529E+02  0.28923892164E+02  0.34286860236E+02  0.00000000000E+00 0.  1.
         22    1    3    3    0    0  0.13073956703E+03 -0.69807422404E+02 -0.89349095673E+01  0.14847809003E+03  0.00000000000E+00 0.  1.
</event>
<event>
 7    1  0.6888820E-006  0.6087069E+02  0.7818608E-02  0.1431716E+00
          2   -1    0    0  502    0  0.00000000000E+00  0.00000000000E+00  0.30058028274E+04  0.30058028274E+04  0.00000000000E+00 0. -1.
          1   -1    0    0  501    0 -0.00000000000E+00 -0.00000000000E+00 -0.69841484974E+03  0.69841484974E+03  0.00000000000E+00 0. -1.
         25    2    1    2    0    0  0.63226364809E+02 -0.68672465593E+02  0.70960377895E+03  0.72654835818E+03  0.12498605094E+03 0.  0.
          2    1    1    2  501    0 -0.19072594425E+02  0.57757946837E+02 -0.68837532615E+03  0.69105740277E+03  0.00000000000E+00 0. -1.
          1    1    1    2  502    0 -0.44153770384E+02  0.10914518756E+02  0.22861595248E+04  0.22866119162E+04  0.00000000000E+00 0. -1.
         22    1    3    3    0    0  0.51116083985E+01 -0.14434946624E+02  0.52903284971E+03  0.52925443058E+03  0.00000000000E+00 0.  1.
         22    1    3    3    0    0  0.58114756410E+02 -0.54237518969E+02  0.18057092925E+03  0.19729392759E+03  0.00000000000E+00 0.  1.
</event>
<event>
 7    1  0.6888820E-006  0.6515465E+02  0.7818608E-02  0.1471896E+00
          2   -1    0    0  502    0  0.00000000000E+00  0.00000000000E+00  0.41131205042E+02  0.41131205042E+02  0.00000000000E+00 0. -1.
          1   -1    0    0  501    0 -0.00000000000E+00 -0.00000000000E+00 -0.21196585629E+04  0.21196585629E+04  0.00000000000E+00 0. -1.
         25    2    1    2    0    0 -0.56676390305E+01 -0.49404725414E+02 -0.17262377113E+04  0.17314710723E+04  0.12498995747E+03 0.  0.
          2    1    1    2  501    0 -0.31278272446E+02 -0.46816599953E+01 -0.36175744972E+03  0.36313730281E+03  0.00000000000E+00 0. -1.
          1    1    1    2  502    0  0.36945911476E+02  0.54086385409E+02  0.94678031019E+01  0.66181392831E+02  0.00000000000E+00 0. -1.
         22    1    3    3    0    0 -0.44209991421E+02  0.54556161160E+01 -0.26671911408E+03  0.27041333714E+03  0.00000000000E+00 0.  1.
         22    1    3    3    0    0  0.38542352390E+02 -0.54860341530E+02 -0.14595185972E+04  0.14610577352E+04  0.00000000000E+00 0.  1.
</event>
<event>
 7    1  0.6888820E-006  0.7880786E+02  0.7818608E-02  0.1359867E+00
          2   -1    0    0  502    0  0.00000000000E+00  0.00000000000E+00  0.92448718060E+03  0.92448718060E+03  0.00000000000E+00 0. -1.
          1   -1    0    0  501    0 -0.00000000000E+00 -0.00000000000E+00 -0.12280770061E+03  0.12280770061E+03  0.00000000000E+00 0. -1.
         25    2    1    2    0    0  0.22288021134E+02 -0.12320056206E+02  0.12430252269E+03  0.17811607431E+03  0.12500271640E+03 0.  0.
          2    1    1    2  501    0  0.23217287532E+02 -0.57806399385E+02 -0.83247166687E+02  0.10397457868E+03  0.00000000000E+00 0. -1.
          1    1    1    2  502    0 -0.45505308666E+02  0.70126455591E+02  0.76062412399E+03  0.76520422822E+03  0.00000000000E+00 0. -1.
         22    1    3    3    0    0 -0.41647054399E+02  0.65170139064E+01  0.63433774716E+01  0.42628476962E+02  0.00000000000E+00 0. -1.
         22    1    3    3    0    0  0.63935075533E+02 -0.18837070112E+02  0.11795914522E+03  0.13548759735E+03  0.00000000000E+00 0. -1.
</event>
<event>
 7    1  0.6888820E-006  0.5799839E+02  0.7818608E-02  0.1512298E+00
          2   -1    0    0  502    0  0.00000000000E+00  0.00000000000E+00  0.82107583120E+02  0.82107583120E+02  0.00000000000E+00 0. -1.
          1   -1    0    0  501    0 -0.00000000000E+00 -0.00000000000E+00 -0.88072713490E+03  0.88072713490E+03  0.00000000000E+00 0. -1.
         25    2    1    2    0    0  0.69151639452E+02 -0.46008106220E+02 -0.15349414479E+03  0.21467349719E+03  0.12500225132E+03 0.  0.
          2    1    1    2  501    0 -0.44250678148E+02  0.36008819593E+02 -0.69189364634E+03  0.69424172696E+03  0.00000000000E+00 0. -1.
          1    1    1    2  502    0 -0.24900961304E+02  0.99992866263E+01  0.46768239353E+02  0.53919493869E+02  0.00000000000E+00 0. -1.
         22    1    3    3    0    0  0.51005317528E+02 -0.17098088015E+02 -0.16887408085E+03  0.17723527361E+03  0.00000000000E+00 0.  1.
         22    1    3    3    0    0  0.18146321924E+02 -0.28910018204E+02  0.15379936053E+02  0.37438223582E+02  0.00000000000E+00 0.  1.
</event>
<event>
 7    1  0.6888820E-006  0.4863478E+02  0.7818608E-02  0.1474915E+00
          2   -1    0    0  502    0  0.00000000000E+00  0.00000000000E+00  0.31441023884E+04  0.31441023884E+04  0.00000000000E+00 0. -1.
          1   -1    0    0  501    0 -0.00000000000E+00 -0.00000000000E+00 -0.49199075745E+03  0.49199075745E+03  0.00000000000E+00 0. -1.
         25    2    1    2    0    0  0.53455938699E+02  0.12218569914E+01 -0.27111291509E+03  0.30330060301E+03  0.12502004935E+03 0.  0.
          2    1    1    2  501    0 -0.19861910417E+02 -0.36401259717E+02 -0.20249359913E+03  0.20669592372E+03  0.00000000000E+00 0. -1.
          1    1    1    2  502    0 -0.33594028282E+02  0.35179402726E+02  0.31257181452E+04  0.31260966192E+04  0.00000000000E+00 0. -1.
         22    1    3    3    0    0 -0.31731445081E+02 -0.10954593363E+02 -0.15604082276E+03  0.15961085831E+03  0.00000000000E+00 0.  1.
         22    1    3    3    0    0  0.85187383780E+02  0.12176450355E+02 -0.11507209233E+03  0.14368974470E+03  0.00000000000E+00 0.  1.
</event>
<event>
 7    1  0.6888820E-006  0.6080166E+02  0.7818608E-02  0.1530417E+00
          2   -1    0    0  502    0  0.00000000000E+00  0.00000000000E+00  0.30376995673E+02  0.30376995673E+02  0.00000000000E+00 0. -1.
          1   -1    0    0  501    0 -0.00000000000E+00 -0.00000000000E+00 -0.41931828283E+03  0.41931828283E+03  0.00000000000E+00 0. -1.
         25    2    1    2    0    0 -0.70273279600E+01 -0.48578776891E+02 -0.21518885018E+03  0.25365328069E+03  0.12499785863E+03 0.  0.
          2    1    1    2  501    0  0.12009814020E+02 -0.19240050163E+02 -0.47665840559E+02  0.52786811982E+02  0.00000000000E+00 0. -1.
          1    1    1    2  502    0 -0.49824860605E+01  0.67818827054E+02 -0.12608659642E+03  0.14325518583E+03  0.00000000000E+00 0. -1.
         22    1    3    3    0    0 -0.11154731560E+02 -0.26286632433E+02  0.77310569874E+01  0.29583514378E+02  0.00000000000E+00 0.  1.
         22    1    3    3    0    0  0.41274036000E+01 -0.22292144459E+02 -0.22291990717E+03  0.22406976631E+03  0.00000000000E+00 0.  1.
</event>
<event>
 7    1  0.6888820E-006  0.4260633E+02  0.7818608E-02  0.1564745E+00
          2   -1    0    0  502    0  0.00000000000E+00  0.00000000000E+00  0.30536609875E+03  0.30536609875E+03  0.00000000000E+00 0. -1.
          1   -1    0    0  501    0 -0.00000000000E+00 -0.00000000000E+00 -0.62329699189E+03  0.62329699189E+03  0.00000000000E+00 0. -1.
         25    2    1    2    0    0 -0.31258566136E+02 -0.34427972169E+02  0.92858307317E+02  0.16251082746E+03  0.12499888232E+03 0.  0.
          2    1    1    2  501    0 -0.10259063533E+02  0.23828629983E+02 -0.58559599654E+03  0.58617038747E+03  0.00000000000E+00 0. -1.
          1    1    1    2  502    0  0.41517629669E+02  0.10599342185E+02  0.17480679608E+03  0.17998187571E+03  0.00000000000E+00 0. -1.
         22    1    3    3    0    0 -0.33580251337E+02 -0.68961273848E+02  0.10112753613E+03  0.12692544715E+03  0.00000000000E+00 0. -1.
         22    1    3    3    0    0  0.23216852012E+01  0.34533301680E+02 -0.82692288094E+01  0.35585380315E+02  0.00000000000E+00 0. -1.
</event>
<event>
 7    1  0.6888820E-006  0.1549020E+03  0.7818608E-02  0.1197596E+00
          2   -1    0    0  502    0  0.00000000000E+00  0.00000000000E+00  0.41088395566E+03  0.41088395566E+03  0.00000000000E+00 0. -1.
          1   -1    0    0  501    0 -0.00000000000E+00 -0.00000000000E+00 -0.15216498910E+04  0.15216498910E+04  0.00000000000E+00 0. -1.
         25    2    1    2    0    0  0.46501043807E+02 -0.20501045659E+02 -0.52769535944E+02  0.14488565962E+03  0.12499836196E+03 0.  0.
          2    1    1    2  501    0  0.10053660426E+03  0.11784322255E+03 -0.13969798883E+04  0.14055416900E+04  0.00000000000E+00 0. -1.
          1    1    1    2  502    0 -0.14703764807E+03 -0.97342176895E+02  0.33898348891E+03  0.38210649708E+03  0.00000000000E+00 0. -1.
         22    1    3    3    0    0 -0.11746091835E+02 -0.45899408219E+02 -0.64739602054E+02  0.80224325627E+02  0.00000000000E+00 0.  1.
         22    1    3    3    0    0  0.58247135642E+02  0.25398362560E+02  0.11970066109E+02  0.64661333994E+02  0.00000000000E+00 0.  1.
</event>
<event>
 7    1  0.6888820E-006  0.6159075E+02  0.7818608E-02  0.1401449E+00
          2   -1    0    0  502    0  0.00000000000E+00  0.00000000000E+00  0.38926675206E+03  0.38926675206E+03  0.00000000000E+00 0. -1.
          1   -1    0    0  501    0 -0.00000000000E+00 -0.00000000000E+00 -0.12339581931E+04  0.12339581931E+04  0.00000000000E+00 0. -1.
         25    2    1    2    0    0 -0.10042958708E+03  0.38828258848E+02 -0.17791705684E+03  0.24263884443E+03  0.12500157627E+03 0.  0.
          2    1    1    2  501    0  0.39345132587E+02 -0.40964525902E+02 -0.10202676899E+04  0.10218474891E+04  0.00000000000E+00 0. -1.
          1    1    1    2  502    0  0.61084454490E+02  0.21362670539E+01  0.35349330577E+03  0.35873861159E+03  0.00000000000E+00 0. -1.
         22    1    3    3    0    0  0.24241256581E+02 -0.90401727903E+01 -0.91862286003E+01  0.27454508566E+02  0.00000000000E+00 0.  1.
         22    1    3    3    0    0 -0.12467084366E+03  0.47868431638E+02 -0.16873082824E+03  0.21518433587E+03  0.00000000000E+00 0.  1.
</event>
<event>
 7    1  0.6888820E-006  0.1538081E+03  0.7818608E-02  0.1262944E+00
          2   -1    0    0  502    0  0.00000000000E+00  0.00000000000E+00  0.26109659138E+04  0.26109659138E+04  0.00000000000E+00 0. -1.
          1   -1    0    0  501    0 -0.00000000000E+00 -0.00000000000E+00 -0.20629365132E+04  0.20629365132E+04  0.00000000000E+00 0. -1.
         25    2    1    2    0    0  0.19195236283E+03  0.12233680528E+03  0.18582059874E+03  0.31932492018E+03  0.12500842454E+03 0.  0.
          2    1    1    2  501    0 -0.67921817416E+02 -0.35973734112E+02 -0.19930214775E+04  0.19945029688E+04  0.00000000000E+00 0. -1.
          1    1    1    2  502    0 -0.12403054541E+03 -0.86363071168E+02  0.23552302794E+04  0.23600745380E+04  0.00000000000E+00 0. -1.
         22    1    3    3    0    0 -0.74127245808E+01 -0.14890730566E+02  0.19638501741E+02  0.25736221423E+02  0.00000000000E+00 0. -1.
         22    1    3    3    0    0  0.19936508741E+03  0.13722753585E+03  0.16618209700E+03  0.29358869875E+03  0.00000000000E+00 0. -1.
</event>
<event>
 7    1  0.6888820E-006  0.1965286E+03  0.7818608E-02  0.1301421E+00
          2   -1    0    0  502    0  0.00000000000E+00  0.00000000000E+00  0.18417649718E+04  0.18417649718E+04  0.00000000000E+00 0. -1.
          1   -1    0    0  501    0 -0.00000000000E+00 -0.00000000000E+00 -0.67827769447E+03  0.67827769447E+03  0.00000000000E+00 0. -1.
         25    2    1    2    0    0 -0.15330997968E+03 -0.10806853834E+03  0.38398855707E+03  0.44525925924E+03  0.12500334846E+03 0.  0.
          2    1    1    2  501    0  0.13352435199E+03  0.14484461103E+03 -0.63234569269E+03  0.66232151481E+03  0.00000000000E+00 0. -1.
          1    1    1    2  502    0  0.19785627693E+02 -0.36776072683E+02  0.14118444129E+04  0.14124618922E+04  0.00000000000E+00 0. -1.
         22    1    3    3    0    0 -0.13050280951E+03 -0.17109532092E+02  0.22660679639E+03  0.26205793166E+03  0.00000000000E+00 0. -1.
         22    1    3    3    0    0 -0.22807170171E+02 -0.90959006250E+02  0.15738176068E+03  0.18320132757E+03  0.00000000000E+00 0. -1.
</event>
<event>
 7    1  0.6888820E-006  0.3773136E+02  0.7818608E-02  0.1528840E+00
          2   -1    0    0  502    0  0.00000000000E+00  0.00000000000E+00  0.57968765973E+03  0.57968765973E+03  0.00000000000E+00 0. -1.
          1   -1    0    0  501    0 -0.00000000000E+00 -0.00000000000E+00 -0.57736106796E+03  0.57736106796E+03  0.00000000000E+00 0. -1.
         25    2    1    2    0    0 -0.38565928760E+02 -0.21615498701E+02  0.56919686759E+02  0.14429035060E+03  0.12500117556E+03 0.  0.
          2    1    1    2  501    0  0.51992118784E+01  0.37444818029E+02 -0.53229263348E+03  0.53363338900E+03  0.00000000000E+00 0. -1.
          1    1    1    2  502    0  0.33366716881E+02 -0.15829319328E+02  0.47769953848E+03  0.47912498809E+03  0.00000000000E+00 0. -1.
         22    1    3    3    0    0 -0.15065654083E+02  0.51902012721E+02  0.33702336340E+02  0.63691760316E+02  0.00000000000E+00 0. -1.
         22    1    3    3    0    0 -0.23500274677E+02 -0.73517511422E+02  0.23217350419E+02  0.80598590286E+02  0.00000000000E+00 0. -1.
</event>
<event>
 7    1  0.6888820E-006  0.6339782E+02  0.7818608E-02  0.1488151E+00
          2   -1    0    0  502    0  0.00000000000E+00  0.00000000000E+00  0.84216167447E+03  0.84216167447E+03  0.00000000000E+00 0. -1.
          1   -1    0    0  501    0 -0.00000000000E+00 -0.00000000000E+00 -0.18199540878E+04  0.18199540878E+04  0.00000000000E+00 0. -1.
         25    2    1    2    0    0 -0.45268078434E+02 -0.11249393456E+02  0.99333974254E+02  0.16634019349E+03  0.12500429493E+03 0.  0.
          2    1    1    2  501    0 -0.18002882308E+02  0.22706746322E+02 -0.17848759402E+04  0.17851111511E+04  0.00000000000E+00 0. -1.
          1    1    1    2  502    0  0.63270960743E+02 -0.11457352866E+02  0.70774955256E+03  0.71066441768E+03  0.00000000000E+00 0. -1.
         22    1    3    3    0    0  0.17631104249E+02 -0.28048288227E+02  0.95545539638E+02  0.10112622041E+03  0.00000000000E+00 0.  1.
         22    1    3    3    0    0 -0.62899182683E+02  0.16798894771E+02  0.37884346161E+01  0.65213973078E+02  0.00000000000E+00 0.  1.
</event>
<event>
 7    1  0.6888820E-006  0.3833558E+02  0.7818608E-02  0.1558891E+00
          2   -1    0    0  502    0  0.00000000000E+00  0.00000000000E+00  0.15128523114E+04  0.15128523114E+04  0.00000000000E+00 0. -1.
          1   -1    0    0  501    0 -0.00000000000E+00 -0.00000000000E+00 -0.33800066324E+03  0.33800066324E+03  0.00000000000E+00 0. -1.
         25    2    1    2    0    0 -0.40571066940E+02 -0.44403750734E+02  0.23205205557E+03  0.27034368269E+03  0.12497938121E+03 0.  0.
          2    1    1    2  501    0  0.28778432102E+02  0.81886747951E+01 -0.31786468823E+03  0.31926981155E+03  0.00000000000E+00 0. -1.
          1    1    1    2  502    0  0.11792634838E+02  0.36215075939E+02  0.12606642808E+04  0.12612394804E+04  0.00000000000E+00 0. -1.
         22    1    3    3    0    0 -0.49592068486E+02 -0.15092999132E+02  0.23394347121E+03  0.23961786161E+03  0.00000000000E+00 0. -1.
         22    1    3    3    0    0  0.90210015467E+01 -0.29310751602E+02 -0.18914156426E+01  0.30725821087E+02  0.00000000000E+00 0. -1.
</event>
<event>
 7    1  0.6888820E-006  0.1238700E+03  0.7818608E-02  0.1303708E+00
          2   -1    0    0  502    0  0.00000000000E+00  0.00000000000E+00  0.39145639466E+03  0.39145639466E+03  0.00000000000E+00 0. -1.
          1   -1    0    0  501    0 -0.00000000000E+00 -0.00000000000E+00 -0.67972975450E+03  0.67972975450E+03  0.00000000000E+00 0. -1.
         25    2    1    2    0    0  0.17114992341E+03 -0.57770763162E+02  0.13383438144E+03  0.25721558365E+03  0.12497382709E+03 0.  0.
          2    1    1    2  501    0 -0.10631740914E+03  0.60239537125E+02 -0.60640095301E+03  0.61859058281E+03  0.00000000000E+00 0. -1.
          1    1    1    2  502    0 -0.64832514267E+02 -0.24687739624E+01  0.18429321173E+03  0.19537998271E+03  0.00000000000E+00 0. -1.
         22    1    3    3    0    0  0.13248626378E+03  0.11259627065E+02  0.50303385952E+02  0.14216124624E+03  0.00000000000E+00 0.  1.
         22    1    3    3    0    0  0.38663659625E+02 -0.69030390227E+02  0.83530995487E+02  0.11505433741E+03  0.00000000000E+00 0.  1.
</event>
<event>
 7    1  0.6888820E-006  0.2201144E+03  0.7818608E-02  0.1175766E+00
          2   -1    0    0  502    0  0.00000000000E+00  0.00000000000E+00  0.18617526691E+04  0.18617526691E+04  0.00000000000E+00 0. -1.
          1   -1    0    0  501    0 -0.00000000000E+00 -0.00000000000E+00 -0.35257250035E+03  0.35257250035E+03  0.00000000000E+00 0. -1.
         25    2    1    2    0    0 -0.19382917235E+03 -0.76539322725E+02  0.14263864050E+03  0.28177908526E+03  0.12500262057E+03 0.  0.
          2    1    1    2  501    0  0.72273095233E+02 -0.11333912872E+03 -0.25880795253E+03  0.29163455674E+03  0.00000000000E+00 0. -1.
          1    1    1    2  502    0  0.12155607712E+03  0.18987845144E+03  0.16253494808E+04  0.16409115275E+04  0.00000000000E+00 0. -1.
         22    1    3    3    0    0 -0.17438352104E+03 -0.73476598460E+02  0.16565298940E+03  0.25149420636E+03  0.00000000000E+00 0. -1.
         22    1    3    3    0    0 -0.19445651310E+02 -0.30627242641E+01 -0.23014348904E+02  0.30284878905E+02  0.00000000000E+00 0. -1.
</event>
<event>
 7    1  0.6888820E-006  0.7090759E+02  0.7818608E-02  0.1391490E+00
          2   -1    0    0  502    0  0.00000000000E+00  0.00000000000E+00  0.23281267570E+03  0.23281267570E+03  0.00000000000E+00 0. -1.
          1   -1    0    0  501    0 -0.00000000000E+00 -0.00000000000E+00 -0.34263916193E+03  0.34263916193E+03  0.00000000000E+00 0. -1.
         25    2    1    2    0    0  0.11979016638E+03 -0.15901950339E+01 -0.12186847674E+03  0.21172507313E+03  0.12499347298E+03 0.  0.
          2    1    1    2  501    0 -0.51716669461E+02  0.13325053308E+02 -0.16513704766E+03  0.17355810398E+03  0.00000000000E+00 0. -1.
          1    1    1    2  502    0 -0.68073496924E+02 -0.11734858274E+02  0.17717903816E+03  0.19016866053E+03  0.00000000000E+00 0. -1.
         22    1    3    3    0    0  0.13166230559E+03  0.96791929240E+01 -0.55228759997E+02  0.14310438644E+03  0.00000000000E+00 0.  1.
         22    1    3    3    0    0 -0.11872139203E+02 -0.11269387958E+02 -0.66639716741E+02  0.68620686688E+02  0.00000000000E+00 0.  1.
</event>
<event>
 7    1  0.6888820E-006  0.3283044E+02  0.7818608E-02  0.1602936E+00
          2   -1    0    0  502    0  0.00000000000E+00  0.00000000000E+00  0.59763284047E+03  0.59763284047E+03  0.00000000000E+00 0. -1.
          1   -1    0    0  501    0 -0.00000000000E+00 -0.00000000000E+00 -0.32656856141E+03  0.32656856141E+03  0.00000000000E+00 0. -1.
         25    2    1    2    0    0  0.27225312142E+02  0.27660207906E+02  0.11833694105E+03  0.17645063477E+03  0.12499956067E+03 0.  0.
          2    1    1    2  501    0 -0.11074235813E+01 -0.32837678930E+02 -0.29620892193E+03  0.29802561127E+03  0.00000000000E+00 0. -1.
          1    1    1    2  502    0 -0.26117888560E+02  0.51774710242E+01  0.44893625994E+03  0.44972515584E+03  0.00000000000E+00 0. -1.
         22    1    3    3    0    0  0.70718220257E+02  0.37767796051E+02  0.48937322180E+02  0.93927283561E+02  0.00000000000E+00 0. -1.
         22    1    3    3    0    0 -0.43492908116E+02 -0.10107588145E+02  0.69399618873E+02  0.82523351205E+02  0.00000000000E+00 0. -1.
</event>
<event>
 7    1  0.6888820E-006  0.7873542E+02  0.7818608E-02  0.1400546E+00
          2   -1    0    0  502    0  0.00000000000E+00  0.00000000000E+00  0.22820108014E+04  0.22820108014E+04  0.00000000000E+00 0. -1.
          1   -1    0    0  501    0 -0.00000000000E+00 -0.00000000000E+00 -0.44366049928E+03  0.44366049928E+03  0.00000000000E+00 0. -1.
         25    2    1    2    0    0  0.98838135965E+02 -0.32089860035E+02  0.53407553388E+02  0.17110111318E+03  0.12499795172E+03 0.  0.
          2    1    1    2  501    0 -0.77783798421E+02 -0.73971436299E+01 -0.38061395425E+03  0.38855117964E+03  0.00000000000E+00 0. -1.
          1    1    1    2  502    0 -0.21054337544E+02  0.39487003665E+02  0.21655567030E+04  0.21660190079E+04  0.00000000000E+00 0. -1.
         22    1    3    3    0    0  0.50101136505E+02 -0.49628093713E+02 -0.26952012928E+02  0.75494917482E+02  0.00000000000E+00 0.  1.
         22    1    3    3    0    0  0.48736999460E+02  0.17538233678E+02  0.80359566316E+02  0.95606195695E+02  0.00000000000E+00 0.  1.
</event>
<event>
 7    1  0.6888820E-006  0.6966813E+02  0.7818608E-02  0.1363771E+00
          2   -1    0    0  502    0  0.00000000000E+00  0.00000000000E+00  0.22003610346E+04  0.22003610346E+04  0.00000000000E+00 0. -1.
          1   -1    0    0  501    0 -0.00000000000E+00 -0.00000000000E+00 -0.13041241527E+04  0.13041241527E+04  0.00000000000E+00 0. -1.
         25    2    1    2    0    0 -0.27536349253E+02 -0.57978710660E+02  0.49315642044E+03  0.51278562589E+03  0.12500424663E+03 0.  0.
          2    1    1    2  501    0  0.69607379685E+02  0.43021633162E+01 -0.12926841909E+04  0.12945640631E+04  0.00000000000E+00 0. -1.
          1    1    1    2  502    0 -0.42071030432E+02  0.53676547343E+02  0.16957646524E+04  0.16971354983E+04  0.00000000000E+00 0. -1.
         22    1    3    3    0    0  0.46368765117E+02 -0.45601467806E+02  0.20665929412E+03  0.21665091758E+03  0.00000000000E+00 0. -1.
         22    1    3    3    0    0 -0.73905114370E+02 -0.12377242853E+02  0.28649712633E+03  0.29613470831E+03  0.00000000000E+00 0. -1.
</event>
<event>
 7    1  0.6888820E-006  0.2485545E+03  0.7818608E-02  0.1269639E+00
          2   -1    0    0  502    0  0.00000000000E+00  0.00000000000E+00  0.47940697897E+03  0.47940697897E+03  0.00000000000E+00 0. -1.
          1   -1    0    0  501    0 -0.00000000000E+00 -0.00000000000E+00 -0.12881351372E+04  0.12881351372E+04  0.00000000000E+00 0. -1.
         25    2    1    2    0    0 -0.24989126614E+03 -0.13567893322E+03  0.13526182668E+03  0.33878303163E+03  0.12499505169E+03 0.  0.
          2    1    1    2  501    0  0.22647192958E+03  0.97765519090E+02 -0.11713660211E+04  0.11970572196E+04  0.00000000000E+00 0. -1.
          1    1    1    2  502    0  0.23419336561E+02  0.37913414132E+02  0.22737603629E+03  0.23170186485E+03  0.00000000000E+00 0. -1.
         22    1    3    3    0    0 -0.20787754111E+03 -0.74314147175E+02  0.14449088160E+03  0.26384328575E+03  0.00000000000E+00 0. -1.
         22    1    3    3    0    0 -0.42013725034E+02 -0.61364786046E+02 -0.92290549229E+01  0.74939745880E+02  0.00000000000E+00 0. -1.
</event>
<event>
 7    1  0.6888820E-006  0.4401681E+02  0.7818608E-02  0.1497701E+00
          2   -1    0    0  502    0  0.00000000000E+00  0.00000000000E+00  0.24217214157E+03  0.24217214157E+03  0.00000000000E+00 0. -1.
          1   -1    0    0  501    0 -0.00000000000E+00 -0.00000000000E+00 -0.12070873157E+03  0.12070873157E+03  0.00000000000E+00 0. -1.
         25    2    1    2    0    0 -0.14456067901E+02  0.29654224779E+02  0.15757688790E+02  0.13024254283E+03  0.12500585690E+03 0.  0.
          2    1    1    2  501    0  0.37953033107E+02  0.92358091603E+01 -0.53970912111E+02  0.66622760727E+02  0.00000000000E+00 0. -1.
          1    1    1    2  502    0 -0.23496965205E+02 -0.38890033939E+02  0.15967663332E+03  0.16601556958E+03  0.00000000000E+00 0. -1.
         22    1    3    3    0    0 -0.39681416951E+02  0.29497598129E+02 -0.43489434021E+02  0.65848720702E+02  0.00000000000E+00 0. -1.
         22    1    3    3    0    0  0.25225349050E+02  0.15662664958E+00  0.59247122811E+02  0.64393822126E+02  0.00000000000E+00 0. -1.
</event>
<event>
 7    1  0.6888820E-006  0.1152227E+03  0.7818608E-02  0.1400286E+00
          2   -1    0    0  502    0  0.00000000000E+00  0.00000000000E+00  0.35652876144E+03  0.35652876144E+03  0.00000000000E+00 0. -1.
          1   -1    0    0  501    0 -0.00000000000E+00 -0.00000000000E+00 -0.65659984910E+03  0.65659984910E+03  0.00000000000E+00 0. -1.
         25    2    1    2    0    0  0.11065669556E+02  0.90648501252E+02 -0.45778199118E+03  0.48325549117E+03  0.12502767083E+03 0.  0.
          2    1    1    2  501    0 -0.17855370674E+02  0.24901966284E+02 -0.17496898898E+03  0.17763183637E+03  0.00000000000E+00 0. -1.
          1    1    1    2  502    0  0.67897011183E+01 -0.11555046754E+03  0.33267989249E+03  0.35224128301E+03  0.00000000000E+00 0. -1.
         22    1    3    3    0    0 -0.14269522911E+02  0.61632817354E+02 -0.73201082266E+02  0.96750306997E+02  0.00000000000E+00 0. -1.
         22    1    3    3    0    0  0.25335192467E+02  0.29015683898E+02 -0.38458090891E+03  0.38650518417E+03  0.00000000000E+00 0. -1.
</event>
<event>
 7    1  0.6888820E-006  0.9721756E+02  0.7818608E-02  0.1342519E+00
          2   -1    0    0  502    0  0.00000000000E+00  0.00000000000E+00  0.33114960883E+03  0.33114960883E+03  0.00000000000E+00 0. -1.
          1   -1    0    0  501    0 -0.00000000000E+00 -0.00000000000E+00 -0.12234048884E+04  0.12234048884E+04  0.00000000000E+00 0. -1.
         25    2    1    2    0    0 -0.14042422426E+03 -0.60076022009E+02 -0.18732133156E+03  0.27210542390E+03  0.12499595704E+03 0.  0.
          2    1    1    2  501    0  0.85677947249E+02  0.39350571360E+02 -0.98845836973E+03  0.99294467459E+03  0.00000000000E+00 0. -1.
          1    1    1    2  502    0  0.54746277011E+02  0.20725450649E+02  0.28352442175E+03  0.28950439872E+03  0.00000000000E+00 0. -1.
         22    1    3    3    0    0 -0.80459611063E+02 -0.35617836822E+02 -0.16639002618E+02  0.89550185485E+02  0.00000000000E+00 0.  1.
         22    1    3    3    0    0 -0.59964613197E+02 -0.24458185187E+02 -0.17068232894E+03  0.18255523841E+03  0.00000000000E+00 0.  1.
</event>
<event>
 7    1  0.6888820E-006  0.9616122E+02  0.7818608E-02  0.1408685E+00
          2   -1    0    0  502    0  0.00000000000E+00  0.00000000000E+00  0.56582055400E+03  0.56582055400E+03  0.00000000000E+00 0. -1.
          1   -1    0    0  501    0 -0.00000000000E+00 -0.00000000000E+00 -0.27176644207E+03  0.27176644207E+03  0.00000000000E+00 0. -1.
         25    2    1    2    0    0  0.13501717454E+02  0.78216088418E+02 -0.26697721610E+02  0.15047629039E+03  0.12502116928E+03 0.  0.
          2    1    1    2  501    0 -0.29429474367E+02  0.17750621837E+02 -0.17681463492E+03  0.18012382868E+03  0.00000000000E+00 0. -1.
          1    1    1    2  502    0  0.15927756913E+02 -0.95966710255E+02  0.49756646846E+03  0.50698687700E+03  0.00000000000E+00 0. -1.
         22    1    3    3    0    0  0.18430204138E+01  0.95061027350E+02  0.22047093253E+02  0.97601587928E+02  0.00000000000E+00 0. -1.
         22    1    3    3    0    0  0.11658697040E+02 -0.16844938932E+02 -0.48744814864E+02  0.52874702462E+02  0.00000000000E+00 0. -1.
</event>
<event>
 7    1  0.6888820E-006  0.6196576E+02  0.7818608E-02  0.1449087E+00
          2   -1    0    0  502    0  0.00000000000E+00  0.00000000000E+00  0.13122789262E+04  0.13122789262E+04  0.00000000000E+00 0. -1.
          1   -1    0    0  501    0 -0.00000000000E+00 -0.00000000000E+00 -0.31770889895E+02  0.31770889895E+02  0.00000000000E+00 0. -1.
         25    2    1    2    0    0 -0.25581837060E+02  0.48392222890E+02  0.58147413853E+03  0.59727219888E+03  0.12500267258E+03 0.  0.
          2    1    1    2  501    0 -0.11109906410E+02 -0.62309524211E+02  0.19665797972E+02  0.66277073244E+02  0.00000000000E+00 0. -1.
          1    1    1    2  502    0  0.36691743470E+02  0.13917301321E+02  0.67936809977E+03  0.68050054394E+03  0.00000000000E+00 0. -1.
         22    1    3    3    0    0  0.10690007041E+02  0.43808185719E+02  0.54042186314E+03  0.54229993873E+03  0.00000000000E+00 0.  1.
         22    1    3    3    0    0 -0.36271844100E+02  0.45840371712E+01  0.41052275386E+02  0.54972260146E+02  0.00000000000E+00 0.  1.
</event>
<event>
 7    1  0.6888820E-006  0.1116480E+03  0.7818608E-02  0.1353928E+00
          2   -1    0    0  502    0  0.00000000000E+00  0.00000000000E+00  0.81561922329E+03  0.81561922329E+03  0.00000000000E+00 0. -1.
          1   -1    0    0  501    0 -0.00000000000E+00 -0.00000000000E+00 -0.26255532085E+03  0.26255532085E+03  0.00000000000E+00 0. -1.
         25    2    1    2    0    0  0.87881095699E+02 -0.10299958381E+03 -0.16616458892E+03  0.24812838881E+03  0.12500010191E+03 0.  0.
          2    1    1    2  501    0 -0.46231749413E+02 -0.23236811434E+00 -0.40950140385E+02  0.61760364687E+02  0.00000000000E+00 0. -1.
          1    1    1    2  502    0 -0.41649346286E+02  0.10323195193E+03  0.76017863174E+03  0.76828579064E+03  0.00000000000E+00 0. -1.
         22    1    3    3    0    0  0.11566111809E+03 -0.76904317804E+02 -0.97851507760E+02  0.16990198912E+03  0.00000000000E+00 0.  1.
         22    1    3    3    0    0 -0.27780022394E+02 -0.26095266008E+02 -0.68313081157E+02  0.78226399696E+02  0.00000000000E+00 0.  1.
</event>
<event>
 7    1  0.6888820E-006  0.1337311E+03  0.7818608E-02  0.1304432E+00
          2   -1    0    0  502    0  0.00000000000E+00  0.00000000000E+00  0.37872160289E+04  0.37872160289E+04  0.00000000000E+00 0. -1.
          1   -1    0    0  501    0 -0.00000000000E+00 -0.00000000000E+00 -0.25431500746E+03  0.25431500746E+03  0.00000000000E+00 0. -1.
         25    2    1    2    0    0 -0.12432789749E+03  0.55513163141E+02  0.49573684589E+03  0.52907339508E+03  0.12499799849E+03 0.  0.
          2    1    1    2  501    0  0.86979440092E+02 -0.10208534359E+03 -0.21842944319E+03  0.25631672210E+03  0.00000000000E+00 0. -1.
          1    1    1    2  502    0  0.37348457402E+02  0.46572180450E+02  0.32555936187E+04  0.32561409192E+04  0.00000000000E+00 0. -1.
         22    1    3    3    0    0  0.55993471677E+01 -0.15291336831E+02  0.17607288736E+03  0.17682431771E+03  0.00000000000E+00 0. -1.
         22    1    3    3    0    0 -0.12992724466E+03  0.70804499972E+02  0.31966395853E+03  0.35224907737E+03  0.00000000000E+00 0. -1.
</event>
<event>
 7    1  0.6888820E-006  0.7498109E+02  0.7818608E-02  0.1371193E+00
          2   -1    0    0  502    0  0.00000000000E+00  0.00000000000E+00  0.14995456420E+03  0.14995456420E+03  0.00000000000E+00 0. -1.
          1   -1    0    0  501    0 -0.00000000000E+00 -0.00000000000E+00 -0.56465532435E+03  0.56465532435E+03  0.00000000000E+00 0. -1.
         25    2    1    2    0    0  0.35208464793E+02 -0.12269024737E+03 -0.14600122003E+03  0.23072692719E+03  0.12500410348E+03 0.  0.
          2    1    1    2  501    0 -0.32143114970E+02  0.63192320454E+02 -0.36435655308E+03  0.37119017629E+03  0.00000000000E+00 0. -1.
          1    1    1    2  502    0 -0.30653498226E+01  0.59497926920E+02  0.95657012959E+02  0.11269278506E+03  0.00000000000E+00 0. -1.
         22    1    3    3    0    0  0.78469749959E+02 -0.10144607048E+03 -0.89140936926E+02  0.15618871121E+03  0.00000000000E+00 0.  1.
         22    1    3    3    0    0 -0.43261285166E+02 -0.21244176894E+02 -0.56860283100E+02  0.74538215972E+02  0.00000000000E+00 0.  1.
</event>
<event>
 7    1  0.6888820E-006  0.2501194E+03  0.7818608E-02  0.1291192E+00
          2   -1    0    0  502    0  0.00000000000E+00  0.00000000000E+00  0.10191508663E+04  0.10191508663E+04  0.00000000000E+00 0. -1.
          1   -1    0    0  501    0 -0.00000000000E+00 -0.00000000000E+00 -0.51487858765E+03  0.51487858765E+03  0.00000000000E+00 0. -1.
         25    2    1    2    0    0  0.99712058608E+02  0.19325988199E+03 -0.29558547012E+03  0.38767061520E+03  0.12500343647E+03 0.  0.
          2    1    1    2  501    0  0.46419405333E+01  0.35777534440E+02 -0.15486781321E+03  0.15901452496E+03  0.00000000000E+00 0. -1.
          1    1    1    2  502    0 -0.10435399914E+03 -0.22903741643E+03  0.95472556201E+03  0.98734431381E+03  0.00000000000E+00 0. -1.
         22    1    3    3    0    0  0.41271768846E+02  0.18664762652E+03 -0.23916168825E+03  0.30616826830E+03  0.00000000000E+00 0.  1.
         22    1    3    3    0    0  0.58440289762E+02  0.66122554701E+01 -0.56423781870E+02  0.81502346902E+02  0.00000000000E+00 0.  1.
</event>
<event>
 7    1  0.6888820E-006  0.4119987E+02  0.7818608E-02  0.1514588E+00
          2   -1    0    0  502    0  0.00000000000E+00  0.00000000000E+00  0.41628745368E+02  0.41628745368E+02  0.00000000000E+00 0. -1.
          1   -1    0    0  501    0 -0.00000000000E+00 -0.00000000000E+00 -0.17526010018E+04  0.17526010018E+04  0.00000000000E+00 0. -1.
         25    2    1    2    0    0  0.52106582548E+01  0.80773293141E+01 -0.41427809465E+03  0.43283234329E+03  0.12500041393E+03 0.  0.
          2    1    1    2  501    0  0.36966827093E+02 -0.41171688784E+01 -0.13148009971E+04  0.13153270161E+04  0.00000000000E+00 0. -1.
          1    1    1    2  502    0 -0.42177485348E+02 -0.39601604357E+01  0.18106835326E+02  0.46070387740E+02  0.00000000000E+00 0. -1.
         22    1    3    3    0    0  0.17262276601E+02  0.60104448926E+02 -0.13895938806E+03  0.15238189690E+03  0.00000000000E+00 0. -1.
         22    1    3    3    0    0 -0.12051618346E+02 -0.52027119612E+02 -0.27531870659E+03  0.28045044639E+03  0.00000000000E+00 0. -1.
</event>
<event>
 7    1  0.6888820E-006  0.3822700E+02  0.7818608E-02  0.1607453E+00
          2   -1    0    0  502    0  0.00000000000E+00  0.00000000000E+00  0.18003157355E+03  0.18003157355E+03  0.00000000000E+00 0. -1.
          1   -1    0    0  501    0 -0.00000000000E+00 -0.00000000000E+00 -0.15386032663E+04  0.15386032663E+04  0.00000000000E+00 0. -1.
         25    2    1    2    0    0  0.41216285325E+02 -0.20632549835E+02 -0.32820496688E+03  0.35421550371E+03  0.12500255394E+03 0.  0.
          2    1    1    2  501    0 -0.30299531298E+01  0.22051102439E+02 -0.11951024490E+04  0.11953097069E+04  0.00000000000E+00 0. -1.
          1    1    1    2  502    0 -0.38186332195E+02 -0.14185526036E+01  0.16473572310E+03  0.16910962930E+03  0.00000000000E+00 0. -1.
         22    1    3    3    0    0  0.46246828221E+02 -0.43856097631E+02 -0.32384443325E+03  0.33005657601E+03  0.00000000000E+00 0.  1.
         22    1    3    3    0    0 -0.50305428959E+01  0.23223547795E+02 -0.43605336341E+01  0.24158927700E+02  0.00000000000E+00 0.  1.
</event>
<event>
 7    1  0.6888820E-006  0.1328334E+03  0.7818608E-02  0.1307556E+00
          2   -1    0    0  502    0  0.00000000000E+00  0.00000000000E+00  0.22267162298E+04  0.22267162298E+04  0.00000000000E+00 0. -1.
          1   -1    0    0  501    0 -0.00000000000E+00 -0.00000000000E+00 -0.19240227280E+04  0.19240227280E+04  0.00000000000E+00 0. -1.
         25    2    1    2    0    0  0.13373406466E+03 -0.12213247919E+03  0.45425765995E+03  0.50475393188E+03  0.12500147039E+03 0.  0.
          2    1    1    2  501    0 -0.54541264233E+02  0.20909028133E+02 -0.18959607577E+04  0.18968603353E+04  0.00000000000E+00 0. -1.
          1    1    1    2  502    0 -0.79192800428E+02  0.10122345106E+03  0.17443965996E+04  0.17491246906E+04  0.00000000000E+00 0. -1.
         22    1    3    3    0    0  0.67536717022E+02 -0.77230616833E+02  0.38662085428E+03  0.40000182661E+03  0.00000000000E+00 0. -1.
         22    1    3    3    0    0  0.66197347640E+02 -0.44901862360E+02  0.67636805663E+02  0.10475210527E+03  0.00000000000E+00 0. -1.
</event>
<event>
 7    1  0.6888820E-006  0.7038214E+02  0.7818608E-02  0.1422010E+00
          2   -1    0    0  502    0  0.00000000000E+00  0.00000000000E+00  0.53853012997E+03  0.53853012997E+03  0.00000000000E+00 0. -1.
          1   -1    0    0  501    0 -0.00000000000E+00 -0.00000000000E+00 -0.45301358650E+03  0.45301358650E+03  0.00000000000E+00 0. -1.
         25    2    1    2    0    0 -0.55994678521E+02  0.54358474899E+02  0.26215044699E+03  0.30073344868E+03  0.12501000953E+03 0.  0.
          2    1    1    2  501    0 -0.13478018289E+02 -0.40151635523E+02 -0.42776665762E+03  0.42985826058E+03  0.00000000000E+00 0. -1.
          1    1    1    2  502    0  0.69472696810E+02 -0.14206839375E+02  0.25113275410E+03  0.26095200721E+03  0.00000000000E+00 0. -1.
         22    1    3    3    0    0 -0.38074560759E+02 -0.21090448948E+02  0.22803635233E+02  0.49137409309E+02  0.00000000000E+00 0. -1.
         22    1    3    3    0    0 -0.17920117762E+02  0.75448923847E+02  0.23934681176E+03  0.25159603937E+03  0.00000000000E+00 0. -1.
</event>
<event>
 7    1  0.6888820E-006  0.9798425E+02  0.7818608E-02  0.1349917E+00
          2   -1    0    0  502    0  0.00000000000E+00  0.00000000000E+00  0.60149534847E+03  0.60149534847E+03  0.00000000000E+00 0. -1.
          1   -1    0    0  501    0 -0.00000000000E+00 -0.00000000000E+00 -0.83092004775E+02  0.83092004775E+02  0.00000000000E+00 0. -1.
         25    2    1    2    0    0  0.72619429918E+02 -0.88326058402E+01  0.40999886364E+03  0.43482842314E+03  0.12500037142E+03 0.  0.
          2    1    1    2  501    0 -0.92064945068E+02 -0.42088817717E+02 -0.26175898318E+02  0.10455907584E+03  0.00000000000E+00 0. -1.
          1    1    1    2  502    0  0.19445515150E+02  0.50921423557E+02  0.13458037837E+03  0.14519985427E+03  0.00000000000E+00 0. -1.
         22    1    3    3    0    0  0.23115967729E+02  0.11502640907E+02  0.36206044400E+03  0.36297992207E+03  0.00000000000E+00 0. -1.
         22    1    3    3    0    0  0.49503462189E+02 -0.20335246747E+02  0.47938419636E+02  0.71848501072E+02  0.00000000000E+00 0. -1.
</event>
<event>
 7    1  0.6888820E-006  0.8024214E+02  0.7818608E-02  0.1372985E+00
          2   -1    0    0  502    0  0.00000000000E+00  0.00000000000E+00  0.16612307645E+04  0.16612307645E+04  0.00000000000E+00 0. -1.
          1   -1    0    0  501    0 -0.00000000000E+00 -0.00000000000E+00 -0.11699442686E+04  0.11699442686E+04  0.00000000000E+00 0. -1.
         25    2    1    2    0    0 -0.60293954874E+02 -0.88622810378E+01  0.23645321690E+03  0.27431778043E+03  0.12500487934E+03 0.  0.
          2    1    1    2  501    0  0.50272760787E+02  0.62792730251E+02 -0.11490703789E+04  0.11518823781E+04  0.00000000000E+00 0. -1.
          1    1    1    2  502    0  0.10021194087E+02 -0.53930449213E+02  0.14039036579E+04  0.14049748746E+04  0.00000000000E+00 0. -1.
         22    1    3    3    0    0  0.30354380371E+02 -0.15831590750E+02  0.12947863843E+03  0.13392813552E+03  0.00000000000E+00 0.  1.
         22    1    3    3    0    0 -0.90648335245E+02  0.69693097120E+01  0.10697457847E+03  0.14038964491E+03  0.00000000000E+00 0.  1.
</event>
<event>
 7    1  0.6888820E-006  0.4667348E+02  0.7818608E-02  0.1579901E+00
          2   -1    0    0  502    0  0.00000000000E+00  0.00000000000E+00  0.33892016510E+03  0.33892016510E+03  0.00000000000E+00 0. -1.
          1   -1    0    0  501    0 -0.00000000000E+00 -0.00000000000E+00 -0.21374973888E+03  0.21374973888E+03  0.00000000000E+00 0. -1.
         25    2    1    2    0    0 -0.25519803299E+02  0.14222733234E+01 -0.69782771087E+02  0.14542190178E+03  0.12499844461E+03 0.  0.
          2    1    1    2  501    0 -0.21253076931E+02  0.35440630421E+01 -0.10319094372E+03  0.10541643386E+03  0.00000000000E+00 0. -1.
          1    1    1    2  502    0  0.46772880229E+02 -0.49663363656E+01  0.29814414102E+03  0.30183156834E+03  0.00000000000E+00 0. -1.
         22    1    3    3    0    0  0.40612839690E+02  0.33327497211E+02 -0.17852150751E+02  0.55487152608E+02  0.00000000000E+00 0. -1.
         22    1    3    3    0    0 -0.66132642988E+02 -0.31905223888E+02 -0.51930620336E+02  0.89934749171E+02  0.00000000000E+00 0. -1.
</event>
<event>
 7    1  0.6888820E-006  0.4920558E+02  0.7818608E-02  0.1460777E+00
          2   -1    0    0  502    0  0.00000000000E+00  0.00000000000E+00  0.13842066172E+03  0.13842066172E+03  0.00000000000E+00 0. -1.
          1   -1    0    0  501    0 -0.00000000000E+00 -0.00000000000E+00 -0.14841657605E+04  0.14841657605E+04  0.00000000000E+00 0. -1.
         25    2    1    2    0    0  0.11998742521E+02  0.34931013779E+01  0.20471686834E+02  0.12728465070E+03  0.12500448297E+03 0.  0.
          2    1    1    2  501    0 -0.84906756615E+01 -0.48725585880E+02 -0.14223033769E+04  0.14231630863E+04  0.00000000000E+00 0. -1.
          1    1    1    2  502    0 -0.35080668600E+01  0.45232484502E+02  0.56086591263E+02  0.72138685231E+02  0.00000000000E+00 0. -1.
         22    1    3    3    0    0  0.13687492150E+02 -0.24629729318E+02  0.67116626724E+02  0.72791569501E+02  0.00000000000E+00 0.  1.
         22    1    3    3    0    0 -0.16887496287E+01  0.28122830696E+02 -0.46644939890E+02  0.54493081203E+02  0.00000000000E+00 0.  1.
</event>
<event>
 7    1  0.6888820E-006  0.9034540E+02  0.7818608E-02  0.1382792E+00
          2   -1    0    0  502    0  0.00000000000E+00  0.00000000000E+00  0.55997025144E+02  0.55997025144E+02  0.00000000000E+00 0. -1.
          1   -1    0    0  501    0 -0.00000000000E+00 -0.00000000000E+00 -0.75947520188E+03  0.75947520188E+03  0.00000000000E+00 0. -1.
         25    2    1    2    0    0  0.82554857382E+02 -0.84872747361E+02 -0.13428942363E+03  0.21835294751E+03  0.12500269063E+03 0.  0.
          2    1    1    2  501    0 -0.33804684789E+02  0.29646669336E+02 -0.47699739639E+03  0.47911188451E+03  0.00000000000E+00 0. -1.
          1    1    1    2  502    0 -0.48750172593E+02  0.55226078025E+02 -0.92191356715E+02  0.11800739500E+03  0.00000000000E+00 0. -1.
         22    1    3    3    0    0  0.10829015293E+03 -0.83932414287E+02 -0.13533430953E+03  0.19257928945E+03  0.00000000000E+00 0.  1.
         22    1    3    3    0    0 -0.25735295548E+02 -0.94033307413E+00  0.10448859007E+01  0.25773658059E+02  0.00000000000E+00 0.  1.
</event>
<event>
 7    1  0.6888820E-006  0.4807898E+02  0.7818608E-02  0.1468180E+00
          2   -1    0    0  502    0  0.00000000000E+00  0.00000000000E+00  0.17751767575E+04  0.17751767575E+04  0.00000000000E+00 0. -1.
          1   -1    0    0  501    0 -0.00000000000E+00 -0.00000000000E+00 -0.12438173416E+03  0.12438173416E+03  0.00000000000E+00 0. -1.
         25    2    1    2    0    0  0.38935261714E+02  0.18025378436E+01  0.79426379084E+03  0.80498367923E+03  0.12499820251E+03 0.  0.
          2    1    1    2  501    0 -0.86326788350E+01 -0.43160249168E+02 -0.11425276962E+03  0.12243784390E+03  0.00000000000E+00 0. -1.
          1    1    1    2  502    0 -0.30302582879E+02  0.41357711324E+02  0.97078400215E+03  0.97213696857E+03  0.00000000000E+00 0. -1.
         22    1    3    3    0    0  0.31980895391E+02 -0.61002187624E+01  0.79377812098E+03  0.79444552720E+03  0.00000000000E+00 0.  1.
         22    1    3    3    0    0  0.69543663229E+01  0.79027566059E+01  0.48566986064E+00  0.10538152027E+02  0.00000000000E+00 0.  1.
</event>
<event>
 7    1  0.6888820E-006  0.1315535E+03  0.7818608E-02  0.1332888E+00
          2   -1    0    0  502    0  0.00000000000E+00  0.00000000000E+00  0.20786396522E+03  0.20786396522E+03  0.00000000000E+00 0. -1.
          1   -1    0    0  501    0 -0.00000000000E+00 -0.00000000000E+00 -0.86504378904E+03  0.86504378904E+03  0.00000000000E+00 0. -1.
         25    2    1    2    0    0  0.98090023943E+02  0.25911570710E+02 -0.96822200542E+02  0.18786391152E+03  0.12500099376E+03 0.  0.
          2    1    1    2  501    0  0.23020754884E+02  0.41018884925E+02 -0.69227080913E+03  0.69386697374E+03  0.00000000000E+00 0. -1.
          1    1    1    2  502    0 -0.12111077883E+03 -0.66930455636E+02  0.13191318584E+03  0.19117686900E+03  0.00000000000E+00 0. -1.
         22    1    3    3    0    0  0.47038066378E+02 -0.21915366763E+02  0.16704039836E+02  0.54515024863E+02  0.00000000000E+00 0.  1.
         22    1    3    3    0    0  0.51051957564E+02  0.47826937473E+02 -0.11352624038E+03  0.13334888666E+03  0.00000000000E+00 0.  1.
</event>
<event>
 7    1  0.6888820E-006  0.1506079E+03  0.7818608E-02  0.1340190E+00
          2   -1    0    0  502    0  0.00000000000E+00  0.00000000000E+00  0.11913813748E+03  0.11913813748E+03  0.00000000000E+00 0. -1.
          1   -1    0    0  501    0 -0.00000000000E+00 -0.00000000000E+00 -0.21228181519E+04  0.21228181519E+04  0.00000000000E+00 0. -1.
         25    2    1    2    0    0  0.14279818808E+03  0.22281327102E+02 -0.47470306661E+03  0.51171824582E+03  0.12499912642E+03 0.  0.
          2    1    1    2  501    0 -0.36351282356E+01  0.38383153804E+02 -0.15719810085E+04  0.15724537423E+04  0.00000000000E+00 0. -1.
          1    1    1    2  502    0 -0.13916305985E+03 -0.60664480906E+02  0.43004060711E+02  0.15778430121E+03  0.00000000000E+00 0. -1.
         22    1    3    3    0    0  0.63466190451E+02 -0.24666961934E+00 -0.38367300128E+03  0.38888686027E+03  0.00000000000E+00 0.  1.
         22    1    3    3    0    0  0.79331997632E+02  0.22527996721E+02 -0.91030065325E+02  0.12283138556E+03  0.00000000000E+00 0.  1.
</event>
<event>
 7    1  0.6888820E-006  0.1697033E+03  0.7818608E-02  0.1284443E+00
          2   -1    0    0  502    0  0.00000000000E+00  0.00000000000E+00  0.19441863528E+03  0.19441863528E+03  0.00000000000E+00 0. -1.
          1   -1    0    0  501    0 -0.00000000000E+00 -0.00000000000E+00 -0.42350380079E+03  0.42350380079E+03  0.00000000000E+00 0. -1.
         25    2    1    2    0    0 -0.11684472754E+03  0.37689454987E+02 -0.25058968823E+03  0.30578528681E+03  0.12504504954E+03 0.  0.
          2    1    1    2  501    0 -0.56545047698E+02  0.35290793668E+01 -0.86751573293E+02  0.10361289635E+03  0.00000000000E+00 0. -1.
          1    1    1    2  502    0  0.17338977524E+03 -0.41218534354E+02  0.10825609601E+03  0.20852425292E+03  0.00000000000E+00 0. -1.
         22    1    3    3    0    0 -0.11921198776E+03  0.17162458858E+02 -0.10820324760E+03  0.16190735255E+03  0.00000000000E+00 0.  1.
         22    1    3    3    0    0  0.23672602245E+01  0.20526996129E+02 -0.14238644063E+03  0.14387793426E+03  0.00000000000E+00 0.  1.
</event>
<event>
 7    1  0.6888820E-006  0.1180249E+03  0.7818608E-02  0.1333520E+00
          2   -1    0    0  502    0  0.00000000000E+00  0.00000000000E+00  0.19513878337E+04  0.19513878337E+04  0.00000000000E+00 0. -1.
          1   -1    0    0  501    0 -0.00000000000E+00 -0.00000000000E+00 -0.19773380380E+04  0.19773380380E+04  0.00000000000E+00 0. -1.
         25    2    1    2    0    0 -0.67247959724E+02  0.57775802749E+01 -0.14403517145E+02  0.14279134507E+03  0.12500495350E+03 0.  0.
          2    1    1    2  501    0  0.11938596284E+03 -0.53753295743E+01 -0.18964993175E+04  0.19002609198E+04  0.00000000000E+00 0. -1.
          1    1    1    2  502    0 -0.52138003112E+02 -0.40225070063E+00  0.18849526302E+04  0.18856736068E+04  0.00000000000E+00 0. -1.
         22    1    3    3    0    0  0.16581581681E+02 -0.23107571815E+02  0.31920471446E+02  0.42753072680E+02  0.00000000000E+00 0. -1.
         22    1    3    3    0    0 -0.83829541405E+02  0.28885152089E+02 -0.46323988592E+02  0.10003827239E+03  0.00000000000E+00 0. -1.
</event>
<event>
 7    1  0.6888820E-006  0.2323613E+03  0.7818608E-02  0.1246660E+00
          2   -1    0    0  502    0  0.00000000000E+00  0.00000000000E+00  0.11818607018E+04  0.11818607018E+04  0.00000000000E+00 0. -1.
          1   -1    0    0  501    0 -0.00000000000E+00 -0.00000000000E+00 -0.69789897068E+02  0.69789897068E+02  0.00000000000E+00 0. -1.
         25    2    1    2    0    0  0.10261671443E+03  0.19391575145E+03  0.43557281818E+03  0.50347017707E+03  0.12500012209E+03 0.  0.
          2    1    1    2  501    0 -0.42263712514E+02  0.42288869834E+02  0.57700258111E+02  0.83089648534E+02  0.00000000000E+00 0. -1.
          1    1    1    2  502    0 -0.60353001915E+02 -0.23620462128E+03  0.61879772842E+03  0.66509077324E+03  0.00000000000E+00 0. -1.
         22    1    3    3    0    0  0.10896475538E+03  0.11251400306E+03  0.19926704860E+03  0.25345625946E+03  0.00000000000E+00 0.  1.
         22    1    3    3    0    0 -0.63480409492E+01  0.81401748385E+02  0.23630576958E+03  0.25001391761E+03  0.00000000000E+00 0.  1.
</event>
<event>
 7    1  0.6888820E-006  0.1149215E+03  0.7818608E-02  0.1282213E+00
          2   -1    0    0  502    0  0.00000000000E+00  0.00000000000E+00  0.53983345634E+03  0.53983345634E+03  0.00000000000E+00 0. -1.
          1   -1    0    0  501    0 -0.00000000000E+00 -0.00000000000E+00 -0.37848764422E+03  0.37848764422E+03  0.00000000000E+00 0. -1.
         25    2    1    2    0    0  0.88332684536E+02  0.15432105592E+03  0.89075251632E+02  0.23489573392E+03  0.12499581554E+03 0.  0.
          2    1    1    2  501    0 -0.37625026242E+01 -0.85363186242E+02 -0.29143513138E+03  0.30370292359E+03  0.00000000000E+00 0. -1.
          1    1    1    2  502    0 -0.84570181912E+02 -0.68957869682E+02  0.36370569187E+03  0.37972244306E+03  0.00000000000E+00 0. -1.
         22    1    3    3    0    0  0.77686569533E+02  0.15094801344E+03  0.27091648843E+02  0.17191411601E+03  0.00000000000E+00 0. -1.
         22    1    3    3    0    0  0.10646115003E+02  0.33730424893E+01  0.61983602789E+02  0.62981617913E+02  0.00000000000E+00 0. -1.
</event>
<event>
 7    1  0.6888820E-006  0.5209517E+02  0.7818608E-02  0.1484537E+00
          2   -1    0    0  502    0  0.00000000000E+00  0.00000000000E+00  0.39776684456E+04  0.39776684456E+04  0.00000000000E+00 0. -1.
          1   -1    0    0  501    0 -0.00000000000E+00 -0.00000000000E+00 -0.41719099239E+03  0.41719099239E+03  0.00000000000E+00 0. -1.
         25    2    1    2    0    0  0.40965812056E+02 -0.69610298983E+02  0.95739832330E+03  0.96889587616E+03  0.12499551151E+03 0.  0.
          2    1    1    2  501    0 -0.23096610105E+01  0.36094405646E+02 -0.41042980455E+03  0.41202034551E+03  0.00000000000E+00 0. -1.
          1    1    1    2  502    0 -0.38656151046E+02  0.33515893337E+02  0.30135089345E+04  0.30139432163E+04  0.00000000000E+00 0. -1.
         22    1    3    3    0    0  0.45119338380E+02 -0.10396643088E+03  0.77507863193E+03  0.78332091707E+03  0.00000000000E+00 0. -1.
         22    1    3    3    0    0 -0.41535263234E+01  0.34356131893E+02  0.18231969138E+03  0.18557495909E+03  0.00000000000E+00 0. -1.
</event>
<event>
 7    1  0.6888820E-006  0.1349353E+03  0.7818608E-02  0.1246214E+00
          2   -1    0    0  502    0  0.00000000000E+00  0.00000000000E+00  0.14415979812E+04  0.14415979812E+04  0.00000000000E+00 0. -1.
          1   -1    0    0  501    0 -0.00000000000E+00 -0.00000000000E+00 -0.59337251890E+02  0.59337251890E+02  0.00000000000E+00 0. -1.
         25    2    1    2    0    0  0.76620618859E+02  0.86277090862E+02  0.95402329965E+03  0.96907178475E+03  0.12500084835E+03 0.  0.
          2    1    1    2  501    0 -0.14092401120E+03 -0.52816068012E+01  0.67029504691E+02  0.15614232867E+03  0.00000000000E+00 0. -1.
          1    1    1    2  502    0  0.64303392339E+02 -0.80995484060E+02  0.36120792497E+03  0.37572111966E+03  0.00000000000E+00 0. -1.
         22    1    3    3    0    0  0.10670683503E+03  0.88843244851E+02  0.82152825240E+03  0.83317953665E+03  0.00000000000E+00 0. -1.
         22    1    3    3    0    0 -0.30086216167E+02 -0.25661539897E+01  0.13249504725E+03  0.13589224811E+03  0.00000000000E+00 0. -1.
</event>
<event>
 7    1  0.6888820E-006  0.9971870E+02  0.7818608E-02  0.1447875E+00
          2   -1    0    0  502    0  0.00000000000E+00  0.00000000000E+00  0.19529929967E+04  0.19529929967E+04  0.00000000000E+00 0. -1.
          1   -1    0    0  501    0 -0.00000000000E+00 -0.00000000000E+00 -0.97091723168E+02  0.97091723168E+02  0.00000000000E+00 0. -1.
         25    2    1    2    0    0 -0.14569212737E+02  0.83239350629E+02  0.47534703211E+02  0.15819286298E+03  0.12499752972E+03 0.  0.
          2    1    1    2  501    0  0.17939541972E+02  0.16839281882E+02 -0.36659221760E+02  0.44150731824E+02  0.00000000000E+00 0. -1.
          1    1    1    2  502    0 -0.33703292353E+01 -0.10007863251E+03  0.18450257921E+04  0.18477411251E+04  0.00000000000E+00 0. -1.
         22    1    3    3    0    0 -0.57669834723E+02  0.14857974782E+02  0.49346951334E+02  0.77341391619E+02  0.00000000000E+00 0. -1.
         22    1    3    3    0    0  0.43100621986E+02  0.68381375846E+02 -0.18122481231E+01  0.80851471362E+02  0.00000000000E+00 0. -1.
</event>
<event>
 7    1  0.6888820E-006  0.6140699E+02  0.7818608E-02  0.1394341E+00
          2   -1    0    0  502    0  0.00000000000E+00  0.00000000000E+00  0.46224230261E+03  0.46224230261E+03  0.00000000000E+00 0. -1.
          1   -1    0    0  501    0 -0.00000000000E+00 -0.00000000000E+00 -0.20345857037E+04  0.20345857037E+04  0.00000000000E+00 0. -1.
         25    2    1    2    0    0  0.58133415014E+02 -0.39172444995E+02 -0.21879966502E+02  0.14497271259E+03  0.12499752027E+03 0.  0.
          2    1    1    2  501    0 -0.21541704994E+01  0.61527439268E+02 -0.19484034573E+04  0.19493758741E+04  0.00000000000E+00 0. -1.
          1    1    1    2  502    0 -0.55979244515E+02 -0.22354994273E+02  0.39794002266E+03  0.40247941963E+03  0.00000000000E+00 0. -1.
         22    1    3    3    0    0  0.34723214819E+02 -0.28480069868E+01  0.50096146323E+02  0.61019969416E+02  0.00000000000E+00 0.  1.
         22    1    3    3    0    0  0.23410200195E+02 -0.36324438008E+02 -0.71976112825E+02  0.83952743179E+02  0.00000000000E+00 0.  1.
</event>
<event>
 7    1  0.6888820E-006  0.5046751E+02  0.7818608E-02  0.1577228E+00
          2   -1    0    0  502    0  0.00000000000E+00  0.00000000000E+00  0.19092011944E+03  0.19092011944E+03  0.00000000000E+00 0. -1.
          1   -1    0    0  501    0 -0.00000000000E+00 -0.00000000000E+00 -0.89817820800E+03  0.89817820800E+03  0.00000000000E+00 0. -1.
         25    2    1    2    0    0  0.32241240052E+02  0.35653523146E+02 -0.21295137836E+03  0.25156211158E+03  0.12499814066E+03 0.  0.
          2    1    1    2  501    0  0.13829824566E+02 -0.14803940707E+02 -0.66203787467E+03  0.66234776984E+03  0.00000000000E+00 0. -1.
          1    1    1    2  502    0 -0.46071064618E+02 -0.20849582438E+02  0.16773116447E+03  0.17518844602E+03  0.00000000000E+00 0. -1.
         22    1    3    3    0    0 -0.27135602709E+02  0.48768801813E+01  0.81053647475E+00  0.27582274454E+02  0.00000000000E+00 0.  1.
         22    1    3    3    0    0  0.59376842761E+02  0.30776642964E+02 -0.21376191483E+03  0.22397983713E+03  0.00000000000E+00 0.  1.
</event>
<event>
 7    1  0.6888820E-006  0.6553074E+02  0.7818608E-02  0.1405752E+00
          2   -1    0    0  502    0  0.00000000000E+00  0.00000000000E+00  0.23728817991E+04  0.23728817991E+04  0.00000000000E+00 0. -1.
          1   -1    0    0  501    0 -0.00000000000E+00 -0.00000000000E+00 -0.22301969350E+02  0.22301969350E+02  0.00000000000E+00 0. -1.
         25    2    1    2    0    0 -0.83156363601E+01 -0.99889875658E+02  0.10019680895E+04  0.10146972926E+04  0.12499362436E+03 0.  0.
          2    1    1    2  501    0  0.33110050663E+02  0.54631265136E+02  0.50717297915E+02  0.81566505950E+02  0.00000000000E+00 0. -1.
          1    1    1    2  502    0 -0.24794414303E+02  0.45258610522E+02  0.12978944423E+04  0.12989199699E+04  0.00000000000E+00 0. -1.
         22    1    3    3    0    0  0.23530413987E+02 -0.10164717109E+03  0.93176982995E+03  0.93759311206E+03  0.00000000000E+00 0.  1.
         22    1    3    3    0    0 -0.31846050348E+02  0.17572954351E+01  0.70198259516E+02  0.77104180490E+02  0.00000000000E+00 0.  1.
</event>
<event>
 7    1  0.6888820E-006  0.3472618E+02  0.7818608E-02  0.1638711E+00
          2   -1    0    0  502    0  0.00000000000E+00  0.00000000000E+00  0.31921502192E+02  0.31921502192E+02  0.00000000000E+00 0. -1.
          1   -1    0    0  501    0 -0.00000000000E+00 -0.00000000000E+00 -0.12729090492E+04  0.12729090492E+04  0.00000000000E+00 0. -1.
         25    2    1    2    0    0  0.20014353118E+02  0.29750109384E+02 -0.53699204967E+03  0.55251348969E+03  0.12500020617E+03 0.  0.
          2    1    1    2  501    0 -0.32287322654E+02 -0.13439027992E+02 -0.72334557561E+03  0.72419051390E+03  0.00000000000E+00 0. -1.
          1    1    1    2  502    0  0.12272969536E+02 -0.16311081392E+02  0.19350078317E+02  0.28126547749E+02  0.00000000000E+00 0. -1.
         22    1    3    3    0    0  0.34192101762E+02  0.60228782087E+02 -0.48923216505E+03  0.49411002554E+03  0.00000000000E+00 0. -1.
         22    1    3    3    0    0 -0.14177748644E+02 -0.30478672704E+02 -0.47759884616E+02  0.58403464152E+02  0.00000000000E+00 0. -1.
</event>
<event>
 7    1  0.6888820E-006  0.8988380E+02  0.7818608E-02  0.1328839E+00
          2   -1    0    0  502    0  0.00000000000E+00  0.00000000000E+00  0.14692167203E+03  0.14692167203E+03  0.00000000000E+00 0. -1.
          1   -1    0    0  501    0 -0.00000000000E+00 -0.00000000000E+00 -0.41586754881E+03  0.41586754881E+03  0.00000000000E+00 0. -1.
         25    2    1    2    0    0  0.14817081780E+03 -0.27492276994E+02 -0.14307795614E+03  0.24249064575E+03  0.12497997920E+03 0.  0.
          2    1    1    2  501    0 -0.80328687472E+02  0.54393078057E+01 -0.20110245681E+03  0.21662059513E+03  0.00000000000E+00 0. -1.
          1    1    1    2  502    0 -0.67842130333E+02  0.22052969189E+02  0.75234536161E+02  0.10367797996E+03  0.00000000000E+00 0. -1.
         22    1    3    3    0    0  0.84092442024E+02 -0.22828337567E+02 -0.15436357545E+03  0.17725909068E+03  0.00000000000E+00 0. -1.
         22    1    3    3    0    0  0.64078375781E+02 -0.46639394279E+01  0.11285619316E+02  0.65231555071E+02  0.00000000000E+00 0. -1.
</event>
<event>
 7    1  0.6888820E-006  0.3260767E+02  0.7818608E-02  0.1592009E+00
          2   -1    0    0  502    0  0.00000000000E+00  0.00000000000E+00  0.40255363420E+03  0.40255363420E+03  0.00000000000E+00 0. -1.
          1   -1    0    0  501    0 -0.00000000000E+00 -0.00000000000E+00 -0.44945333607E+03  0.44945333607E+03  0.00000000000E+00 0. -1.
         25    2    1    2    0    0  0.49486870027E+02  0.22806052447E+02 -0.11323142137E+03  0.17723888820E+03  0.12499280928E+03 0.  0.
          2    1    1    2  501    0 -0.20897393966E+02 -0.24436003952E+02 -0.30281254369E+03  0.30451478778E+03  0.00000000000E+00 0. -1.
          1    1    1    2  502    0 -0.28589476061E+02  0.16299515046E+01  0.36914426319E+03  0.37025329429E+03  0.00000000000E+00 0. -1.
         22    1    3    3    0    0 -0.62933268193E+01 -0.14524788749E+02 -0.10883007510E+03  0.10997527312E+03  0.00000000000E+00 0.  1.
         22    1    3    3    0    0  0.55780196846E+02  0.37330841196E+02 -0.44013462677E+01  0.67263615079E+02  0.00000000000E+00 0.  1.
</event>
<event>
 7    1  0.6999828E-006  0.7537007E+02  0.7818608E-02  0.1344669E+00
          2   -1    0    0  502    0  0.00000000000E+00  0.00000000000E+00  0.43655300186E+03  0.43655300186E+03  0.00000000000E+00 0. -1.
          1   -1    0    0  501    0 -0.00000000000E+00 -0.00000000000E+00 -0.10510851172E+04  0.10510851172E+04  0.00000000000E+00 0. -1.
         25    2    1    2    0    0 -0.17324866855E+02 -0.36863886797E+02 -0.17597087790E+03  0.21966021540E+03  0.12500305276E+03 0.  0.
          2    1    1    2  501    0  0.80419509137E+02 -0.20332446046E+01 -0.84803888919E+03  0.85184587169E+03  0.00000000000E+00 0. -1.
          1    1    1    2  502    0 -0.63094642282E+02  0.38897131402E+02  0.40947765177E+03  0.41613203195E+03  0.00000000000E+00 0. -1.
         22    1    3    3    0    0 -0.10503351231E+02 -0.12563078807E+02  0.17838081941E+02  0.24214634078E+02  0.00000000000E+00 0.  1.
         22    1    3    3    0    0 -0.68215156238E+01 -0.24300807990E+02 -0.19380895984E+03  0.19544558132E+03  0.00000000000E+00 0.  1.
</event>
<event>
 7    1  0.6888820E-006  0.1195409E+03  0.7818608E-02  0.1292433E+00
          2   -1    0    0  502    0  0.00000000000E+00  0.00000000000E+00  0.15882263768E+04  0.15882263768E+04  0.00000000000E+00 0. -1.
          1   -1    0    0  501    0 -0.00000000000E+00 -0.00000000000E+00 -0.25496388548E+02  0.25496388548E+02  0.00000000000E+00 0. -1.
         25    2    1    2    0    0 -0.22485156231E+02  0.62224616338E+02  0.36857353540E+03  0.39478016114E+03  0.12500975764E+03 0.  0.
          2    1    1    2  501    0 -0.45948607793E+02  0.58790376227E+02  0.17354495564E+03  0.18890588800E+03  0.00000000000E+00 0. -1.
          1    1    1    2  502    0  0.68433764024E+02 -0.12101499256E+03  0.10206114973E+04  0.10300367162E+04  0.00000000000E+00 0. -1.
         22    1    3    3    0    0  0.22546091135E+02  0.78314346051E+02  0.14674309061E+03  0.16785409636E+03  0.00000000000E+00 0.  1.
         22    1    3    3    0    0 -0.45031247367E+02 -0.16089729713E+02  0.22183044479E+03  0.22692606478E+03  0.00000000000E+00 0.  1.
</event>
<event>
 7    1  0.6888820E-006  0.1224283E+03  0.7818608E-02  0.1310900E+00
          2   -1    0    0  502    0  0.00000000000E+00  0.00000000000E+00  0.21160066443E+04  0.21160066443E+04  0.00000000000E+00 0. -1.
          1   -1    0    0  501    0 -0.00000000000E+00 -0.00000000000E+00 -0.26992068723E+03  0.26992068723E+03  0.00000000000E+00 0. -1.
         25    2    1    2    0    0 -0.73980489687E+02  0.14082884519E+03  0.77369935557E+03  0.79971325815E+03  0.12499890382E+03 0.  0.
          2    1    1    2  501    0  0.55841194715E+02 -0.25719892471E+02 -0.25063770335E+03  0.25806784037E+03  0.00000000000E+00 0. -1.
          1    1    1    2  502    0  0.18139294972E+02 -0.11510895272E+03  0.13230243048E+04  0.13281462330E+04  0.00000000000E+00 0. -1.
         22    1    3    3    0    0 -0.54253873677E+02  0.11199002623E+03  0.30078827317E+03  0.32551318569E+03  0.00000000000E+00 0.  1.
         22    1    3    3    0    0 -0.19726616010E+02  0.28838818957E+02  0.47291108241E+03  0.47420007246E+03  0.00000000000E+00 0.  1.
</event>
<event>
 7    1  0.6888820E-006  0.1284600E+03  0.7818608E-02  0.1310098E+00
          2   -1    0    0  502    0  0.00000000000E+00  0.00000000000E+00  0.31553064263E+03  0.31553064263E+03  0.00000000000E+00 0. -1.
          1   -1    0    0  501    0 -0.00000000000E+00 -0.00000000000E+00 -0.14392957533E+03  0.14392957533E+03  0.00000000000E+00 0. -1.
         25    2    1    2    0    0 -0.56602788522E+02  0.85086733664E+02  0.58484022798E+02  0.17172254990E+03  0.12499850121E+03 0.  0.
          2    1    1    2  501    0  0.11550896272E+03 -0.88758441266E+02 -0.15234397558E+02  0.14646661133E+03  0.00000000000E+00 0. -1.
          1    1    1    2  502    0 -0.58906174198E+02  0.36717076022E+01  0.12835144206E+03  0.14127105674E+03  0.00000000000E+00 0. -1.
         22    1    3    3    0    0  0.28576902425E+02  0.63863388519E+02  0.79068908465E+01  0.70410870384E+02  0.00000000000E+00 0.  1.
         22    1    3    3    0    0 -0.85179690947E+02  0.21223345144E+02  0.50577131952E+02  0.10131167951E+03  0.00000000000E+00 0.  1.
</event>
<event>
 7    1  0.6888820E-006  0.9637098E+02  0.7818608E-02  0.1368343E+00
          2   -1    0    0  502    0  0.00000000000E+00  0.00000000000E+00  0.88314567458E+03  0.88314567458E+03  0.00000000000E+00 0. -1.
          1   -1    0    0  501    0 -0.00000000000E+00 -0.00000000000E+00 -0.56761753125E+03  0.56761753125E+03  0.00000000000E+00 0. -1.
         25    2    1    2    0    0 -0.84624055238E+02 -0.23026749118E+02  0.32143333550E+02  0.15603949722E+03  0.12499467549E+03 0.  0.
          2    1    1    2  501    0  0.94479375329E+02 -0.23399262792E+02 -0.50026102131E+03  0.50964199916E+03  0.00000000000E+00 0. -1.
          1    1    1    2  502    0 -0.98553200907E+01  0.46426011911E+02  0.78364583110E+03  0.78508170945E+03  0.00000000000E+00 0. -1.
         22    1    3    3    0    0 -0.27848305892E+02 -0.49917524741E+02 -0.32619683688E+02  0.65812849666E+02  0.00000000000E+00 0.  1.
         22    1    3    3    0    0 -0.56775749346E+02  0.26890775622E+02  0.64763017238E+02  0.90226647556E+02  0.00000000000E+00 0.  1.
</event>
<event>
 7    1  0.6888820E-006  0.4439919E+02  0.7818608E-02  0.1483606E+00
          2   -1    0    0  502    0  0.00000000000E+00  0.00000000000E+00  0.15343521943E+04  0.15343521943E+04  0.00000000000E+00 0. -1.
          1   -1    0    0  501    0 -0.00000000000E+00 -0.00000000000E+00 -0.25342366755E+03  0.25342366755E+03  0.00000000000E+00 0. -1.
         25    2    1    2    0    0  0.64574418990E+02  0.58067667565E+02  0.72991129003E+01  0.15238060819E+03  0.12499945239E+03 0.  0.
          2    1    1    2  501    0 -0.32946238603E+02 -0.27188296810E+02 -0.17801992887E+03  0.18307308157E+03  0.00000000000E+00 0. -1.
          1    1    1    2  502    0 -0.31628180387E+02 -0.30879370756E+02  0.14516493427E+04  0.14523221721E+04  0.00000000000E+00 0. -1.
         22    1    3    3    0    0  0.39889544310E+02 -0.11245135404E+02 -0.45706625696E+02  0.61698658397E+02  0.00000000000E+00 0. -1.
         22    1    3    3    0    0  0.24684874680E+02  0.69312802970E+02  0.53005738596E+02  0.90681949789E+02  0.00000000000E+00 0. -1.
</event>
<event>
 7    1  0.6888820E-006  0.1294621E+03  0.7818608E-02  0.1417429E+00
          2   -1    0    0  502    0  0.00000000000E+00  0.00000000000E+00  0.13786801321E+04  0.13786801321E+04  0.00000000000E+00 0. -1.
          1   -1    0    0  501    0 -0.00000000000E+00 -0.00000000000E+00 -0.69281753976E+03  0.69281753976E+03  0.00000000000E+00 0. -1.
         25    2    1    2    0    0  0.10690177114E+03 -0.11157377069E+02  0.31668525659E+03  0.35702357526E+03  0.12499522318E+03 0.  0.
          2    1    1    2  501    0 -0.12979884089E+03  0.44775212000E+01 -0.66624058958E+03  0.67878148950E+03  0.00000000000E+00 0. -1.
          1    1    1    2  502    0  0.22897069755E+02  0.66798558693E+01  0.10354179254E+04  0.10356926071E+04  0.00000000000E+00 0. -1.
         22    1    3    3    0    0  0.54787522055E+01  0.46891680342E+02  0.76025967244E+02  0.89491866147E+02  0.00000000000E+00 0.  1.
         22    1    3    3    0    0  0.10142301893E+03 -0.58049057412E+02  0.24065928934E+03  0.26753170911E+03  0.00000000000E+00 0.  1.
</event>
<event>
 7    1  0.6888820E-006  0.3357297E+02  0.7818608E-02  0.1626679E+00
          2   -1    0    0  502    0  0.00000000000E+00  0.00000000000E+00  0.98313085866E+01  0.98313085866E+01  0.00000000000E+00 0. -1.
          1   -1    0    0  501    0 -0.00000000000E+00 -0.00000000000E+00 -0.33751147718E+04  0.33751147718E+04  0.00000000000E+00 0. -1.
         25    2    1    2    0    0 -0.19536288065E+02 -0.20281553927E+02 -0.10375884715E+04  0.10454702346E+04  0.12500066951E+03 0.  0.
          2    1    1    2  501    0  0.14829359165E+01  0.33929928999E+02 -0.23112515500E+04  0.23115010635E+04  0.00000000000E+00 0. -1.
          1    1    1    2  502    0  0.18053352149E+02 -0.13648375072E+02 -0.16443441728E+02  0.27974782247E+02  0.00000000000E+00 0. -1.
         22    1    3    3    0    0  0.33804036181E+02  0.14356211671E+02 -0.11566717505E+03  0.12135777297E+03  0.00000000000E+00 0. -1.
         22    1    3    3    0    0 -0.53340324247E+02 -0.34637765598E+02 -0.92192129642E+03  0.92411246165E+03  0.00000000000E+00 0. -1.
</event>
<event>
 7    1  0.6888820E-006  0.1864032E+03  0.7818608E-02  0.1205229E+00
          2   -1    0    0  502    0  0.00000000000E+00  0.00000000000E+00  0.29729246657E+04  0.29729246657E+04  0.00000000000E+00 0. -1.
          1   -1    0    0  501    0 -0.00000000000E+00 -0.00000000000E+00 -0.43478656337E+03  0.43478656337E+03  0.00000000000E+00 0. -1.
         25    2    1    2    0    0  0.34565325758E+02  0.85137084207E+02  0.12623372526E+04  0.12718349733E+04  0.12500310003E+03 0.  0.
          2    1    1    2  501    0 -0.14310347084E+03 -0.12209622510E+03 -0.40742215648E+03  0.44875261018E+03  0.00000000000E+00 0. -1.
          1    1    1    2  502    0  0.10853814508E+03  0.36959140891E+02  0.16832230063E+04  0.16871236457E+04  0.00000000000E+00 0. -1.
         22    1    3    3    0    0  0.16763548927E+02 -0.71777311594E+01  0.25068727466E+02  0.30999636998E+02  0.00000000000E+00 0. -1.
         22    1    3    3    0    0  0.17801776832E+02  0.92314815367E+02  0.12372685251E+04  0.12408353363E+04  0.00000000000E+00 0. -1.
</event>
<event>
 7    1  0.6888820E-006  0.6896309E+02  0.7818608E-02  0.1458151E+00
          2   -1    0    0  502    0  0.00000000000E+00  0.00000000000E+00  0.47033778204E+03  0.47033778204E+03  0.00000000000E+00 0. -1.
          1   -1    0    0  501    0 -0.00000000000E+00 -0.00000000000E+00 -0.35065469513E+03  0.35065469513E+03  0.00000000000E+00 0. -1.
         25    2    1    2    0    0 -0.37975769335E+02 -0.12686434285E+02  0.37639430056E+00  0.13125646894E+03  0.12500005717E+03 0.  0.
          2    1    1    2  501    0  0.60929480250E+02  0.36387751717E+02 -0.28010924548E+03  0.28895961559E+03  0.00000000000E+00 0. -1.
          1    1    1    2  502    0 -0.22953710915E+02 -0.23701317432E+02  0.39941593810E+03  0.40077639264E+03  0.00000000000E+00 0. -1.
         22    1    3    3    0    0  0.18305108420E+01  0.46365324606E+02 -0.28449103064E+02  0.54428352546E+02  0.00000000000E+00 0. -1.
         22    1    3    3    0    0 -0.39806280177E+02 -0.59051758891E+02  0.28825497364E+02  0.76828116389E+02  0.00000000000E+00 0. -1.
</event>
<event>
 7    1  0.6888820E-006  0.9524241E+02  0.7818608E-02  0.1366158E+00
          2   -1    0    0  502    0  0.00000000000E+00  0.00000000000E+00  0.47477977077E+03  0.47477977077E+03  0.00000000000E+00 0. -1.
          1   -1    0    0  501    0 -0.00000000000E+00 -0.00000000000E+00 -0.16338288123E+03  0.16338288123E+03  0.00000000000E+00 0. -1.
         25    2    1    2    0    0  0.53203297029E+02  0.87276005272E+01  0.11541615751E+03  0.17847270190E+03  0.12499941634E+03 0.  0.
          2    1    1    2  501    0 -0.10083680397E+03  0.23425500602E+01 -0.11033777728E+03  0.14949238666E+03  0.00000000000E+00 0. -1.
          1    1    1    2  502    0  0.47633506941E+02 -0.11070150587E+02  0.30631850931E+03  0.31019756344E+03  0.00000000000E+00 0. -1.
         22    1    3    3    0    0  0.50020561311E+02 -0.21635721718E+02  0.13265388985E+03  0.14341274525E+03  0.00000000000E+00 0. -1.
         22    1    3    3    0    0  0.31827357172E+01  0.30363322246E+02 -0.17237732340E+02  0.35059956655E+02  0.00000000000E+00 0. -1.
</event>
<event>
 7    1  0.6888820E-006  0.8692698E+02  0.7818608E-02  0.1338817E+00
          2   -1    0    0  502    0  0.00000000000E+00  0.00000000000E+00  0.18516756597E+04  0.18516756597E+04  0.00000000000E+00 0. -1.
          1   -1    0    0  501    0 -0.00000000000E+00 -0.00000000000E+00 -0.22734833868E+03  0.22734833868E+03  0.00000000000E+00 0. -1.
         25    2    1    2    0    0 -0.76294492017E+01  0.32086794423E+02  0.52283948214E+03  0.53858409597E+03  0.12499573384E+03 0.  0.
          2    1    1    2  501    0  0.73089102799E+02 -0.48960338364E+02 -0.20975478544E+03  0.22745593352E+03  0.00000000000E+00 0. -1.
          1    1    1    2  502    0 -0.65459653597E+02  0.16873543941E+02  0.13112426243E+04  0.13129839689E+04  0.00000000000E+00 0. -1.
         22    1    3    3    0    0 -0.31727469144E+02  0.29023395722E+02  0.53600881104E+02  0.68717132163E+02  0.00000000000E+00 0.  1.
         22    1    3    3    0    0  0.24098019942E+02  0.30633987010E+01  0.46923860103E+03  0.46986696381E+03  0.00000000000E+00 0.  1.
</event>
<event>
 7    1  0.6888820E-006  0.1439608E+03  0.7818608E-02  0.1219517E+00
          2   -1    0    0  502    0  0.00000000000E+00  0.00000000000E+00  0.34064102925E+03  0.34064102925E+03  0.00000000000E+00 0. -1.
          1   -1    0    0  501    0 -0.00000000000E+00 -0.00000000000E+00 -0.22925922078E+03  0.22925922078E+03  0.00000000000E+00 0. -1.
         25    2    1    2    0    0  0.39353806420E+02 -0.10951851473E+03  0.20427114843E+03  0.26625825688E+03  0.12499492042E+03 0.  0.
          2    1    1    2  501    0  0.85929243013E+02  0.13337425148E+03 -0.72692675906E+02  0.17451862621E+03  0.00000000000E+00 0. -1.
          1    1    1    2  502    0 -0.12528304943E+03 -0.23855736754E+02 -0.20196664055E+02  0.12912336694E+03  0.00000000000E+00 0. -1.
         22    1    3    3    0    0  0.68963553104E+02 -0.14126774005E+02  0.74470563185E+02  0.10247634938E+03  0.00000000000E+00 0. -1.
         22    1    3    3    0    0 -0.29609746684E+02 -0.95391740724E+02  0.12980058524E+03  0.16378190750E+03  0.00000000000E+00 0. -1.
</event>
<event>
 7    1  0.6888820E-006  0.1503469E+03  0.7818608E-02  0.1290740E+00
          2   -1    0    0  502    0  0.00000000000E+00  0.00000000000E+00  0.72568086283E+02  0.72568086283E+02  0.00000000000E+00 0. -1.
          1   -1    0    0  501    0 -0.00000000000E+00 -0.00000000000E+00 -0.10598316084E+04  0.10598316084E+04  0.00000000000E+00 0. -1.
         25    2    1    2    0    0  0.75358064105E+02 -0.18142388234E+03 -0.46990995995E+03  0.52443614634E+03  0.12499775286E+03 0.  0.
          2    1    1    2  501    0 -0.38732615524E+02  0.46180801677E+02 -0.44724419784E+03  0.45128733026E+03  0.00000000000E+00 0. -1.
          1    1    1    2  502    0 -0.36625448580E+02  0.13524308067E+03 -0.70109364359E+02  0.15667621812E+03  0.00000000000E+00 0. -1.
         22    1    3    3    0    0 -0.60698638199E+01  0.16338189703E+02 -0.21846440575E+02  0.27947211943E+02  0.00000000000E+00 0.  1.
         22    1    3    3    0    0  0.81427927925E+02 -0.19776207205E+03 -0.44806351937E+03  0.49648893440E+03  0.00000000000E+00 0.  1.
</event>
<event>
 7    1  0.6888820E-006  0.8093146E+02  0.7818608E-02  0.1416242E+00
          2   -1    0    0  502    0  0.00000000000E+00  0.00000000000E+00  0.11337013619E+04  0.11337013619E+04  0.00000000000E+00 0. -1.
          1   -1    0    0  501    0 -0.00000000000E+00 -0.00000000000E+00 -0.87870875582E+03  0.87870875582E+03  0.00000000000E+00 0. -1.
         25    2    1    2    0    0  0.11080869165E+03  0.40238935970E+02 -0.16025942025E+03  0.23496260620E+03  0.12500642552E+03 0.  0.
          2    1    1    2  501    0 -0.38150566049E+02 -0.52166244803E+01 -0.67906808576E+03  0.68015891081E+03  0.00000000000E+00 0. -1.
          1    1    1    2  502    0 -0.72658125596E+02 -0.35022311490E+02  0.10943201121E+04  0.10972886007E+04  0.00000000000E+00 0. -1.
         22    1    3    3    0    0  0.29113086706E+02 -0.33151223970E+02 -0.44549634626E+01  0.44344358916E+02  0.00000000000E+00 0. -1.
         22    1    3    3    0    0  0.81695604940E+02  0.73390159940E+02 -0.15580445679E+03  0.19061824729E+03  0.00000000000E+00 0. -1.
</event>
<event>
 7    1  0.6888820E-006  0.1689758E+03  0.7818608E-02  0.1370768E+00
          2   -1    0    0  502    0  0.00000000000E+00  0.00000000000E+00  0.43031625448E+03  0.43031625448E+03  0.00000000000E+00 0. -1.
          1   -1    0    0  501    0 -0.00000000000E+00 -0.00000000000E+00 -0.68487253556E+03  0.68487253556E+03  0.00000000000E+00 0. -1.
         25    2    1    2    0    0 -0.17730722893E+03 -0.43494508066E+02 -0.13535554148E+03  0.25937659391E+03  0.12500187678E+03 0.  0.
          2    1    1    2  501    0  0.20666069710E+02 -0.16635279114E+02 -0.46800213404E+03  0.46875347083E+03  0.00000000000E+00 0. -1.
          1    1    1    2  502    0  0.15664115922E+03  0.60129787181E+02  0.34880139444E+03  0.38705872530E+03  0.00000000000E+00 0. -1.
         22    1    3    3    0    0 -0.70858920577E+02  0.43684706707E+02 -0.43309278130E+02  0.93835141592E+02  0.00000000000E+00 0. -1.
         22    1    3    3    0    0 -0.10644830835E+03 -0.87179214773E+02 -0.92046263347E+02  0.16554145232E+03  0.00000000000E+00 0. -1.
</event>
<event>
 7    1  0.6888820E-006  0.3796632E+02  0.7818608E-02  0.1594139E+00
          2   -1    0    0  502    0  0.00000000000E+00  0.00000000000E+00  0.83956566150E+02  0.83956566150E+02  0.00000000000E+00 0. -1.
          1   -1    0    0  501    0 -0.00000000000E+00 -0.00000000000E+00 -0.26803148182E+03  0.26803148182E+03  0.00000000000E+00 0. -1.
         25    2    1    2    0    0 -0.24964338077E+02  0.70415461603E+00 -0.31888150807E+02  0.13139831464E+03  0.12499979567E+03 0.  0.
          2    1    1    2  501    0  0.30015026160E+02 -0.24451087146E+02 -0.17974253215E+03  0.18386444823E+03  0.00000000000E+00 0. -1.
          1    1    1    2  502    0 -0.50506880824E+01  0.23746932529E+02  0.27555767292E+02  0.36725285101E+02  0.00000000000E+00 0. -1.
         22    1    3    3    0    0 -0.49110872093E+02  0.24699314559E+02  0.28616668680E+02  0.61974572397E+02  0.00000000000E+00 0.  1.
         22    1    3    3    0    0  0.24146534015E+02 -0.23995159943E+02 -0.60504819487E+02  0.69423742241E+02  0.00000000000E+00 0.  1.
</event>
<event>
 7    1  0.6888820E-006  0.4895683E+02  0.7818608E-02  0.1477095E+00
          2   -1    0    0  502    0  0.00000000000E+00  0.00000000000E+00  0.53136030830E+03  0.53136030830E+03  0.00000000000E+00 0. -1.
          1   -1    0    0  501    0 -0.00000000000E+00 -0.00000000000E+00 -0.14874038981E+04  0.14874038981E+04  0.00000000000E+00 0. -1.
         25    2    1    2    0    0 -0.42916259621E+02  0.54937545490E+02  0.25958979317E+03  0.29643226751E+03  0.12500115704E+03 0.  0.
          2    1    1    2  501    0  0.28119853692E+01 -0.48863682932E+02 -0.14669484036E+04  0.14677646901E+04  0.00000000000E+00 0. -1.
          1    1    1    2  502    0  0.40104274252E+02 -0.60738625580E+01  0.25131502055E+03  0.25456724883E+03  0.00000000000E+00 0. -1.
         22    1    3    3    0    0 -0.86720792330E+02  0.46880000149E+02  0.18006768579E+03  0.20528663303E+03  0.00000000000E+00 0.  1.
         22    1    3    3    0    0  0.43804532709E+02  0.80575453407E+01  0.79522107382E+02  0.91145634483E+02  0.00000000000E+00 0.  1.
</event>
<event>
 7    1  0.6888820E-006  0.1142583E+03  0.7818608E-02  0.1350870E+00
          2   -1    0    0  502    0  0.00000000000E+00  0.00000000000E+00  0.90178996363E+03  0.90178996363E+03  0.00000000000E+00 0. -1.
          1   -1    0    0  501    0 -0.00000000000E+00 -0.00000000000E+00 -0.20318203930E+03  0.20318203930E+03  0.00000000000E+00 0. -1.
         25    2    1    2    0    0 -0.79577114718E+02 -0.49009403758E+02  0.27375703448E+03  0.31512315359E+03  0.12500099664E+03 0.  0.
          2    1    1    2  501    0  0.11450411393E+03  0.18514968637E+02 -0.16306335541E+03  0.20010910536E+03  0.00000000000E+00 0. -1.
          1    1    1    2  502    0 -0.34926999212E+02  0.30494435120E+02  0.58791424526E+03  0.58973974398E+03  0.00000000000E+00 0. -1.
         22    1    3    3    0    0 -0.68567038593E+02 -0.32140471877E+02  0.28300244949E+03  0.29295876012E+03  0.00000000000E+00 0.  1.
         22    1    3    3    0    0 -0.11010076126E+02 -0.16868931881E+02 -0.92454150168E+01  0.22164393471E+02  0.00000000000E+00 0.  1.
</event>
<event>
 7    1  0.6888820E-006  0.1572059E+03  0.7818608E-02  0.1206255E+00
          2   -1    0    0  502    0  0.00000000000E+00  0.00000000000E+00  0.30095460090E+04  0.30095460090E+04  0.00000000000E+00 0. -1.
          1   -1    0    0  501    0 -0.00000000000E+00 -0.00000000000E+00 -0.12144927728E+04  0.12144927728E+04  0.00000000000E+00 0. -1.
         25    2    1    2    0    0  0.19254951906E+03 -0.80388345425E+02  0.36531107489E+03  0.43887876544E+03  0.12499914378E+03 0.  0.
          2    1    1    2  501    0 -0.42937562488E+02  0.12742196590E+03 -0.11715015419E+04  0.11791928825E+04  0.00000000000E+00 0. -1.
          1    1    1    2  502    0 -0.14961195657E+03 -0.47033620477E+02  0.26012437032E+04  0.26059671338E+04  0.00000000000E+00 0. -1.
         22    1    3    3    0    0  0.12327432846E+03 -0.38864595598E+02  0.10562953804E+03  0.16692697852E+03  0.00000000000E+00 0. -1.
         22    1    3    3    0    0  0.69275190597E+02 -0.41523749827E+02  0.25968153685E+03  0.27195178693E+03  0.00000000000E+00 0. -1.
</event>
<event>
 7    1  0.6888820E-006  0.8875675E+02  0.7818608E-02  0.1492376E+00
          2   -1    0    0  502    0  0.00000000000E+00  0.00000000000E+00  0.17113839144E+04  0.17113839144E+04  0.00000000000E+00 0. -1.
          1   -1    0    0  501    0 -0.00000000000E+00 -0.00000000000E+00 -0.44798805059E+03  0.44798805059E+03  0.00000000000E+00 0. -1.
         25    2    1    2    0    0 -0.69582847412E+02  0.70943543543E+01  0.22000831516E+03  0.26252640538E+03  0.12499740903E+03 0.  0.
          2    1    1    2  501    0  0.89094481318E+02 -0.22746031444E+01 -0.42200592306E+03  0.43131427002E+03  0.00000000000E+00 0. -1.
          1    1    1    2  502    0 -0.19511633906E+02 -0.48197512100E+01  0.14653934717E+04  0.14655312896E+04  0.00000000000E+00 0. -1.
         22    1    3    3    0    0  0.19878071344E+02 -0.30010345051E+02  0.11108707795E+03  0.11677370174E+03  0.00000000000E+00 0.  1.
         22    1    3    3    0    0 -0.89460918756E+02  0.37104699405E+02  0.10892123721E+03  0.14575270364E+03  0.00000000000E+00 0.  1.
</event>
<event>
 7    1  0.6888820E-006  0.1502486E+03  0.7818608E-02  0.1285976E+00
          2   -1    0    0  502    0  0.00000000000E+00  0.00000000000E+00  0.89020440074E+03  0.89020440074E+03  0.00000000000E+00 0. -1.
          1   -1    0    0  501    0 -0.00000000000E+00 -0.00000000000E+00 -0.10156396383E+03  0.10156396383E+03  0.00000000000E+00 0. -1.
         25    2    1    2    0    0  0.94295645822E+02 -0.21432457244E+02  0.42965598927E+03  0.45780842597E+03  0.12503306256E+03 0.  0.
          2    1    1    2  501    0 -0.15286407814E+03  0.44837211265E+02 -0.10005815551E+02  0.15961803859E+03  0.00000000000E+00 0. -1.
          1    1    1    2  502    0  0.58568432315E+02 -0.23404754021E+02  0.36899026320E+03  0.37434190002E+03  0.00000000000E+00 0. -1.
         22    1    3    3    0    0 -0.20404246558E+02  0.94965040291E+01  0.16483593955E+02  0.27896697583E+02  0.00000000000E+00 0.  1.
         22    1    3    3    0    0  0.11469989238E+03 -0.30928961273E+02  0.41317239531E+03  0.42991172839E+03  0.00000000000E+00 0.  1.
</event>
<event>
 7    1  0.6888820E-006  0.1646690E+03  0.7818608E-02  0.1282865E+00
          2   -1    0    0  502    0  0.00000000000E+00  0.00000000000E+00  0.97239209630E+03  0.97239209630E+03  0.00000000000E+00 0. -1.
          1   -1    0    0  501    0 -0.00000000000E+00 -0.00000000000E+00 -0.64746507038E+03  0.64746507038E+03  0.00000000000E+00 0. -1.
         25    2    1    2    0    0  0.90546790544E+02  0.12662812467E+03 -0.94630493317E+02  0.22093619147E+03  0.12499786880E+03 0.  0.
          2    1    1    2  501    0  0.47581394785E+02 -0.35332313787E+02 -0.48030761357E+03  0.48395016807E+03  0.00000000000E+00 0. -1.
          1    1    1    2  502    0 -0.13812818533E+03 -0.91295810879E+02  0.89986513281E+03  0.91497080714E+03  0.00000000000E+00 0. -1.
         22    1    3    3    0    0  0.97219345154E+02  0.65303209135E+02 -0.10628999622E+03  0.15815711648E+03  0.00000000000E+00 0. -1.
         22    1    3    3    0    0 -0.66725546103E+01  0.61324915531E+02  0.11659502902E+02  0.62779075000E+02  0.00000000000E+00 0. -1.
</event>
<event>
 7    1  0.6888820E-006  0.9792252E+02  0.7818608E-02  0.1318493E+00
          2   -1    0    0  502    0  0.00000000000E+00  0.00000000000E+00  0.11931662250E+04  0.11931662250E+04  0.00000000000E+00 0. -1.
          1   -1    0    0  501    0 -0.00000000000E+00 -0.00000000000E+00 -0.77167757652E+02  0.77167757652E+02  0.00000000000E+00 0. -1.
         25    2    1    2    0    0  0.11925056761E+03 -0.57724043746E+02  0.64322156613E+03  0.66851450062E+03  0.12499956522E+03 0.  0.
          2    1    1    2  501    0 -0.96450725964E+02 -0.10342686035E+02 -0.23962988946E+02  0.99919660391E+02  0.00000000000E+00 0. -1.
          1    1    1    2  502    0 -0.22799841641E+02  0.68066729781E+02  0.49673989017E+03  0.50189982164E+03  0.00000000000E+00 0. -1.
         22    1    3    3    0    0  0.14480177433E+02  0.37602838643E+02  0.15603608364E+03  0.16115492053E+03  0.00000000000E+00 0.  1.
         22    1    3    3    0    0  0.10477039017E+03 -0.95326882389E+02  0.48718548249E+03  0.50735958010E+03  0.00000000000E+00 0.  1.
</event>
<event>
 7    1  0.6888820E-006  0.8312594E+02  0.7818608E-02  0.1382030E+00
          2   -1    0    0  502    0  0.00000000000E+00  0.00000000000E+00  0.85460329713E+03  0.85460329713E+03  0.00000000000E+00 0. -1.
          1   -1    0    0  501    0 -0.00000000000E+00 -0.00000000000E+00 -0.22886347755E+04  0.22886347755E+04  0.00000000000E+00 0. -1.
         25    2    1    2    0    0  0.57979444344E+02 -0.26768854772E+02 -0.16223522825E+02  0.14130246968E+03  0.12499999077E+03 0.  0.
          2    1    1    2  501    0 -0.40838389043E+02  0.72856247792E+02 -0.22083184277E+04  0.22098973019E+04  0.00000000000E+00 0. -1.
          1    1    1    2  502    0 -0.17141055302E+02 -0.46087393020E+02  0.79051047220E+03  0.79203830099E+03  0.00000000000E+00 0. -1.
         22    1    3    3    0    0 -0.69934804865E+00 -0.53487499335E+02 -0.45749794561E+02  0.70387821213E+02  0.00000000000E+00 0.  1.
         22    1    3    3    0    0  0.58678792393E+02  0.26718644562E+02  0.29526271736E+02  0.70914648463E+02  0.00000000000E+00 0.  1.
</event>
<event>
 7    1  0.6888820E-006  0.1306016E+03  0.7818608E-02  0.1435706E+00
          2   -1    0    0  502    0  0.00000000000E+00  0.00000000000E+00  0.54758470652E+03  0.54758470652E+03  0.00000000000E+00 0. -1.
          1   -1    0    0  501    0 -0.00000000000E+00 -0.00000000000E+00 -0.36042128149E+03  0.36042128149E+03  0.00000000000E+00 0. -1.
         25    2    1    2    0    0  0.49474525683E+02  0.10515151676E+03 -0.31156258406E+03  0.35524820835E+03  0.12500190230E+03 0.  0.
          2    1    1    2  501    0 -0.78214250655E+01  0.19025172886E+02 -0.13134322891E+02  0.24405784789E+02  0.00000000000E+00 0. -1.
          1    1    1    2  502    0 -0.41653100618E+02 -0.12417668965E+03  0.51186033198E+03  0.52835199488E+03  0.00000000000E+00 0. -1.
         22    1    3    3    0    0  0.11446688779E+02  0.10639929850E+03 -0.29489091875E+03  0.31370765270E+03  0.00000000000E+00 0.  1.
         22    1    3    3    0    0  0.38027836904E+02 -0.12477817414E+01 -0.16671665314E+02  0.41540555644E+02  0.00000000000E+00 0.  1.
</event>
<event>
 7    1  0.6888820E-006  0.5453112E+02  0.7818608E-02  0.1499448E+00
          2   -1    0    0  502    0  0.00000000000E+00  0.00000000000E+00  0.18219337586E+04  0.18219337586E+04  0.00000000000E+00 0. -1.
          1   -1    0    0  501    0 -0.00000000000E+00 -0.00000000000E+00 -0.12380549579E+04  0.12380549579E+04  0.00000000000E+00 0. -1.
         25    2    1    2    0    0 -0.48413527734E+00  0.51770961374E+02  0.37399255375E+03  0.39771166354E+03  0.12499468082E+03 0.  0.
          2    1    1    2  501    0 -0.30037585143E+02 -0.45534281351E+02 -0.12254196248E+04  0.12266331497E+04  0.00000000000E+00 0. -1.
          1    1    1    2  502    0  0.30521720420E+02 -0.62366800233E+01  0.14353058717E+04  0.14356439032E+04  0.00000000000E+00 0. -1.
         22    1    3    3    0    0 -0.13909889178E+02  0.59414165208E+02  0.37705617734E+03  0.38196189459E+03  0.00000000000E+00 0. -1.
         22    1    3    3    0    0  0.13425753901E+02 -0.76432038335E+01 -0.30636235972E+01  0.15749768957E+02  0.00000000000E+00 0. -1.
</event>
<event>
 7    1  0.6888820E-006  0.8154662E+02  0.7818608E-02  0.1414465E+00
          2   -1    0    0  502    0  0.00000000000E+00  0.00000000000E+00  0.32637705401E+03  0.32637705401E+03  0.00000000000E+00 0. -1.
          1   -1    0    0  501    0 -0.00000000000E+00 -0.00000000000E+00 -0.12457096321E+04  0.12457096321E+04  0.00000000000E+00 0. -1.
         25    2    1    2    0    0 -0.50166428982E+02 -0.82882578576E+02 -0.35020462818E+02  0.16198175762E+03  0.12500185821E+03 0.  0.
          2    1    1    2  501    0  0.38651946339E+02  0.26754227992E+01 -0.11406280945E+04  0.11412859330E+04  0.00000000000E+00 0. -1.
          1    1    1    2  502    0  0.11514482643E+02  0.80207155777E+02  0.25631597922E+03  0.26881899552E+03  0.00000000000E+00 0. -1.
         22    1    3    3    0    0 -0.64542619171E+02 -0.10975488950E+03 -0.23960278017E+02  0.12956072083E+03  0.00000000000E+00 0. -1.
         22    1    3    3    0    0  0.14376190189E+02  0.26872310923E+02 -0.11060184801E+02  0.32421036790E+02  0.00000000000E+00 0. -1.
</event>
<event>
 7    1  0.6888820E-006  0.9043136E+02  0.7818608E-02  0.1421107E+00
          2   -1    0    0  502    0  0.00000000000E+00  0.00000000000E+00  0.62365815131E+03  0.62365815131E+03  0.00000000000E+00 0. -1.
          1   -1    0    0  501    0 -0.00000000000E+00 -0.00000000000E+00 -0.21278391840E+03  0.21278391840E+03  0.00000000000E+00 0. -1.
         25    2    1    2    0    0  0.22234662995E+02  0.54848585221E+02  0.15818087439E+03  0.21011499163E+03  0.12499749255E+03 0.  0.
          2    1    1    2  501    0 -0.34995633956E+02 -0.85490296401E+02 -0.17471460001E+03  0.19763217509E+03  0.00000000000E+00 0. -1.
          1    1    1    2  502    0  0.12760970961E+02  0.30641711180E+02  0.42740795853E+03  0.42869490300E+03  0.00000000000E+00 0. -1.
         22    1    3    3    0    0  0.27959677995E+02  0.76648779013E+01  0.15994626457E+03  0.16255245768E+03  0.00000000000E+00 0.  1.
         22    1    3    3    0    0 -0.57250149998E+01  0.47183707319E+02 -0.17653901784E+01  0.47562533949E+02  0.00000000000E+00 0.  1.
</event>
<event>
 7    1  0.6888820E-006  0.1396169E+03  0.7818608E-02  0.1331400E+00
          2   -1    0    0  502    0  0.00000000000E+00  0.00000000000E+00  0.81351259544E+03  0.81351259544E+03  0.00000000000E+00 0. -1.
          1   -1    0    0  501    0 -0.00000000000E+00 -0.00000000000E+00 -0.25824587038E+03  0.25824587038E+03  0.00000000000E+00 0. -1.
         25    2    1    2    0    0  0.15976643621E+03  0.62583324502E+02  0.23658779354E+03  0.31786996841E+03  0.12500218446E+03 0.  0.
          2    1    1    2  501    0 -0.29494666923E+02 -0.33857311781E+02 -0.20686275311E+03  0.21168006888E+03  0.00000000000E+00 0. -1.
          1    1    1    2  502    0 -0.13027176929E+03 -0.28726012720E+02  0.52554168463E+03  0.54220842853E+03  0.00000000000E+00 0. -1.
         22    1    3    3    0    0  0.15543540480E+03  0.92226182462E+02  0.21537611096E+03  0.28116312519E+03  0.00000000000E+00 0. -1.
         22    1    3    3    0    0  0.43310314117E+01 -0.29642857960E+02  0.21211682580E+02  0.36706843217E+02  0.00000000000E+00 0. -1.
</event>
<event>
 7    1  0.6888820E-006  0.8269521E+02  0.7818608E-02  0.1348661E+00
          2   -1    0    0  502    0  0.00000000000E+00  0.00000000000E+00  0.42088472981E+03  0.42088472981E+03  0.00000000000E+00 0. -1.
          1   -1    0    0  501    0 -0.00000000000E+00 -0.00000000000E+00 -0.47024534792E+03  0.47024534792E+03  0.00000000000E+00 0. -1.
         25    2    1    2    0    0  0.27111823142E+02  0.10086181598E+03 -0.39666536462E+02  0.16765173794E+03  0.12500205695E+03 0.  0.
          2    1    1    2  501    0  0.33134011038E+02 -0.75718823879E+02 -0.35886366227E+03  0.36825851121E+03  0.00000000000E+00 0. -1.
          1    1    1    2  502    0 -0.60245834180E+02 -0.25142992101E+02  0.34916958062E+03  0.35521982859E+03  0.00000000000E+00 0. -1.
         22    1    3    3    0    0  0.11727766623E+02  0.39852399768E+02 -0.81927055269E+02  0.91857480165E+02  0.00000000000E+00 0. -1.
         22    1    3    3    0    0  0.15384056519E+02  0.61009416212E+02  0.42260518807E+02  0.75794257773E+02  0.00000000000E+00 0. -1.
</event>
<event>
 7    1  0.6888820E-006  0.1297917E+03  0.7818608E-02  0.1375467E+00
          2   -1    0    0  502    0  0.00000000000E+00  0.00000000000E+00  0.54847297096E+03  0.54847297096E+03  0.00000000000E+00 0. -1.
          1   -1    0    0  501    0 -0.00000000000E+00 -0.00000000000E+00 -0.87286350804E+03  0.87286350804E+03  0.00000000000E+00 0. -1.
         25    2    1    2    0    0 -0.15361356038E+03  0.12905984376E+02 -0.28775590292E+03  0.34956027230E+03  0.12500093574E+03 0.  0.
          2    1    1    2  501    0  0.28084038494E+02  0.17757395050E+02 -0.54562663029E+03  0.54663740997E+03  0.00000000000E+00 0. -1.
          1    1    1    2  502    0  0.12552952189E+03 -0.30663379426E+02  0.50899199613E+03  0.52513879673E+03  0.00000000000E+00 0. -1.
         22    1    3    3    0    0 -0.71233621436E+02  0.42820647625E+02 -0.23010639448E+03  0.24465647236E+03  0.00000000000E+00 0. -1.
         22    1    3    3    0    0 -0.82379938949E+02 -0.29914663249E+02 -0.57649508439E+02  0.10490379994E+03  0.00000000000E+00 0. -1.
</event>
<event>
 7    1  0.6888820E-006  0.5637243E+02  0.7818608E-02  0.1476991E+00
          2   -1    0    0  502    0  0.00000000000E+00  0.00000000000E+00  0.16019366070E+04  0.16019366070E+04  0.00000000000E+00 0. -1.
          1   -1    0    0  501    0 -0.00000000000E+00 -0.00000000000E+00 -0.28341586486E+03  0.28341586486E+03  0.00000000000E+00 0. -1.
         25    2    1    2    0    0  0.60215129017E+02  0.19501333908E+02  0.15241591121E+04  0.15305859297E+04  0.12500450191E+03 0.  0.
          2    1    1    2  501    0 -0.35035021811E+02 -0.44172103276E+02 -0.27298796520E+03  0.27874909256E+03  0.00000000000E+00 0. -1.
          1    1    1    2  502    0 -0.25180107206E+02  0.24670769368E+02  0.67349595287E+02  0.76017449611E+02  0.00000000000E+00 0. -1.
         22    1    3    3    0    0 -0.39590728010E+01  0.59491498814E+02  0.87699253184E+03  0.87901695865E+03  0.00000000000E+00 0.  1.
         22    1    3    3    0    0  0.64174201818E+02 -0.39990164906E+02  0.64716658023E+03  0.65156897105E+03  0.00000000000E+00 0.  1.
</event>
<event>
 7    1  0.6888820E-006  0.9047595E+02  0.7818608E-02  0.1428489E+00
          2   -1    0    0  502    0  0.00000000000E+00  0.00000000000E+00  0.63272774288E+03  0.63272774288E+03  0.00000000000E+00 0. -1.
          1   -1    0    0  501    0 -0.00000000000E+00 -0.00000000000E+00 -0.26328740952E+03  0.26328740952E+03  0.00000000000E+00 0. -1.
         25    2    1    2    0    0 -0.41237046747E+02 -0.56940614446E+02 -0.15962908457E+03  0.21459115991E+03  0.12500077469E+03 0.  0.
          2    1    1    2  501    0  0.11786834355E+02 -0.29058145601E+02 -0.69365722973E+02  0.76124298443E+02  0.00000000000E+00 0. -1.
          1    1    1    2  502    0  0.29450212392E+02  0.85998760047E+02  0.59843514091E+03  0.60529969404E+03  0.00000000000E+00 0. -1.
         22    1    3    3    0    0  0.25222061783E+02 -0.70947484106E+02 -0.78276470337E+02  0.10861355215E+03  0.00000000000E+00 0.  1.
         22    1    3    3    0    0 -0.66459108530E+02  0.14006869660E+02 -0.81352614234E+02  0.10597760776E+03  0.00000000000E+00 0.  1.
</event>
<event>
 7    1  0.6888820E-006  0.7564682E+02  0.7818608E-02  0.1423664E+00
          2   -1    0    0  502    0  0.00000000000E+00  0.00000000000E+00  0.37568947901E+03  0.37568947901E+03  0.00000000000E+00 0. -1.
          1   -1    0    0  501    0 -0.00000000000E+00 -0.00000000000E+00 -0.20889268896E+03  0.20889268896E+03  0.00000000000E+00 0. -1.
         25    2    1    2    0    0 -0.13137344340E+02  0.52426138307E+02  0.48879085983E+02  0.14468883420E+03  0.12499841559E+03 0.  0.
          2    1    1    2  501    0 -0.17546647034E+02 -0.76352286622E+02 -0.14996726595E+03  0.16919733258E+03  0.00000000000E+00 0. -1.
          1    1    1    2  502    0  0.30683991374E+02  0.23926148315E+02  0.26788497002E+03  0.27069600119E+03  0.00000000000E+00 0. -1.
         22    1    3    3    0    0  0.47031323885E+02  0.17281075708E+02 -0.12707866391E+02  0.51692077460E+02  0.00000000000E+00 0. -1.
         22    1    3    3    0    0 -0.60168668224E+02  0.35145062599E+02  0.61586952375E+02  0.92996756738E+02  0.00000000000E+00 0. -1.
</event>
<event>
 7    1  0.6888820E-006  0.1235788E+03  0.7818608E-02  0.1327106E+00
          2   -1    0    0  502    0  0.00000000000E+00  0.00000000000E+00  0.23340125200E+04  0.23340125200E+04  0.00000000000E+00 0. -1.
          1   -1    0    0  501    0 -0.00000000000E+00 -0.00000000000E+00 -0.26322592624E+02  0.26322592624E+02  0.00000000000E+00 0. -1.
         25    2    1    2    0    0  0.89538127861E+02 -0.26808454503E+01  0.11956313917E+04  0.12054809093E+04  0.12500213812E+03 0.  0.
          2    1    1    2  501    0 -0.12484028736E+03 -0.36428177325E+02  0.18409020822E+03  0.22539146881E+03  0.00000000000E+00 0. -1.
          1    1    1    2  502    0  0.35302159499E+02  0.39109022775E+02  0.92796832742E+03  0.92946273450E+03  0.00000000000E+00 0. -1.
         22    1    3    3    0    0 -0.14385471980E+02 -0.38231265652E+02  0.22741400592E+03  0.23105346041E+03  0.00000000000E+00 0. -1.
         22    1    3    3    0    0  0.10392359984E+03  0.35550420201E+02  0.96821738577E+03  0.97442744886E+03  0.00000000000E+00 0. -1.
</event>
<event>
 7    1  0.6888820E-006  0.4770389E+02  0.7818608E-02  0.1528979E+00
          2   -1    0    0  502    0  0.00000000000E+00  0.00000000000E+00  0.91765144020E+03  0.91765144020E+03  0.00000000000E+00 0. -1.
          1   -1    0    0  501    0 -0.00000000000E+00 -0.00000000000E+00 -0.10231742408E+04  0.10231742408E+04  0.00000000000E+00 0. -1.
         25    2    1    2    0    0  0.37262046530E+02 -0.57717361641E+02 -0.24264740856E+03  0.28146502809E+03  0.12500017283E+03 0.  0.
          2    1    1    2  501    0 -0.37424734392E+02  0.28534035335E+02 -0.76015307612E+03  0.76160849592E+03  0.00000000000E+00 0. -1.
          1    1    1    2  502    0  0.16268786208E+00  0.29183326306E+02  0.89727768410E+03  0.89775215699E+03  0.00000000000E+00 0. -1.
         22    1    3    3    0    0 -0.22266445573E+02  0.71781950703E+01 -0.15661491633E+03  0.15835262265E+03  0.00000000000E+00 0.  1.
         22    1    3    3    0    0  0.59528492102E+02 -0.64895556711E+02 -0.86032492227E+02  0.12311240543E+03  0.00000000000E+00 0.  1.
</event>
<event>
 7    1  0.6888820E-006  0.1082511E+03  0.7818608E-02  0.1273829E+00
          2   -1    0    0  502    0  0.00000000000E+00  0.00000000000E+00  0.60351955719E+03  0.60351955719E+03  0.00000000000E+00 0. -1.
          1   -1    0    0  501    0 -0.00000000000E+00 -0.00000000000E+00 -0.14705581636E+04  0.14705581636E+04  0.00000000000E+00 0. -1.
         25    2    1    2    0    0  0.22218109478E+02  0.16885412349E+03 -0.56536342840E+03  0.60354561289E+03  0.12500456495E+03 0.  0.
          2    1    1    2  501    0 -0.63338710044E+02 -0.79602100202E+02 -0.87901857192E+03  0.88488526732E+03  0.00000000000E+00 0. -1.
          1    1    1    2  502    0  0.41120600566E+02 -0.89252023283E+02  0.57734339388E+03  0.58564684061E+03  0.00000000000E+00 0. -1.
         22    1    3    3    0    0  0.46104171151E+02  0.15337124724E+03 -0.33370664870E+03  0.37014654053E+03  0.00000000000E+00 0. -1.
         22    1    3    3    0    0 -0.23886061673E+02  0.15482876249E+02 -0.23165677970E+03  0.23339907236E+03  0.00000000000E+00 0. -1.
</event>
<event>
 7    1  0.6888820E-006  0.8416674E+02  0.7818608E-02  0.1361156E+00
          2   -1    0    0  502    0  0.00000000000E+00  0.00000000000E+00  0.91300592113E+03  0.91300592113E+03  0.00000000000E+00 0. -1.
          1   -1    0    0  501    0 -0.00000000000E+00 -0.00000000000E+00 -0.78566593853E+03  0.78566593853E+03  0.00000000000E+00 0. -1.
         25    2    1    2    0    0  0.10919507222E+03  0.83635440144E+02  0.14511131196E+03  0.23579784644E+03  0.12499952353E+03 0.  0.
          2    1    1    2  501    0 -0.74707554765E+02 -0.37375405831E+02 -0.73680680706E+03  0.74152708017E+03  0.00000000000E+00 0. -1.
          1    1    1    2  502    0 -0.34487517453E+02 -0.46260034313E+02  0.71903547770E+03  0.72134693306E+03  0.00000000000E+00 0. -1.
         22    1    3    3    0    0  0.22489598657E+02  0.17952215371E+02 -0.22124805574E+02  0.36298362307E+02  0.00000000000E+00 0. -1.
         22    1    3    3    0    0  0.86705473560E+02  0.65683224773E+02  0.16723611753E+03  0.19949948413E+03  0.00000000000E+00 0. -1.
</event>
<event>
 7    1  0.6888820E-006  0.9187928E+02  0.7818608E-02  0.1309326E+00
          2   -1    0    0  502    0  0.00000000000E+00  0.00000000000E+00  0.13143178362E+04  0.13143178362E+04  0.00000000000E+00 0. -1.
          1   -1    0    0  501    0 -0.00000000000E+00 -0.00000000000E+00 -0.10442174280E+03  0.10442174280E+03  0.00000000000E+00 0. -1.
         25    2    1    2    0    0 -0.12539874314E+02 -0.30684545415E+01  0.11673756535E+03  0.17149511175E+03  0.12496499642E+03 0.  0.
          2    1    1    2  501    0  0.49865567060E+02  0.87024359731E+02 -0.41736831215E+02  0.10863598412E+03  0.00000000000E+00 0. -1.
          1    1    1    2  502    0 -0.37325692746E+02 -0.83955905190E+02  0.11348953593E+04  0.11386084831E+04  0.00000000000E+00 0. -1.
         22    1    3    3    0    0 -0.49855580281E+02 -0.22917483837E+02  0.87930802377E+01  0.55570749596E+02  0.00000000000E+00 0. -1.
         22    1    3    3    0    0  0.37315705967E+02  0.19849029295E+02  0.10794448511E+03  0.11592436216E+03  0.00000000000E+00 0. -1.
</event>
<event>
 7    1  0.6888820E-006  0.1673834E+03  0.7818608E-02  0.1286961E+00
          2   -1    0    0  502    0  0.00000000000E+00  0.00000000000E+00  0.43798960024E+03  0.43798960024E+03  0.00000000000E+00 0. -1.
          1   -1    0    0  501    0 -0.00000000000E+00 -0.00000000000E+00 -0.49064322515E+03  0.49064322515E+03  0.00000000000E+00 0. -1.
         25    2    1    2    0    0 -0.40109922736E+02  0.20339364084E+03 -0.18910173587E+03  0.30718461254E+03  0.12500056255E+03 0.  0.
          2    1    1    2  501    0  0.26956857657E+02 -0.14886523659E+03 -0.21647227080E+03  0.26409804025E+03  0.00000000000E+00 0. -1.
          1    1    1    2  502    0  0.13153065078E+02 -0.54528404255E+02  0.35292038176E+03  0.35735017259E+03  0.00000000000E+00 0. -1.
         22    1    3    3    0    0 -0.62157365015E+01  0.10359953711E+03 -0.17131599180E+03  0.20030144412E+03  0.00000000000E+00 0. -1.
         22    1    3    3    0    0 -0.33894186234E+02  0.99794103730E+02 -0.17785744069E+02  0.10688316842E+03  0.00000000000E+00 0. -1.
</event>
<event>
 7    1  0.6888820E-006  0.1163661E+03  0.7818608E-02  0.1263214E+00
          2   -1    0    0  502    0  0.00000000000E+00  0.00000000000E+00  0.55672999952E+03  0.55672999952E+03  0.00000000000E+00 0. -1.
          1   -1    0    0  501    0 -0.00000000000E+00 -0.00000000000E+00 -0.44713084649E+03  0.44713084649E+03  0.00000000000E+00 0. -1.
         25    2    1    2    0    0  0.13798715822E+03 -0.15663862109E+03  0.18868449720E+03  0.30790020620E+03  0.12499833614E+03 0.  0.
          2    1    1    2  501    0 -0.91893681686E+02  0.66406907597E+02 -0.37048662226E+03  0.38744633614E+03  0.00000000000E+00 0. -1.
          1    1    1    2  502    0 -0.46093476538E+02  0.90231713494E+02  0.29140127809E+03  0.30851430368E+03  0.00000000000E+00 0. -1.
         22    1    3    3    0    0  0.13547023799E+03 -0.11712919637E+03  0.87645496855E+02  0.19938196294E+03  0.00000000000E+00 0. -1.
         22    1    3    3    0    0  0.25169202307E+01 -0.39509424717E+02  0.10103900035E+03  0.10851824326E+03  0.00000000000E+00 0. -1.
</event>
<event>
 7    1  0.6888820E-006  0.2716816E+02  0.7818608E-02  0.1674473E+00
          2   -1    0    0  502    0  0.00000000000E+00  0.00000000000E+00  0.82225772164E+03  0.82225772164E+03  0.00000000000E+00 0. -1.
          1   -1    0    0  501    0 -0.00000000000E+00 -0.00000000000E+00 -0.46806373894E+03  0.46806373894E+03  0.00000000000E+00 0. -1.
         25    2    1    2    0    0 -0.32490766150E+02  0.27371103995E+02  0.23080533162E+03  0.26589755884E+03  0.12500233388E+03 0.  0.
          2    1    1    2  501    0  0.26245084419E+02 -0.69495920343E+01 -0.44990961374E+03  0.45072803532E+03  0.00000000000E+00 0. -1.
          1    1    1    2  502    0  0.62456817317E+01 -0.20421511961E+02  0.57329826482E+03  0.57369586641E+03  0.00000000000E+00 0. -1.
         22    1    3    3    0    0  0.34774110009E+02 -0.22829232237E+02  0.11922628279E+03  0.12627477610E+03  0.00000000000E+00 0.  1.
         22    1    3    3    0    0 -0.67264876160E+02  0.50200336232E+02  0.11157904883E+03  0.13962278274E+03  0.00000000000E+00 0.  1.
</event>
<event>
 7    1  0.6888820E-006  0.8351421E+02  0.7818608E-02  0.1367294E+00
          2   -1    0    0  502    0  0.00000000000E+00  0.00000000000E+00  0.13809676472E+04  0.13809676472E+04  0.00000000000E+00 0. -1.
          1   -1    0    0  501    0 -0.00000000000E+00 -0.00000000000E+00 -0.16128199017E+03  0.16128199017E+03  0.00000000000E+00 0. -1.
         25    2    1    2    0    0 -0.12398193715E+03  0.86940261632E+01  0.13328197528E+03  0.22098977091E+03  0.12500114832E+03 0.  0.
          2    1    1    2  501    0  0.48987817656E+02  0.25540560153E+02 -0.10943163683E+03  0.12258633542E+03  0.00000000000E+00 0. -1.
          1    1    1    2  502    0  0.74994119493E+02 -0.34234586316E+02  0.11958353186E+04  0.11986735311E+04  0.00000000000E+00 0. -1.
         22    1    3    3    0    0 -0.31330392914E+02  0.10801036152E+02 -0.22266812743E+02  0.39925766765E+02  0.00000000000E+00 0. -1.
         22    1    3    3    0    0 -0.92651544235E+02 -0.21070099884E+01  0.15554878802E+03  0.18106400414E+03  0.00000000000E+00 0. -1.
</event>
<event>
 7    1  0.6888820E-006  0.2994099E+03  0.7818608E-02  0.1306333E+00
          2   -1    0    0  502    0  0.00000000000E+00  0.00000000000E+00  0.48462398232E+03  0.48462398232E+03  0.00000000000E+00 0. -1.
          1   -1    0    0  501    0 -0.00000000000E+00 -0.00000000000E+00 -0.10647947167E+04  0.10647947167E+04  0.00000000000E+00 0. -1.
         25    2    1    2    0    0 -0.29723556004E+03 -0.90675480973E+02 -0.55182351173E+03  0.64552710985E+03  0.12500016183E+03 0.  0.
          2    1    1    2  501    0  0.27186626414E+03  0.97240308685E+02 -0.42092735488E+03  0.51043783294E+03  0.00000000000E+00 0. -1.
          1    1    1    2  502    0  0.25369295895E+02 -0.65648277115E+01  0.39258013219E+03  0.39345375627E+03  0.00000000000E+00 0. -1.
         22    1    3    3    0    0 -0.25759607393E+03 -0.36030775419E+02 -0.37608036183E+03  0.45726402946E+03  0.00000000000E+00 0.  1.
         22    1    3    3    0    0 -0.39639486108E+02 -0.54644705554E+02 -0.17574314989E+03  0.18826308039E+03  0.00000000000E+00 0.  1.
</event>
<event>
 7    1  0.6888820E-006  0.5668884E+02  0.7818608E-02  0.1431114E+00
          2   -1    0    0  502    0  0.00000000000E+00  0.00000000000E+00  0.94028536044E+02  0.94028536044E+02  0.00000000000E+00 0. -1.
          1   -1    0    0  501    0 -0.00000000000E+00 -0.00000000000E+00 -0.49695698118E+03  0.49695698118E+03  0.00000000000E+00 0. -1.
         25    2    1    2    0    0  0.12348798369E+02  0.16341666371E+02 -0.63779374258E+02  0.14181615607E+03  0.12499788263E+03 0.  0.
          2    1    1    2  501    0  0.14367835975E+02 -0.57489725525E+02 -0.38045103168E+03  0.38503829778E+03  0.00000000000E+00 0. -1.
          1    1    1    2  502    0 -0.26716634343E+02  0.41148059154E+02  0.41301960803E+02  0.64131063370E+02  0.00000000000E+00 0. -1.
         22    1    3    3    0    0 -0.37092630587E+02  0.42696996326E+02 -0.64498369206E+02  0.85784243130E+02  0.00000000000E+00 0.  1.
         22    1    3    3    0    0  0.49441428955E+02 -0.26355329955E+02  0.71899494780E+00  0.56031912942E+02  0.00000000000E+00 0.  1.
</event>
<event>
 7    1  0.6888820E-006  0.7413320E+02  0.7818608E-02  0.1389645E+00
          2   -1    0    0  502    0  0.00000000000E+00  0.00000000000E+00  0.33937173680E+02  0.33937173680E+02  0.00000000000E+00 0. -1.
          1   -1    0    0  501    0 -0.00000000000E+00 -0.00000000000E+00 -0.20397512844E+04  0.20397512844E+04  0.00000000000E+00 0. -1.
         25    2    1    2    0    0 -0.23402602554E+02  0.25478516137E+02 -0.32693385501E+03  0.35171991520E+03  0.12499726640E+03 0.  0.
          2    1    1    2  501    0 -0.14248197219E+02  0.49848178007E+02 -0.16160970757E+04  0.16169284492E+04  0.00000000000E+00 0. -1.
          1    1    1    2  502    0  0.37650799774E+02 -0.75326694143E+02 -0.62783180022E+02  0.10504009362E+03  0.00000000000E+00 0. -1.
         22    1    3    3    0    0  0.27733652652E+02  0.20682255033E+01 -0.27092166967E+03  0.27234533986E+03  0.00000000000E+00 0. -1.
         22    1    3    3    0    0 -0.51136255206E+02  0.23410290633E+02 -0.56012185337E+02  0.79374575339E+02  0.00000000000E+00 0. -1.
</event>
<event>
 7    1  0.6888820E-006  0.9312586E+02  0.7818608E-02  0.1336003E+00
          2   -1    0    0  502    0  0.00000000000E+00  0.00000000000E+00  0.34844987805E+04  0.34844987805E+04  0.00000000000E+00 0. -1.
          1   -1    0    0  501    0 -0.00000000000E+00 -0.00000000000E+00 -0.11927647376E+04  0.11927647376E+04  0.00000000000E+00 0. -1.
         25    2    1    2    0    0 -0.37495172576E+02  0.14005496581E+03  0.22485798557E+03  0.29531113462E+03  0.12500508447E+03 0.  0.
          2    1    1    2  501    0 -0.13621843604E+02 -0.63211830664E+02 -0.11559739898E+04  0.11577811345E+04  0.00000000000E+00 0. -1.
          1    1    1    2  502    0  0.51117016180E+02 -0.76843135143E+02  0.32228500471E+04  0.32241712490E+04  0.00000000000E+00 0. -1.
         22    1    3    3    0    0 -0.81367932487E+02  0.11008519068E+03  0.14516613663E+03  0.19953119272E+03  0.00000000000E+00 0.  1.
         22    1    3    3    0    0  0.43872759911E+02  0.29969775129E+02  0.79691848943E+02  0.95779941906E+02  0.00000000000E+00 0.  1.
</event>
<event>
 7    1  0.6888820E-006  0.1297399E+03  0.7818608E-02  0.1385887E+00
          2   -1    0    0  502    0  0.00000000000E+00  0.00000000000E+00  0.16854320723E+04  0.16854320723E+04  0.00000000000E+00 0. -1.
          1   -1    0    0  501    0 -0.00000000000E+00 -0.00000000000E+00 -0.31046011293E+04  0.31046011293E+04  0.00000000000E+00 0. -1.
         25    2    1    2    0    0 -0.32373249569E+01 -0.10647950245E+03 -0.27523736153E+03  0.32051305209E+03  0.12499858663E+03 0.  0.
          2    1    1    2  501    0  0.23567466130E+02  0.12926278153E+03 -0.28050477704E+04  0.28081234457E+04  0.00000000000E+00 0. -1.
          1    1    1    2  502    0 -0.20330141173E+02 -0.22783279083E+02  0.16611160750E+04  0.16613967037E+04  0.00000000000E+00 0. -1.
         22    1    3    3    0    0  0.54374803204E+02 -0.46811812052E+02 -0.75077615089E+02  0.10384899257E+03  0.00000000000E+00 0.  1.
         22    1    3    3    0    0 -0.57612128161E+02 -0.59667690396E+02 -0.20015974645E+03  0.21666405952E+03  0.00000000000E+00 0.  1.
</event>
<event>
 7    1  0.6888820E-006  0.6613762E+02  0.7818608E-02  0.1388426E+00
          2   -1    0    0  502    0  0.00000000000E+00  0.00000000000E+00  0.24001630090E+04  0.24001630090E+04  0.00000000000E+00 0. -1.
          1   -1    0    0  501    0 -0.00000000000E+00 -0.00000000000E+00 -0.54315400381E+03  0.54315400381E+03  0.00000000000E+00 0. -1.
         25    2    1    2    0    0 -0.90589788654E+02 -0.36456202573E+02  0.16334228717E+04  0.16411067398E+04  0.12500195575E+03 0.  0.
          2    1    1    2  501    0  0.57150179396E+02 -0.13332520471E+02 -0.53653088723E+03  0.53973075886E+03  0.00000000000E+00 0. -1.
          1    1    1    2  502    0  0.33439609258E+02  0.49788723044E+02  0.76011702069E+03  0.76247951419E+03  0.00000000000E+00 0. -1.
         22    1    3    3    0    0 -0.59922800072E+02  0.41928926635E+02  0.65512515302E+03  0.65919476862E+03  0.00000000000E+00 0. -1.
         22    1    3    3    0    0 -0.30666988582E+02 -0.78385129207E+02  0.97829771871E+03  0.98191197116E+03  0.00000000000E+00 0. -1.
</event>
<event>
 7    1  0.6888820E-006  0.1168358E+03  0.7818608E-02  0.1409287E+00
          2   -1    0    0  502    0  0.00000000000E+00  0.00000000000E+00  0.74784978528E+02  0.74784978528E+02  0.00000000000E+00 0. -1.
          1   -1    0    0  501    0 -0.00000000000E+00 -0.00000000000E+00 -0.13072434310E+04  0.13072434310E+04  0.00000000000E+00 0. -1.
         25    2    1    2    0    0 -0.96110285991E+02 -0.93013185088E+02 -0.17894009409E+03  0.25599351053E+03  0.12499792193E+03 0.  0.
          2    1    1    2  501    0  0.27418669303E+02  0.63926968793E+01 -0.10048507224E+04  0.10052450568E+04  0.00000000000E+00 0. -1.
          1    1    1    2  502    0  0.68691616688E+02  0.86620488209E+02 -0.48667636016E+02  0.12078984219E+03  0.00000000000E+00 0. -1.
         22    1    3    3    0    0 -0.11558770955E+03 -0.10769900279E+03 -0.14694534023E+03  0.21576034579E+03  0.00000000000E+00 0.  1.
         22    1    3    3    0    0  0.19477423561E+02  0.14685817703E+02 -0.31994753866E+02  0.40233164741E+02  0.00000000000E+00 0.  1.
</event>
<event>
 7    1  0.6888820E-006  0.3028954E+02  0.7818608E-02  0.1623954E+00
          2   -1    0    0  502    0  0.00000000000E+00  0.00000000000E+00  0.40783450076E+02  0.40783450076E+02  0.00000000000E+00 0. -1.
          1   -1    0    0  501    0 -0.00000000000E+00 -0.00000000000E+00 -0.14012073752E+04  0.14012073752E+04  0.00000000000E+00 0. -1.
         25    2    1    2    0    0  0.68250133042E+01 -0.50734862688E+02 -0.40618634628E+03  0.42805769445E+03  0.12500173910E+03 0.  0.
          2    1    1    2  501    0  0.67305194976E+01  0.29152123624E+02 -0.97837400368E+03  0.97883136305E+03  0.00000000000E+00 0. -1.
          1    1    1    2  502    0 -0.13555532802E+02  0.21582739064E+02  0.24136424854E+02  0.35101767759E+02  0.00000000000E+00 0. -1.
         22    1    3    3    0    0 -0.90642050119E+01  0.86911158559E+00 -0.35005030669E+03  0.35016871988E+03  0.00000000000E+00 0.  1.
         22    1    3    3    0    0  0.15889218316E+02 -0.51603974274E+02 -0.56136039586E+02  0.77888974572E+02  0.00000000000E+00 0.  1.
</event>
<event>
 7    1  0.6888820E-006  0.8845711E+02  0.7818608E-02  0.1412463E+00
          2   -1    0    0  502    0  0.00000000000E+00  0.00000000000E+00  0.87666654735E+02  0.87666654735E+02  0.00000000000E+00 0. -1.
          1   -1    0    0  501    0 -0.00000000000E+00 -0.00000000000E+00 -0.73576360084E+03  0.73576360084E+03  0.00000000000E+00 0. -1.
         25    2    1    2    0    0  0.31628448217E+02  0.47673326310E+02 -0.20873678700E+03  0.24993765168E+03  0.12499871481E+03 0.  0.
          2    1    1    2  501    0  0.26346788245E+02  0.24937729117E+02 -0.47321277926E+03  0.47460128322E+03  0.00000000000E+00 0. -1.
          1    1    1    2  502    0 -0.57975236462E+02 -0.72611055427E+02  0.33852620149E+02  0.98891320670E+02  0.00000000000E+00 0. -1.
         22    1    3    3    0    0  0.10316237313E+02  0.58470250382E+02 -0.24617075146E+02  0.64274375304E+02  0.00000000000E+00 0. -1.
         22    1    3    3    0    0  0.21312210904E+02 -0.10796924072E+02 -0.18411971185E+03  0.18566327638E+03  0.00000000000E+00 0. -1.
</event>
<event>
 7    1  0.6888820E-006  0.3756323E+02  0.7818608E-02  0.1557225E+00
          2   -1    0    0  502    0  0.00000000000E+00  0.00000000000E+00  0.10941720858E+04  0.10941720858E+04  0.00000000000E+00 0. -1.
          1   -1    0    0  501    0 -0.00000000000E+00 -0.00000000000E+00 -0.13465631283E+04  0.13465631283E+04  0.00000000000E+00 0. -1.
         25    2    1    2    0    0  0.19133632202E+02 -0.34586970856E+02  0.22578797069E+01  0.13112231550E+03  0.12500243665E+03 0.  0.
          2    1    1    2  501    0  0.17373686568E+02  0.25505843069E+02 -0.12816007438E+04  0.12819722538E+04  0.00000000000E+00 0. -1.
          1    1    1    2  502    0 -0.36507318770E+02  0.90811277868E+01  0.10269518216E+04  0.10276406449E+04  0.00000000000E+00 0. -1.
         22    1    3    3    0    0  0.30161755178E+02 -0.14543157928E+02 -0.57831092943E+02  0.66825670434E+02  0.00000000000E+00 0.  1.
         22    1    3    3    0    0 -0.11028122976E+02 -0.20043812927E+02  0.60088972650E+02  0.64296645070E+02  0.00000000000E+00 0.  1.
</event>
<event>
 7    1  0.6888820E-006  0.7638767E+02  0.7818608E-02  0.1474589E+00
          2   -1    0    0  502    0  0.00000000000E+00  0.00000000000E+00  0.43863369733E+02  0.43863369733E+02  0.00000000000E+00 0. -1.
          1   -1    0    0  501    0 -0.00000000000E+00 -0.00000000000E+00 -0.17295226183E+04  0.17295226183E+04  0.00000000000E+00 0. -1.
         25    2    1    2    0    0 -0.94694828219E+01  0.66819773895E+02 -0.60327472071E+03  0.61977396835E+03  0.12499931965E+03 0.  0.
          2    1    1    2  501    0 -0.14964971869E+02 -0.76980672660E+02 -0.11115024972E+04  0.11142655768E+04  0.00000000000E+00 0. -1.
          1    1    1    2  502    0  0.24434454691E+02  0.10160898764E+02  0.29117969264E+02  0.39346442963E+02  0.00000000000E+00 0. -1.
         22    1    3    3    0    0 -0.30109487605E+02 -0.26425865017E+02 -0.10403732899E+03  0.11148396032E+03  0.00000000000E+00 0. -1.
         22    1    3    3    0    0  0.20640004784E+02  0.93245638913E+02 -0.49923739172E+03  0.50829000803E+03  0.00000000000E+00 0. -1.
</event>
<event>
 7    1  0.6888820E-006  0.6119245E+02  0.7818608E-02  0.1480530E+00
          2   -1    0    0  502    0  0.00000000000E+00  0.00000000000E+00  0.32892188481E+03  0.32892188481E+03  0.00000000000E+00 0. -1.
          1   -1    0    0  501    0 -0.00000000000E+00 -0.00000000000E+00 -0.11393875166E+04  0.11393875166E+04  0.00000000000E+00 0. -1.
         25    2    1    2    0    0 -0.18078986506E+02  0.62583523817E+02 -0.52518180559E+03  0.54376932633E+03  0.12500241649E+03 0.  0.
          2    1    1    2  501    0 -0.13502581284E+02 -0.60191214324E+02 -0.60254874749E+03  0.60569818812E+03  0.00000000000E+00 0. -1.
          1    1    1    2  502    0  0.31581567790E+02 -0.23923094928E+01  0.31726492131E+03  0.31884188693E+03  0.00000000000E+00 0. -1.
         22    1    3    3    0    0 -0.41044699747E+01  0.48922036580E+02 -0.57198936678E+02  0.75378582462E+02  0.00000000000E+00 0.  1.
         22    1    3    3    0    0 -0.13974516531E+02  0.13661487237E+02 -0.46798286892E+03  0.46839074387E+03  0.00000000000E+00 0.  1.
</event>
<event>
 7    1  0.6888820E-006  0.1574532E+03  0.7818608E-02  0.1208431E+00
          2   -1    0    0  502    0  0.00000000000E+00  0.00000000000E+00  0.67383644120E+03  0.67383644120E+03  0.00000000000E+00 0. -1.
          1   -1    0    0  501    0 -0.00000000000E+00 -0.00000000000E+00 -0.32124161357E+03  0.32124161357E+03  0.00000000000E+00 0. -1.
         25    2    1    2    0    0 -0.33186605171E+02  0.53371216353E+01  0.58533214471E+03  0.59947322923E+03  0.12499838920E+03 0.  0.
          2    1    1    2  501    0  0.15031767026E+03 -0.64342461479E+02 -0.20382083355E+03  0.26130114147E+03  0.00000000000E+00 0. -1.
          1    1    1    2  502    0 -0.11713106508E+03  0.59005339844E+02 -0.28916483526E+02  0.13430368408E+03  0.00000000000E+00 0. -1.
         22    1    3    3    0    0 -0.37012313624E+02 -0.54144496376E+02  0.38182702172E+03  0.38741891070E+03  0.00000000000E+00 0.  1.
         22    1    3    3    0    0  0.38257084528E+01  0.59481618011E+02  0.20350512298E+03  0.21205431853E+03  0.00000000000E+00 0.  1.
</event>
<event>
 7    1  0.6888820E-006  0.8790433E+02  0.7818608E-02  0.1364498E+00
          2   -1    0    0  502    0  0.00000000000E+00  0.00000000000E+00  0.36592369255E+03  0.36592369255E+03  0.00000000000E+00 0. -1.
          1   -1    0    0  501    0 -0.00000000000E+00 -0.00000000000E+00 -0.38239976087E+03  0.38239976087E+03  0.00000000000E+00 0. -1.
         25    2    1    2    0    0  0.22596155955E+02 -0.80519306056E+02 -0.51752678601E+02  0.15905340077E+03  0.12500279853E+03 0.  0.
          2    1    1    2  501    0  0.47363055220E+02  0.25356782311E+02 -0.26792099877E+03  0.27325425338E+03  0.00000000000E+00 0. -1.
          1    1    1    2  502    0 -0.69959211174E+02  0.55162523744E+02  0.30319760905E+03  0.31601579927E+03  0.00000000000E+00 0. -1.
         22    1    3    3    0    0  0.71121606768E+02 -0.41664360911E+02 -0.50913232901E+02  0.96883224574E+02  0.00000000000E+00 0.  1.
         22    1    3    3    0    0 -0.48525450813E+02 -0.38854945144E+02 -0.83944569965E+00  0.62170176193E+02  0.00000000000E+00 0.  1.
</event>
<event>
 7    1  0.6888820E-006  0.6423808E+02  0.7818608E-02  0.1471422E+00
          2   -1    0    0  502    0  0.00000000000E+00  0.00000000000E+00  0.88348865233E+03  0.88348865233E+03  0.00000000000E+00 0. -1.
          1   -1    0    0  501    0 -0.00000000000E+00 -0.00000000000E+00 -0.30906010755E+03  0.30906010755E+03  0.00000000000E+00 0. -1.
         25    2    1    2    0    0  0.16032336794E+01  0.95881565834E+02 -0.62109242152E+01  0.15767008651E+03  0.12500174229E+03 0.  0.
          2    1    1    2  501    0 -0.19044518872E+01 -0.32130531829E+02 -0.22471319864E+03  0.22700665112E+03  0.00000000000E+00 0. -1.
          1    1    1    2  502    0  0.30121820779E+00 -0.63751034005E+02  0.80535266763E+03  0.80787202225E+03  0.00000000000E+00 0. -1.
         22    1    3    3    0    0 -0.46558955224E+02  0.32416330022E+01  0.18781817764E+02  0.50309056586E+02  0.00000000000E+00 0. -1.
         22    1    3    3    0    0  0.48162188903E+02  0.92639932832E+02 -0.24992741979E+02  0.10736102993E+03  0.00000000000E+00 0. -1.
</event>
<event>
 7    1  0.6888820E-006  0.1028900E+03  0.7818608E-02  0.1274752E+00
          2   -1    0    0  502    0  0.00000000000E+00  0.00000000000E+00  0.12340207107E+04  0.12340207107E+04  0.00000000000E+00 0. -1.
          1   -1    0    0  501    0 -0.00000000000E+00 -0.00000000000E+00 -0.16686717583E+03  0.16686717583E+03  0.00000000000E+00 0. -1.
         25    2    1    2    0    0  0.82877339168E+01 -0.86408982548E+01  0.22026581608E+03  0.25354772726E+03  0.12500427436E+03 0.  0.
          2    1    1    2  501    0  0.54415609219E+01  0.11061080262E+03 -0.12673059346E+03  0.16830033737E+03  0.00000000000E+00 0. -1.
          1    1    1    2  502    0 -0.13729294839E+02 -0.10196990437E+03  0.97361831220E+03  0.97903982186E+03  0.00000000000E+00 0. -1.
         22    1    3    3    0    0  0.62879376382E+02  0.51681059506E+01  0.76582954099E+02  0.99224362693E+02  0.00000000000E+00 0. -1.
         22    1    3    3    0    0 -0.54591642465E+02 -0.13809004205E+02  0.14368286198E+03  0.15432336457E+03  0.00000000000E+00 0. -1.
</event>
<event>
 7    1  0.6888820E-006  0.5901528E+02  0.7818608E-02  0.1439641E+00
          2   -1    0    0  502    0  0.00000000000E+00  0.00000000000E+00  0.47101728016E+03  0.47101728016E+03  0.00000000000E+00 0. -1.
          1   -1    0    0  501    0 -0.00000000000E+00 -0.00000000000E+00 -0.84565384469E+02  0.84565384469E+02  0.00000000000E+00 0. -1.
         25    2    1    2    0    0  0.53620329476E+02 -0.25917005702E+02  0.62117352322E+02  0.15175555198E+03  0.12499740470E+03 0.  0.
          2    1    1    2  501    0 -0.22808255567E+02  0.57605394809E+02 -0.13253377298E+02  0.63358109528E+02  0.00000000000E+00 0. -1.
          1    1    1    2  502    0 -0.30812073910E+02 -0.31688389108E+02  0.33758792066E+03  0.34046900311E+03  0.00000000000E+00 0. -1.
         22    1    3    3    0    0 -0.26667045056E+02  0.26030625697E+02 -0.82118359949E+00  0.37274644313E+02  0.00000000000E+00 0. -1.
         22    1    3    3    0    0  0.80287374532E+02 -0.51947631399E+02  0.62938535921E+02  0.11448090767E+03  0.00000000000E+00 0. -1.
</event>
<event>
 7    1  0.6888820E-006  0.2803982E+02  0.7818608E-02  0.1667415E+00
          2   -1    0    0  502    0  0.00000000000E+00  0.00000000000E+00  0.10764355338E+04  0.10764355338E+04  0.00000000000E+00 0. -1.
          1   -1    0    0  501    0 -0.00000000000E+00 -0.00000000000E+00 -0.34484454436E+02  0.34484454436E+02  0.00000000000E+00 0. -1.
         25    2    1    2    0    0 -0.95003739868E+01  0.47401442133E+02  0.23108515249E+03  0.26713822902E+03  0.12500132753E+03 0.  0.
          2    1    1    2  501    0  0.88046874471E+01 -0.19626168137E+02 -0.90920070334E+01  0.23353235080E+02  0.00000000000E+00 0. -1.
          1    1    1    2  502    0  0.69568653969E+00 -0.27775273996E+02  0.81995793386E+03  0.82042852408E+03  0.00000000000E+00 0. -1.
         22    1    3    3    0    0  0.20033340085E+02  0.78616229204E+02  0.97649627405E+02  0.12695391267E+03  0.00000000000E+00 0. -1.
         22    1    3    3    0    0 -0.29533714072E+02 -0.31214787071E+02  0.13343552508E+03  0.14018431636E+03  0.00000000000E+00 0. -1.
</event>
<event>
 7    1  0.6888820E-006  0.3035985E+02  0.7818608E-02  0.1643985E+00
          2   -1    0    0  502    0  0.00000000000E+00  0.00000000000E+00  0.14001908027E+04  0.14001908027E+04  0.00000000000E+00 0. -1.
          1   -1    0    0  501    0 -0.00000000000E+00 -0.00000000000E+00 -0.15315630069E+04  0.15315630069E+04  0.00000000000E+00 0. -1.
         25    2    1    2    0    0  0.46439376662E+02  0.10882169969E+02 -0.22694971021E+03  0.26345040415E+03  0.12499962863E+03 0.  0.
          2    1    1    2  501    0 -0.29875837540E+02  0.45754551613E+01 -0.12860925329E+04  0.12864476296E+04  0.00000000000E+00 0. -1.
          1    1    1    2  502    0 -0.16563539122E+02 -0.15457625131E+02  0.13816700389E+04  0.13818557759E+04  0.00000000000E+00 0. -1.
         22    1    3    3    0    0 -0.39010176747E+01  0.39011216161E+00 -0.20892337248E+03  0.20896015336E+03  0.00000000000E+00 0.  1.
         22    1    3    3    0    0  0.50340394337E+02  0.10492057808E+02 -0.18026337730E+02  0.54490250788E+02  0.00000000000E+00 0.  1.
</event>
<event>
 7    1  0.6888820E-006  0.2238827E+03  0.7818608E-02  0.1216310E+00
          2   -1    0    0  502    0  0.00000000000E+00  0.00000000000E+00  0.46880212059E+03  0.46880212059E+03  0.00000000000E+00 0. -1.
          1   -1    0    0  501    0 -0.00000000000E+00 -0.00000000000E+00 -0.15667323319E+04  0.15667323319E+04  0.00000000000E+00 0. -1.
         25    2    1    2    0    0  0.22955111689E+03  0.19602423474E+03 -0.45779856611E+03  0.56242661284E+03  0.12499980729E+03 0.  0.
          2    1    1    2  501    0 -0.51935139520E+02 -0.67068026694E+02 -0.10258284367E+04  0.10293295685E+04  0.00000000000E+00 0. -1.
          1    1    1    2  502    0 -0.17761597737E+03 -0.12895620805E+03  0.38569679151E+03  0.44377827120E+03  0.00000000000E+00 0. -1.
         22    1    3    3    0    0  0.47153236828E+02  0.27866194344E+02 -0.18840058310E+03  0.19620074475E+03  0.00000000000E+00 0.  1.
         22    1    3    3    0    0  0.18239788007E+03  0.16815804040E+03 -0.26939798301E+03  0.36622586808E+03  0.00000000000E+00 0.  1.
</event>
<event>
 7    1  0.6888820E-006  0.5951456E+02  0.7818608E-02  0.1440925E+00
          2   -1    0    0  502    0  0.00000000000E+00  0.00000000000E+00  0.72280731755E+03  0.72280731755E+03  0.00000000000E+00 0. -1.
          1   -1    0    0  501    0 -0.00000000000E+00 -0.00000000000E+00 -0.48404730727E+03  0.48404730727E+03  0.00000000000E+00 0. -1.
         25    2    1    2    0    0  0.34665106169E+02  0.70535147570E+02 -0.11896446866E+02  0.14813379748E+03  0.12500087951E+03 0.  0.
          2    1    1    2  501    0 -0.41840437727E+02 -0.11566438477E+02 -0.40151235639E+03  0.40385217228E+03  0.00000000000E+00 0. -1.
          1    1    1    2  502    0  0.71753315575E+01 -0.58968709094E+02  0.65216881353E+03  0.65486865506E+03  0.00000000000E+00 0. -1.
         22    1    3    3    0    0  0.36521213750E+02  0.10215562420E+02  0.49292196583E+02  0.62192261683E+02  0.00000000000E+00 0. -1.
         22    1    3    3    0    0 -0.18561075806E+01  0.60319585151E+02 -0.61188643448E+02  0.85941535797E+02  0.00000000000E+00 0. -1.
</event>
<event>
 7    1  0.6888820E-006  0.4979021E+02  0.7818608E-02  0.1468790E+00
          2   -1    0    0  502    0  0.00000000000E+00  0.00000000000E+00  0.13108429965E+04  0.13108429965E+04  0.00000000000E+00 0. -1.
          1   -1    0    0  501    0 -0.00000000000E+00 -0.00000000000E+00 -0.31080296848E+02  0.31080296848E+02  0.00000000000E+00 0. -1.
         25    2    1    2    0    0 -0.34638243285E+02  0.10660930038E+02  0.16231632237E+03  0.20805081161E+03  0.12500035351E+03 0.  0.
          2    1    1    2  501    0  0.35057373645E+02 -0.52975569721E+02  0.12218624941E+03  0.13771314381E+03  0.00000000000E+00 0. -1.
          1    1    1    2  502    0 -0.41913035991E+00  0.42314639683E+02  0.99526012786E+03  0.99615933791E+03  0.00000000000E+00 0. -1.
         22    1    3    3    0    0  0.32521320096E+02 -0.16397032802E+02  0.11722524891E+03  0.12275283266E+03  0.00000000000E+00 0. -1.
         22    1    3    3    0    0 -0.67159563381E+02  0.27057962840E+02  0.45091073466E+02  0.85297978949E+02  0.00000000000E+00 0. -1.
</event>
<event>
 7    1  0.6888820E-006  0.1366849E+03  0.7818608E-02  0.1328743E+00
          2   -1    0    0  502    0  0.00000000000E+00  0.00000000000E+00  0.41834421155E+03  0.41834421155E+03  0.00000000000E+00 0. -1.
          1   -1    0    0  501    0 -0.00000000000E+00 -0.00000000000E+00 -0.27113007466E+03  0.27113007466E+03  0.00000000000E+00 0. -1.
         25    2    1    2    0    0 -0.10845148311E+03  0.24244618141E+02  0.14979141230E+03  0.22452756482E+03  0.12500253784E+03 0.  0.
          2    1    1    2  501    0 -0.37471386496E+02  0.28288297100E+02 -0.20479237227E+03  0.21010532668E+03  0.00000000000E+00 0. -1.
          1    1    1    2  502    0  0.14592286961E+03 -0.52532915240E+02  0.20221509687E+03  0.25484139471E+03  0.00000000000E+00 0. -1.
         22    1    3    3    0    0 -0.68307314528E+02  0.28977157440E+02  0.16533374774E+03  0.18122034382E+03  0.00000000000E+00 0.  1.
         22    1    3    3    0    0 -0.40144168586E+02 -0.47325392991E+01 -0.15542335445E+02  0.43307221000E+02  0.00000000000E+00 0.  1.
</event>
<event>
 7    1  0.6888820E-006  0.6875498E+02  0.7818608E-02  0.1430748E+00
          2   -1    0    0  502    0  0.00000000000E+00  0.00000000000E+00  0.93123184522E+03  0.93123184522E+03  0.00000000000E+00 0. -1.
          1   -1    0    0  501    0 -0.00000000000E+00 -0.00000000000E+00 -0.54498256014E+03  0.54498256014E+03  0.00000000000E+00 0. -1.
         25    2    1    2    0    0  0.68606460469E+01 -0.99273653444E+02 -0.24786920080E+03  0.29490089718E+03  0.12500028688E+03 0.  0.
          2    1    1    2  501    0 -0.20189583177E+02  0.60963218570E+02 -0.26936775320E+03  0.27691717128E+03  0.00000000000E+00 0. -1.
          1    1    1    2  502    0  0.13328937130E+02  0.38310434874E+02  0.90348623908E+03  0.90439633690E+03  0.00000000000E+00 0. -1.
         22    1    3    3    0    0  0.86707945698E+01  0.15097014476E+02 -0.12812784933E+03  0.12930525240E+03  0.00000000000E+00 0. -1.
         22    1    3    3    0    0 -0.18101485229E+01 -0.11437066792E+03 -0.11974135147E+03  0.16559564478E+03  0.00000000000E+00 0. -1.
</event>
<event>
 7    1  0.6888820E-006  0.6592650E+02  0.7818608E-02  0.1412914E+00
          2   -1    0    0  502    0  0.00000000000E+00  0.00000000000E+00  0.51393153849E+03  0.51393153849E+03  0.00000000000E+00 0. -1.
          1   -1    0    0  501    0 -0.00000000000E+00 -0.00000000000E+00 -0.35877543359E+03  0.35877543359E+03  0.00000000000E+00 0. -1.
         25    2    1    2    0    0  0.17222030225E+00  0.90719248369E+02 -0.12156076530E+02  0.15492789309E+03  0.12499948070E+03 0.  0.
          2    1    1    2  501    0  0.33612702851E+02 -0.55915636923E+02 -0.27000752439E+03  0.27777767274E+03  0.00000000000E+00 0. -1.
          1    1    1    2  502    0 -0.33784923153E+02 -0.34803611447E+02  0.43731970582E+03  0.44000140625E+03  0.00000000000E+00 0. -1.
         22    1    3    3    0    0  0.46342910398E+02  0.89262860843E+02 -0.30690958214E+02  0.10515445110E+03  0.00000000000E+00 0.  1.
         22    1    3    3    0    0 -0.46170690096E+02  0.14563875262E+01  0.18534881684E+02  0.49773441991E+02  0.00000000000E+00 0.  1.
</event>
<event>
 7    1  0.7312511E-006  0.7251177E+02  0.7818608E-02  0.1365632E+00
          2   -1    0    0  502    0  0.00000000000E+00  0.00000000000E+00  0.92391249545E+03  0.92391249545E+03  0.00000000000E+00 0. -1.
          1   -1    0    0  501    0 -0.00000000000E+00 -0.00000000000E+00 -0.99033413094E+03  0.99033413094E+03  0.00000000000E+00 0. -1.
         25    2    1    2    0    0 -0.77662554450E+02  0.10586153056E+03 -0.21785554027E+03  0.28341429637E+03  0.12499796377E+03 0.  0.
          2    1    1    2  501    0  0.21133383171E+02 -0.60955127280E+02 -0.73682518240E+03  0.73964416907E+03  0.00000000000E+00 0. -1.
          1    1    1    2  502    0  0.56529171279E+02 -0.44906403278E+02  0.88825908718E+03  0.89118816095E+03  0.00000000000E+00 0. -1.
         22    1    3    3    0    0 -0.10943119366E+03  0.98187502319E+02 -0.16257516181E+03  0.21919547211E+03  0.00000000000E+00 0. -1.
         22    1    3    3    0    0  0.31768639210E+02  0.76740282389E+01 -0.55280378460E+02  0.64218824260E+02  0.00000000000E+00 0. -1.
</event>
<event>
 7    1  0.6888820E-006  0.4713855E+02  0.7818608E-02  0.1482205E+00
          2   -1    0    0  502    0  0.00000000000E+00  0.00000000000E+00  0.78308762240E+03  0.78308762240E+03  0.00000000000E+00 0. -1.
          1   -1    0    0  501    0 -0.00000000000E+00 -0.00000000000E+00 -0.13671516063E+03  0.13671516063E+03  0.00000000000E+00 0. -1.
         25    2    1    2    0    0 -0.82642490992E+01 -0.41844909794E+01  0.32766289630E+03  0.35081794236E+03  0.12499778915E+03 0.  0.
          2    1    1    2  501    0  0.21192325905E+02  0.42704865290E+02 -0.11962304913E+03  0.12877303320E+03  0.00000000000E+00 0. -1.
          1    1    1    2  502    0 -0.12928076805E+02 -0.38520374311E+02  0.43833261460E+03  0.44021180746E+03  0.00000000000E+00 0. -1.
         22    1    3    3    0    0 -0.49639390892E+02  0.40042261751E+02  0.14588405964E+03  0.15921561076E+03  0.00000000000E+00 0. -1.
         22    1    3    3    0    0  0.41375141793E+02 -0.44226752730E+02  0.18177883666E+03  0.19160233160E+03  0.00000000000E+00 0. -1.
</event>
<event>
 7    1  0.6888820E-006  0.2527652E+03  0.7818608E-02  0.1220867E+00
          2   -1    0    0  502    0  0.00000000000E+00  0.00000000000E+00  0.53248983732E+03  0.53248983732E+03  0.00000000000E+00 0. -1.
          1   -1    0    0  501    0 -0.00000000000E+00 -0.00000000000E+00 -0.66450174150E+03  0.66450174150E+03  0.00000000000E+00 0. -1.
         25    2    1    2    0    0  0.12221323267E+03 -0.16038593385E+03 -0.19341454356E+03  0.30609371362E+03  0.12499781533E+03 0.  0.
          2    1    1    2  501    0  0.69897541764E+02 -0.15587035102E+02 -0.37547187687E+03  0.38224043785E+03  0.00000000000E+00 0. -1.
          1    1    1    2  502    0 -0.19211077443E+03  0.17597296895E+03  0.43687451625E+03  0.50865742735E+03  0.00000000000E+00 0. -1.
         22    1    3    3    0    0  0.12410418322E+03 -0.82791216879E+02 -0.81786958811E+02  0.17013330220E+03  0.00000000000E+00 0. -1.
         22    1    3    3    0    0 -0.18909505514E+01 -0.77594716974E+02 -0.11162758475E+03  0.13596041142E+03  0.00000000000E+00 0. -1.
</event>
<event>
 7    1  0.6888820E-006  0.7454442E+02  0.7818608E-02  0.1484146E+00
          2   -1    0    0  502    0  0.00000000000E+00  0.00000000000E+00  0.16795167536E+04  0.16795167536E+04  0.00000000000E+00 0. -1.
          1   -1    0    0  501    0 -0.00000000000E+00 -0.00000000000E+00 -0.12834343666E+03  0.12834343666E+03  0.00000000000E+00 0. -1.
         25    2    1    2    0    0 -0.48085287873E+02 -0.69852482688E+02  0.36920231875E+03  0.39891674144E+03  0.12503059700E+03 0.  0.
          2    1    1    2  501    0  0.57974559588E+02  0.46515744519E+02 -0.10117707941E+03  0.12554507336E+03  0.00000000000E+00 0. -1.
          1    1    1    2  502    0 -0.98892717156E+01  0.23336738169E+02  0.12831480777E+04  0.12833983755E+04  0.00000000000E+00 0. -1.
         22    1    3    3    0    0 -0.26550764060E+02 -0.40323871226E+02  0.35720210296E+03  0.36045013528E+03  0.00000000000E+00 0. -1.
         22    1    3    3    0    0 -0.21534523812E+02 -0.29528611462E+02  0.12000215786E+02  0.38466606162E+02  0.00000000000E+00 0. -1.
</event>
<event>
 7    1  0.6888820E-006  0.1360747E+03  0.7818608E-02  0.1281412E+00
          2   -1    0    0  502    0  0.00000000000E+00  0.00000000000E+00  0.30357463113E+04  0.30357463113E+04  0.00000000000E+00 0. -1.
          1   -1    0    0  501    0 -0.00000000000E+00 -0.00000000000E+00 -0.14102941236E+03  0.14102941236E+03  0.00000000000E+00 0. -1.
         25    2    1    2    0    0 -0.55191619539E+02 -0.43763587594E+02  0.40537358946E+03  0.43001132306E+03  0.12498249661E+03 0.  0.
          2    1    1    2  501    0  0.10118414755E+03  0.10008355668E+03 -0.88698556795E+02  0.16769729875E+03  0.00000000000E+00 0. -1.
          1    1    1    2  502    0 -0.45992528007E+02 -0.56319969084E+02  0.25780418663E+04  0.25790671019E+04  0.00000000000E+00 0. -1.
         22    1    3    3    0    0 -0.17648737436E+01 -0.79239826666E+02  0.21726291563E+03  0.23126876015E+03  0.00000000000E+00 0.  1.
         22    1    3    3    0    0 -0.53426745796E+02  0.35476239072E+02  0.18811067383E+03  0.19874256291E+03  0.00000000000E+00 0.  1.
</event>
<event>
 7    1  0.6888820E-006  0.4114322E+02  0.7818608E-02  0.1538886E+00
          2   -1    0    0  502    0  0.00000000000E+00  0.00000000000E+00  0.29957927541E+03  0.29957927541E+03  0.00000000000E+00 0. -1.
          1   -1    0    0  501    0 -0.00000000000E+00 -0.00000000000E+00 -0.23534930306E+04  0.23534930306E+04  0.00000000000E+00 0. -1.
         25    2    1    2    0    0  0.10406316990E+02  0.18209243403E+02 -0.63642833218E+03  0.64892653081E+03  0.12499900966E+03 0.  0.
          2    1    1    2  501    0  0.30016183937E+02 -0.10217490740E+02 -0.17092207913E+04  0.17095148674E+04  0.00000000000E+00 0. -1.
          1    1    1    2  502    0 -0.40422500927E+02 -0.79917526624E+01  0.29173536831E+03  0.29463090778E+03  0.00000000000E+00 0. -1.
         22    1    3    3    0    0  0.24766481470E+02  0.50256684872E+02 -0.13358985305E+03  0.14486325212E+03  0.00000000000E+00 0.  1.
         22    1    3    3    0    0 -0.14360164480E+02 -0.32047441469E+02 -0.50283847913E+03  0.50406327869E+03  0.00000000000E+00 0.  1.
</event>
<event>
 7    1  0.6888820E-006  0.1085136E+03  0.7818608E-02  0.1302848E+00
          2   -1    0    0  502    0  0.00000000000E+00  0.00000000000E+00  0.95247791781E+03  0.95247791781E+03  0.00000000000E+00 0. -1.
          1   -1    0    0  501    0 -0.00000000000E+00 -0.00000000000E+00 -0.13889762325E+04  0.13889762325E+04  0.00000000000E+00 0. -1.
         25    2    1    2    0    0 -0.16270942288E+03 -0.35802312488E+02 -0.30620435400E+03  0.37032669773E+03  0.12499837907E+03 0.  0.
          2    1    1    2  501    0  0.90032735854E+02  0.52843489642E+02 -0.10465960611E+04  0.10517897333E+04  0.00000000000E+00 0. -1.
          1    1    1    2  502    0  0.72676687026E+02 -0.17041177154E+02  0.91630210050E+03  0.91933771920E+03  0.00000000000E+00 0. -1.
         22    1    3    3    0    0 -0.14253640666E+03  0.24322311418E+02 -0.20409647637E+03  0.25012711513E+03  0.00000000000E+00 0. -1.
         22    1    3    3    0    0 -0.20173016219E+02 -0.60124623906E+02 -0.10210787764E+03  0.12019958261E+03  0.00000000000E+00 0. -1.
</event>
<event>
 7    1  0.6888820E-006  0.4736212E+02  0.7818608E-02  0.1514648E+00
          2   -1    0    0  502    0  0.00000000000E+00  0.00000000000E+00  0.36409728110E+03  0.36409728110E+03  0.00000000000E+00 0. -1.
          1   -1    0    0  501    0 -0.00000000000E+00 -0.00000000000E+00 -0.11359002736E+03  0.11359002736E+03  0.00000000000E+00 0. -1.
         25    2    1    2    0    0 -0.76920632689E+02  0.12223215180E+02  0.14051489700E+03  0.20355732534E+03  0.12499983079E+03 0.  0.
          2    1    1    2  501    0  0.46149158715E+02 -0.22641165907E+01 -0.74041596513E+02  0.87275592740E+02  0.00000000000E+00 0. -1.
          1    1    1    2  502    0  0.30771473975E+02 -0.99590985895E+01  0.18403395325E+03  0.18685439038E+03  0.00000000000E+00 0. -1.
         22    1    3    3    0    0 -0.59644678721E+02  0.43910375447E+02  0.14907971674E+03  0.16646432265E+03  0.00000000000E+00 0. -1.
         22    1    3    3    0    0 -0.17275953968E+02 -0.31687160267E+02 -0.85648197428E+01  0.37093002690E+02  0.00000000000E+00 0. -1.
</event>
<event>
 7    1  0.6888820E-006  0.2993418E+02  0.7818608E-02  0.1645859E+00
          2   -1    0    0  502    0  0.00000000000E+00  0.00000000000E+00  0.15607403658E+03  0.15607403658E+03  0.00000000000E+00 0. -1.
          1   -1    0    0  501    0 -0.00000000000E+00 -0.00000000000E+00 -0.14185623277E+03  0.14185623277E+03  0.00000000000E+00 0. -1.
         25    2    1    2    0    0 -0.16038893630E+02  0.68826728186E+01 -0.24899604847E+02  0.12864261243E+03  0.12499725643E+03 0.  0.
          2    1    1    2  501    0  0.11286682616E+02 -0.29115187221E+02 -0.59976877789E+02  0.67618852406E+02  0.00000000000E+00 0. -1.
          1    1    1    2  502    0  0.47522110140E+01  0.22232514403E+02  0.99094286442E+02  0.10166880452E+03  0.00000000000E+00 0. -1.
         22    1    3    3    0    0  0.37229405521E+02 -0.38172520879E+02  0.32271883437E+01  0.53418954785E+02  0.00000000000E+00 0. -1.
         22    1    3    3    0    0 -0.53268299151E+02  0.45055193698E+02 -0.28126793191E+02  0.75223657640E+02  0.00000000000E+00 0. -1.
</event>
<event>
 7    1  0.6888820E-006  0.1469083E+03  0.7818608E-02  0.1292764E+00
          2   -1    0    0  502    0  0.00000000000E+00  0.00000000000E+00  0.28626453038E+04  0.28626453038E+04  0.00000000000E+00 0. -1.
          1   -1    0    0  501    0 -0.00000000000E+00 -0.00000000000E+00 -0.32654742551E+03  0.32654742551E+03  0.00000000000E+00 0. -1.
         25    2    1    2    0    0  0.12946376043E+03 -0.73134082176E+02  0.69795503990E+03  0.72448347211E+03  0.12500241754E+03 0.  0.
          2    1    1    2  501    0 -0.88428271112E+02  0.11762945021E+03 -0.29554862963E+03  0.33015941477E+03  0.00000000000E+00 0. -1.
          1    1    1    2  502    0 -0.41035489321E+02 -0.44495368035E+02  0.21336914680E+04  0.21345498424E+04  0.00000000000E+00 0. -1.
         22    1    3    3    0    0  0.39492927179E+02  0.16445799214E+02  0.58083040181E+02  0.72137335448E+02  0.00000000000E+00 0. -1.
         22    1    3    3    0    0  0.89970833254E+02 -0.89579881390E+02  0.63987199972E+03  0.65234613666E+03  0.00000000000E+00 0. -1.
</event>
<event>
 7    1  0.6888820E-006  0.1087928E+03  0.7818608E-02  0.1363120E+00
          2   -1    0    0  502    0  0.00000000000E+00  0.00000000000E+00  0.19009444129E+04  0.19009444129E+04  0.00000000000E+00 0. -1.
          1   -1    0    0  501    0 -0.00000000000E+00 -0.00000000000E+00 -0.11068508585E+04  0.11068508585E+04  0.00000000000E+00 0. -1.
         25    2    1    2    0    0 -0.33787120628E+02  0.13620436884E+03 -0.25494158624E+02  0.18966348413E+03  0.12501634084E+03 0.  0.
          2    1    1    2  501    0  0.50130964265E+02 -0.95447983206E+02 -0.99609783598E+03  0.10019153307E+04  0.00000000000E+00 0. -1.
          1    1    1    2  502    0 -0.16343843637E+02 -0.40756385637E+02  0.18156855491E+04  0.18162164566E+04  0.00000000000E+00 0. -1.
         22    1    3    3    0    0 -0.24857525675E+02 -0.14849018478E+02  0.15566815014E+02  0.32874240100E+02  0.00000000000E+00 0. -1.
         22    1    3    3    0    0 -0.89295949523E+01  0.15105338732E+03 -0.41060973638E+02  0.15678924403E+03  0.00000000000E+00 0. -1.
</event>
<event>
 7    1  0.6888820E-006  0.8735737E+02  0.7818608E-02  0.1369654E+00
          2   -1    0    0  502    0  0.00000000000E+00  0.00000000000E+00  0.29042381811E+03  0.29042381811E+03  0.00000000000E+00 0. -1.
          1   -1    0    0  501    0 -0.00000000000E+00 -0.00000000000E+00 -0.95964756814E+03  0.95964756814E+03  0.00000000000E+00 0. -1.
         25    2    1    2    0    0  0.36069668363E+02  0.13136190925E+03 -0.11481803891E+03  0.21763830952E+03  0.12500511803E+03 0.  0.
          2    1    1    2  501    0 -0.20091336075E+02 -0.47735964192E+02 -0.78495705570E+03  0.78666381852E+03  0.00000000000E+00 0. -1.
          1    1    1    2  502    0 -0.15978332289E+02 -0.83625945058E+02  0.23055134459E+03  0.24576925821E+03  0.00000000000E+00 0. -1.
         22    1    3    3    0    0  0.88398032715E+01 -0.13871917792E+02 -0.56392453024E+02  0.58742497250E+02  0.00000000000E+00 0. -1.
         22    1    3    3    0    0  0.27229865092E+02  0.14523382704E+03 -0.58425585888E+02  0.15889581227E+03  0.00000000000E+00 0. -1.
</event>
<event>
 7    1  0.6888820E-006  0.2097899E+03  0.7818608E-02  0.1309469E+00
          2   -1    0    0  502    0  0.00000000000E+00  0.00000000000E+00  0.29079199682E+03  0.29079199682E+03  0.00000000000E+00 0. -1.
          1   -1    0    0  501    0 -0.00000000000E+00 -0.00000000000E+00 -0.75063526687E+03  0.75063526687E+03  0.00000000000E+00 0. -1.
         25    2    1    2    0    0 -0.20460782215E+03  0.11801951933E+03 -0.55885719998E+03  0.61946713847E+03  0.12500079141E+03 0.  0.
          2    1    1    2  501    0  0.36131511190E+02  0.39486602669E+01 -0.11674547444E+03  0.12227258000E+03  0.00000000000E+00 0. -1.
          1    1    1    2  502    0  0.16847631096E+03 -0.12196817959E+03  0.21575940436E+03  0.29968754522E+03  0.00000000000E+00 0. -1.
         22    1    3    3    0    0 -0.56162574347E+02  0.10374264409E+03 -0.23683033269E+03  0.26458529333E+03  0.00000000000E+00 0. -1.
         22    1    3    3    0    0 -0.14844524780E+03  0.14276875232E+02 -0.32202686729E+03  0.35488184515E+03  0.00000000000E+00 0. -1.
</event>
<event>
 7    1  0.6888820E-006  0.2363879E+03  0.7818608E-02  0.1216036E+00
          2   -1    0    0  502    0  0.00000000000E+00  0.00000000000E+00  0.22249359167E+04  0.22249359167E+04  0.00000000000E+00 0. -1.
          1   -1    0    0  501    0 -0.00000000000E+00 -0.00000000000E+00 -0.10591691313E+04  0.10591691313E+04  0.00000000000E+00 0. -1.
         25    2    1    2    0    0  0.27786377657E+03 -0.11532061923E+02  0.19994686171E+02  0.30555857477E+03  0.12499995343E+03 0.  0.
          2    1    1    2  501    0 -0.22762678095E+03 -0.51458794194E+02 -0.90072382448E+03  0.93046513470E+03  0.00000000000E+00 0. -1.
          1    1    1    2  502    0 -0.50236995625E+02  0.62990856117E+02  0.20464959237E+04  0.20480813386E+04  0.00000000000E+00 0. -1.
         22    1    3    3    0    0  0.24605016664E+03  0.18433458134E+02  0.51023198873E+02  0.25196000418E+03  0.00000000000E+00 0. -1.
         22    1    3    3    0    0  0.31813609938E+02 -0.29965520057E+02 -0.31028512702E+02  0.53598570597E+02  0.00000000000E+00 0. -1.
</event>
<event>
 7    1  0.6888820E-006  0.5827894E+02  0.7818608E-02  0.1450853E+00
          2   -1    0    0  502    0  0.00000000000E+00  0.00000000000E+00  0.18746741610E+03  0.18746741610E+03  0.00000000000E+00 0. -1.
          1   -1    0    0  501    0 -0.00000000000E+00 -0.00000000000E+00 -0.79696629727E+02  0.79696629727E+02  0.00000000000E+00 0. -1.
         25    2    1    2    0    0 -0.56706546001E+02  0.51332022563E+02  0.53754708007E+02  0.15609480685E+03  0.12500164477E+03 0.  0.
          2    1    1    2  501    0  0.15583840928E+02 -0.49057155476E+02  0.46164273083E+02  0.69141888250E+02  0.00000000000E+00 0. -1.
          1    1    1    2  502    0  0.41122705073E+02 -0.22748670867E+01  0.78518052863E+01  0.41927350727E+02  0.00000000000E+00 0. -1.
         22    1    3    3    0    0 -0.68331872543E+02 -0.20353006175E+02  0.11928533205E+02  0.72289553672E+02  0.00000000000E+00 0. -1.
         22    1    3    3    0    0  0.11625326543E+02  0.71685028738E+02  0.41826174802E+02  0.83805253182E+02  0.00000000000E+00 0. -1.
</event>
<event>
 7    1  0.6888820E-006  0.1359529E+03  0.7818608E-02  0.1304534E+00
          2   -1    0    0  502    0  0.00000000000E+00  0.00000000000E+00  0.17831810369E+03  0.17831810369E+03  0.00000000000E+00 0. -1.
          1   -1    0    0  501    0 -0.00000000000E+00 -0.00000000000E+00 -0.36447635385E+03  0.36447635385E+03  0.00000000000E+00 0. -1.
         25    2    1    2    0    0  0.90823576381E+02  0.17513593994E+02 -0.87123291428E+02  0.17824400090E+03  0.12499923178E+03 0.  0.
          2    1    1    2  501    0  0.54395000505E+02  0.21980180422E+02 -0.18303069815E+03  0.19220348820E+03  0.00000000000E+00 0. -1.
          1    1    1    2  502    0 -0.14521857689E+03 -0.39493774416E+02  0.83995739419E+02  0.17234696844E+03  0.00000000000E+00 0. -1.
         22    1    3    3    0    0  0.29145353087E+02 -0.51243109984E+02 -0.54502207761E+02  0.80285730851E+02  0.00000000000E+00 0. -1.
         22    1    3    3    0    0  0.61678223294E+02  0.68756703978E+02 -0.32621083667E+02  0.97958270046E+02  0.00000000000E+00 0. -1.
</event>
<event>
 7    1  0.6888820E-006  0.6425982E+02  0.7818608E-02  0.1383409E+00
          2   -1    0    0  502    0  0.00000000000E+00  0.00000000000E+00  0.28156884628E+03  0.28156884628E+03  0.00000000000E+00 0. -1.
          1   -1    0    0  501    0 -0.00000000000E+00 -0.00000000000E+00 -0.48851163772E+03  0.48851163772E+03  0.00000000000E+00 0. -1.
         25    2    1    2    0    0  0.11443873209E+02  0.16939575902E+02 -0.10636974329E+03  0.16540121611E+03  0.12500051414E+03 0.  0.
          2    1    1    2  501    0 -0.57645817265E+02  0.28395133160E+02 -0.34545811569E+03  0.35138388343E+03  0.00000000000E+00 0. -1.
          1    1    1    2  502    0  0.46201944056E+02 -0.45334709062E+02  0.24488506755E+03  0.25329538446E+03  0.00000000000E+00 0. -1.
         22    1    3    3    0    0  0.37282574812E+02  0.57027947321E+02 -0.28006405220E+02  0.73665024901E+02  0.00000000000E+00 0. -1.
         22    1    3    3    0    0 -0.25838701603E+02 -0.40088371419E+02 -0.78363338072E+02  0.91736191208E+02  0.00000000000E+00 0. -1.
</event>
<event>
 7    1  0.6888820E-006  0.1118775E+03  0.7818608E-02  0.1458723E+00
          2   -1    0    0  502    0  0.00000000000E+00  0.00000000000E+00  0.10521438283E+04  0.10521438283E+04  0.00000000000E+00 0. -1.
          1   -1    0    0  501    0 -0.00000000000E+00 -0.00000000000E+00 -0.15644811180E+03  0.15644811180E+03  0.00000000000E+00 0. -1.
         25    2    1    2    0    0  0.94336545935E+02 -0.96807587471E+01  0.69369187194E+03  0.71121462243E+03  0.12499889986E+03 0.  0.
          2    1    1    2  501    0 -0.11240977631E+03  0.53914678119E+00 -0.12593868367E+03  0.16880995389E+03  0.00000000000E+00 0. -1.
          1    1    1    2  502    0  0.18073230371E+02  0.91416119659E+01  0.32794252826E+03  0.32856736382E+03  0.00000000000E+00 0. -1.
         22    1    3    3    0    0 -0.10200664956E+02  0.19933157118E+02  0.35094798612E+03  0.35166158914E+03  0.00000000000E+00 0. -1.
         22    1    3    3    0    0  0.10453721089E+03 -0.29613915865E+02  0.34274388582E+03  0.35955303328E+03  0.00000000000E+00 0. -1.
</event>
<event>
 7    1  0.6888820E-006  0.1466531E+03  0.7818608E-02  0.1347468E+00
          2   -1    0    0  502    0  0.00000000000E+00  0.00000000000E+00  0.16755003111E+04  0.16755003111E+04  0.00000000000E+00 0. -1.
          1   -1    0    0  501    0 -0.00000000000E+00 -0.00000000000E+00 -0.18413279579E+04  0.18413279579E+04  0.00000000000E+00 0. -1.
         25    2    1    2    0    0 -0.76404667332E+02  0.15481112212E+03  0.63735940908E+03  0.67205390048E+03  0.12500108834E+03 0.  0.
          2    1    1    2  501    0  0.28878425349E+02 -0.23432322283E+02 -0.18190093791E+04  0.18193895016E+04  0.00000000000E+00 0. -1.
          1    1    1    2  502    0  0.47526241983E+02 -0.13137879984E+03  0.10158223233E+04  0.10253848669E+04  0.00000000000E+00 0. -1.
         22    1    3    3    0    0  0.10556012294E+02  0.10403437969E+02  0.22945864900E+01  0.14997534607E+02  0.00000000000E+00 0. -1.
         22    1    3    3    0    0 -0.86960679626E+02  0.14440768415E+03  0.63506482259E+03  0.65705636587E+03  0.00000000000E+00 0. -1.
</event>
<event>
 7    1  0.6888820E-006  0.9006622E+02  0.7818608E-02  0.1438012E+00
          2   -1    0    0  502    0  0.00000000000E+00  0.00000000000E+00  0.20353682422E+04  0.20353682422E+04  0.00000000000E+00 0. -1.
          1   -1    0    0  501    0 -0.00000000000E+00 -0.00000000000E+00 -0.54237184724E+03  0.54237184724E+03  0.00000000000E+00 0. -1.
         25    2    1    2    0    0 -0.59382145736E+02 -0.10181161008E+03  0.16471862395E+04  0.16561216577E+04  0.12499837819E+03 0.  0.
          2    1    1    2  501    0  0.52049379686E+02  0.73427193317E+02 -0.53356973821E+03  0.54110752737E+03  0.00000000000E+00 0. -1.
          1    1    1    2  502    0  0.73327660496E+01  0.28384416762E+02  0.37937989375E+03  0.38051090439E+03  0.00000000000E+00 0. -1.
         22    1    3    3    0    0 -0.43101665998E+02 -0.72108307360E+02  0.41232749015E+03  0.42079843243E+03  0.00000000000E+00 0.  1.
         22    1    3    3    0    0 -0.16280479738E+02 -0.29703302720E+02  0.12348587493E+04  0.12353232253E+04  0.00000000000E+00 0.  1.
</event>
<event>
 7    1  0.6888820E-006  0.1602771E+03  0.7818608E-02  0.1326661E+00
          2   -1    0    0  502    0  0.00000000000E+00  0.00000000000E+00  0.54765493909E+02  0.54765493909E+02  0.00000000000E+00 0. -1.
          1   -1    0    0  501    0 -0.00000000000E+00 -0.00000000000E+00 -0.12833769976E+04  0.12833769976E+04  0.00000000000E+00 0. -1.
         25    2    1    2    0    0  0.18025143873E+03  0.19394240612E+02 -0.62777075705E+03  0.66527279129E+03  0.12500018278E+03 0.  0.
          2    1    1    2  501    0 -0.31617704521E+02  0.25758939317E+02 -0.46418946014E+03  0.46597752853E+03  0.00000000000E+00 0. -1.
          1    1    1    2  502    0 -0.14863373421E+03 -0.45153179929E+02 -0.13665128653E+03  0.20689217171E+03  0.00000000000E+00 0. -1.
         22    1    3    3    0    0  0.10792132674E+03 -0.50744277976E+02 -0.35435989889E+03  0.37388893063E+03  0.00000000000E+00 0. -1.
         22    1    3    3    0    0  0.72330111998E+02  0.70138518588E+02 -0.27341085816E+03  0.29138386066E+03  0.00000000000E+00 0. -1.
</event>
<event>
 7    1  0.6888820E-006  0.2483008E+03  0.7818608E-02  0.1350084E+00
          2   -1    0    0  502    0  0.00000000000E+00  0.00000000000E+00  0.15416051199E+04  0.15416051199E+04  0.00000000000E+00 0. -1.
          1   -1    0    0  501    0 -0.00000000000E+00 -0.00000000000E+00 -0.19842156183E+03  0.19842156183E+03  0.00000000000E+00 0. -1.
         25    2    1    2    0    0  0.26025194554E+03  0.33381298721E+02  0.57835151454E+03  0.64727188929E+03  0.12500015211E+03 0.  0.
          2    1    1    2  501    0 -0.24559173371E+03 -0.17683070699E+02 -0.71303138655E+02  0.25634376965E+03  0.00000000000E+00 0. -1.
          1    1    1    2  502    0 -0.14660211825E+02 -0.15698228022E+02  0.83613518222E+03  0.83641102283E+03  0.00000000000E+00 0. -1.
         22    1    3    3    0    0 -0.18884005147E+01  0.11455667940E+02  0.10580894916E+03  0.10644403275E+03  0.00000000000E+00 0. -1.
         22    1    3    3    0    0  0.26214034605E+03  0.21925630781E+02  0.47254256538E+03  0.54082785654E+03  0.00000000000E+00 0. -1.
</event>
<event>
 7    1  0.6888820E-006  0.1836334E+03  0.7818608E-02  0.1237411E+00
          2   -1    0    0  502    0  0.00000000000E+00  0.00000000000E+00  0.49805938077E+04  0.49805938077E+04  0.00000000000E+00 0. -1.
          1   -1    0    0  501    0 -0.00000000000E+00 -0.00000000000E+00 -0.83552064489E+02  0.83552064489E+02  0.00000000000E+00 0. -1.
         25    2    1    2    0    0  0.16772001779E+03  0.11073752616E+03  0.98068128096E+03  0.10088378178E+04  0.12500065472E+03 0.  0.
          2    1    1    2  501    0 -0.18119031497E+03 -0.28760545073E+02  0.52870615677E+02  0.19092511934E+03  0.00000000000E+00 0. -1.
          1    1    1    2  502    0  0.13470297179E+02 -0.81976981088E+02  0.38634898466E+04  0.38643829351E+04  0.00000000000E+00 0. -1.
         22    1    3    3    0    0  0.50639809801E+02  0.48857804735E+02  0.63116175382E+03  0.63507214937E+03  0.00000000000E+00 0.  1.
         22    1    3    3    0    0  0.11708020799E+03  0.61879721427E+02  0.34951952715E+03  0.37376566841E+03  0.00000000000E+00 0.  1.
</event>
<event>
 7    1  0.6888820E-006  0.7249369E+02  0.7818608E-02  0.1414969E+00
          2   -1    0    0  502    0  0.00000000000E+00  0.00000000000E+00  0.98690628857E+03  0.98690628857E+03  0.00000000000E+00 0. -1.
          1   -1    0    0  501    0 -0.00000000000E+00 -0.00000000000E+00 -0.83925898137E+02  0.83925898137E+02  0.00000000000E+00 0. -1.
         25    2    1    2    0    0 -0.37457875724E+02 -0.14965667451E+02  0.21316370230E+01  0.13135550488E+03  0.12499064417E+03 0.  0.
          2    1    1    2  501    0 -0.35153338045E+02  0.25473936260E+02  0.86498011649E+01  0.44266213578E+02  0.00000000000E+00 0. -1.
          1    1    1    2  502    0  0.72611213770E+02 -0.10508268809E+02  0.89219895224E+03  0.89521046825E+03  0.00000000000E+00 0. -1.
         22    1    3    3    0    0 -0.14317581957E+02 -0.11030298128E+02  0.63304432911E+02  0.65833971899E+02  0.00000000000E+00 0.  1.
         22    1    3    3    0    0 -0.23140293768E+02 -0.39353693238E+01 -0.61172795888E+02  0.65521532980E+02  0.00000000000E+00 0.  1.
</event>
<event>
 7    1  0.6888820E-006  0.8991672E+02  0.7818608E-02  0.1327336E+00
          2   -1    0    0  502    0  0.00000000000E+00  0.00000000000E+00  0.18504568678E+04  0.18504568678E+04  0.00000000000E+00 0. -1.
          1   -1    0    0  501    0 -0.00000000000E+00 -0.00000000000E+00 -0.65188163910E+02  0.65188163910E+02  0.00000000000E+00 0. -1.
         25    2    1    2    0    0 -0.72106140516E+02  0.25078919601E+01  0.39608122719E+03  0.42156247744E+03  0.12501599432E+03 0.  0.
          2    1    1    2  501    0  0.12197188069E+02  0.71225445628E+02 -0.25183248753E+02  0.76524711822E+02  0.00000000000E+00 0. -1.
          1    1    1    2  502    0  0.59908952447E+02 -0.73733337588E+02  0.14143707254E+04  0.14175578424E+04  0.00000000000E+00 0. -1.
         22    1    3    3    0    0 -0.55264338077E+01  0.45833730392E+02  0.57251981044E+02  0.73546323129E+02  0.00000000000E+00 0. -1.
         22    1    3    3    0    0 -0.66579706709E+02 -0.43325838432E+02  0.33882924614E+03  0.34801615431E+03  0.00000000000E+00 0. -1.
</event>
<event>
 7    1  0.6888820E-006  0.7624927E+02  0.7818608E-02  0.1447479E+00
          2   -1    0    0  502    0  0.00000000000E+00  0.00000000000E+00  0.12626279924E+04  0.12626279924E+04  0.00000000000E+00 0. -1.
          1   -1    0    0  501    0 -0.00000000000E+00 -0.00000000000E+00 -0.33643758212E+03  0.33643758212E+03  0.00000000000E+00 0. -1.
         25    2    1    2    0    0  0.10986379099E+01  0.83722633185E+02  0.10539929819E+02  0.15081926490E+03  0.12499869692E+03 0.  0.
          2    1    1    2  501    0 -0.29539201585E+02 -0.12997477922E+02 -0.26408550123E+03  0.26605009082E+03  0.00000000000E+00 0. -1.
          1    1    1    2  502    0  0.28440563675E+02 -0.70725155263E+02  0.11797359817E+04  0.11821962188E+04  0.00000000000E+00 0. -1.
         22    1    3    3    0    0  0.30520061343E+02  0.10533270909E+03 -0.78461530425E+01  0.10994551317E+03  0.00000000000E+00 0.  1.
         22    1    3    3    0    0 -0.29421423433E+02 -0.21610075903E+02  0.18386082861E+02  0.40873751728E+02  0.00000000000E+00 0.  1.
</event>
<event>
 7    1  0.6888820E-006  0.2580935E+03  0.7818608E-02  0.1130633E+00
          2   -1    0    0  502    0  0.00000000000E+00  0.00000000000E+00  0.15679873589E+04  0.15679873589E+04  0.00000000000E+00 0. -1.
          1   -1    0    0  501    0 -0.00000000000E+00 -0.00000000000E+00 -0.16382980426E+03  0.16382980426E+03  0.00000000000E+00 0. -1.
         25    2    1    2    0    0 -0.21095704273E+03 -0.81569758592E+02  0.14862433771E+02  0.25884882368E+03  0.12500128875E+03 0.  0.
          2    1    1    2  501    0 -0.37287236167E+02  0.19153729403E+03  0.37210438306E+03  0.42016490201E+03  0.00000000000E+00 0. -1.
          1    1    1    2  502    0  0.24824427890E+03 -0.10996753544E+03  0.10171907378E+04  0.10528034374E+04  0.00000000000E+00 0. -1.
         22    1    3    3    0    0  0.11019415037E+00 -0.39842916046E+02 -0.12976423133E+02  0.41902955255E+02  0.00000000000E+00 0.  1.
         22    1    3    3    0    0 -0.21106723688E+03 -0.41726842546E+02  0.27838856905E+02  0.21694586843E+03  0.00000000000E+00 0.  1.
</event>
<event>
 7    1  0.6888820E-006  0.1100034E+03  0.7818608E-02  0.1392347E+00
          2   -1    0    0  502    0  0.00000000000E+00  0.00000000000E+00  0.20744276361E+03  0.20744276361E+03  0.00000000000E+00 0. -1.
          1   -1    0    0  501    0 -0.00000000000E+00 -0.00000000000E+00 -0.11034289929E+04  0.11034289929E+04  0.00000000000E+00 0. -1.
         25    2    1    2    0    0 -0.94113639271E+02 -0.48704588773E+02 -0.18794975638E+03  0.24935648567E+03  0.12499612778E+03 0.  0.
          2    1    1    2  501    0  0.78067559874E+02  0.78894860687E+02 -0.87960166680E+03  0.88657658168E+03  0.00000000000E+00 0. -1.
          1    1    1    2  502    0  0.16046079397E+02 -0.30190271915E+02  0.17156519393E+03  0.17493868912E+03  0.00000000000E+00 0. -1.
         22    1    3    3    0    0 -0.77945521375E+02  0.28696972317E+02 -0.78132817963E+02  0.11403402021E+03  0.00000000000E+00 0. -1.
         22    1    3    3    0    0 -0.16168117896E+02 -0.77401561090E+02 -0.10981693841E+03  0.13532246546E+03  0.00000000000E+00 0. -1.
</event>
<event>
 7    1  0.6888820E-006  0.2378167E+03  0.7818608E-02  0.1179230E+00
          2   -1    0    0  502    0  0.00000000000E+00  0.00000000000E+00  0.26087176453E+03  0.26087176453E+03  0.00000000000E+00 0. -1.
          1   -1    0    0  501    0 -0.00000000000E+00 -0.00000000000E+00 -0.22768216365E+04  0.22768216365E+04  0.00000000000E+00 0. -1.
         25    2    1    2    0    0  0.13140271098E+03  0.63114202621E+02  0.22763294076E+02  0.19337572299E+03  0.12500371058E+03 0.  0.
          2    1    1    2  501    0 -0.24336152651E+03 -0.20924752605E+02 -0.21601071932E+04  0.21738734471E+04  0.00000000000E+00 0. -1.
          1    1    1    2  502    0  0.11195881553E+03 -0.42189450016E+02  0.12139402710E+03  0.17044423101E+03  0.00000000000E+00 0. -1.
         22    1    3    3    0    0  0.10834230549E+03  0.10020122512E+03  0.10172181114E+02  0.14792502812E+03  0.00000000000E+00 0. -1.
         22    1    3    3    0    0  0.23060405492E+02 -0.37087022497E+02  0.12591112962E+02  0.45450694877E+02  0.00000000000E+00 0. -1.
</event>
<event>
 7    1  0.6888820E-006  0.1656288E+03  0.7818608E-02  0.1252359E+00
          2   -1    0    0  502    0  0.00000000000E+00  0.00000000000E+00  0.98462533364E+03  0.98462533364E+03  0.00000000000E+00 0. -1.
          1   -1    0    0  501    0 -0.00000000000E+00 -0.00000000000E+00 -0.67939485102E+03  0.67939485102E+03  0.00000000000E+00 0. -1.
         25    2    1    2    0    0 -0.22685487707E+02  0.10046663429E+03 -0.41968644495E+02  0.16729339300E+03  0.12497014149E+03 0.  0.
          2    1    1    2  501    0  0.63528651532E+02 -0.16835956588E+03 -0.55890820448E+03  0.58716199981E+03  0.00000000000E+00 0. -1.
          1    1    1    2  502    0 -0.40843163826E+02  0.67892931592E+02  0.90610733160E+03  0.90956479185E+03  0.00000000000E+00 0. -1.
         22    1    3    3    0    0  0.11770594309E+02  0.11739994530E+03 -0.49872795716E+02  0.12809601789E+03  0.00000000000E+00 0.  1.
         22    1    3    3    0    0 -0.34456082016E+02 -0.16933311004E+02  0.79041512203E+01  0.39197375116E+02  0.00000000000E+00 0.  1.
</event>
<event>
 7    1  0.6888820E-006  0.1805667E+03  0.7818608E-02  0.1273178E+00
          2   -1    0    0  502    0  0.00000000000E+00  0.00000000000E+00  0.20560751170E+03  0.20560751170E+03  0.00000000000E+00 0. -1.
          1   -1    0    0  501    0 -0.00000000000E+00 -0.00000000000E+00 -0.16518030796E+04  0.16518030796E+04  0.00000000000E+00 0. -1.
         25    2    1    2    0    0 -0.13222666499E+03 -0.96430923691E+02 -0.63765953538E+03  0.67008825640E+03  0.12500309723E+03 0.  0.
          2    1    1    2  501    0  0.27322809799E+02 -0.52611678359E+02 -0.95294513092E+03  0.95478738323E+03  0.00000000000E+00 0. -1.
          1    1    1    2  502    0  0.10490385519E+03  0.14904260205E+03  0.14440909839E+03  0.23253495169E+03  0.00000000000E+00 0. -1.
         22    1    3    3    0    0  0.80319122874E+01  0.21057325291E+02 -0.84573608575E+02  0.87524955475E+02  0.00000000000E+00 0.  1.
         22    1    3    3    0    0 -0.14025857727E+03 -0.11748824898E+03 -0.55308592681E+03  0.58256330092E+03  0.00000000000E+00 0.  1.
</event>
<event>
 7    1  0.6888820E-006  0.1478167E+03  0.7818608E-02  0.1220581E+00
          2   -1    0    0  502    0  0.00000000000E+00  0.00000000000E+00  0.45004252901E+03  0.45004252901E+03  0.00000000000E+00 0. -1.
          1   -1    0    0  501    0 -0.00000000000E+00 -0.00000000000E+00 -0.85699825721E+03  0.85699825721E+03  0.00000000000E+00 0. -1.
         25    2    1    2    0    0 -0.12513888096E+02 -0.16069947637E+03  0.37678998313E+02  0.20742662507E+03  0.12500071508E+03 0.  0.
          2    1    1    2  501    0 -0.10575553391E+03  0.62470005591E+02 -0.74879708998E+03  0.75880420170E+03  0.00000000000E+00 0. -1.
          1    1    1    2  502    0  0.11826942201E+03  0.98229470784E+02  0.30416236346E+03  0.34080995945E+03  0.00000000000E+00 0. -1.
         22    1    3    3    0    0 -0.15473962396E+01 -0.27954158260E+02  0.65608533425E+02  0.71332384352E+02  0.00000000000E+00 0. -1.
         22    1    3    3    0    0 -0.10966491856E+02 -0.13274531811E+03 -0.27929535111E+02  0.13609424072E+03  0.00000000000E+00 0. -1.
</event>
<event>
 7    1  0.6888820E-006  0.1034725E+03  0.7818608E-02  0.1392533E+00
          2   -1    0    0  502    0  0.00000000000E+00  0.00000000000E+00  0.26474017101E+04  0.26474017101E+04  0.00000000000E+00 0. -1.
          1   -1    0    0  501    0 -0.00000000000E+00 -0.00000000000E+00 -0.11655959380E+04  0.11655959380E+04  0.00000000000E+00 0. -1.
         25    2    1    2    0    0 -0.11676744424E+03  0.66826588850E+02  0.83686056560E+03  0.85677337480E+03  0.12499832204E+03 0.  0.
          2    1    1    2  501    0  0.96703700411E+02 -0.36583409819E+02 -0.11531434842E+04  0.11577693409E+04  0.00000000000E+00 0. -1.
          1    1    1    2  502    0  0.20063743824E+02 -0.30243179031E+02  0.17980886907E+04  0.17984549323E+04  0.00000000000E+00 0. -1.
         22    1    3    3    0    0 -0.35314506322E+01  0.56244897369E+02  0.45081919233E+03  0.45432796942E+03  0.00000000000E+00 0. -1.
         22    1    3    3    0    0 -0.11323599360E+03  0.10581691481E+02  0.38604137326E+03  0.40244540538E+03  0.00000000000E+00 0. -1.
</event>
<event>
 7    1  0.6888820E-006  0.8457520E+02  0.7818608E-02  0.1319303E+00
          2   -1    0    0  502    0  0.00000000000E+00  0.00000000000E+00  0.89415463226E+03  0.89415463226E+03  0.00000000000E+00 0. -1.
          1   -1    0    0  501    0 -0.00000000000E+00 -0.00000000000E+00 -0.43563163772E+03  0.43563163772E+03  0.00000000000E+00 0. -1.
         25    2    1    2    0    0  0.69453136949E+02  0.60716901599E+02  0.32124164313E+03  0.35683505373E+03  0.12499912766E+03 0.  0.
          2    1    1    2  501    0 -0.77414469426E+02  0.28551352525E+02 -0.41008127496E+03  0.41829993053E+03  0.00000000000E+00 0. -1.
          1    1    1    2  502    0  0.79613324772E+01 -0.89268254124E+02  0.54736262637E+03  0.55465128573E+03  0.00000000000E+00 0. -1.
         22    1    3    3    0    0  0.46163313657E+02  0.58870033536E+01  0.28127535481E+03  0.28509916444E+03  0.00000000000E+00 0.  1.
         22    1    3    3    0    0  0.23289823292E+02  0.54829898245E+02  0.39966288317E+02  0.71735889291E+02  0.00000000000E+00 0.  1.
</event>
<event>
 7    1  0.6888820E-006  0.5008708E+02  0.7818608E-02  0.1543402E+00
          2   -1    0    0  502    0  0.00000000000E+00  0.00000000000E+00  0.35183390851E+03  0.35183390851E+03  0.00000000000E+00 0. -1.
          1   -1    0    0  501    0 -0.00000000000E+00 -0.00000000000E+00 -0.69619025740E+02  0.69619025740E+02  0.00000000000E+00 0. -1.
         25    2    1    2    0    0 -0.27460635259E+02 -0.49618951181E+02  0.31774117329E+03  0.34612211551E+03  0.12499975535E+03 0.  0.
          2    1    1    2  501    0  0.23067312531E+02  0.10373081942E+02 -0.22196101581E+02  0.33650685904E+02  0.00000000000E+00 0. -1.
          1    1    1    2  502    0  0.43933227279E+01  0.39245869239E+02 -0.13330188930E+02  0.41680132843E+02  0.00000000000E+00 0. -1.
         22    1    3    3    0    0  0.21532810375E+02  0.29044372280E+02  0.43045398061E+02  0.56215156124E+02  0.00000000000E+00 0. -1.
         22    1    3    3    0    0 -0.48993445634E+02 -0.78663323461E+02  0.27469577522E+03  0.28990695938E+03  0.00000000000E+00 0. -1.
</event>
<event>
 7    1  0.6888820E-006  0.1283484E+03  0.7818608E-02  0.1254061E+00
          2   -1    0    0  502    0  0.00000000000E+00  0.00000000000E+00  0.67449159399E+03  0.67449159399E+03  0.00000000000E+00 0. -1.
          1   -1    0    0  501    0 -0.00000000000E+00 -0.00000000000E+00 -0.33543053263E+03  0.33543053263E+03  0.00000000000E+00 0. -1.
         25    2    1    2    0    0 -0.76302791234E+02  0.10569031474E+03 -0.11022714957E+03  0.21158290737E+03  0.12499897443E+03 0.  0.
          2    1    1    2  501    0 -0.52072121284E+02 -0.85992683794E+02 -0.15252288720E+03  0.18267314690E+03  0.00000000000E+00 0. -1.
          1    1    1    2  502    0  0.12837491252E+03 -0.19697630944E+02  0.60181109812E+03  0.61566607236E+03  0.00000000000E+00 0. -1.
         22    1    3    3    0    0 -0.16926866479E+02  0.99007547581E+02 -0.18533876647E+02  0.10213969782E+03  0.00000000000E+00 0. -1.
         22    1    3    3    0    0 -0.59375924755E+02  0.66827671561E+01 -0.91693272920E+02  0.10944320955E+03  0.00000000000E+00 0. -1.
</event>
<event>
 7    1  0.6888820E-006  0.7414213E+02  0.7818608E-02  0.1364367E+00
          2   -1    0    0  502    0  0.00000000000E+00  0.00000000000E+00  0.10867865055E+04  0.10867865055E+04  0.00000000000E+00 0. -1.
          1   -1    0    0  501    0 -0.00000000000E+00 -0.00000000000E+00 -0.28137367253E+03  0.28137367253E+03  0.00000000000E+00 0. -1.
         25    2    1    2    0    0 -0.67941288473E+02 -0.65844819657E+02 -0.23068534753E+02  0.15846687690E+03  0.12501213871E+03 0.  0.
          2    1    1    2  501    0  0.74260609938E+02  0.23932342386E+01 -0.18232240802E+03  0.19688023320E+03  0.00000000000E+00 0. -1.
          1    1    1    2  502    0 -0.63193214651E+01  0.63451585419E+02  0.10108037758E+04  0.10128130680E+04  0.00000000000E+00 0. -1.
         22    1    3    3    0    0 -0.52528786203E+02 -0.11537731499E+02 -0.67729326527E+02  0.86484994652E+02  0.00000000000E+00 0. -1.
         22    1    3    3    0    0 -0.15412502270E+02 -0.54307088158E+02  0.44660791774E+02  0.71981882250E+02  0.00000000000E+00 0. -1.
</event>
<event>
 7    1  0.6888820E-006  0.6963944E+02  0.7818608E-02  0.1435501E+00
          2   -1    0    0  502    0  0.00000000000E+00  0.00000000000E+00  0.34281242296E+03  0.34281242296E+03  0.00000000000E+00 0. -1.
          1   -1    0    0  501    0 -0.00000000000E+00 -0.00000000000E+00 -0.53918439928E+03  0.53918439928E+03  0.00000000000E+00 0. -1.
         25    2    1    2    0    0  0.11523554042E+02 -0.10655115921E+03  0.16180527258E+02  0.16544633305E+03  0.12499895132E+03 0.  0.
          2    1    1    2  501    0 -0.90111360710E+01  0.67995989414E+02 -0.46051543911E+03  0.46559545188E+03  0.00000000000E+00 0. -1.
          1    1    1    2  502    0 -0.25124179709E+01  0.38555169793E+02  0.24796293553E+03  0.25095503732E+03  0.00000000000E+00 0. -1.
         22    1    3    3    0    0  0.52381270627E+02 -0.38030725162E+01 -0.53674619616E+01  0.52792712764E+02  0.00000000000E+00 0. -1.
         22    1    3    3    0    0 -0.40857716585E+02 -0.10274808669E+03  0.21547989220E+02  0.11265362028E+03  0.00000000000E+00 0. -1.
</event>
<event>
 7    1  0.6888820E-006  0.5645091E+02  0.7818608E-02  0.1445445E+00
          2   -1    0    0  502    0  0.00000000000E+00  0.00000000000E+00  0.47759818849E+02  0.47759818849E+02  0.00000000000E+00 0. -1.
          1   -1    0    0  501    0 -0.00000000000E+00 -0.00000000000E+00 -0.47351866106E+03  0.47351866106E+03  0.00000000000E+00 0. -1.
         25    2    1    2    0    0 -0.31377988814E+02  0.26528405968E+02 -0.13137376534E+03  0.18593626475E+03  0.12499957530E+03 0.  0.
          2    1    1    2  501    0  0.19833196921E+01 -0.59607445198E+02 -0.28358826669E+03  0.28979179782E+03  0.00000000000E+00 0. -1.
          1    1    1    2  502    0  0.29394669122E+02  0.33079039230E+02 -0.10796810178E+02  0.45550417333E+02  0.00000000000E+00 0. -1.
         22    1    3    3    0    0 -0.55096588885E+02  0.59937450568E+02 -0.51975908799E+02  0.96589995253E+02  0.00000000000E+00 0. -1.
         22    1    3    3    0    0  0.23718600071E+02 -0.33409044600E+02 -0.79397856541E+02  0.89346269500E+02  0.00000000000E+00 0. -1.
</event>
<event>
 7    1  0.6888820E-006  0.7198016E+02  0.7818608E-02  0.1369488E+00
          2   -1    0    0  502    0  0.00000000000E+00  0.00000000000E+00  0.33237472835E+03  0.33237472835E+03  0.00000000000E+00 0. -1.
          1   -1    0    0  501    0 -0.00000000000E+00 -0.00000000000E+00 -0.96769517322E+02  0.96769517322E+02  0.00000000000E+00 0. -1.
         25    2    1    2    0    0 -0.62115013276E+01  0.26681487798E+02  0.70705033066E+02  0.14620216499E+03  0.12500154722E+03 0.  0.
          2    1    1    2  501    0  0.51725965563E+02 -0.70157468527E+02 -0.18444169765E+02  0.89094518922E+02  0.00000000000E+00 0. -1.
          1    1    1    2  502    0 -0.45514464236E+02  0.43475980729E+02  0.18334434772E+03  0.19384756175E+03  0.00000000000E+00 0. -1.
         22    1    3    3    0    0  0.47590620539E+01 -0.62962084245E+01  0.10026600597E+03  0.10057615456E+03  0.00000000000E+00 0.  1.
         22    1    3    3    0    0 -0.10970563382E+02  0.32977696223E+02 -0.29560972907E+02  0.45626010435E+02  0.00000000000E+00 0.  1.
</event>
<event>
 7    1  0.7163951E-006  0.1008654E+03  0.7818608E-02  0.1311584E+00
          2   -1    0    0  502    0  0.00000000000E+00  0.00000000000E+00  0.22633787352E+04  0.22633787352E+04  0.00000000000E+00 0. -1.
          1   -1    0    0  501    0 -0.00000000000E+00 -0.00000000000E+00 -0.60691234631E+03  0.60691234631E+03  0.00000000000E+00 0. -1.
         25    2    1    2    0    0  0.73630645871E+02 -0.14069920282E+03 -0.15477891719E+03  0.25455791189E+03  0.12500191844E+03 0.  0.
          2    1    1    2  501    0 -0.67642708232E+02  0.66779942488E+02 -0.39599702689E+03  0.40724530936E+03  0.00000000000E+00 0. -1.
          1    1    1    2  502    0 -0.59879376386E+01  0.73919260331E+02  0.22072423329E+04  0.22084878602E+04  0.00000000000E+00 0. -1.
         22    1    3    3    0    0  0.71529476879E+02 -0.10547642689E+03 -0.17297770808E+03  0.21485583582E+03  0.00000000000E+00 0.  1.
         22    1    3    3    0    0  0.21011689915E+01 -0.35222775926E+02  0.18198790883E+02  0.39702076076E+02  0.00000000000E+00 0.  1.
</event>
<event>
 7    1  0.6888820E-006  0.9002774E+02  0.7818608E-02  0.1375822E+00
          2   -1    0    0  502    0  0.00000000000E+00  0.00000000000E+00  0.20767918858E+04  0.20767918858E+04  0.00000000000E+00 0. -1.
          1   -1    0    0  501    0 -0.00000000000E+00 -0.00000000000E+00 -0.42384773537E+03  0.42384773537E+03  0.00000000000E+00 0. -1.
         25    2    1    2    0    0 -0.52484304459E+02 -0.46780097339E+02 -0.71892670865E+02  0.16042603776E+03  0.12499991098E+03 0.  0.
          2    1    1    2  501    0  0.92346482675E+02  0.20467104178E+02 -0.30013075840E+03  0.31468277257E+03  0.00000000000E+00 0. -1.
          1    1    1    2  502    0 -0.39862178216E+02  0.26312993161E+02  0.20249675797E+04  0.20255308109E+04  0.00000000000E+00 0. -1.
         22    1    3    3    0    0  0.21514342152E+02 -0.61245332344E+02 -0.49923317068E+02  0.81891362421E+02  0.00000000000E+00 0.  1.
         22    1    3    3    0    0 -0.73998646611E+02  0.14465235005E+02 -0.21969353797E+02  0.78534675337E+02  0.00000000000E+00 0.  1.
</event>
<event>
 7    1  0.6888820E-006  0.2047158E+03  0.7818608E-02  0.1215618E+00
          2   -1    0    0  502    0  0.00000000000E+00  0.00000000000E+00  0.47315691502E+03  0.47315691502E+03  0.00000000000E+00 0. -1.
          1   -1    0    0  501    0 -0.00000000000E+00 -0.00000000000E+00 -0.71164190622E+03  0.71164190622E+03  0.00000000000E+00 0. -1.
         25    2    1    2    0    0  0.14803574180E+03  0.13245499204E+03  0.12252218980E+03  0.26475568056E+03  0.12499991052E+03 0.  0.
          2    1    1    2  501    0  0.59304102914E+02 -0.72219538298E+02 -0.59462946754E+03  0.60192760528E+03  0.00000000000E+00 0. -1.
          1    1    1    2  502    0 -0.20733984471E+03 -0.60235453738E+02  0.23362228654E+03  0.31811553540E+03  0.00000000000E+00 0. -1.
         22    1    3    3    0    0 -0.22296169875E+02  0.13841728224E+02  0.67842207991E+01  0.27106056209E+02  0.00000000000E+00 0.  1.
         22    1    3    3    0    0  0.17033191167E+03  0.11861326381E+03  0.11573796900E+03  0.23764962435E+03  0.00000000000E+00 0.  1.
</event>
<event>
 7    1  0.6888820E-006  0.5713836E+02  0.7818608E-02  0.1421580E+00
          2   -1    0    0  502    0  0.00000000000E+00  0.00000000000E+00  0.16370813351E+02  0.16370813351E+02  0.00000000000E+00 0. -1.
          1   -1    0    0  501    0 -0.00000000000E+00 -0.00000000000E+00 -0.37934301567E+04  0.37934301567E+04  0.00000000000E+00 0. -1.
         25    2    1    2    0    0 -0.21733531422E+02  0.32471635866E+01 -0.47492779898E+03  0.49159290403E+03  0.12499711430E+03 0.  0.
          2    1    1    2  501    0 -0.14874828548E+02 -0.55168212033E+02 -0.31802499747E+04  0.31807632250E+04  0.00000000000E+00 0. -1.
          1    1    1    2  502    0  0.36608359969E+02  0.51921048446E+02 -0.12188156968E+03  0.13744484100E+03  0.00000000000E+00 0. -1.
         22    1    3    3    0    0 -0.24301857946E+02 -0.58078985536E+02 -0.28962286929E+03  0.29638683385E+03  0.00000000000E+00 0.  1.
         22    1    3    3    0    0  0.25683265244E+01  0.61326149122E+02 -0.18530492969E+03  0.19520607018E+03  0.00000000000E+00 0.  1.
</event>
<event>
 7    1  0.6888820E-006  0.7460180E+02  0.7818608E-02  0.1411420E+00
          2   -1    0    0  502    0  0.00000000000E+00  0.00000000000E+00  0.85625288759E+03  0.85625288759E+03  0.00000000000E+00 0. -1.
          1   -1    0    0  501    0 -0.00000000000E+00 -0.00000000000E+00 -0.11374458646E+03  0.11374458646E+03  0.00000000000E+00 0. -1.
         25    2    1    2    0    0 -0.40288633621E+02  0.41480880041E+02  0.10791196149E+03  0.17496935293E+03  0.12500178248E+03 0.  0.
          2    1    1    2  501    0  0.27370276809E+02  0.33636522394E+02 -0.72152286335E+02  0.84181352536E+02  0.00000000000E+00 0. -1.
          1    1    1    2  502    0  0.12918356813E+02 -0.75117402435E+02  0.70674862597E+03  0.71084676859E+03  0.00000000000E+00 0. -1.
         22    1    3    3    0    0 -0.66541558611E+02  0.30253853739E+02  0.10976150656E+02  0.73915834377E+02  0.00000000000E+00 0. -1.
         22    1    3    3    0    0  0.26252924989E+02  0.11227026302E+02  0.96935810832E+02  0.10105351855E+03  0.00000000000E+00 0. -1.
</event>
<event>
 7    1  0.6888820E-006  0.9775168E+02  0.7818608E-02  0.1304481E+00
          2   -1    0    0  502    0  0.00000000000E+00  0.00000000000E+00  0.27730817877E+03  0.27730817877E+03  0.00000000000E+00 0. -1.
          1   -1    0    0  501    0 -0.00000000000E+00 -0.00000000000E+00 -0.10562388538E+04  0.10562388538E+04  0.00000000000E+00 0. -1.
         25    2    1    2    0    0 -0.52838217288E+02 -0.75591655035E+01 -0.16900115127E+03  0.21687528151E+03  0.12499792161E+03 0.  0.
          2    1    1    2  501    0  0.47484722334E+01 -0.81497036000E+02 -0.85116185197E+03  0.85506772429E+03  0.00000000000E+00 0. -1.
          1    1    1    2  502    0  0.48089745054E+02  0.89056201504E+02  0.24123232826E+03  0.26160402673E+03  0.00000000000E+00 0. -1.
         22    1    3    3    0    0 -0.75307367614E+02 -0.17517271039E+02 -0.42941592350E+02  0.88442267922E+02  0.00000000000E+00 0. -1.
         22    1    3    3    0    0  0.22469150327E+02  0.99581055357E+01 -0.12605955893E+03  0.12843301359E+03  0.00000000000E+00 0. -1.
</event>
<event>
 7    1  0.6888820E-006  0.6005914E+02  0.7818608E-02  0.1486504E+00
          2   -1    0    0  502    0  0.00000000000E+00  0.00000000000E+00  0.28153654273E+04  0.28153654273E+04  0.00000000000E+00 0. -1.
          1   -1    0    0  501    0 -0.00000000000E+00 -0.00000000000E+00 -0.15574401875E+03  0.15574401875E+03  0.00000000000E+00 0. -1.
         25    2    1    2    0    0  0.47375353228E+02 -0.25544288406E+02  0.92828429823E+02  0.16473623692E+03  0.12499590236E+03 0.  0.
          2    1    1    2  501    0  0.12754978828E+02  0.28191497120E+02 -0.11744893085E+03  0.12145658217E+03  0.00000000000E+00 0. -1.
          1    1    1    2  502    0 -0.60130332056E+02 -0.26472087142E+01  0.26842419096E+04  0.26849166270E+04  0.00000000000E+00 0. -1.
         22    1    3    3    0    0  0.12554349559E+02 -0.54665077742E+02 -0.55780414510E+01  0.56364855751E+02  0.00000000000E+00 0.  1.
         22    1    3    3    0    0  0.34821003669E+02  0.29120789336E+02  0.98406471274E+02  0.10837138117E+03  0.00000000000E+00 0.  1.
</event>
<event>
 7    1  0.6888820E-006  0.9557067E+02  0.7818608E-02  0.1347277E+00
          2   -1    0    0  502    0  0.00000000000E+00  0.00000000000E+00  0.26782514206E+03  0.26782514206E+03  0.00000000000E+00 0. -1.
          1   -1    0    0  501    0 -0.00000000000E+00 -0.00000000000E+00 -0.13926561877E+04  0.13926561877E+04  0.00000000000E+00 0. -1.
         25    2    1    2    0    0 -0.62855081848E+02 -0.53725398587E+02 -0.66600117443E+03  0.68265774048E+03  0.12500738593E+03 0.  0.
          2    1    1    2  501    0  0.31353451712E+02  0.10142143273E+03 -0.71119090293E+03  0.71907012618E+03  0.00000000000E+00 0. -1.
          1    1    1    2  502    0  0.31501630136E+02 -0.47696034143E+02  0.25236103168E+03  0.25875346314E+03  0.00000000000E+00 0. -1.
         22    1    3    3    0    0 -0.62976391098E+02 -0.78803453763E+02 -0.31492082408E+03  0.33068283233E+03  0.00000000000E+00 0.  1.
         22    1    3    3    0    0  0.12130924955E+00  0.25078055176E+02 -0.35108035035E+03  0.35197490815E+03  0.00000000000E+00 0.  1.
</event>
<event>
 7    1  0.6888820E-006  0.9824555E+02  0.7818608E-02  0.1326372E+00
          2   -1    0    0  502    0  0.00000000000E+00  0.00000000000E+00  0.65344482265E+03  0.65344482265E+03  0.00000000000E+00 0. -1.
          1   -1    0    0  501    0 -0.00000000000E+00 -0.00000000000E+00 -0.36373195943E+03  0.36373195943E+03  0.00000000000E+00 0. -1.
         25    2    1    2    0    0 -0.28138233855E+02  0.14857914005E+03 -0.74417058163E+01  0.19630527822E+03  0.12495143939E+03 0.  0.
          2    1    1    2  501    0  0.40479895003E+02 -0.53014647579E+02 -0.25335712198E+03  0.26199046932E+03  0.00000000000E+00 0. -1.
          1    1    1    2  502    0 -0.12341661148E+02 -0.95564492475E+02  0.55051169102E+03  0.55888103454E+03  0.00000000000E+00 0. -1.
         22    1    3    3    0    0 -0.43801247543E+02  0.31651712722E+01  0.18702052705E+02  0.47731900977E+02  0.00000000000E+00 0. -1.
         22    1    3    3    0    0  0.15663013688E+02  0.14541396878E+03 -0.26143758522E+02  0.14857337724E+03  0.00000000000E+00 0. -1.
</event>
<event>
 7    1  0.6888820E-006  0.5306244E+02  0.7818608E-02  0.1534474E+00
          2   -1    0    0  502    0  0.00000000000E+00  0.00000000000E+00  0.19547337019E+04  0.19547337019E+04  0.00000000000E+00 0. -1.
          1   -1    0    0  501    0 -0.00000000000E+00 -0.00000000000E+00 -0.60416601433E+02  0.60416601433E+02  0.00000000000E+00 0. -1.
         25    2    1    2    0    0 -0.55053356251E+02  0.51202760201E+02  0.36941425578E+03  0.39717074728E+03  0.12500046174E+03 0.  0.
          2    1    1    2  501    0  0.23509344051E+02 -0.93615389059E+01 -0.42628124369E+02  0.49573023466E+02  0.00000000000E+00 0. -1.
          1    1    1    2  502    0  0.31544012200E+02 -0.41841221295E+02  0.15675309690E+04  0.15684065326E+04  0.00000000000E+00 0. -1.
         22    1    3    3    0    0 -0.78018210090E+02  0.37986925484E+02  0.35792034253E+03  0.36828904302E+03  0.00000000000E+00 0. -1.
         22    1    3    3    0    0  0.22964853839E+02  0.13215834717E+02  0.11493913248E+02  0.28881704258E+02  0.00000000000E+00 0. -1.
</event>
<event>
 7    1  0.6888820E-006  0.5042523E+02  0.7818608E-02  0.1460681E+00
          2   -1    0    0  502    0  0.00000000000E+00  0.00000000000E+00  0.13728958438E+04  0.13728958438E+04  0.00000000000E+00 0. -1.
          1   -1    0    0  501    0 -0.00000000000E+00 -0.00000000000E+00 -0.97886075032E+02  0.97886075032E+02  0.00000000000E+00 0. -1.
         25    2    1    2    0    0 -0.11583348781E+02  0.43212401058E+02  0.57562902396E+03  0.59074024597E+03  0.12499511752E+03 0.  0.
          2    1    1    2  501    0  0.47628626059E+02 -0.17456078636E+02 -0.82532041711E+02  0.96874860571E+02  0.00000000000E+00 0. -1.
          1    1    1    2  502    0 -0.36045277278E+02 -0.25756322422E+02  0.78191278651E+03  0.78316681229E+03  0.00000000000E+00 0. -1.
         22    1    3    3    0    0 -0.54495549186E+01  0.32705652011E+02  0.57748263057E+03  0.57843370055E+03  0.00000000000E+00 0. -1.
         22    1    3    3    0    0 -0.61337938628E+01  0.10506749047E+02 -0.18536066062E+01  0.12306545419E+02  0.00000000000E+00 0. -1.
</event>
<event>
 7    1  0.6888820E-006  0.4304589E+02  0.7818608E-02  0.1557904E+00
          2   -1    0    0  502    0  0.00000000000E+00  0.00000000000E+00  0.12674445439E+04  0.12674445439E+04  0.00000000000E+00 0. -1.
          1   -1    0    0  501    0 -0.00000000000E+00 -0.00000000000E+00 -0.10821148432E+03  0.10821148432E+03  0.00000000000E+00 0. -1.
         25    2    1    2    0    0 -0.57817592600E+02 -0.20706700085E+02 -0.28849480330E+02  0.14222820798E+03  0.12499971674E+03 0.  0.
          2    1    1    2  501    0  0.25652873566E+02 -0.78060888167E+01 -0.14223877314E+02  0.30353313339E+02  0.00000000000E+00 0. -1.
          1    1    1    2  502    0  0.32164719035E+02  0.28512788902E+02  0.12023064172E+04  0.12030745069E+04  0.00000000000E+00 0. -1.
         22    1    3    3    0    0 -0.23272737323E+02 -0.72351346929E+02 -0.24870039932E+02  0.79967847234E+02  0.00000000000E+00 0.  1.
         22    1    3    3    0    0 -0.34544855277E+02  0.51644646844E+02 -0.39794403987E+01  0.62260360742E+02  0.00000000000E+00 0.  1.
</event>
<event>
 7    1  0.6888820E-006  0.1811357E+03  0.7818608E-02  0.1243755E+00
          2   -1    0    0  502    0  0.00000000000E+00  0.00000000000E+00  0.99732659291E+03  0.99732659291E+03  0.00000000000E+00 0. -1.
          1   -1    0    0  501    0 -0.00000000000E+00 -0.00000000000E+00 -0.92775220186E+03  0.92775220186E+03  0.00000000000E+00 0. -1.
         25    2    1    2    0    0 -0.19534895361E+03 -0.13676099418E+01 -0.32972333904E+03  0.40312194810E+03  0.12500696261E+03 0.  0.
          2    1    1    2  501    0  0.16530405134E+03 -0.71665943185E+02 -0.54518167473E+03  0.57418158736E+03  0.00000000000E+00 0. -1.
          1    1    1    2  502    0  0.30044902271E+02  0.73033553127E+02  0.94447940481E+03  0.94777525931E+03  0.00000000000E+00 0. -1.
         22    1    3    3    0    0 -0.49382539898E+02 -0.42117286674E+02 -0.40230849601E+02  0.76361131102E+02  0.00000000000E+00 0. -1.
         22    1    3    3    0    0 -0.14596641371E+03  0.40749676733E+02 -0.28949248944E+03  0.32676081700E+03  0.00000000000E+00 0. -1.
</event>
<event>
 7    1  0.6888820E-006  0.1276158E+03  0.7818608E-02  0.1235480E+00
          2   -1    0    0  502    0  0.00000000000E+00  0.00000000000E+00  0.93285509633E+03  0.93285509633E+03  0.00000000000E+00 0. -1.
          1   -1    0    0  501    0 -0.00000000000E+00 -0.00000000000E+00 -0.28273214094E+03  0.28273214094E+03  0.00000000000E+00 0. -1.
         25    2    1    2    0    0 -0.25235630126E+02  0.10654310138E+03  0.73018481669E+02  0.18150413671E+03  0.12499513390E+03 0.  0.
          2    1    1    2  501    0 -0.10049543771E+03 -0.78654107175E+02 -0.20498351904E+03  0.24146230483E+03  0.00000000000E+00 0. -1.
          1    1    1    2  502    0  0.12573106783E+03 -0.27888994203E+02  0.78208799276E+03  0.79262079574E+03  0.00000000000E+00 0. -1.
         22    1    3    3    0    0 -0.26317679927E+02  0.54251492677E+02 -0.28962542276E+02  0.66893001050E+02  0.00000000000E+00 0.  1.
         22    1    3    3    0    0  0.10820498007E+01  0.52291608701E+02  0.10198102394E+03  0.11461113566E+03  0.00000000000E+00 0.  1.
</event>
<event>
 7    1  0.6888820E-006  0.9904463E+02  0.7818608E-02  0.1336140E+00
          2   -1    0    0  502    0  0.00000000000E+00  0.00000000000E+00  0.16376429765E+04  0.16376429765E+04  0.00000000000E+00 0. -1.
          1   -1    0    0  501    0 -0.00000000000E+00 -0.00000000000E+00 -0.25643138360E+02  0.25643138360E+02  0.00000000000E+00 0. -1.
         25    2    1    2    0    0 -0.37389792815E+00  0.52217146895E+02  0.81728429508E+03  0.82843597059E+03  0.12500307263E+03 0.  0.
          2    1    1    2  501    0  0.33448535750E+02 -0.10314590822E+03  0.13882347731E+03  0.17615289035E+03  0.00000000000E+00 0. -1.
          1    1    1    2  502    0 -0.33074637822E+02  0.50928761324E+02  0.65589206571E+03  0.65869725387E+03  0.00000000000E+00 0. -1.
         22    1    3    3    0    0 -0.28797797483E+02 -0.47074633103E+00  0.65213808389E+03  0.65277378563E+03  0.00000000000E+00 0. -1.
         22    1    3    3    0    0  0.28423899555E+02  0.52687893226E+02  0.16514621119E+03  0.17566218497E+03  0.00000000000E+00 0. -1.
</event>
<event>
 7    1  0.1097198E-005  0.8340049E+02  0.7818608E-02  0.1336025E+00
          2   -1    0    0  502    0  0.00000000000E+00  0.00000000000E+00  0.18509574040E+04  0.18509574040E+04  0.00000000000E+00 0. -1.
          1   -1    0    0  501    0 -0.00000000000E+00 -0.00000000000E+00 -0.13565187228E+04  0.13565187228E+04  0.00000000000E+00 0. -1.
         25    2    1    2    0    0 -0.11276809342E+02 -0.99603137853E+01 -0.10954477656E+03  0.16688936108E+03  0.12500250594E+03 0.  0.
          2    1    1    2  501    0  0.58423553095E+02  0.64627649441E+02 -0.12160276768E+04  0.12191445178E+04  0.00000000000E+00 0. -1.
          1    1    1    2  502    0 -0.47146743753E+02 -0.54667335656E+02  0.18200111345E+04  0.18214422480E+04  0.00000000000E+00 0. -1.
         22    1    3    3    0    0 -0.23602989347E+02 -0.59983819618E+02 -0.92258659657E+02  0.11254696799E+03  0.00000000000E+00 0.  1.
         22    1    3    3    0    0  0.12326180005E+02  0.50023505832E+02 -0.17286116898E+02  0.54342393090E+02  0.00000000000E+00 0.  1.
</event>
<event>
 7    1  0.6888820E-006  0.1106926E+03  0.7818608E-02  0.1436953E+00
          2   -1    0    0  502    0  0.00000000000E+00  0.00000000000E+00  0.90552228230E+02  0.90552228230E+02  0.00000000000E+00 0. -1.
          1   -1    0    0  501    0 -0.00000000000E+00 -0.00000000000E+00 -0.15937321026E+04  0.15937321026E+04  0.00000000000E+00 0. -1.
         25    2    1    2    0    0 -0.98443573567E+02  0.83079390431E+02 -0.84443591647E+03  0.86330117817E+03  0.12499433955E+03 0.  0.
          2    1    1    2  501    0  0.23939868022E+02 -0.22311782790E+01 -0.70231184083E+03  0.70272328637E+03  0.00000000000E+00 0. -1.
          1    1    1    2  502    0  0.74503705545E+02 -0.80848212152E+02  0.43567882939E+02  0.11825986628E+03  0.00000000000E+00 0. -1.
         22    1    3    3    0    0  0.22750154829E+02  0.15621434294E+02 -0.30762934496E+03  0.30886471575E+03  0.00000000000E+00 0.  1.
         22    1    3    3    0    0 -0.12119372840E+03  0.67457956137E+02 -0.53680657151E+03  0.55443646242E+03  0.00000000000E+00 0.  1.
</event>
<event>
 7    1  0.6888820E-006  0.9393916E+02  0.7818608E-02  0.1445956E+00
          2   -1    0    0  502    0  0.00000000000E+00  0.00000000000E+00  0.25349122298E+04  0.25349122298E+04  0.00000000000E+00 0. -1.
          1   -1    0    0  501    0 -0.00000000000E+00 -0.00000000000E+00 -0.23121057251E+02  0.23121057251E+02  0.00000000000E+00 0. -1.
         25    2    1    2    0    0  0.86406648168E+02  0.86614226175E+01  0.35310422413E+03  0.38451185941E+03  0.12500259133E+03 0.  0.
          2    1    1    2  501    0 -0.10112890104E+03  0.13363231308E+02  0.34804665157E+03  0.36268733400E+03  0.00000000000E+00 0. -1.
          1    1    1    2  502    0  0.14722252875E+02 -0.22024653925E+02  0.18106402968E+04  0.18108340936E+04  0.00000000000E+00 0. -1.
         22    1    3    3    0    0 -0.67094496498E+00 -0.47165870896E+02  0.86147393194E+02  0.98216306684E+02  0.00000000000E+00 0. -1.
         22    1    3    3    0    0  0.87077593133E+02  0.55827293514E+02  0.26695683094E+03  0.28629555273E+03  0.00000000000E+00 0. -1.
</event>
<event>
 7    1  0.6888820E-006  0.7585680E+02  0.7818608E-02  0.1439313E+00
          2   -1    0    0  502    0  0.00000000000E+00  0.00000000000E+00  0.12967831781E+04  0.12967831781E+04  0.00000000000E+00 0. -1.
          1   -1    0    0  501    0 -0.00000000000E+00 -0.00000000000E+00 -0.14190326039E+03  0.14190326039E+03  0.00000000000E+00 0. -1.
         25    2    1    2    0    0  0.59889574614E+02 -0.91436515565E+02  0.12861195530E+03  0.21003294326E+03  0.12500161871E+03 0.  0.
          2    1    1    2  501    0 -0.18850806262E+02  0.28859119511E+02 -0.96975673776E+02  0.10291978906E+03  0.00000000000E+00 0. -1.
          1    1    1    2  502    0 -0.41038768352E+02  0.62577396054E+02  0.11232436362E+04  0.11257337062E+04  0.00000000000E+00 0. -1.
         22    1    3    3    0    0  0.69667622420E+02 -0.58554561984E+02  0.16115911844E+02  0.92422599819E+02  0.00000000000E+00 0.  1.
         22    1    3    3    0    0 -0.97780478059E+01 -0.32881953581E+02  0.11249604346E+03  0.11761034344E+03  0.00000000000E+00 0.  1.
</event>
<event>
 7    1  0.6888820E-006  0.9815077E+02  0.7818608E-02  0.1294081E+00
          2   -1    0    0  502    0  0.00000000000E+00  0.00000000000E+00  0.48240422161E+03  0.48240422161E+03  0.00000000000E+00 0. -1.
          1   -1    0    0  501    0 -0.00000000000E+00 -0.00000000000E+00 -0.15346013685E+03  0.15346013685E+03  0.00000000000E+00 0. -1.
         25    2    1    2    0    0 -0.68156997426E+02 -0.94662622671E+02  0.19733924935E+03  0.26110160000E+03  0.12499951104E+03 0.  0.
          2    1    1    2  501    0 -0.21291994123E+02  0.97471779512E+02 -0.90878047638E+02  0.13495523835E+03  0.00000000000E+00 0. -1.
          1    1    1    2  502    0  0.89448991549E+02 -0.28091568406E+01  0.22248288304E+03  0.23980752010E+03  0.00000000000E+00 0. -1.
         22    1    3    3    0    0 -0.16383310705E+02 -0.75371414973E+02  0.26510589885E+02  0.81560250372E+02  0.00000000000E+00 0.  1.
         22    1    3    3    0    0 -0.51773686721E+02 -0.19291207698E+02  0.17082865947E+03  0.17954134963E+03  0.00000000000E+00 0.  1.
</event>
<event>
 7    1  0.6888820E-006  0.2064253E+03  0.7818608E-02  0.1276828E+00
          2   -1    0    0  502    0  0.00000000000E+00  0.00000000000E+00  0.10349535212E+04  0.10349535212E+04  0.00000000000E+00 0. -1.
          1   -1    0    0  501    0 -0.00000000000E+00 -0.00000000000E+00 -0.14704547223E+04  0.14704547223E+04  0.00000000000E+00 0. -1.
         25    2    1    2    0    0  0.57448782875E+02 -0.20619263230E+03 -0.29964652144E+03  0.38888091819E+03  0.12499826580E+03 0.  0.
          2    1    1    2  501    0 -0.73783026277E+01  0.20571285930E+03 -0.11161405615E+04  0.11349634236E+04  0.00000000000E+00 0. -1.
          1    1    1    2  502    0 -0.50070480247E+02  0.47977300583E+00  0.98028588186E+03  0.98156390181E+03  0.00000000000E+00 0. -1.
         22    1    3    3    0    0  0.45352978373E+02 -0.22248560119E+03 -0.28147286150E+03  0.36164030078E+03  0.00000000000E+00 0.  1.
         22    1    3    3    0    0  0.12095804502E+02  0.16292968887E+02 -0.18173659940E+02  0.27240617418E+02  0.00000000000E+00 0.  1.
</event>
<event>
 7    1  0.6888820E-006  0.4574789E+02  0.7818608E-02  0.1514587E+00
          2   -1    0    0  502    0  0.00000000000E+00  0.00000000000E+00  0.80310477465E+03  0.80310477465E+03  0.00000000000E+00 0. -1.
          1   -1    0    0  501    0 -0.00000000000E+00 -0.00000000000E+00 -0.74094373990E+03  0.74094373990E+03  0.00000000000E+00 0. -1.
         25    2    1    2    0    0  0.36061472118E+02 -0.46689182878E+02  0.43194555828E+03  0.45352184602E+03  0.12499915974E+03 0.  0.
          2    1    1    2  501    0 -0.25791195425E+01  0.45670394049E+02 -0.72865840454E+03  0.73009280729E+03  0.00000000000E+00 0. -1.
          1    1    1    2  502    0 -0.33482352575E+02  0.10187888289E+01  0.35887388100E+03  0.36043386124E+03  0.00000000000E+00 0. -1.
         22    1    3    3    0    0  0.71034084485E+02 -0.55103952046E+02  0.20644897025E+03  0.22517429695E+03  0.00000000000E+00 0. -1.
         22    1    3    3    0    0 -0.34972612367E+02  0.84147691679E+01  0.22549658802E+03  0.22834754907E+03  0.00000000000E+00 0. -1.
</event>
<event>
 7    1  0.6888820E-006  0.7686857E+02  0.7818608E-02  0.1346522E+00
          2   -1    0    0  502    0  0.00000000000E+00  0.00000000000E+00  0.44519114583E+03  0.44519114583E+03  0.00000000000E+00 0. -1.
          1   -1    0    0  501    0 -0.00000000000E+00 -0.00000000000E+00 -0.16309212533E+04  0.16309212533E+04  0.00000000000E+00 0. -1.
         25    2    1    2    0    0 -0.89122613016E+02  0.87269688413E+02 -0.30156267212E+03  0.34946315619E+03  0.12500245458E+03 0.  0.
          2    1    1    2  501    0  0.73387752615E+02 -0.17493129285E+02 -0.13012713807E+04  0.13034565501E+04  0.00000000000E+00 0. -1.
          1    1    1    2  502    0  0.15734860401E+02 -0.69776559128E+02  0.41710394535E+03  0.42319269283E+03  0.00000000000E+00 0. -1.
         22    1    3    3    0    0 -0.35200967213E+02 -0.30112962044E+02 -0.63341621461E+02  0.78473304920E+02  0.00000000000E+00 0. -1.
         22    1    3    3    0    0 -0.53921645803E+02  0.11738265046E+03 -0.23822105066E+03  0.27098985127E+03  0.00000000000E+00 0. -1.
</event>
<event>
 7    1  0.6888820E-006  0.6795315E+02  0.7818608E-02  0.1391052E+00
          2   -1    0    0  502    0  0.00000000000E+00  0.00000000000E+00  0.18016749827E+03  0.18016749827E+03  0.00000000000E+00 0. -1.
          1   -1    0    0  501    0 -0.00000000000E+00 -0.00000000000E+00 -0.12635910639E+04  0.12635910639E+04  0.00000000000E+00 0. -1.
         25    2    1    2    0    0  0.40397935359E+02  0.91576664513E+02 -0.16428104414E+03  0.22941565597E+03  0.12500001231E+03 0.  0.
          2    1    1    2  501    0 -0.50021057547E+02 -0.25007251866E+02 -0.10583031687E+04  0.10597797251E+04  0.00000000000E+00 0. -1.
          1    1    1    2  502    0  0.96231221881E+01 -0.66569412647E+02  0.13916064728E+03  0.15456318104E+03  0.00000000000E+00 0. -1.
         22    1    3    3    0    0 -0.24081693201E+01 -0.39245567123E+01 -0.11260110987E+03  0.11269521449E+03  0.00000000000E+00 0. -1.
         22    1    3    3    0    0  0.42806104679E+02  0.95501221225E+02 -0.51679934271E+02  0.11672044148E+03  0.00000000000E+00 0. -1.
</event>
<event>
 7    1  0.6888820E-006  0.4000309E+02  0.7818608E-02  0.1512157E+00
          2   -1    0    0  502    0  0.00000000000E+00  0.00000000000E+00  0.43111870208E+02  0.43111870208E+02  0.00000000000E+00 0. -1.
          1   -1    0    0  501    0 -0.00000000000E+00 -0.00000000000E+00 -0.68271026197E+03  0.68271026197E+03  0.00000000000E+00 0. -1.
         25    2    1    2    0    0 -0.10561056154E+02  0.64986439867E+02 -0.24348435693E+03  0.28150256257E+03  0.12499714953E+03 0.  0.
          2    1    1    2  501    0 -0.15281486655E+02 -0.35818127895E+02 -0.40288801431E+03  0.40476562872E+03  0.00000000000E+00 0. -1.
          1    1    1    2  502    0  0.25842542809E+02 -0.29168311972E+02  0.67739794730E+01  0.39553940892E+02  0.00000000000E+00 0. -1.
         22    1    3    3    0    0  0.44120074117E+02  0.12914197118E+02 -0.29588973145E+02  0.54670510873E+02  0.00000000000E+00 0.  1.
         22    1    3    3    0    0 -0.54681130271E+02  0.52072242749E+02 -0.21389538378E+03  0.22683205170E+03  0.00000000000E+00 0.  1.
</event>
<event>
 7    1  0.6888820E-006  0.1575171E+03  0.7818608E-02  0.1354324E+00
          2   -1    0    0  502    0  0.00000000000E+00  0.00000000000E+00  0.26312701432E+03  0.26312701432E+03  0.00000000000E+00 0. -1.
          1   -1    0    0  501    0 -0.00000000000E+00 -0.00000000000E+00 -0.63311856811E+03  0.63311856811E+03  0.00000000000E+00 0. -1.
         25    2    1    2    0    0  0.12408770005E+03  0.11075907990E+03  0.32099113399E+02  0.21052554425E+03  0.12500128245E+03 0.  0.
          2    1    1    2  501    0 -0.13504408858E+03 -0.79992152927E+02 -0.53049494290E+03  0.55322738077E+03  0.00000000000E+00 0. -1.
          1    1    1    2  502    0  0.10956388529E+02 -0.30766926976E+02  0.12840427571E+03  0.13249265741E+03  0.00000000000E+00 0. -1.
         22    1    3    3    0    0  0.38846870612E+02  0.28011308670E+02 -0.47556608365E+02  0.67493286844E+02  0.00000000000E+00 0.  1.
         22    1    3    3    0    0  0.85240829440E+02  0.82747771233E+02  0.79655721764E+02  0.14303225740E+03  0.00000000000E+00 0.  1.
</event>
<event>
 7    1  0.6888820E-006  0.3940730E+02  0.7818608E-02  0.1517769E+00
          2   -1    0    0  502    0  0.00000000000E+00  0.00000000000E+00  0.14390327863E+04  0.14390327863E+04  0.00000000000E+00 0. -1.
          1   -1    0    0  501    0 -0.00000000000E+00 -0.00000000000E+00 -0.24330319696E+03  0.24330319696E+03  0.00000000000E+00 0. -1.
         25    2    1    2    0    0 -0.11147365987E+02 -0.30553885450E+02 -0.65684236352E+02  0.14490187355E+03  0.12499732145E+03 0.  0.
          2    1    1    2  501    0  0.39638386691E+02  0.33289549033E+01 -0.13486011713E+03  0.14060417786E+03  0.00000000000E+00 0. -1.
          1    1    1    2  502    0 -0.28491020704E+02  0.27224930547E+02  0.13962739428E+04  0.13968299318E+04  0.00000000000E+00 0. -1.
         22    1    3    3    0    0  0.49575562530E+02 -0.37184711308E+02 -0.11047797571E+02  0.62948335851E+02  0.00000000000E+00 0.  1.
         22    1    3    3    0    0 -0.60722928517E+02  0.66308258579E+01 -0.54636438782E+02  0.81953537703E+02  0.00000000000E+00 0.  1.
</event>
<event>
 7    1  0.6888820E-006  0.5427980E+02  0.7818608E-02  0.1442581E+00
          2   -1    0    0  502    0  0.00000000000E+00  0.00000000000E+00  0.21865505713E+04  0.21865505713E+04  0.00000000000E+00 0. -1.
          1   -1    0    0  501    0 -0.00000000000E+00 -0.00000000000E+00 -0.30871400649E+02  0.30871400649E+02  0.00000000000E+00 0. -1.
         25    2    1    2    0    0 -0.68905326571E+02 -0.59202167086E+02  0.35641127797E+03  0.38846804787E+03  0.12500233811E+03 0.  0.
          2    1    1    2  501    0  0.17699147289E+02  0.43553285505E+02  0.23826494966E+02  0.52705316197E+02  0.00000000000E+00 0. -1.
          1    1    1    2  502    0  0.51206179282E+02  0.15648881580E+02  0.17754413977E+04  0.17762486079E+04  0.00000000000E+00 0. -1.
         22    1    3    3    0    0  0.27043245702E+02  0.23756283029E+01  0.21336310058E+02  0.34528522627E+02  0.00000000000E+00 0.  1.
         22    1    3    3    0    0 -0.95948572273E+02 -0.61577795389E+02  0.33507496791E+03  0.35393952524E+03  0.00000000000E+00 0.  1.
</event>
<event>
 7    1  0.6888820E-006  0.6685226E+02  0.7818608E-02  0.1463484E+00
          2   -1    0    0  502    0  0.00000000000E+00  0.00000000000E+00  0.47151324813E+03  0.47151324813E+03  0.00000000000E+00 0. -1.
          1   -1    0    0  501    0 -0.00000000000E+00 -0.00000000000E+00 -0.74793075478E+02  0.74793075478E+02  0.00000000000E+00 0. -1.
         25    2    1    2    0    0  0.30530960747E+02 -0.92526732389E+02  0.28998660253E+03  0.33047011424E+03  0.12499972394E+03 0.  0.
          2    1    1    2  501    0 -0.23096909201E+02  0.60637588426E+02 -0.32663527821E+02  0.72644961246E+02  0.00000000000E+00 0. -1.
          1    1    1    2  502    0 -0.74340515462E+01  0.31889143963E+02  0.13939709794E+03  0.14319124812E+03  0.00000000000E+00 0. -1.
         22    1    3    3    0    0  0.36099494338E+02 -0.73020908743E+01  0.21082927041E+03  0.21402213737E+03  0.00000000000E+00 0.  1.
         22    1    3    3    0    0 -0.55685335909E+01 -0.85224641514E+02  0.79157332120E+02  0.11644797686E+03  0.00000000000E+00 0.  1.
</event>
<event>
 7    1  0.6888820E-006  0.1033280E+03  0.7818608E-02  0.1411591E+00
          2   -1    0    0  502    0  0.00000000000E+00  0.00000000000E+00  0.15945383025E+04  0.15945383025E+04  0.00000000000E+00 0. -1.
          1   -1    0    0  501    0 -0.00000000000E+00 -0.00000000000E+00 -0.12340614588E+03  0.12340614588E+03  0.00000000000E+00 0. -1.
         25    2    1    2    0    0  0.11109735062E+03 -0.16007745193E+02  0.11070175410E+03  0.20119543813E+03  0.12500342692E+03 0.  0.
          2    1    1    2  501    0 -0.17012231968E+02 -0.26234626641E+02 -0.73103670570E+02  0.79509863051E+02  0.00000000000E+00 0. -1.
          1    1    1    2  502    0 -0.94085118652E+02  0.42242371834E+02  0.14335340731E+04  0.14372391472E+04  0.00000000000E+00 0. -1.
         22    1    3    3    0    0  0.92693764753E+01 -0.55233480438E+02  0.55728875092E+02  0.79008646493E+02  0.00000000000E+00 0. -1.
         22    1    3    3    0    0  0.10182797414E+03  0.39225735245E+02  0.54972879011E+02  0.12218679164E+03  0.00000000000E+00 0. -1.
</event>
<event>
 7    1  0.6888820E-006  0.9025650E+02  0.7818608E-02  0.1487300E+00
          2   -1    0    0  502    0  0.00000000000E+00  0.00000000000E+00  0.12115794326E+04  0.12115794326E+04  0.00000000000E+00 0. -1.
          1   -1    0    0  501    0 -0.00000000000E+00 -0.00000000000E+00 -0.25648004652E+03  0.25648004652E+03  0.00000000000E+00 0. -1.
         25    2    1    2    0    0 -0.73125377497E+02 -0.88863493187E+01  0.87941361782E+02  0.16966085870E+03  0.12499934330E+03 0.  0.
          2    1    1    2  501    0  0.88870760641E+02  0.21975966006E+02 -0.20580095491E+03  0.22524428566E+03  0.00000000000E+00 0. -1.
          1    1    1    2  502    0 -0.15745383143E+02 -0.13089616688E+02  0.10729589792E+04  0.10731543348E+04  0.00000000000E+00 0. -1.
         22    1    3    3    0    0  0.20307247346E+02  0.35493538942E+02  0.32943366561E+02  0.52511341649E+02  0.00000000000E+00 0.  1.
         22    1    3    3    0    0 -0.93432624843E+02 -0.44379888260E+02  0.54997995221E+02  0.11714951705E+03  0.00000000000E+00 0.  1.
</event>
<event>
 7    1  0.6888820E-006  0.4874538E+02  0.7818608E-02  0.1563922E+00
          2   -1    0    0  502    0  0.00000000000E+00  0.00000000000E+00  0.61518086237E+03  0.61518086237E+03  0.00000000000E+00 0. -1.
          1   -1    0    0  501    0 -0.00000000000E+00 -0.00000000000E+00 -0.61913234540E+02  0.61913234540E+02  0.00000000000E+00 0. -1.
         25    2    1    2    0    0 -0.14342243766E+02  0.66617517138E+02  0.11446100378E+03  0.18267923606E+03  0.12500715321E+03 0.  0.
          2    1    1    2  501    0  0.13240089519E+02 -0.18554113596E+02 -0.21660906582E+02  0.31444394981E+02  0.00000000000E+00 0. -1.
          1    1    1    2  502    0  0.11021542471E+01 -0.48063403542E+02  0.46046753062E+03  0.46297046587E+03  0.00000000000E+00 0. -1.
         22    1    3    3    0    0 -0.51394932598E+02  0.64105401304E+02  0.11968711513E+03  0.14517557336E+03  0.00000000000E+00 0. -1.
         22    1    3    3    0    0  0.37052688832E+02  0.25121158340E+01 -0.52261113493E+01  0.37503662694E+02  0.00000000000E+00 0. -1.
</event>
<event>
 7    1  0.6888820E-006  0.5244645E+02  0.7818608E-02  0.1479793E+00
          2   -1    0    0  502    0  0.00000000000E+00  0.00000000000E+00  0.54585651166E+03  0.54585651166E+03  0.00000000000E+00 0. -1.
          1   -1    0    0  501    0 -0.00000000000E+00 -0.00000000000E+00 -0.26100418524E+03  0.26100418524E+03  0.00000000000E+00 0. -1.
         25    2    1    2    0    0  0.55368419805E+02  0.48063498938E+02  0.10473104086E+03  0.17880109530E+03  0.12500191566E+03 0.  0.
          2    1    1    2  501    0 -0.18231182725E+02 -0.48896055631E+02 -0.22005755123E+03  0.22616039913E+03  0.00000000000E+00 0. -1.
          1    1    1    2  502    0 -0.37137237080E+02  0.83255669296E+00  0.40017883679E+03  0.40189920247E+03  0.00000000000E+00 0. -1.
         22    1    3    3    0    0  0.24547667645E+02 -0.28526805868E+02  0.86386691533E+02  0.94228589684E+02  0.00000000000E+00 0. -1.
         22    1    3    3    0    0  0.30820752160E+02  0.76590304805E+02  0.18344349328E+02  0.84572505616E+02  0.00000000000E+00 0. -1.
</event>
<event>
 7    1  0.6888820E-006  0.7819513E+02  0.7818608E-02  0.1461917E+00
          2   -1    0    0  502    0  0.00000000000E+00  0.00000000000E+00  0.22179097444E+03  0.22179097444E+03  0.00000000000E+00 0. -1.
          1   -1    0    0  501    0 -0.00000000000E+00 -0.00000000000E+00 -0.19044015560E+04  0.19044015560E+04  0.00000000000E+00 0. -1.
         25    2    1    2    0    0 -0.50052020255E+02  0.75235239123E+02 -0.52722405854E+03  0.54932316251E+03  0.12500073211E+03 0.  0.
          2    1    1    2  501    0 -0.10722522500E+02 -0.26204752477E+02 -0.13587419646E+04  0.13590369340E+04  0.00000000000E+00 0. -1.
          1    1    1    2  502    0  0.60774542755E+02 -0.49030486645E+02  0.20335544157E+03  0.21783243396E+03  0.00000000000E+00 0. -1.
         22    1    3    3    0    0 -0.36092682407E+02  0.19281658661E+02 -0.45529727091E+03  0.45713244140E+03  0.00000000000E+00 0.  1.
         22    1    3    3    0    0 -0.13959337849E+02  0.55953580461E+02 -0.71926787634E+02  0.92190721111E+02  0.00000000000E+00 0.  1.
</event>
<event>
 7    1  0.6888820E-006  0.7737816E+02  0.7818608E-02  0.1379689E+00
          2   -1    0    0  502    0  0.00000000000E+00  0.00000000000E+00  0.13775541795E+04  0.13775541795E+04  0.00000000000E+00 0. -1.
          1   -1    0    0  501    0 -0.00000000000E+00 -0.00000000000E+00 -0.17955166123E+03  0.17955166123E+03  0.00000000000E+00 0. -1.
         25    2    1    2    0    0 -0.59166295894E+02 -0.32323124968E+02  0.76504949244E+02  0.16131636553E+03  0.12499811019E+03 0.  0.
          2    1    1    2  501    0 -0.16687883963E+02  0.51189770296E+02 -0.13059554756E+03  0.14125889387E+03  0.00000000000E+00 0. -1.
          1    1    1    2  502    0  0.75854179857E+02 -0.18866645328E+02  0.12520931166E+04  0.12545305813E+04  0.00000000000E+00 0. -1.
         22    1    3    3    0    0 -0.88678642975E+02 -0.22410337293E+02  0.15422578123E+02  0.92757645795E+02  0.00000000000E+00 0. -1.
         22    1    3    3    0    0  0.29512347080E+02 -0.99127876748E+01  0.61082371121E+02  0.68558719733E+02  0.00000000000E+00 0. -1.
</event>
<event>
 7    1  0.6888820E-006  0.1010313E+03  0.7818608E-02  0.1426559E+00
          2   -1    0    0  502    0  0.00000000000E+00  0.00000000000E+00  0.23677476498E+03  0.23677476498E+03  0.00000000000E+00 0. -1.
          1   -1    0    0  501    0 -0.00000000000E+00 -0.00000000000E+00 -0.94813598456E+03  0.94813598456E+03  0.00000000000E+00 0. -1.
         25    2    1    2    0    0  0.84609016911E+02  0.48253047970E+02 -0.61215780124E+03  0.63233682161E+03  0.12500255982E+03 0.  0.
          2    1    1    2  501    0 -0.14402638448E+02  0.24589254362E+02 -0.31392345647E+03  0.31521421913E+03  0.00000000000E+00 0. -1.
          1    1    1    2  502    0 -0.70206378463E+02 -0.72842302333E+02  0.21472003813E+03  0.23735970880E+03  0.00000000000E+00 0. -1.
         22    1    3    3    0    0  0.16680199787E+02  0.72080705417E+02 -0.18657897838E+03  0.20071266112E+03  0.00000000000E+00 0. -1.
         22    1    3    3    0    0  0.67928817124E+02 -0.23827657446E+02 -0.42557882285E+03  0.43162416049E+03  0.00000000000E+00 0. -1.
</event>
<event>
 7    1  0.6888820E-006  0.1084088E+03  0.7818608E-02  0.1324532E+00
          2   -1    0    0  502    0  0.00000000000E+00  0.00000000000E+00  0.11725337014E+04  0.11725337014E+04  0.00000000000E+00 0. -1.
          1   -1    0    0  501    0 -0.00000000000E+00 -0.00000000000E+00 -0.42344301163E+02  0.42344301163E+02  0.00000000000E+00 0. -1.
         25    2    1    2    0    0 -0.62639679819E+02 -0.27945510857E+02  0.40704804540E+03  0.43129854406E+03  0.12500256710E+03 0.  0.
          2    1    1    2  501    0  0.88242006570E+02  0.83799639819E+02  0.10025719096E+03  0.15767224136E+03  0.00000000000E+00 0. -1.
          1    1    1    2  502    0 -0.25602326752E+02 -0.55854128961E+02  0.62288416384E+03  0.62590721711E+03  0.00000000000E+00 0. -1.
         22    1    3    3    0    0 -0.46834550324E+02 -0.61778966037E+02  0.12714890101E+03  0.14891930290E+03  0.00000000000E+00 0. -1.
         22    1    3    3    0    0 -0.15805129494E+02  0.33833455180E+02  0.27989914439E+03  0.28237924116E+03  0.00000000000E+00 0. -1.
</event>
<event>
 7    1  0.6888820E-006  0.6563945E+02  0.7818608E-02  0.1472832E+00
          2   -1    0    0  502    0  0.00000000000E+00  0.00000000000E+00  0.17676702515E+04  0.17676702515E+04  0.00000000000E+00 0. -1.
          1   -1    0    0  501    0 -0.00000000000E+00 -0.00000000000E+00 -0.66247117348E+03  0.66247117348E+03  0.00000000000E+00 0. -1.
         25    2    1    2    0    0  0.17227325368E+02 -0.57818046653E+02  0.37620326141E+03  0.40098953252E+03  0.12499601609E+03 0.  0.
          2    1    1    2  501    0  0.13267296554E+02  0.64339028017E+02 -0.64824146821E+03  0.65156161089E+03  0.00000000000E+00 0. -1.
          1    1    1    2  502    0 -0.30494621923E+02 -0.65209813642E+01  0.13772372849E+04  0.13775902816E+04  0.00000000000E+00 0. -1.
         22    1    3    3    0    0  0.44704152123E+02 -0.16527734813E+02  0.32928558591E+03  0.33271703341E+03  0.00000000000E+00 0.  1.
         22    1    3    3    0    0 -0.27476826754E+02 -0.41290311839E+02  0.46917675499E+02  0.68272499109E+02  0.00000000000E+00 0.  1.
</event>
<event>
 7    1  0.6888820E-006  0.8353367E+02  0.7818608E-02  0.1441974E+00
          2   -1    0    0  502    0  0.00000000000E+00  0.00000000000E+00  0.22432061664E+04  0.22432061664E+04  0.00000000000E+00 0. -1.
          1   -1    0    0  501    0 -0.00000000000E+00 -0.00000000000E+00 -0.33495170560E+03  0.33495170560E+03  0.00000000000E+00 0. -1.
         25    2    1    2    0    0 -0.51833736134E+02 -0.10072104068E+03  0.38370452293E+03  0.41914884905E+03  0.12500053004E+03 0.  0.
          2    1    1    2  501    0  0.42350443221E+02  0.71536517474E+02 -0.31165274280E+03  0.32254994260E+03  0.00000000000E+00 0. -1.
          1    1    1    2  502    0  0.94832929129E+01  0.29184523210E+02  0.18362026807E+04  0.18364590804E+04  0.00000000000E+00 0. -1.
         22    1    3    3    0    0 -0.58499333137E+01 -0.10558340087E+03  0.33791075122E+03  0.35407026429E+03  0.00000000000E+00 0. -1.
         22    1    3    3    0    0 -0.45983802820E+02  0.48623601891E+01  0.45793771705E+02  0.65078584768E+02  0.00000000000E+00 0. -1.
</event>
<event>
 7    1  0.6888820E-006  0.1836945E+03  0.7818608E-02  0.1260301E+00
          2   -1    0    0  502    0  0.00000000000E+00  0.00000000000E+00  0.12896487299E+04  0.12896487299E+04  0.00000000000E+00 0. -1.
          1   -1    0    0  501    0 -0.00000000000E+00 -0.00000000000E+00 -0.41748340321E+03  0.41748340321E+03  0.00000000000E+00 0. -1.
         25    2    1    2    0    0 -0.84823157121E+02 -0.22420856470E+03  0.10933806866E+03  0.29162269807E+03  0.12499814519E+03 0.  0.
          2    1    1    2  501    0  0.45507023134E+02  0.17114144227E+03 -0.30121746957E+03  0.34941700930E+03  0.00000000000E+00 0. -1.
          1    1    1    2  502    0  0.39316133987E+02  0.53067122439E+02  0.10640447276E+04  0.10660924257E+04  0.00000000000E+00 0. -1.
         22    1    3    3    0    0 -0.10788782158E+03 -0.13902624695E+03  0.10119336395E+03  0.20299797116E+03  0.00000000000E+00 0.  1.
         22    1    3    3    0    0  0.23064664462E+02 -0.85182317756E+02  0.81447047080E+01  0.88624726910E+02  0.00000000000E+00 0.  1.
</event>
<event>
 7    1  0.6888820E-006  0.9537790E+02  0.7818608E-02  0.1433521E+00
          2   -1    0    0  502    0  0.00000000000E+00  0.00000000000E+00  0.42801663764E+02  0.42801663764E+02  0.00000000000E+00 0. -1.
          1   -1    0    0  501    0 -0.00000000000E+00 -0.00000000000E+00 -0.14350726794E+04  0.14350726794E+04  0.00000000000E+00 0. -1.
         25    2    1    2    0    0 -0.65570533492E+02  0.20043988429E+02 -0.11250254451E+04  0.11340246084E+04  0.12501321520E+03 0.  0.
          2    1    1    2  501    0 -0.25430385562E+02  0.13161052820E+02 -0.24207585809E+03  0.24376348966E+03  0.00000000000E+00 0. -1.
          1    1    1    2  502    0  0.91000919054E+02 -0.33205041249E+02 -0.25169712422E+02  0.10008624509E+03  0.00000000000E+00 0. -1.
         22    1    3    3    0    0  0.38819477695E+01 -0.42104279001E+02 -0.53668698416E+03  0.53835003371E+03  0.00000000000E+00 0. -1.
         22    1    3    3    0    0 -0.69452481261E+02  0.62148267430E+02 -0.58833846094E+03  0.59567457468E+03  0.00000000000E+00 0. -1.
</event>
<event>
 7    1  0.6888820E-006  0.7935743E+02  0.7818608E-02  0.1340223E+00
          2   -1    0    0  502    0  0.00000000000E+00  0.00000000000E+00  0.54638162749E+03  0.54638162749E+03  0.00000000000E+00 0. -1.
          1   -1    0    0  501    0 -0.00000000000E+00 -0.00000000000E+00 -0.17569194841E+04  0.17569194841E+04  0.00000000000E+00 0. -1.
         25    2    1    2    0    0  0.12699460862E+03 -0.25940503998E+02  0.19307038154E+03  0.26401144489E+03  0.12500132175E+03 0.  0.
          2    1    1    2  501    0 -0.75004715394E+02 -0.25518806658E+02 -0.17163141246E+04  0.17181417552E+04  0.00000000000E+00 0. -1.
          1    1    1    2  502    0 -0.51989893223E+02  0.51459310655E+02  0.31270588642E+03  0.32114791148E+03  0.00000000000E+00 0. -1.
         22    1    3    3    0    0  0.95831923988E+02  0.42517385620E+02  0.11407120538E+03  0.15493135781E+03  0.00000000000E+00 0.  1.
         22    1    3    3    0    0  0.31162684630E+02 -0.68457889617E+02  0.78999176165E+02  0.10908008709E+03  0.00000000000E+00 0.  1.
</event>
<event>
 7    1  0.6888820E-006  0.9059415E+02  0.7818608E-02  0.1342420E+00
          2   -1    0    0  502    0  0.00000000000E+00  0.00000000000E+00  0.21826486654E+03  0.21826486654E+03  0.00000000000E+00 0. -1.
          1   -1    0    0  501    0 -0.00000000000E+00 -0.00000000000E+00 -0.68869129502E+03  0.68869129502E+03  0.00000000000E+00 0. -1.
         25    2    1    2    0    0 -0.35449768754E+02  0.23853447785E+02 -0.24528624081E+03  0.27860043066E+03  0.12500874754E+03 0.  0.
          2    1    1    2  501    0 -0.57420452429E+02 -0.25607502668E+02 -0.41354547071E+03  0.41829739289E+03  0.00000000000E+00 0. -1.
          1    1    1    2  502    0  0.92870221183E+02  0.17540548827E+01  0.18840528304E+03  0.21005833801E+03  0.00000000000E+00 0. -1.
         22    1    3    3    0    0  0.10222490417E+02 -0.46622084840E+02 -0.78688858250E+02  0.92032899106E+02  0.00000000000E+00 0. -1.
         22    1    3    3    0    0 -0.45672259171E+02  0.70475532625E+02 -0.16659738256E+03  0.18656753156E+03  0.00000000000E+00 0. -1.
</event>
<event>
 7    1  0.6888820E-006  0.8687320E+02  0.7818608E-02  0.1359721E+00
          2   -1    0    0  502    0  0.00000000000E+00  0.00000000000E+00  0.12299916292E+04  0.12299916292E+04  0.00000000000E+00 0. -1.
          1   -1    0    0  501    0 -0.00000000000E+00 -0.00000000000E+00 -0.34258314315E+03  0.34258314315E+03  0.00000000000E+00 0. -1.
         25    2    1    2    0    0  0.13826281620E+03 -0.27109782489E+02  0.77305039026E+02  0.20359932917E+03  0.12500028453E+03 0.  0.
          2    1    1    2  501    0 -0.83306403940E+02  0.13650289026E+02 -0.27230459200E+03  0.28508959671E+03  0.00000000000E+00 0. -1.
          1    1    1    2  502    0 -0.54956412258E+02  0.13459493462E+02  0.10824080390E+04  0.10838858465E+04  0.00000000000E+00 0. -1.
         22    1    3    3    0    0 -0.43956372658E+01 -0.39243714493E+02 -0.27133456881E+01  0.39582230849E+02  0.00000000000E+00 0.  1.
         22    1    3    3    0    0  0.14265845346E+03  0.12133932004E+02  0.80018384714E+02  0.16401709832E+03  0.00000000000E+00 0.  1.
</event>
<event>
 7    1  0.6888820E-006  0.7180394E+02  0.7818608E-02  0.1386170E+00
          2   -1    0    0  502    0  0.00000000000E+00  0.00000000000E+00  0.17184276071E+03  0.17184276071E+03  0.00000000000E+00 0. -1.
          1   -1    0    0  501    0 -0.00000000000E+00 -0.00000000000E+00 -0.73049720955E+03  0.73049720955E+03  0.00000000000E+00 0. -1.
         25    2    1    2    0    0  0.63318624776E+02 -0.19907326554E+02 -0.36731413649E+03  0.39363797596E+03  0.12500252543E+03 0.  0.
          2    1    1    2  501    0 -0.51225263894E-01  0.55046443227E+02 -0.33943531119E+03  0.34386980678E+03  0.00000000000E+00 0. -1.
          1    1    1    2  502    0 -0.63267399512E+02 -0.35139116674E+02  0.14809499884E+03  0.16483218752E+03  0.00000000000E+00 0. -1.
         22    1    3    3    0    0  0.67686758203E+02  0.41714992112E+02 -0.19512130824E+03  0.21069874877E+03  0.00000000000E+00 0. -1.
         22    1    3    3    0    0 -0.43681334273E+01 -0.61622318666E+02 -0.17219282825E+03  0.18293922720E+03  0.00000000000E+00 0. -1.
</event>
<event>
 7    1  0.6888820E-006  0.3876905E+02  0.7818608E-02  0.1618441E+00
          2   -1    0    0  502    0  0.00000000000E+00  0.00000000000E+00  0.50501458493E+02  0.50501458493E+02  0.00000000000E+00 0. -1.
          1   -1    0    0  501    0 -0.00000000000E+00 -0.00000000000E+00 -0.17213165331E+04  0.17213165331E+04  0.00000000000E+00 0. -1.
         25    2    1    2    0    0  0.18360254134E+02  0.22464477519E+02 -0.15306901397E+04  0.15360596759E+04  0.12500108935E+03 0.  0.
          2    1    1    2  501    0  0.18248156362E+02 -0.94837694438E+01 -0.17936813645E+03  0.18054325096E+03  0.00000000000E+00 0. -1.
          1    1    1    2  502    0 -0.36608410496E+02 -0.12980708075E+02  0.39243201595E+02  0.55215064725E+02  0.00000000000E+00 0. -1.
         22    1    3    3    0    0 -0.82743344218E+01 -0.48733663115E+02 -0.45215729516E+03  0.45485124392E+03  0.00000000000E+00 0. -1.
         22    1    3    3    0    0  0.26634588556E+02  0.71198140634E+02 -0.10785328446E+04  0.10812084320E+04  0.00000000000E+00 0. -1.
</event>
<event>
 7    1  0.6888820E-006  0.6062494E+02  0.7818608E-02  0.1530095E+00
          2   -1    0    0  502    0  0.00000000000E+00  0.00000000000E+00  0.76504132718E+03  0.76504132718E+03  0.00000000000E+00 0. -1.
          1   -1    0    0  501    0 -0.00000000000E+00 -0.00000000000E+00 -0.18884337850E+03  0.18884337850E+03  0.00000000000E+00 0. -1.
         25    2    1    2    0    0  0.71301356012E+01 -0.40042513996E+02  0.24110036864E+03  0.27460416782E+03  0.12499527776E+03 0.  0.
          2    1    1    2  501    0 -0.22710886952E+02  0.56681802014E+02 -0.16640780643E+03  0.17725735276E+03  0.00000000000E+00 0. -1.
          1    1    1    2  502    0  0.15580751350E+02 -0.16639288018E+02  0.50150538647E+03  0.50202318510E+03  0.00000000000E+00 0. -1.
         22    1    3    3    0    0 -0.12798332371E+02 -0.64385214000E+02  0.54355032613E+02  0.85227475990E+02  0.00000000000E+00 0.  1.
         22    1    3    3    0    0  0.19928467972E+02  0.24342700004E+02  0.18674533603E+03  0.18937669183E+03  0.00000000000E+00 0.  1.
</event>
<event>
 7    1  0.6888820E-006  0.8367972E+02  0.7818608E-02  0.1493652E+00
          2   -1    0    0  502    0  0.00000000000E+00  0.00000000000E+00  0.16296650208E+04  0.16296650208E+04  0.00000000000E+00 0. -1.
          1   -1    0    0  501    0 -0.00000000000E+00 -0.00000000000E+00 -0.79166562242E+03  0.79166562242E+03  0.00000000000E+00 0. -1.
         25    2    1    2    0    0 -0.17975554859E+01 -0.92420281503E+02 -0.27402041439E+03  0.31504990231E+03  0.12499805522E+03 0.  0.
          2    1    1    2  501    0  0.18379034875E+02  0.10424558826E+02 -0.49581804344E+03  0.49626806522E+03  0.00000000000E+00 0. -1.
          1    1    1    2  502    0 -0.16581479389E+02  0.81995722677E+02  0.16078378563E+04  0.16100126757E+04  0.00000000000E+00 0. -1.
         22    1    3    3    0    0  0.52637518173E+02 -0.85645007576E+02 -0.17234831814E+03  0.19952372894E+03  0.00000000000E+00 0. -1.
         22    1    3    3    0    0 -0.54435073659E+02 -0.67752739267E+01 -0.10167209624E+03  0.11552617338E+03  0.00000000000E+00 0. -1.
</event>
<event>
 7    1  0.6888820E-006  0.1199073E+03  0.7818608E-02  0.1271428E+00
          2   -1    0    0  502    0  0.00000000000E+00  0.00000000000E+00  0.25736848828E+04  0.25736848828E+04  0.00000000000E+00 0. -1.
          1   -1    0    0  501    0 -0.00000000000E+00 -0.00000000000E+00 -0.77975033496E+02  0.77975033496E+02  0.00000000000E+00 0. -1.
         25    2    1    2    0    0 -0.15567861539E+03 -0.36572595666E+02  0.95522620644E+03  0.97655263466E+03  0.12499822702E+03 0.  0.
          2    1    1    2  501    0  0.76656743957E+02 -0.48650691420E+02 -0.33547364197E+02  0.96791382955E+02  0.00000000000E+00 0. -1.
          1    1    1    2  502    0  0.79021871432E+02  0.85223287087E+02  0.15740310070E+04  0.15783158986E+04  0.00000000000E+00 0. -1.
         22    1    3    3    0    0 -0.16640770503E+03 -0.52034569985E+02  0.92223022177E+03  0.93856683444E+03  0.00000000000E+00 0. -1.
         22    1    3    3    0    0  0.10729089639E+02  0.15461974318E+02  0.32995984671E+02  0.37985800225E+02  0.00000000000E+00 0. -1.
</event>
<event>
 7    1  0.6888820E-006  0.6951829E+02  0.7818608E-02  0.1397148E+00
          2   -1    0    0  502    0  0.00000000000E+00  0.00000000000E+00  0.44727205456E+03  0.44727205456E+03  0.00000000000E+00 0. -1.
          1   -1    0    0  501    0 -0.00000000000E+00 -0.00000000000E+00 -0.10819206977E+04  0.10819206977E+04  0.00000000000E+00 0. -1.
         25    2    1    2    0    0  0.41312488615E+02 -0.10780756069E+03  0.13082787788E+03  0.21463873408E+03  0.12499864270E+03 0.  0.
          2    1    1    2  501    0 -0.82719434617E+01  0.51405706188E+02 -0.10354609251E+04  0.10367691639E+04  0.00000000000E+00 0. -1.
          1    1    1    2  502    0 -0.33040545153E+02  0.56401854505E+02  0.26998440411E+03  0.27778485430E+03  0.00000000000E+00 0. -1.
         22    1    3    3    0    0 -0.31628174778E+02  0.76454818802E+01  0.35114839574E+02  0.47873236690E+02  0.00000000000E+00 0.  1.
         22    1    3    3    0    0  0.72940663393E+02 -0.11545304257E+03  0.95713038311E+02  0.16676549739E+03  0.00000000000E+00 0.  1.
</event>
<event>
 7    1  0.7206050E-006  0.9547010E+02  0.7818608E-02  0.1348611E+00
          2   -1    0    0  502    0  0.00000000000E+00  0.00000000000E+00  0.15748140357E+04  0.15748140357E+04  0.00000000000E+00 0. -1.
          1   -1    0    0  501    0 -0.00000000000E+00 -0.00000000000E+00 -0.52653059624E+03  0.52653059624E+03  0.00000000000E+00 0. -1.
         25    2    1    2    0    0 -0.52780391700E+02 -0.20495223255E+02  0.73842507061E+01  0.13743777538E+03  0.12501516316E+03 0.  0.
          2    1    1    2  501    0 -0.58543349128E+01 -0.56267153804E+02 -0.45820997314E+03  0.46168890534E+03  0.00000000000E+00 0. -1.
          1    1    1    2  502    0  0.58634726613E+02  0.76762377058E+02  0.14991091619E+04  0.15022179512E+04  0.00000000000E+00 0. -1.
         22    1    3    3    0    0  0.13121737584E+01  0.35615132936E+02  0.39446819330E+02  0.53162120437E+02  0.00000000000E+00 0. -1.
         22    1    3    3    0    0 -0.54092565459E+02 -0.56110356191E+02 -0.32062568624E+02  0.84275654946E+02  0.00000000000E+00 0. -1.
</event>
<event>
 7    1  0.6888820E-006  0.1864905E+03  0.7818608E-02  0.1173996E+00
          2   -1    0    0  502    0  0.00000000000E+00  0.00000000000E+00  0.17076537953E+04  0.17076537953E+04  0.00000000000E+00 0. -1.
          1   -1    0    0  501    0 -0.00000000000E+00 -0.00000000000E+00 -0.80620215892E+03  0.80620215892E+03  0.00000000000E+00 0. -1.
         25    2    1    2    0    0 -0.28041061222E+03  0.20030889980E+03 -0.40520185793E+03  0.54641402975E+03  0.12500391772E+03 0.  0.
          2    1    1    2  501    0  0.11999862967E+03 -0.10864281703E+03 -0.30496753018E+03  0.34526529985E+03  0.00000000000E+00 0. -1.
          1    1    1    2  502    0  0.16041198256E+03 -0.91666082771E+02  0.16116210245E+04  0.16221766247E+04  0.00000000000E+00 0. -1.
         22    1    3    3    0    0 -0.64653284169E+02  0.11649155865E+03 -0.17522358402E+03  0.22012186350E+03  0.00000000000E+00 0. -1.
         22    1    3    3    0    0 -0.21575732806E+03  0.83817341146E+02 -0.22997827391E+03  0.32629216625E+03  0.00000000000E+00 0. -1.
</event>
<event>
 7    1  0.6888820E-006  0.8095194E+02  0.7818608E-02  0.1492607E+00
          2   -1    0    0  502    0  0.00000000000E+00  0.00000000000E+00  0.12240107283E+04  0.12240107283E+04  0.00000000000E+00 0. -1.
          1   -1    0    0  501    0 -0.00000000000E+00 -0.00000000000E+00 -0.62463666128E+02  0.62463666128E+02  0.00000000000E+00 0. -1.
         25    2    1    2    0    0  0.77091551900E+02 -0.56234599151E+02  0.18431915760E+03  0.24229111769E+03  0.12500398528E+03 0.  0.
          2    1    1    2  501    0 -0.69461039187E+02  0.35599711031E+02  0.12313039741E+02  0.79017633083E+02  0.00000000000E+00 0. -1.
          1    1    1    2  502    0 -0.76305127138E+01  0.20634888120E+02  0.96491486481E+03  0.96516564364E+03  0.00000000000E+00 0. -1.
         22    1    3    3    0    0  0.73866542663E+02  0.21262209252E+02  0.68868264610E+02  0.10320458099E+03  0.00000000000E+00 0. -1.
         22    1    3    3    0    0  0.32250092370E+01 -0.77496808403E+02  0.11545089299E+03  0.13908653670E+03  0.00000000000E+00 0. -1.
</event>
<event>
 7    1  0.6888820E-006  0.9916753E+02  0.7818608E-02  0.1466083E+00
          2   -1    0    0  502    0  0.00000000000E+00  0.00000000000E+00  0.49726342453E+02  0.49726342453E+02  0.00000000000E+00 0. -1.
          1   -1    0    0  501    0 -0.00000000000E+00 -0.00000000000E+00 -0.15418362901E+04  0.15418362901E+04  0.00000000000E+00 0. -1.
         25    2    1    2    0    0 -0.33273074537E+02  0.86139349154E+02 -0.30017023209E+03  0.33801769064E+03  0.12500682377E+03 0.  0.
          2    1    1    2  501    0 -0.21643443238E+02 -0.94189197614E+00 -0.11389702500E+04  0.11391762622E+04  0.00000000000E+00 0. -1.
          1    1    1    2  502    0  0.54916517776E+02 -0.85197457178E+02 -0.52969465540E+02  0.11436867978E+03  0.00000000000E+00 0. -1.
         22    1    3    3    0    0  0.45265689074E+02  0.44209531232E+02 -0.15889215435E+03  0.17102684576E+03  0.00000000000E+00 0.  1.
         22    1    3    3    0    0 -0.78538763611E+02  0.41929817922E+02 -0.14127807774E+03  0.16699084487E+03  0.00000000000E+00 0.  1.
</event>
<event>
 7    1  0.6888820E-006  0.7386903E+02  0.7818608E-02  0.1348383E+00
          2   -1    0    0  502    0  0.00000000000E+00  0.00000000000E+00  0.28795811722E+03  0.28795811722E+03  0.00000000000E+00 0. -1.
          1   -1    0    0  501    0 -0.00000000000E+00 -0.00000000000E+00 -0.91573078202E+03  0.91573078202E+03  0.00000000000E+00 0. -1.
         25    2    1    2    0    0  0.49902982296E+02  0.34016467425E+02 -0.10211383351E+03  0.17233904666E+03  0.12500433717E+03 0.  0.
          2    1    1    2  501    0  0.11691458470E+02 -0.74793403011E+02 -0.77121603667E+03  0.77492252423E+03  0.00000000000E+00 0. -1.
          1    1    1    2  502    0 -0.61594440766E+02  0.40776935586E+02  0.24555720538E+03  0.25642732835E+03  0.00000000000E+00 0. -1.
         22    1    3    3    0    0  0.38339085516E+01  0.28968174403E+02  0.24105374969E+02  0.37880378634E+02  0.00000000000E+00 0. -1.
         22    1    3    3    0    0  0.46069073744E+02  0.50482930219E+01 -0.12621920848E+03  0.13445866803E+03  0.00000000000E+00 0. -1.
</event>
<event>
 7    1  0.6888820E-006  0.6469987E+02  0.7818608E-02  0.1428040E+00
          2   -1    0    0  502    0  0.00000000000E+00  0.00000000000E+00  0.21111959086E+04  0.21111959086E+04  0.00000000000E+00 0. -1.
          1   -1    0    0  501    0 -0.00000000000E+00 -0.00000000000E+00 -0.12414440491E+04  0.12414440491E+04  0.00000000000E+00 0. -1.
         25    2    1    2    0    0 -0.20805257529E+02 -0.41371953707E+02  0.20279607849E+03  0.24268126702E+03  0.12499380232E+03 0.  0.
          2    1    1    2  501    0 -0.17900636588E+02  0.62297432921E+02 -0.12203849758E+04  0.12221051068E+04  0.00000000000E+00 0. -1.
          1    1    1    2  502    0  0.38705894116E+02 -0.20925479214E+02  0.18873407568E+04  0.18878535839E+04  0.00000000000E+00 0. -1.
         22    1    3    3    0    0  0.40940813497E+02 -0.15505991621E+02  0.20227611992E+02  0.48225950201E+02  0.00000000000E+00 0.  1.
         22    1    3    3    0    0 -0.61746071025E+02 -0.25865962085E+02  0.18256846649E+03  0.19445531682E+03  0.00000000000E+00 0.  1.
</event>
<event>
 7    1  0.6888820E-006  0.1547875E+03  0.7818608E-02  0.1411938E+00
          2   -1    0    0  502    0  0.00000000000E+00  0.00000000000E+00  0.27602572112E+04  0.27602572112E+04  0.00000000000E+00 0. -1.
          1   -1    0    0  501    0 -0.00000000000E+00 -0.00000000000E+00 -0.77795140682E+03  0.77795140682E+03  0.00000000000E+00 0. -1.
         25    2    1    2    0    0 -0.12853459148E+03 -0.75136186588E+02 -0.77736774929E+02  0.20936566722E+03  0.12499755475E+03 0.  0.
          2    1    1    2  501    0  0.61955902322E+01 -0.19873003405E+02 -0.63200247282E+03  0.63234519628E+03  0.00000000000E+00 0. -1.
          1    1    1    2  502    0  0.12233900124E+03  0.95009189993E+02  0.26920450521E+04  0.26964977545E+04  0.00000000000E+00 0. -1.
         22    1    3    3    0    0 -0.91856744490E+02 -0.96465687520E+02 -0.15585254757E+02  0.13411260397E+03  0.00000000000E+00 0.  1.
         22    1    3    3    0    0 -0.36677846986E+02  0.21329500932E+02 -0.62151520172E+02  0.75253063255E+02  0.00000000000E+00 0.  1.
</event>
<event>
 7    1  0.6888820E-006  0.2384706E+03  0.7818608E-02  0.1208881E+00
          2   -1    0    0  502    0  0.00000000000E+00  0.00000000000E+00  0.18685214676E+04  0.18685214676E+04  0.00000000000E+00 0. -1.
          1   -1    0    0  501    0 -0.00000000000E+00 -0.00000000000E+00 -0.55060620831E+03  0.55060620831E+03  0.00000000000E+00 0. -1.
         25    2    1    2    0    0 -0.18169702954E+03  0.25972042754E+03  0.23872948814E+03  0.41603562431E+03  0.12500144464E+03 0.  0.
          2    1    1    2  501    0  0.12475817862E+03 -0.19502855962E+03 -0.43164017573E+03  0.48981015047E+03  0.00000000000E+00 0. -1.
          1    1    1    2  502    0  0.56938850918E+02 -0.64691867920E+02  0.15108259468E+04  0.15132819011E+04  0.00000000000E+00 0. -1.
         22    1    3    3    0    0 -0.14671225610E+02 -0.13783837387E+02  0.11545142824E+02  0.23206235301E+02  0.00000000000E+00 0. -1.
         22    1    3    3    0    0 -0.16702580393E+03  0.27350426493E+03  0.22718434532E+03  0.39282938901E+03  0.00000000000E+00 0. -1.
</event>
<event>
 7    1  0.6888820E-006  0.6324915E+02  0.7818608E-02  0.1520268E+00
          2   -1    0    0  502    0  0.00000000000E+00  0.00000000000E+00  0.10807265877E+04  0.10807265877E+04  0.00000000000E+00 0. -1.
          1   -1    0    0  501    0 -0.00000000000E+00 -0.00000000000E+00 -0.29870323054E+03  0.29870323054E+03  0.00000000000E+00 0. -1.
         25    2    1    2    0    0  0.74454509914E+01 -0.54508376013E+02 -0.13782537260E+03  0.19403003687E+03  0.12500089631E+03 0.  0.
          2    1    1    2  501    0 -0.30309228735E+02  0.59112155983E+02 -0.12432821019E+03  0.14096240697E+03  0.00000000000E+00 0. -1.
          1    1    1    2  502    0  0.22863777744E+02 -0.46037799705E+01  0.10441769400E+04  0.10444373744E+04  0.00000000000E+00 0. -1.
         22    1    3    3    0    0 -0.51660663022E+02 -0.79690166589E+01 -0.23826161782E+02  0.57445759771E+02  0.00000000000E+00 0.  1.
         22    1    3    3    0    0  0.59106114014E+02 -0.46539359354E+02 -0.11399921082E+03  0.13658427710E+03  0.00000000000E+00 0.  1.
</event>
<event>
 7    1  0.6888820E-006  0.3355348E+02  0.7818608E-02  0.1598399E+00
          2   -1    0    0  502    0  0.00000000000E+00  0.00000000000E+00  0.50940740361E+03  0.50940740361E+03  0.00000000000E+00 0. -1.
          1   -1    0    0  501    0 -0.00000000000E+00 -0.00000000000E+00 -0.82734005333E+03  0.82734005333E+03  0.00000000000E+00 0. -1.
         25    2    1    2    0    0 -0.18429403342E+02  0.20811844214E+01  0.69130024609E+02  0.14404553845E+03  0.12500473035E+03 0.  0.
          2    1    1    2  501    0  0.23304460672E+02  0.24243869066E+02 -0.78907892893E+03  0.78979517545E+03  0.00000000000E+00 0. -1.
          1    1    1    2  502    0 -0.48750573299E+01 -0.26325053487E+02  0.40201625460E+03  0.40290674304E+03  0.00000000000E+00 0. -1.
         22    1    3    3    0    0  0.51063349073E+02  0.19049392946E+02  0.35133605427E+02  0.64843775495E+02  0.00000000000E+00 0.  1.
         22    1    3    3    0    0 -0.69492752415E+02 -0.16968208525E+02  0.33996419183E+02  0.79201762960E+02  0.00000000000E+00 0.  1.
</event>
<event>
 7    1  0.6888820E-006  0.7694853E+02  0.7818608E-02  0.1396937E+00
          2   -1    0    0  502    0  0.00000000000E+00  0.00000000000E+00  0.12091981323E+04  0.12091981323E+04  0.00000000000E+00 0. -1.
          1   -1    0    0  501    0 -0.00000000000E+00 -0.00000000000E+00 -0.30932450811E+04  0.30932450811E+04  0.00000000000E+00 0. -1.
         25    2    1    2    0    0  0.55928406332E+02  0.27312769345E+02 -0.19111247418E+03  0.23669648714E+03  0.12500910061E+03 0.  0.
          2    1    1    2  501    0  0.19600729316E+02 -0.42848220054E+02 -0.28778946028E+04  0.28782803032E+04  0.00000000000E+00 0. -1.
          1    1    1    2  502    0 -0.75529135647E+02  0.15535450709E+02  0.11849601282E+04  0.11874664231E+04  0.00000000000E+00 0. -1.
         22    1    3    3    0    0 -0.11652695938E+02 -0.19322005598E+02  0.58453007290E+01  0.23308641393E+02  0.00000000000E+00 0. -1.
         22    1    3    3    0    0  0.67581102269E+02  0.46634774943E+02 -0.19695777490E+03  0.21338784575E+03  0.00000000000E+00 0. -1.
</event>
<event>
 7    1  0.6888820E-006  0.8782042E+02  0.7818608E-02  0.1330008E+00
          2   -1    0    0  502    0  0.00000000000E+00  0.00000000000E+00  0.16707808309E+04  0.16707808309E+04  0.00000000000E+00 0. -1.
          1   -1    0    0  501    0 -0.00000000000E+00 -0.00000000000E+00 -0.37526610722E+03  0.37526610722E+03  0.00000000000E+00 0. -1.
         25    2    1    2    0    0 -0.12707173127E+03 -0.60634546100E+02  0.18414983626E+03  0.26336206571E+03  0.12499856957E+03 0.  0.
          2    1    1    2  501    0  0.86807457192E+02  0.62617556097E+00 -0.32912628167E+03  0.34038219108E+03  0.00000000000E+00 0. -1.
          1    1    1    2  502    0  0.40264274077E+02  0.60008370539E+02  0.14404911691E+04  0.14423026813E+04  0.00000000000E+00 0. -1.
         22    1    3    3    0    0 -0.12534766106E+03 -0.92864570427E+02  0.15301700069E+03  0.21851788731E+03  0.00000000000E+00 0.  1.
         22    1    3    3    0    0 -0.17240702091E+01  0.32230024327E+02  0.31132835563E+02  0.44844178400E+02  0.00000000000E+00 0.  1.
</event>
<event>
 7    1  0.6888820E-006  0.1418898E+03  0.7818608E-02  0.1216002E+00
          2   -1    0    0  502    0  0.00000000000E+00  0.00000000000E+00  0.17427713320E+04  0.17427713320E+04  0.00000000000E+00 0. -1.
          1   -1    0    0  501    0 -0.00000000000E+00 -0.00000000000E+00 -0.72833187485E+03  0.72833187485E+03  0.00000000000E+00 0. -1.
         25    2    1    2    0    0 -0.13845548990E+02  0.66297220451E+00  0.10293494351E+03  0.16252029326E+03  0.12500041747E+03 0.  0.
          2    1    1    2  501    0 -0.61625145871E+02  0.12780864126E+03 -0.68783520815E+03  0.70231757842E+03  0.00000000000E+00 0. -1.
          1    1    1    2  502    0  0.75470694861E+02 -0.12847161346E+03  0.15993397218E+04  0.16062653352E+04  0.00000000000E+00 0. -1.
         22    1    3    3    0    0 -0.49023650811E+02  0.58198521917E+01  0.11485967979E+03  0.12501973868E+03  0.00000000000E+00 0. -1.
         22    1    3    3    0    0  0.35178101821E+02 -0.51568799871E+01 -0.11924736274E+02  0.37500554584E+02  0.00000000000E+00 0. -1.
</event>
<event>
 7    1  0.6888820E-006  0.5001397E+02  0.7818608E-02  0.1468747E+00
          2   -1    0    0  502    0  0.00000000000E+00  0.00000000000E+00  0.18870301841E+04  0.18870301841E+04  0.00000000000E+00 0. -1.
          1   -1    0    0  501    0 -0.00000000000E+00 -0.00000000000E+00 -0.39564311430E+02  0.39564311430E+02  0.00000000000E+00 0. -1.
         25    2    1    2    0    0  0.40421888743E+02  0.75025884978E+02  0.12987874469E+04  0.13075717081E+04  0.12502850461E+03 0.  0.
          2    1    1    2  501    0 -0.23335239389E+02 -0.35089552216E+02 -0.21420042979E+02  0.47271855403E+02  0.00000000000E+00 0. -1.
          1    1    1    2  502    0 -0.17086649354E+02 -0.39936332762E+02  0.57009846873E+03  0.57175093206E+03  0.00000000000E+00 0. -1.
         22    1    3    3    0    0  0.78420645268E+01  0.10357696192E+03  0.10410262765E+04  0.10461956765E+04  0.00000000000E+00 0.  1.
         22    1    3    3    0    0  0.32579824216E+02 -0.28551076937E+02  0.25776117036E+03  0.26137603158E+03  0.00000000000E+00 0.  1.
</event>
<event>
 7    1  0.6888820E-006  0.1096185E+03  0.7818608E-02  0.1303786E+00
          2   -1    0    0  502    0  0.00000000000E+00  0.00000000000E+00  0.95315136866E+03  0.95315136866E+03  0.00000000000E+00 0. -1.
          1   -1    0    0  501    0 -0.00000000000E+00 -0.00000000000E+00 -0.66624563024E+03  0.66624563024E+03  0.00000000000E+00 0. -1.
         25    2    1    2    0    0  0.91828355054E+02 -0.12548205218E+03  0.18338645362E+03  0.27098640579E+03  0.12499939415E+03 0.  0.
          2    1    1    2  501    0 -0.95571802118E+02  0.52315336957E+02 -0.61580291040E+03  0.62536716279E+03  0.00000000000E+00 0. -1.
          1    1    1    2  502    0  0.37434470644E+01  0.73166715227E+02  0.71932219520E+03  0.72304343031E+03  0.00000000000E+00 0. -1.
         22    1    3    3    0    0  0.66473305293E+02 -0.85119276440E+02  0.32551158932E+02  0.11279880091E+03  0.00000000000E+00 0. -1.
         22    1    3    3    0    0  0.25355049761E+02 -0.40362775744E+02  0.15083529469E+03  0.15818760488E+03  0.00000000000E+00 0. -1.
</event>
<event>
 7    1  0.6888820E-006  0.3120535E+03  0.7818608E-02  0.1225184E+00
          2   -1    0    0  502    0  0.00000000000E+00  0.00000000000E+00  0.99667947491E+03  0.99667947491E+03  0.00000000000E+00 0. -1.
          1   -1    0    0  501    0 -0.00000000000E+00 -0.00000000000E+00 -0.62281396748E+03  0.62281396748E+03  0.00000000000E+00 0. -1.
         25    2    1    2    0    0  0.44149671567E+02 -0.35767061258E+03  0.48611004660E+03  0.61790408591E+03  0.12500008551E+03 0.  0.
          2    1    1    2  501    0 -0.20139179728E+02  0.30768761866E+03 -0.51217673651E+03  0.59783130285E+03  0.00000000000E+00 0. -1.
          1    1    1    2  502    0 -0.24010491839E+02  0.49982993925E+02  0.39993219735E+03  0.40375805364E+03  0.00000000000E+00 0. -1.
         22    1    3    3    0    0  0.40181483369E+02 -0.34217559202E+03  0.49219133699E+03  0.60079197696E+03  0.00000000000E+00 0. -1.
         22    1    3    3    0    0  0.39681881981E+01 -0.15495020561E+02 -0.60812903892E+01  0.17112108946E+02  0.00000000000E+00 0. -1.
</event>
<event>
 7    1  0.6888820E-006  0.1305536E+03  0.7818608E-02  0.1405150E+00
          2   -1    0    0  502    0  0.00000000000E+00  0.00000000000E+00  0.91007011772E+03  0.91007011772E+03  0.00000000000E+00 0. -1.
          1   -1    0    0  501    0 -0.00000000000E+00 -0.00000000000E+00 -0.75916303075E+03  0.75916303075E+03  0.00000000000E+00 0. -1.
         25    2    1    2    0    0 -0.68550390931E+02  0.10020879602E+03 -0.58252992791E+02  0.18373162144E+03  0.12499175433E+03 0.  0.
          2    1    1    2  501    0  0.93507088521E+02 -0.92825981398E+02 -0.63116633111E+03  0.64477218919E+03  0.00000000000E+00 0. -1.
          1    1    1    2  502    0 -0.24956697590E+02 -0.73828146172E+01  0.84032641087E+03  0.84072933785E+03  0.00000000000E+00 0. -1.
         22    1    3    3    0    0 -0.27020736570E+02  0.11947403664E+03 -0.62932939651E+02  0.13771245597E+03  0.00000000000E+00 0.  1.
         22    1    3    3    0    0 -0.41529654361E+02 -0.19265240625E+02  0.46799468593E+01  0.46019165467E+02  0.00000000000E+00 0.  1.
</event>
<event>
 7    1  0.6888820E-006  0.5950872E+02  0.7818608E-02  0.1439149E+00
          2   -1    0    0  502    0  0.00000000000E+00  0.00000000000E+00  0.13619611019E+04  0.13619611019E+04  0.00000000000E+00 0. -1.
          1   -1    0    0  501    0 -0.00000000000E+00 -0.00000000000E+00 -0.11495728721E+04  0.11495728721E+04  0.00000000000E+00 0. -1.
         25    2    1    2    0    0 -0.84595546935E+02  0.37851339904E+02  0.10664648682E+03  0.18864629506E+03  0.12499928398E+03 0.  0.
          2    1    1    2  501    0  0.43734582131E+02  0.47700399912E+01 -0.11074182197E+04  0.11082917397E+04  0.00000000000E+00 0. -1.
          1    1    1    2  502    0  0.40860964803E+02 -0.42621379895E+02  0.12131599627E+04  0.12145959392E+04  0.00000000000E+00 0. -1.
         22    1    3    3    0    0 -0.90353253106E+02  0.69876208881E+02  0.10640972956E+03  0.15610709612E+03  0.00000000000E+00 0. -1.
         22    1    3    3    0    0  0.57577061711E+01 -0.32024868977E+02  0.23675725883E+00  0.32539198936E+02  0.00000000000E+00 0. -1.
</event>
<event>
 7    1  0.6888820E-006  0.1338856E+03  0.7818608E-02  0.1276738E+00
          2   -1    0    0  502    0  0.00000000000E+00  0.00000000000E+00  0.20008379238E+04  0.20008379238E+04  0.00000000000E+00 0. -1.
          1   -1    0    0  501    0 -0.00000000000E+00 -0.00000000000E+00 -0.93643969144E+03  0.93643969144E+03  0.00000000000E+00 0. -1.
         25    2    1    2    0    0 -0.86171535165E+02  0.93668540932E+01 -0.10127927450E+03  0.18274384873E+03  0.12499820550E+03 0.  0.
          2    1    1    2  501    0  0.11855502284E+03 -0.79522474768E+02 -0.78724481106E+03  0.80008343938E+03  0.00000000000E+00 0. -1.
          1    1    1    2  502    0 -0.32383487676E+02  0.70155620675E+02  0.19529223179E+04  0.19544503272E+04  0.00000000000E+00 0. -1.
         22    1    3    3    0    0 -0.48657335929E+02  0.65249435189E+02 -0.36067374112E+02  0.89027414921E+02  0.00000000000E+00 0. -1.
         22    1    3    3    0    0 -0.37514199236E+02 -0.55882581095E+02 -0.65211900391E+02  0.93716433814E+02  0.00000000000E+00 0. -1.
</event>
<event>
 7    1  0.6888820E-006  0.1457701E+03  0.7818608E-02  0.1207101E+00
          2   -1    0    0  502    0  0.00000000000E+00  0.00000000000E+00  0.23622114653E+03  0.23622114653E+03  0.00000000000E+00 0. -1.
          1   -1    0    0  501    0 -0.00000000000E+00 -0.00000000000E+00 -0.28055080442E+04  0.28055080442E+04  0.00000000000E+00 0. -1.
         25    2    1    2    0    0 -0.76089810030E+02 -0.16696171379E+02 -0.46546140732E+03  0.48820894307E+03  0.12500091621E+03 0.  0.
          2    1    1    2  501    0  0.12018436534E+03 -0.12224477798E+03 -0.23015193242E+04  0.23078949861E+04  0.00000000000E+00 0. -1.
          1    1    1    2  502    0 -0.44094555308E+02  0.13894094936E+03  0.19769383378E+03  0.24562526159E+03  0.00000000000E+00 0. -1.
         22    1    3    3    0    0 -0.37250572738E+02  0.41571498683E+02 -0.87308583246E+02  0.10362713631E+03  0.00000000000E+00 0.  1.
         22    1    3    3    0    0 -0.38839237291E+02 -0.58267670062E+02 -0.37815282408E+03  0.38458180675E+03  0.00000000000E+00 0.  1.
</event>
<event>
 7    1  0.6888820E-006  0.8996430E+02  0.7818608E-02  0.1387090E+00
          2   -1    0    0  502    0  0.00000000000E+00  0.00000000000E+00  0.50233165678E+03  0.50233165678E+03  0.00000000000E+00 0. -1.
          1   -1    0    0  501    0 -0.00000000000E+00 -0.00000000000E+00 -0.13479826451E+03  0.13479826451E+03  0.00000000000E+00 0. -1.
         25    2    1    2    0    0 -0.65928793357E+02  0.41326036294E+02  0.55826626443E+02  0.15746457969E+03  0.12499613822E+03 0.  0.
          2    1    1    2  501    0  0.48728686731E+02 -0.81400338980E+02 -0.55477058940E+02  0.10990088337E+03  0.00000000000E+00 0. -1.
          1    1    1    2  502    0  0.17200106626E+02  0.40074302685E+02  0.36718382476E+03  0.36976445823E+03  0.00000000000E+00 0. -1.
         22    1    3    3    0    0 -0.40015235798E+02 -0.10705228375E+02  0.83406671364E+02  0.93126225300E+02  0.00000000000E+00 0.  1.
         22    1    3    3    0    0 -0.25913557560E+02  0.52031264669E+02 -0.27580044921E+02  0.64338354395E+02  0.00000000000E+00 0.  1.
</event>
<event>
 7    1  0.6888820E-006  0.1612034E+03  0.7818608E-02  0.1308280E+00
          2   -1    0    0  502    0  0.00000000000E+00  0.00000000000E+00  0.66299460192E+03  0.66299460192E+03  0.00000000000E+00 0. -1.
          1   -1    0    0  501    0 -0.00000000000E+00 -0.00000000000E+00 -0.14289380826E+03  0.14289380826E+03  0.00000000000E+00 0. -1.
         25    2    1    2    0    0  0.13271574755E+03  0.47980395615E+02  0.27578755506E+03  0.33406325523E+03  0.12499557974E+03 0.  0.
          2    1    1    2  501    0  0.19972902068E+02  0.43444513015E+02 -0.84984918120E+02  0.97512967528E+02  0.00000000000E+00 0. -1.
          1    1    1    2  502    0 -0.15268864962E+03 -0.91424908630E+02  0.32929815672E+03  0.37431218743E+03  0.00000000000E+00 0. -1.
         22    1    3    3    0    0  0.15336219537E+03  0.55304593499E+02  0.26064581266E+03  0.30743259536E+03  0.00000000000E+00 0. -1.
         22    1    3    3    0    0 -0.20646447819E+02 -0.73241978834E+01  0.15141742401E+02  0.26630659870E+02  0.00000000000E+00 0. -1.
</event>
<event>
 7    1  0.6888820E-006  0.5624938E+02  0.7818608E-02  0.1479974E+00
          2   -1    0    0  502    0  0.00000000000E+00  0.00000000000E+00  0.13886379215E+03  0.13886379215E+03  0.00000000000E+00 0. -1.
          1   -1    0    0  501    0 -0.00000000000E+00 -0.00000000000E+00 -0.74201121497E+03  0.74201121497E+03  0.00000000000E+00 0. -1.
         25    2    1    2    0    0 -0.23462228476E+02  0.77510350614E+02 -0.55372101751E+02  0.15890016053E+03  0.12499944298E+03 0.  0.
          2    1    1    2  501    0 -0.87825600547E+01 -0.33457320489E+02 -0.62579573025E+03  0.62675100451E+03  0.00000000000E+00 0. -1.
          1    1    1    2  502    0  0.32244788531E+02 -0.44053030125E+02  0.78020409185E+02  0.95223842078E+02  0.00000000000E+00 0. -1.
         22    1    3    3    0    0  0.99709188870E+01 -0.18281982160E+02  0.22755653013E+02  0.30845904739E+02  0.00000000000E+00 0.  1.
         22    1    3    3    0    0 -0.33433147363E+02  0.95792332774E+02 -0.78127754764E+02  0.12805425579E+03  0.00000000000E+00 0.  1.
</event>
<event>
 7    1  0.6888820E-006  0.2258585E+03  0.7818608E-02  0.1231908E+00
          2   -1    0    0  502    0  0.00000000000E+00  0.00000000000E+00  0.31024246844E+03  0.31024246844E+03  0.00000000000E+00 0. -1.
          1   -1    0    0  501    0 -0.00000000000E+00 -0.00000000000E+00 -0.11754353936E+04  0.11754353936E+04  0.00000000000E+00 0. -1.
         25    2    1    2    0    0 -0.16569225248E+03  0.12474405194E+03 -0.47003420847E+03  0.52874443905E+03  0.12499409452E+03 0.  0.
          2    1    1    2  501    0  0.22691221625E+03 -0.87879955417E+02 -0.64905605519E+03  0.69317083264E+03  0.00000000000E+00 0. -1.
          1    1    1    2  502    0 -0.61219963768E+02 -0.36864096524E+02  0.25389733849E+03  0.26376259035E+03  0.00000000000E+00 0. -1.
         22    1    3    3    0    0 -0.54046671482E+01  0.71300143450E+02 -0.16960481152E+03  0.18406170969E+03  0.00000000000E+00 0. -1.
         22    1    3    3    0    0 -0.16028758533E+03  0.53443908491E+02 -0.30042939696E+03  0.34468272936E+03  0.00000000000E+00 0. -1.
</event>
<event>
 7    1  0.8418955E-006  0.1035196E+03  0.7818608E-02  0.1334942E+00
          2   -1    0    0  502    0  0.00000000000E+00  0.00000000000E+00  0.15036523846E+04  0.15036523846E+04  0.00000000000E+00 0. -1.
          1   -1    0    0  501    0 -0.00000000000E+00 -0.00000000000E+00 -0.16056729010E+04  0.16056729010E+04  0.00000000000E+00 0. -1.
         25    2    1    2    0    0 -0.47115429606E+02 -0.66419861737E+02 -0.88188684110E+03  0.89441666237E+03  0.12500121474E+03 0.  0.
          2    1    1    2  501    0  0.30320095468E+02  0.12267767338E+03 -0.71137502237E+03  0.72251196681E+03  0.00000000000E+00 0. -1.
          1    1    1    2  502    0  0.16795334137E+02 -0.56257811640E+02  0.14912413471E+04  0.14923966564E+04  0.00000000000E+00 0. -1.
         22    1    3    3    0    0  0.21570816243E+02 -0.42184357920E+02 -0.64125555575E+03  0.64300350540E+03  0.00000000000E+00 0. -1.
         22    1    3    3    0    0 -0.68686245849E+02 -0.24235503817E+02 -0.24063128534E+03  0.25141315698E+03  0.00000000000E+00 0. -1.
</event>
<event>
 7    1  0.6888820E-006  0.8695112E+02  0.7818608E-02  0.1453461E+00
          2   -1    0    0  502    0  0.00000000000E+00  0.00000000000E+00  0.15017012570E+03  0.15017012570E+03  0.00000000000E+00 0. -1.
          1   -1    0    0  501    0 -0.00000000000E+00 -0.00000000000E+00 -0.93149593604E+03  0.93149593604E+03  0.00000000000E+00 0. -1.
         25    2    1    2    0    0  0.92184816801E+01  0.11133931665E+03 -0.15325329892E+02  0.16834585699E+03  0.12499615191E+03 0.  0.
          2    1    1    2  501    0  0.95099638357E+00 -0.86240406346E+02 -0.83487241909E+03  0.83931535685E+03  0.00000000000E+00 0. -1.
          1    1    1    2  502    0 -0.10169478064E+02 -0.25098910302E+02  0.68871938641E+02  0.74004847912E+02  0.00000000000E+00 0. -1.
         22    1    3    3    0    0 -0.15776837945E+02  0.69145952951E+02 -0.66672974217E+02  0.97341445007E+02  0.00000000000E+00 0.  1.
         22    1    3    3    0    0  0.24995319625E+02  0.42193363696E+02  0.51347644325E+02  0.71004411982E+02  0.00000000000E+00 0.  1.
</event>
<event>
 7    1  0.6888820E-006  0.2414283E+02  0.7818608E-02  0.1686594E+00
          2   -1    0    0  502    0  0.00000000000E+00  0.00000000000E+00  0.79682767809E+03  0.79682767809E+03  0.00000000000E+00 0. -1.
          1   -1    0    0  501    0 -0.00000000000E+00 -0.00000000000E+00 -0.59128136156E+03  0.59128136156E+03  0.00000000000E+00 0. -1.
         25    2    1    2    0    0 -0.57453321265E+01 -0.23958853302E+02 -0.54234156126E+02  0.13847573041E+03  0.12500859462E+03 0.  0.
          2    1    1    2  501    0 -0.15997100811E+02  0.18175090230E+02 -0.49446245052E+03  0.49505490212E+03  0.00000000000E+00 0. -1.
          1    1    1    2  502    0  0.21742432937E+02  0.57837630726E+01  0.75424292318E+03  0.75457840711E+03  0.00000000000E+00 0. -1.
         22    1    3    3    0    0  0.50877195722E+02  0.27212995093E+01  0.63747862448E+01  0.51347175339E+02  0.00000000000E+00 0.  1.
         22    1    3    3    0    0 -0.56622527849E+02 -0.26680152811E+02 -0.60608942370E+02  0.87128555074E+02  0.00000000000E+00 0.  1.
</event>
<event>
 7    1  0.6888820E-006  0.1464069E+03  0.7818608E-02  0.1410965E+00
          2   -1    0    0  502    0  0.00000000000E+00  0.00000000000E+00  0.46894325393E+04  0.46894325393E+04  0.00000000000E+00 0. -1.
          1   -1    0    0  501    0 -0.00000000000E+00 -0.00000000000E+00 -0.28707295544E+02  0.28707295544E+02  0.00000000000E+00 0. -1.
         25    2    1    2    0    0 -0.92039290646E+02  0.10379492542E+03  0.12968171068E+04  0.13101919609E+04  0.12499499265E+03 0.  0.
          2    1    1    2  501    0  0.97853676296E+01  0.19899531246E+02 -0.14357802173E+02  0.26417631361E+02  0.00000000000E+00 0. -1.
          1    1    1    2  502    0  0.82253923016E+02 -0.12369445667E+03  0.33782659390E+04  0.33815302426E+04  0.00000000000E+00 0. -1.
         22    1    3    3    0    0 -0.10544625785E+03  0.80412528401E+02  0.12424860300E+04  0.12495425654E+04  0.00000000000E+00 0.  1.
         22    1    3    3    0    0  0.13406967204E+02  0.23382397019E+02  0.54331076819E+02  0.60649395448E+02  0.00000000000E+00 0.  1.
</event>
<event>
 7    1  0.6888820E-006  0.5771123E+02  0.7818608E-02  0.1459225E+00
          2   -1    0    0  502    0  0.00000000000E+00  0.00000000000E+00  0.15827593804E+03  0.15827593804E+03  0.00000000000E+00 0. -1.
          1   -1    0    0  501    0 -0.00000000000E+00 -0.00000000000E+00 -0.11108291436E+03  0.11108291436E+03  0.00000000000E+00 0. -1.
         25    2    1    2    0    0  0.16341426173E+02  0.11168599828E+02  0.18268659108E+02  0.12786518143E+03  0.12499592347E+03 0.  0.
          2    1    1    2  501    0  0.78948941475E+01 -0.63544045060E+02  0.48743376337E+02  0.80474168234E+02  0.00000000000E+00 0. -1.
          1    1    1    2  502    0 -0.24236320320E+02  0.52375445232E+02 -0.19819011767E+02  0.61019502729E+02  0.00000000000E+00 0. -1.
         22    1    3    3    0    0  0.38308149601E+02 -0.40150564031E+02  0.39526512857E+02  0.68131691132E+02  0.00000000000E+00 0. -1.
         22    1    3    3    0    0 -0.21966723429E+02  0.51319163859E+02 -0.21257853749E+02  0.59733490299E+02  0.00000000000E+00 0. -1.
</event>
<event>
 7    1  0.6888820E-006  0.1314911E+03  0.7818608E-02  0.1384762E+00
          2   -1    0    0  502    0  0.00000000000E+00  0.00000000000E+00  0.33438161356E+03  0.33438161356E+03  0.00000000000E+00 0. -1.
          1   -1    0    0  501    0 -0.00000000000E+00 -0.00000000000E+00 -0.20515516852E+03  0.20515516852E+03  0.00000000000E+00 0. -1.
         25    2    1    2    0    0 -0.12205530470E+03  0.20152601648E+02 -0.10732246290E+03  0.20602603332E+03  0.12499996242E+03 0.  0.
          2    1    1    2  501    0 -0.49865572690E+00  0.30399862135E+02 -0.25600594194E+02  0.39746580965E+02  0.00000000000E+00 0. -1.
          1    1    1    2  502    0  0.12255396043E+03 -0.50552463783E+02  0.26214950213E+03  0.29376416779E+03  0.00000000000E+00 0. -1.
         22    1    3    3    0    0 -0.12235401793E+03 -0.25304426292E+02 -0.54433022920E+02  0.13628563269E+03  0.00000000000E+00 0.  1.
         22    1    3    3    0    0  0.29871322963E+00  0.45457027940E+02 -0.52889439980E+02  0.69740400631E+02  0.00000000000E+00 0.  1.
</event>
<event>
 7    1  0.6888820E-006  0.5163723E+02  0.7818608E-02  0.1441042E+00
          2   -1    0    0  502    0  0.00000000000E+00  0.00000000000E+00  0.11289622606E+04  0.11289622606E+04  0.00000000000E+00 0. -1.
          1   -1    0    0  501    0 -0.00000000000E+00 -0.00000000000E+00 -0.17599340797E+02  0.17599340797E+02  0.00000000000E+00 0. -1.
         25    2    1    2    0    0  0.30266157425E+01 -0.60841439759E+01  0.33281316442E+03  0.35557831618E+03  0.12500063724E+03 0.  0.
          2    1    1    2  501    0  0.55776371934E+01 -0.49676112115E+02  0.11965131860E+03  0.12967368351E+03  0.00000000000E+00 0. -1.
          1    1    1    2  502    0 -0.86042529359E+01  0.55760256091E+02  0.65889843674E+03  0.66130960168E+03  0.00000000000E+00 0. -1.
         22    1    3    3    0    0  0.63941119298E+02 -0.56740775626E+01  0.17698966117E+03  0.18827108661E+03  0.00000000000E+00 0.  1.
         22    1    3    3    0    0 -0.60914503556E+02 -0.41006641329E+00  0.15582350326E+03  0.16730722957E+03  0.00000000000E+00 0.  1.
</event>
<event>
 7    1  0.6888820E-006  0.1399255E+03  0.7818608E-02  0.1426875E+00
          2   -1    0    0  502    0  0.00000000000E+00  0.00000000000E+00  0.79623486642E+03  0.79623486642E+03  0.00000000000E+00 0. -1.
          1   -1    0    0  501    0 -0.00000000000E+00 -0.00000000000E+00 -0.60304140221E+03  0.60304140221E+03  0.00000000000E+00 0. -1.
         25    2    1    2    0    0 -0.12094305006E+02  0.15853787749E+03 -0.15638685715E+03  0.25565900475E+03  0.12499658717E+03 0.  0.
          2    1    1    2  501    0 -0.39662974649E+01 -0.20139370669E+02 -0.39024622383E+03  0.39078567141E+03  0.00000000000E+00 0. -1.
          1    1    1    2  502    0  0.16060602471E+02 -0.13839850682E+03  0.73982654520E+03  0.75283159247E+03  0.00000000000E+00 0. -1.
         22    1    3    3    0    0  0.38117827448E+02  0.45494539172E+02 -0.10722144894E+03  0.12255268653E+03  0.00000000000E+00 0.  1.
         22    1    3    3    0    0 -0.50212132455E+02  0.11304333832E+03 -0.49165408217E+02  0.13310631822E+03  0.00000000000E+00 0.  1.
</event>
<event>
 7    1  0.6888820E-006  0.6003746E+02  0.7818608E-02  0.1476158E+00
          2   -1    0    0  502    0  0.00000000000E+00  0.00000000000E+00  0.84164844628E+03  0.84164844628E+03  0.00000000000E+00 0. -1.
          1   -1    0    0  501    0 -0.00000000000E+00 -0.00000000000E+00 -0.13013611839E+03  0.13013611839E+03  0.00000000000E+00 0. -1.
         25    2    1    2    0    0  0.74186750417E+02 -0.24861407347E+01  0.78945822421E+02  0.16543088488E+03  0.12500031985E+03 0.  0.
          2    1    1    2  501    0 -0.19572157763E+02  0.26936402517E+02 -0.82407586467E+02  0.88879972139E+02  0.00000000000E+00 0. -1.
          1    1    1    2  502    0 -0.54614592654E+02 -0.24450261782E+02  0.71497409194E+03  0.71747370765E+03  0.00000000000E+00 0. -1.
         22    1    3    3    0    0  0.49617504785E+02  0.53481240636E+02  0.10564566569E+02  0.73713973898E+02  0.00000000000E+00 0. -1.
         22    1    3    3    0    0  0.24569245632E+02 -0.55967381371E+02  0.68381255851E+02  0.91716910983E+02  0.00000000000E+00 0. -1.
</event>
<event>
 7    1  0.6888820E-006  0.2528904E+03  0.7818608E-02  0.1230867E+00
          2   -1    0    0  502    0  0.00000000000E+00  0.00000000000E+00  0.27375319458E+03  0.27375319458E+03  0.00000000000E+00 0. -1.
          1   -1    0    0  501    0 -0.00000000000E+00 -0.00000000000E+00 -0.71111676101E+03  0.71111676101E+03  0.00000000000E+00 0. -1.
         25    2    1    2    0    0 -0.10857228922E+03  0.16828850723E+03  0.90778228594E+02  0.25293361108E+03  0.12500304466E+03 0.  0.
          2    1    1    2  501    0  0.12171813605E+03 -0.23144650455E+03 -0.58825411959E+03  0.64375903747E+03  0.00000000000E+00 0. -1.
          1    1    1    2  502    0 -0.13145846829E+02  0.63157997313E+02  0.60112324560E+02  0.88177307043E+02  0.00000000000E+00 0. -1.
         22    1    3    3    0    0 -0.59313511717E+02  0.84013572307E+02 -0.20545771714E+02  0.10487374190E+03  0.00000000000E+00 0. -1.
         22    1    3    3    0    0 -0.49258777504E+02  0.84274934927E+02  0.11132400031E+03  0.14805986918E+03  0.00000000000E+00 0. -1.
</event>
<event>
 7    1  0.6888820E-006  0.4418144E+02  0.7818608E-02  0.1514610E+00
          2   -1    0    0  502    0  0.00000000000E+00  0.00000000000E+00  0.12003362385E+04  0.12003362385E+04  0.00000000000E+00 0. -1.
          1   -1    0    0  501    0 -0.00000000000E+00 -0.00000000000E+00 -0.20296521532E+03  0.20296521532E+03  0.00000000000E+00 0. -1.
         25    2    1    2    0    0 -0.23396075879E+02 -0.73904338843E+02  0.19227181543E+03  0.24207934634E+03  0.12499892499E+03 0.  0.
          2    1    1    2  501    0  0.53814314221E+01  0.34260088572E+02 -0.17588523587E+03  0.17927166443E+03  0.00000000000E+00 0. -1.
          1    1    1    2  502    0  0.18014644457E+02  0.39644250271E+02  0.98098444361E+03  0.98195044305E+03  0.00000000000E+00 0. -1.
         22    1    3    3    0    0 -0.14301416140E+02  0.57598036138E+01  0.15121218417E+03  0.15199615286E+03  0.00000000000E+00 0. -1.
         22    1    3    3    0    0 -0.90946597396E+01 -0.79664142456E+02  0.41059631258E+02  0.90083193483E+02  0.00000000000E+00 0. -1.
</event>
<event>
 7    1  0.6888820E-006  0.5429525E+02  0.7818608E-02  0.1544279E+00
          2   -1    0    0  502    0  0.00000000000E+00  0.00000000000E+00  0.18585327785E+04  0.18585327785E+04  0.00000000000E+00 0. -1.
          1   -1    0    0  501    0 -0.00000000000E+00 -0.00000000000E+00 -0.80676050789E+03  0.80676050789E+03  0.00000000000E+00 0. -1.
         25    2    1    2    0    0 -0.38392706298E+02  0.63790560483E+02  0.12242562932E+03  0.19015586842E+03  0.12501193575E+03 0.  0.
          2    1    1    2  501    0  0.19286056789E+02 -0.50631057534E+02 -0.77186669908E+03  0.77376589297E+03  0.00000000000E+00 0. -1.
          1    1    1    2  502    0  0.19106649509E+02 -0.13159502949E+02  0.17012133404E+04  0.17013715250E+04  0.00000000000E+00 0. -1.
         22    1    3    3    0    0 -0.54606479729E+02  0.89191254626E+02  0.59339217247E+02  0.12024179903E+03  0.00000000000E+00 0.  1.
         22    1    3    3    0    0  0.16213773431E+02 -0.25400694143E+02  0.63086412068E+02  0.69914069396E+02  0.00000000000E+00 0.  1.
</event>
<event>
 7    1  0.6888820E-006  0.1093233E+03  0.7818608E-02  0.1459304E+00
          2   -1    0    0  502    0  0.00000000000E+00  0.00000000000E+00  0.43099286371E+03  0.43099286371E+03  0.00000000000E+00 0. -1.
          1   -1    0    0  501    0 -0.00000000000E+00 -0.00000000000E+00 -0.98980988743E+03  0.98980988743E+03  0.00000000000E+00 0. -1.
         25    2    1    2    0    0  0.77126732728E+02  0.10308098753E+03 -0.58084405362E+03  0.60792994475E+03  0.12499912081E+03 0.  0.
          2    1    1    2  501    0 -0.72082997274E+01 -0.19339897121E+02 -0.38801663258E+03  0.38856517904E+03  0.00000000000E+00 0. -1.
          1    1    1    2  502    0 -0.69918433001E+02 -0.83741090407E+02  0.41004366247E+03  0.42430762735E+03  0.00000000000E+00 0. -1.
         22    1    3    3    0    0  0.35483135769E+02  0.53860224065E+02 -0.79110297261E+02  0.10207064119E+03  0.00000000000E+00 0.  1.
         22    1    3    3    0    0  0.41643596959E+02  0.49220763464E+02 -0.50173375636E+03  0.50585930355E+03  0.00000000000E+00 0.  1.
</event>
<event>
 7    1  0.6888820E-006  0.7883844E+02  0.7818608E-02  0.1435060E+00
          2   -1    0    0  502    0  0.00000000000E+00  0.00000000000E+00  0.85147363327E+03  0.85147363327E+03  0.00000000000E+00 0. -1.
          1   -1    0    0  501    0 -0.00000000000E+00 -0.00000000000E+00 -0.17951319762E+04  0.17951319762E+04  0.00000000000E+00 0. -1.
         25    2    1    2    0    0  0.95567363067E+01 -0.10731267199E+03 -0.11148991986E+03  0.19915506243E+03  0.12500158352E+03 0.  0.
          2    1    1    2  501    0 -0.17818319026E+02  0.29240705235E+02 -0.16377222301E+04  0.16380801611E+04  0.00000000000E+00 0. -1.
          1    1    1    2  502    0  0.82615827194E+01  0.78071966756E+02  0.80555380697E+03  0.80937038596E+03  0.00000000000E+00 0. -1.
         22    1    3    3    0    0  0.51377642196E+02 -0.61604691877E+02 -0.11130794418E+03  0.13720152556E+03  0.00000000000E+00 0.  1.
         22    1    3    3    0    0 -0.41820905889E+02 -0.45707980114E+02 -0.18197567881E+00  0.61953536870E+02  0.00000000000E+00 0.  1.
</event>
<event>
 7    1  0.6888820E-006  0.6506534E+02  0.7818608E-02  0.1438122E+00
          2   -1    0    0  502    0  0.00000000000E+00  0.00000000000E+00  0.11014648770E+04  0.11014648770E+04  0.00000000000E+00 0. -1.
          1   -1    0    0  501    0 -0.00000000000E+00 -0.00000000000E+00 -0.51855453059E+03  0.51855453059E+03  0.00000000000E+00 0. -1.
         25    2    1    2    0    0  0.47511995765E+02 -0.47550921012E+02 -0.21280750110E+03  0.25579464101E+03  0.12500154404E+03 0.  0.
          2    1    1    2  501    0 -0.36950620475E+02 -0.16695691418E+02 -0.28181983222E+03  0.28472181563E+03  0.00000000000E+00 0. -1.
          1    1    1    2  502    0 -0.10561375290E+02  0.64246612429E+02  0.10775376797E+04  0.10795029509E+04  0.00000000000E+00 0. -1.
         22    1    3    3    0    0  0.49141439514E+01 -0.31921008223E+02  0.55518007814E+01  0.32770750200E+02  0.00000000000E+00 0. -1.
         22    1    3    3    0    0  0.42597851814E+02 -0.15629912789E+02 -0.21835930189E+03  0.22302389081E+03  0.00000000000E+00 0. -1.
</event>
<event>
 7    1  0.6888820E-006  0.1005577E+03  0.7818608E-02  0.1328757E+00
          2   -1    0    0  502    0  0.00000000000E+00  0.00000000000E+00  0.35943135517E+03  0.35943135517E+03  0.00000000000E+00 0. -1.
          1   -1    0    0  501    0 -0.00000000000E+00 -0.00000000000E+00 -0.15569544003E+04  0.15569544003E+04  0.00000000000E+00 0. -1.
         25    2    1    2    0    0 -0.24787982942E+02  0.31505804127E+02 -0.16769739702E+03  0.21296566525E+03  0.12499959126E+03 0.  0.
          2    1    1    2  501    0 -0.25442865197E+02  0.58518607182E+02 -0.13579674153E+04  0.13594658024E+04  0.00000000000E+00 0. -1.
          1    1    1    2  502    0  0.50230848140E+02 -0.90024411309E+02  0.32814176721E+03  0.34395428784E+03  0.00000000000E+00 0. -1.
         22    1    3    3    0    0 -0.63143339791E+02  0.25087927934E+02 -0.38612092834E+02  0.78149722975E+02  0.00000000000E+00 0. -1.
         22    1    3    3    0    0  0.38355356849E+02  0.64178761925E+01 -0.12908530419E+03  0.13481594227E+03  0.00000000000E+00 0. -1.
</event>
<event>
 7    1  0.6888820E-006  0.2174133E+03  0.7818608E-02  0.1251490E+00
          2   -1    0    0  502    0  0.00000000000E+00  0.00000000000E+00  0.38564283726E+03  0.38564283726E+03  0.00000000000E+00 0. -1.
          1   -1    0    0  501    0 -0.00000000000E+00 -0.00000000000E+00 -0.22351790030E+03  0.22351790030E+03  0.00000000000E+00 0. -1.
         25    2    1    2    0    0 -0.17354183503E+03  0.98482888355E+02  0.89939431612E+02  0.25204982651E+03  0.12499746351E+03 0.  0.
          2    1    1    2  501    0  0.18113278288E+03 -0.15889216830E+03  0.12945691650E+03  0.27352312409E+03  0.00000000000E+00 0. -1.
          1    1    1    2  502    0 -0.75909478571E+01  0.60409279942E+02 -0.57271411152E+02  0.83587786953E+02  0.00000000000E+00 0. -1.
         22    1    3    3    0    0 -0.15843333663E+03  0.11778371518E+03  0.10467298059E+03  0.22345146807E+03  0.00000000000E+00 0. -1.
         22    1    3    3    0    0 -0.15108498393E+02 -0.19300826828E+02 -0.14733548980E+02  0.28598358440E+02  0.00000000000E+00 0. -1.
</event>
<event>
 7    1  0.6888820E-006  0.7759643E+02  0.7818608E-02  0.1425467E+00
          2   -1    0    0  502    0  0.00000000000E+00  0.00000000000E+00  0.20168358938E+04  0.20168358938E+04  0.00000000000E+00 0. -1.
          1   -1    0    0  501    0 -0.00000000000E+00 -0.00000000000E+00 -0.22413721559E+03  0.22413721559E+03  0.00000000000E+00 0. -1.
         25    2    1    2    0    0  0.97915245014E+02 -0.11180793123E+02 -0.27012552396E+02  0.16144907770E+03  0.12499488535E+03 0.  0.
          2    1    1    2  501    0 -0.67401105467E+02  0.32829002620E+02 -0.11889412158E+03  0.14055769128E+03  0.00000000000E+00 0. -1.
          1    1    1    2  502    0 -0.30514139547E+02 -0.21648209497E+02  0.19386053522E+04  0.19389663405E+04  0.00000000000E+00 0. -1.
         22    1    3    3    0    0 -0.10960451413E+02 -0.13333138913E+01 -0.48753439793E+02  0.49988069704E+02  0.00000000000E+00 0.  1.
         22    1    3    3    0    0  0.10887569643E+03 -0.98474792314E+01  0.21740887397E+02  0.11146100800E+03  0.00000000000E+00 0.  1.
</event>
<event>
 7    1  0.6888820E-006  0.6426819E+02  0.7818608E-02  0.1410455E+00
          2   -1    0    0  502    0  0.00000000000E+00  0.00000000000E+00  0.12936258752E+04  0.12936258752E+04  0.00000000000E+00 0. -1.
          1   -1    0    0  501    0 -0.00000000000E+00 -0.00000000000E+00 -0.14814316164E+03  0.14814316164E+03  0.00000000000E+00 0. -1.
         25    2    1    2    0    0  0.60556038553E+02 -0.37471179155E+02  0.20397437502E+03  0.24960229334E+03  0.12499854442E+03 0.  0.
          2    1    1    2  501    0 -0.16486620272E+02  0.62574585097E+02 -0.11632817129E+03  0.13311510351E+03  0.00000000000E+00 0. -1.
          1    1    1    2  502    0 -0.44069418281E+02 -0.25103405942E+02  0.10578365098E+04  0.10590516399E+04  0.00000000000E+00 0. -1.
         22    1    3    3    0    0  0.14090333704E+02 -0.79196238283E+02  0.10030021745E+03  0.12857182927E+03  0.00000000000E+00 0.  1.
         22    1    3    3    0    0  0.46465704849E+02  0.41725059128E+02  0.10367415757E+03  0.12103046407E+03  0.00000000000E+00 0.  1.
</event>
<event>
 7    1  0.6888820E-006  0.1426776E+03  0.7818608E-02  0.1212290E+00
          2   -1    0    0  502    0  0.00000000000E+00  0.00000000000E+00  0.25064308165E+04  0.25064308165E+04  0.00000000000E+00 0. -1.
          1   -1    0    0  501    0 -0.00000000000E+00 -0.00000000000E+00 -0.16494205284E+04  0.16494205284E+04  0.00000000000E+00 0. -1.
         25    2    1    2    0    0 -0.12568134673E+02  0.81715933462E+02 -0.19772043186E+03  0.24810073318E+03  0.12500061136E+03 0.  0.
          2    1    1    2  501    0 -0.12831405334E+03 -0.53179938302E+02 -0.14210392375E+04  0.14278113029E+04  0.00000000000E+00 0. -1.
          1    1    1    2  502    0  0.14088218801E+03 -0.28535995160E+02  0.24757699574E+04  0.24799393089E+04  0.00000000000E+00 0. -1.
         22    1    3    3    0    0  0.39628855164E+02 -0.89710586035E+01 -0.30355436339E+02  0.50718621525E+02  0.00000000000E+00 0.  1.
         22    1    3    3    0    0 -0.52196989837E+02  0.90686992065E+02 -0.16736499552E+03  0.19738211166E+03  0.00000000000E+00 0.  1.
</event>
<event>
 7    1  0.6888820E-006  0.7954293E+02  0.7818608E-02  0.1367706E+00
          2   -1    0    0  502    0  0.00000000000E+00  0.00000000000E+00  0.12136135715E+03  0.12136135715E+03  0.00000000000E+00 0. -1.
          1   -1    0    0  501    0 -0.00000000000E+00 -0.00000000000E+00 -0.63323989509E+03  0.63323989509E+03  0.00000000000E+00 0. -1.
         25    2    1    2    0    0 -0.95335079862E+02  0.87876941493E+02 -0.24460562993E+03  0.30375431003E+03  0.12499452936E+03 0.  0.
          2    1    1    2  501    0  0.47147943630E+02 -0.55946398065E+02 -0.34573409507E+03  0.35339070805E+03  0.00000000000E+00 0. -1.
          1    1    1    2  502    0  0.48187136232E+02 -0.31930543428E+02  0.78461187054E+02  0.97456234156E+02  0.00000000000E+00 0. -1.
         22    1    3    3    0    0 -0.68975061422E+02 -0.11067137258E+02 -0.57563743137E+02  0.90518645313E+02  0.00000000000E+00 0. -1.
         22    1    3    3    0    0 -0.26360018440E+02  0.98944078751E+02 -0.18704188679E+03  0.21323566472E+03  0.00000000000E+00 0. -1.
</event>
<event>
 7    1  0.6888820E-006  0.5451659E+02  0.7818608E-02  0.1495804E+00
          2   -1    0    0  502    0  0.00000000000E+00  0.00000000000E+00  0.72306321877E+03  0.72306321877E+03  0.00000000000E+00 0. -1.
          1   -1    0    0  501    0 -0.00000000000E+00 -0.00000000000E+00 -0.75313415592E+02  0.75313415592E+02  0.00000000000E+00 0. -1.
         25    2    1    2    0    0  0.17144126416E+02  0.71851421589E+02  0.42617748165E+03  0.45023259180E+03  0.12500237199E+03 0.  0.
          2    1    1    2  501    0  0.12197622088E+02 -0.29533488776E+02 -0.56734177865E+02  0.65113561429E+02  0.00000000000E+00 0. -1.
          1    1    1    2  502    0 -0.29341748504E+02 -0.42317932813E+02  0.27830649939E+03  0.28303048113E+03  0.00000000000E+00 0. -1.
         22    1    3    3    0    0 -0.30254858159E+02  0.87802957261E+02  0.23671701405E+03  0.25428263898E+03  0.00000000000E+00 0. -1.
         22    1    3    3    0    0  0.47398984575E+02 -0.15951535673E+02  0.18946046760E+03  0.19594995283E+03  0.00000000000E+00 0. -1.
</event>
<event>
 7    1  0.6888820E-006  0.2062278E+03  0.7818608E-02  0.1203881E+00
          2   -1    0    0  502    0  0.00000000000E+00  0.00000000000E+00  0.46117247915E+03  0.46117247915E+03  0.00000000000E+00 0. -1.
          1   -1    0    0  501    0 -0.00000000000E+00 -0.00000000000E+00 -0.16375127246E+04  0.16375127246E+04  0.00000000000E+00 0. -1.
         25    2    1    2    0    0 -0.27192624354E+03  0.10995702342E+03 -0.15626783825E+03  0.35507620023E+03  0.12500016710E+03 0.  0.
          2    1    1    2  501    0  0.78612840604E+02 -0.69836932249E+02 -0.13527105506E+04  0.13567914393E+04  0.00000000000E+00 0. -1.
          1    1    1    2  502    0  0.19331340294E+03 -0.40120091168E+02  0.33263814350E+03  0.38681756421E+03  0.00000000000E+00 0. -1.
         22    1    3    3    0    0 -0.17134741131E+02 -0.15995835297E+02 -0.43276252907E+02  0.49216868715E+02  0.00000000000E+00 0.  1.
         22    1    3    3    0    0 -0.25479150241E+03  0.12595285871E+03 -0.11299158534E+03  0.30585933152E+03  0.00000000000E+00 0.  1.
</event>
<event>
 7    1  0.6888820E-006  0.2169787E+03  0.7818608E-02  0.1330434E+00
          2   -1    0    0  502    0  0.00000000000E+00  0.00000000000E+00  0.38793785407E+03  0.38793785407E+03  0.00000000000E+00 0. -1.
          1   -1    0    0  501    0 -0.00000000000E+00 -0.00000000000E+00 -0.15148726753E+04  0.15148726753E+04  0.00000000000E+00 0. -1.
         25    2    1    2    0    0 -0.91117054727E+02 -0.17251196497E+03 -0.18898269260E+03  0.29900404288E+03  0.12500505523E+03 0.  0.
          2    1    1    2  501    0 -0.25234121941E+02 -0.14571582013E+02 -0.12342407114E+04  0.12345846369E+04  0.00000000000E+00 0. -1.
          1    1    1    2  502    0  0.11635117667E+03  0.18708354698E+03  0.29628858284E+03  0.36922184955E+03  0.00000000000E+00 0. -1.
         22    1    3    3    0    0 -0.50639595148E+02 -0.14669491607E+03 -0.69124515443E+02  0.16988809738E+03  0.00000000000E+00 0.  1.
         22    1    3    3    0    0 -0.40477459579E+02 -0.25817048898E+02 -0.11985817716E+03  0.12911594549E+03  0.00000000000E+00 0.  1.
</event>
<event>
 7    1  0.6888820E-006  0.5226307E+02  0.7818608E-02  0.1567095E+00
          2   -1    0    0  502    0  0.00000000000E+00  0.00000000000E+00  0.91639140011E+03  0.91639140011E+03  0.00000000000E+00 0. -1.
          1   -1    0    0  501    0 -0.00000000000E+00 -0.00000000000E+00 -0.10875578800E+04  0.10875578800E+04  0.00000000000E+00 0. -1.
         25    2    1    2    0    0  0.52615417722E+02  0.48358712204E+02 -0.10640879922E+03  0.17903938837E+03  0.12500129123E+03 0.  0.
          2    1    1    2  501    0 -0.33816838735E+02 -0.39364816480E+02 -0.94399762625E+03  0.94542301946E+03  0.00000000000E+00 0. -1.
          1    1    1    2  502    0 -0.18798578987E+02 -0.89938957242E+01  0.87923994555E+03  0.87948687232E+03  0.00000000000E+00 0. -1.
         22    1    3    3    0    0 -0.23126885653E+02  0.61387269488E+02 -0.36100429357E+02  0.74876502956E+02  0.00000000000E+00 0.  1.
         22    1    3    3    0    0  0.75742303375E+02 -0.13028557283E+02 -0.70308369863E+02  0.10416288542E+03  0.00000000000E+00 0.  1.
</event>
<event>
 7    1  0.6888820E-006  0.8496618E+02  0.7818608E-02  0.1387748E+00
          2   -1    0    0  502    0  0.00000000000E+00  0.00000000000E+00  0.30042975489E+03  0.30042975489E+03  0.00000000000E+00 0. -1.
          1   -1    0    0  501    0 -0.00000000000E+00 -0.00000000000E+00 -0.16634475167E+04  0.16634475167E+04  0.00000000000E+00 0. -1.
         25    2    1    2    0    0 -0.23595927253E+02 -0.86378862026E+02  0.62848881343E+02  0.16611131960E+03  0.12499965210E+03 0.  0.
          2    1    1    2  501    0 -0.22135781302E+02  0.82109216226E+02 -0.16078390843E+04  0.16100864689E+04  0.00000000000E+00 0. -1.
          1    1    1    2  502    0  0.45731708555E+02  0.42696458002E+01  0.18197244116E+03  0.18767948312E+03  0.00000000000E+00 0. -1.
         22    1    3    3    0    0 -0.64127216927E+02 -0.18723320477E+02  0.55593642465E+02  0.86910964573E+02  0.00000000000E+00 0. -1.
         22    1    3    3    0    0  0.40531289674E+02 -0.67655541549E+02  0.72552388781E+01  0.79200355025E+02  0.00000000000E+00 0. -1.
</event>
<event>
 7    1  0.6888820E-006  0.6264974E+02  0.7818608E-02  0.1389531E+00
          2   -1    0    0  502    0  0.00000000000E+00  0.00000000000E+00  0.36485071555E+03  0.36485071555E+03  0.00000000000E+00 0. -1.
          1   -1    0    0  501    0 -0.00000000000E+00 -0.00000000000E+00 -0.87057260747E+03  0.87057260747E+03  0.00000000000E+00 0. -1.
         25    2    1    2    0    0  0.62245274965E+02 -0.69605766558E+01  0.23389011954E+02  0.14175844169E+03  0.12500194409E+03 0.  0.
          2    1    1    2  501    0 -0.24603521223E+02  0.57616456515E+02 -0.80663050784E+03  0.80905980341E+03  0.00000000000E+00 0. -1.
          1    1    1    2  502    0 -0.37641753742E+02 -0.50655879859E+02  0.27751960397E+03  0.28460507792E+03  0.00000000000E+00 0. -1.
         22    1    3    3    0    0  0.10088735733E+03 -0.36106266929E+01  0.14789113462E+02  0.10202947306E+03  0.00000000000E+00 0.  1.
         22    1    3    3    0    0 -0.38642082369E+02 -0.33499499628E+01  0.85998984914E+01  0.39728968633E+02  0.00000000000E+00 0.  1.
</event>
<event>
 7    1  0.6888820E-006  0.1144597E+03  0.7818608E-02  0.1335236E+00
          2   -1    0    0  502    0  0.00000000000E+00  0.00000000000E+00  0.16961261426E+04  0.16961261426E+04  0.00000000000E+00 0. -1.
          1   -1    0    0  501    0 -0.00000000000E+00 -0.00000000000E+00 -0.85563145470E+02  0.85563145470E+02  0.00000000000E+00 0. -1.
         25    2    1    2    0    0  0.73926964906E+02 -0.63889550015E+01  0.21656926344E+03  0.26083240578E+03  0.12500113259E+03 0.  0.
          2    1    1    2  501    0 -0.12488262745E+03 -0.80564816494E+01 -0.71360592240E+00  0.12514426383E+03  0.00000000000E+00 0. -1.
          1    1    1    2  502    0  0.50955662543E+02  0.14445436651E+02  0.13947073396E+04  0.13957126184E+04  0.00000000000E+00 0. -1.
         22    1    3    3    0    0  0.66314229101E+02 -0.59113692131E+02  0.16080446053E+03  0.18371194873E+03  0.00000000000E+00 0. -1.
         22    1    3    3    0    0  0.76127358050E+01  0.52724737130E+02  0.55764802915E+02  0.77120457053E+02  0.00000000000E+00 0. -1.
</event>
<event>
 7    1  0.6888820E-006  0.1351951E+03  0.7818608E-02  0.1327246E+00
          2   -1    0    0  502    0  0.00000000000E+00  0.00000000000E+00  0.18461374844E+04  0.18461374844E+04  0.00000000000E+00 0. -1.
          1   -1    0    0  501    0 -0.00000000000E+00 -0.00000000000E+00 -0.26418158558E+04  0.26418158558E+04  0.00000000000E+00 0. -1.
         25    2    1    2    0    0  0.11477316263E+03  0.28281027612E+02  0.45483099000E+03  0.48627888862E+03  0.12499293051E+03 0.  0.
          2    1    1    2  501    0 -0.13437836466E+03  0.15641214425E+02 -0.26239282895E+04  0.26274135306E+04  0.00000000000E+00 0. -1.
          1    1    1    2  502    0  0.19605202035E+02 -0.43922242038E+02  0.13734189280E+04  0.13742609210E+04  0.00000000000E+00 0. -1.
         22    1    3    3    0    0  0.12541394489E+03  0.49650761275E+02  0.43439255060E+03  0.45485244166E+03  0.00000000000E+00 0.  1.
         22    1    3    3    0    0 -0.10640782257E+02 -0.21369733663E+02  0.20438439399E+02  0.31426446966E+02  0.00000000000E+00 0.  1.
</event>
<event>
 7    1  0.6888820E-006  0.9886787E+02  0.7818608E-02  0.1450679E+00
          2   -1    0    0  502    0  0.00000000000E+00  0.00000000000E+00  0.17865154516E+03  0.17865154516E+03  0.00000000000E+00 0. -1.
          1   -1    0    0  501    0 -0.00000000000E+00 -0.00000000000E+00 -0.12636537998E+04  0.12636537998E+04  0.00000000000E+00 0. -1.
         25    2    1    2    0    0  0.76176777701E+02 -0.12678918772E+02 -0.13294618839E+03  0.19815055984E+03  0.12500119565E+03 0.  0.
          2    1    1    2  501    0 -0.10007356248E+03  0.82233002417E+01 -0.10947802264E+04  0.10993753157E+04  0.00000000000E+00 0. -1.
          1    1    1    2  502    0  0.23896784778E+02  0.44556185303E+01  0.14272416020E+03  0.14477946942E+03  0.00000000000E+00 0. -1.
         22    1    3    3    0    0  0.19937315367E+02 -0.36546892159E+02 -0.13052991303E+03  0.13700813869E+03  0.00000000000E+00 0.  1.
         22    1    3    3    0    0  0.56239462334E+02  0.23867973387E+02 -0.24162753599E+01  0.61142421148E+02  0.00000000000E+00 0.  1.
</event>
<event>
 7    1  0.6888820E-006  0.3228528E+02  0.7818608E-02  0.1593066E+00
          2   -1    0    0  502    0  0.00000000000E+00  0.00000000000E+00  0.30331186180E+03  0.30331186180E+03  0.00000000000E+00 0. -1.
          1   -1    0    0  501    0 -0.00000000000E+00 -0.00000000000E+00 -0.22584902591E+04  0.22584902591E+04  0.00000000000E+00 0. -1.
         25    2    1    2    0    0  0.10577631030E+02  0.94337214811E+01  0.17053004330E+03  0.21191260310E+03  0.12500229720E+03 0.  0.
          2    1    1    2  501    0 -0.30139827503E+02  0.11616652392E+02 -0.22358385941E+04  0.22360719073E+04  0.00000000000E+00 0. -1.
          1    1    1    2  502    0  0.19562196473E+02 -0.21050373873E+02  0.11013015345E+03  0.11381761054E+03  0.00000000000E+00 0. -1.
         22    1    3    3    0    0 -0.38566926823E+02  0.22747945452E+02  0.13398377517E+02  0.46737494445E+02  0.00000000000E+00 0.  1.
         22    1    3    3    0    0  0.49144557853E+02 -0.13314223970E+02  0.15713166578E+03  0.16517510865E+03  0.00000000000E+00 0.  1.
</event>
<event>
 7    1  0.6888820E-006  0.1839564E+03  0.7818608E-02  0.1288439E+00
          2   -1    0    0  502    0  0.00000000000E+00  0.00000000000E+00  0.43995488295E+03  0.43995488295E+03  0.00000000000E+00 0. -1.
          1   -1    0    0  501    0 -0.00000000000E+00 -0.00000000000E+00 -0.16210985601E+04  0.16210985601E+04  0.00000000000E+00 0. -1.
         25    2    1    2    0    0  0.15230190911E+03  0.29729569685E+01 -0.90593033662E+03  0.92711378020E+03  0.12500190657E+03 0.  0.
          2    1    1    2  501    0  0.28344689706E+02 -0.41595243040E+02 -0.68373900741E+03  0.68558924724E+03  0.00000000000E+00 0. -1.
          1    1    1    2  502    0 -0.18064659882E+03  0.38622286072E+02  0.40852566690E+03  0.44835041559E+03  0.00000000000E+00 0. -1.
         22    1    3    3    0    0 -0.14965601883E+02  0.92548513336E+01 -0.25936595445E+02  0.31342120161E+02  0.00000000000E+00 0. -1.
         22    1    3    3    0    0  0.16726751099E+03 -0.62818943651E+01 -0.87999374117E+03  0.89577166004E+03  0.00000000000E+00 0. -1.
</event>
<event>
 7    1  0.6888820E-006  0.1155620E+03  0.7818608E-02  0.1296756E+00
          2   -1    0    0  502    0  0.00000000000E+00  0.00000000000E+00  0.77016007168E+03  0.77016007168E+03  0.00000000000E+00 0. -1.
          1   -1    0    0  501    0 -0.00000000000E+00 -0.00000000000E+00 -0.12161376220E+04  0.12161376220E+04  0.00000000000E+00 0. -1.
         25    2    1    2    0    0  0.23458581612E+02  0.15333912677E+03 -0.58258431925E+03  0.61570533712E+03  0.12500152106E+03 0.  0.
          2    1    1    2  501    0  0.30863702306E+02 -0.10287552204E+03 -0.61046942940E+03  0.61984584002E+03  0.00000000000E+00 0. -1.
          1    1    1    2  502    0 -0.54322283919E+02 -0.50463604737E+02  0.74707619835E+03  0.75074651653E+03  0.00000000000E+00 0. -1.
         22    1    3    3    0    0 -0.51603167633E+02  0.67254982452E+02 -0.26308778661E+03  0.27640785633E+03  0.00000000000E+00 0. -1.
         22    1    3    3    0    0  0.75061749246E+02  0.86084144320E+02 -0.31949653263E+03  0.33929748079E+03  0.00000000000E+00 0. -1.
</event>
<event>
 7    1  0.6888820E-006  0.5031016E+02  0.7818608E-02  0.1528216E+00
          2   -1    0    0  502    0  0.00000000000E+00  0.00000000000E+00  0.25203044068E+04  0.25203044068E+04  0.00000000000E+00 0. -1.
          1   -1    0    0  501    0 -0.00000000000E+00 -0.00000000000E+00 -0.50812824109E+01  0.50812824109E+01  0.00000000000E+00 0. -1.
         25    2    1    2    0    0  0.18992548366E+02 -0.23107986333E+02  0.13497477735E+04  0.13558569081E+04  0.12503682358E+03 0.  0.
          2    1    1    2  501    0 -0.40374585629E+02  0.40892969264E+02  0.47038520406E+03  0.47388245620E+03  0.00000000000E+00 0. -1.
          1    1    1    2  502    0  0.21382037263E+02 -0.17784982931E+02  0.69509014685E+03  0.69564632493E+03  0.00000000000E+00 0. -1.
         22    1    3    3    0    0 -0.31205870270E+02  0.37471894513E+02  0.43219435187E+03  0.43493667011E+03  0.00000000000E+00 0. -1.
         22    1    3    3    0    0  0.50198418636E+02 -0.60579880846E+02  0.91755342161E+03  0.92092023797E+03  0.00000000000E+00 0. -1.
</event>
<event>
 7    1  0.6888820E-006  0.6409969E+02  0.7818608E-02  0.1444752E+00
          2   -1    0    0  502    0  0.00000000000E+00  0.00000000000E+00  0.15124958292E+04  0.15124958292E+04  0.00000000000E+00 0. -1.
          1   -1    0    0  501    0 -0.00000000000E+00 -0.00000000000E+00 -0.27834197163E+03  0.27834197163E+03  0.00000000000E+00 0. -1.
         25    2    1    2    0    0 -0.14710100764E+01  0.70207142700E+02 -0.16885899638E+03  0.22151640383E+03  0.12499979900E+03 0.  0.
          2    1    1    2  501    0  0.35747833218E+02 -0.16018752739E+02 -0.77808257016E+02  0.87112759564E+02  0.00000000000E+00 0. -1.
          1    1    1    2  502    0 -0.34276823142E+02 -0.54188389961E+02  0.14808211109E+04  0.14822086374E+04  0.00000000000E+00 0. -1.
         22    1    3    3    0    0 -0.92543955036E+01 -0.28514316700E+02 -0.90196088679E+02  0.95047590742E+02  0.00000000000E+00 0. -1.
         22    1    3    3    0    0  0.77833854272E+01  0.98721459400E+02 -0.78662907700E+02  0.12646881308E+03  0.00000000000E+00 0. -1.
</event>
<event>
 7    1  0.6888820E-006  0.6583699E+02  0.7818608E-02  0.1390811E+00
          2   -1    0    0  502    0  0.00000000000E+00  0.00000000000E+00  0.28402035443E+03  0.28402035443E+03  0.00000000000E+00 0. -1.
          1   -1    0    0  501    0 -0.00000000000E+00 -0.00000000000E+00 -0.14263139495E+04  0.14263139495E+04  0.00000000000E+00 0. -1.
         25    2    1    2    0    0 -0.71317309249E+02  0.39259647629E+02 -0.47158055580E+03  0.49461166805E+03  0.12500001212E+03 0.  0.
          2    1    1    2  501    0  0.79295760870E+01 -0.57286856294E+02 -0.93833018229E+03  0.94011073448E+03  0.00000000000E+00 0. -1.
          1    1    1    2  502    0  0.63387733162E+02  0.18027208665E+02  0.26761714301E+03  0.27561190142E+03  0.00000000000E+00 0. -1.
         22    1    3    3    0    0 -0.94897381295E+02  0.32064933397E+02 -0.21888380053E+03  0.24071516584E+03  0.00000000000E+00 0. -1.
         22    1    3    3    0    0  0.23580072045E+02  0.71947142325E+01 -0.25269675527E+03  0.25389650221E+03  0.00000000000E+00 0. -1.
</event>
<event>
 7    1  0.6888820E-006  0.4264521E+02  0.7818608E-02  0.1523146E+00
          2   -1    0    0  502    0  0.00000000000E+00  0.00000000000E+00  0.11932156987E+04  0.11932156987E+04  0.00000000000E+00 0. -1.
          1   -1    0    0  501    0 -0.00000000000E+00 -0.00000000000E+00 -0.40819724276E+02  0.40819724276E+02  0.00000000000E+00 0. -1.
         25    2    1    2    0    0 -0.44692142596E+02  0.52175125128E+02  0.91675617908E+03  0.92778617725E+03  0.12500267008E+03 0.  0.
          2    1    1    2  501    0  0.14917879452E+02 -0.30478207712E+02 -0.25548337515E+02  0.42475661531E+02  0.00000000000E+00 0. -1.
          1    1    1    2  502    0  0.29774263144E+02 -0.21696917416E+02  0.26118813283E+03  0.26377358416E+03  0.00000000000E+00 0. -1.
         22    1    3    3    0    0 -0.77809522500E+01  0.76881621650E+02  0.31297678087E+03  0.32237523529E+03  0.00000000000E+00 0. -1.
         22    1    3    3    0    0 -0.36911190346E+02 -0.24706496522E+02  0.60377939821E+03  0.60541094196E+03  0.00000000000E+00 0. -1.
</event>
<event>
 7    1  0.6888820E-006  0.3280438E+02  0.7818608E-02  0.1572657E+00
          2   -1    0    0  502    0  0.00000000000E+00  0.00000000000E+00  0.13431289497E+04  0.13431289497E+04  0.00000000000E+00 0. -1.
          1   -1    0    0  501    0 -0.00000000000E+00 -0.00000000000E+00 -0.36051290370E+03  0.36051290370E+03  0.00000000000E+00 0. -1.
         25    2    1    2    0    0 -0.17317389215E+02  0.25090725687E+02  0.22382670979E+02  0.13059406691E+03  0.12499755945E+03 0.  0.
          2    1    1    2  501    0  0.31755760185E+02  0.44436581006E+01 -0.30535427445E+03  0.30703323489E+03  0.00000000000E+00 0. -1.
          1    1    1    2  502    0 -0.14438370970E+02 -0.29534383788E+02  0.12655876495E+04  0.12660145516E+04  0.00000000000E+00 0. -1.
         22    1    3    3    0    0  0.33878101424E+02  0.27389848102E+02 -0.33362375799E+02  0.54872376056E+02  0.00000000000E+00 0. -1.
         22    1    3    3    0    0 -0.51195490639E+02 -0.22991224144E+01  0.55745046778E+02  0.75721690855E+02  0.00000000000E+00 0. -1.
</event>
<event>
 7    1  0.6888820E-006  0.6997981E+02  0.7818608E-02  0.1392979E+00
          2   -1    0    0  502    0  0.00000000000E+00  0.00000000000E+00  0.57922155095E+03  0.57922155095E+03  0.00000000000E+00 0. -1.
          1   -1    0    0  501    0 -0.00000000000E+00 -0.00000000000E+00 -0.36791850559E+03  0.36791850559E+03  0.00000000000E+00 0. -1.
         25    2    1    2    0    0  0.66742953964E+02 -0.23476609180E+02 -0.68599157357E+01  0.14379518476E+03  0.12499689450E+03 0.  0.
          2    1    1    2  501    0 -0.28022457799E+01  0.53398791064E+02 -0.28767600970E+03  0.29260343474E+03  0.00000000000E+00 0. -1.
          1    1    1    2  502    0 -0.63940708184E+02 -0.29922181884E+02  0.50583897079E+03  0.51074143703E+03  0.00000000000E+00 0. -1.
         22    1    3    3    0    0 -0.36224168548E+02 -0.40365685221E+01 -0.13329995945E+02  0.38809445556E+02  0.00000000000E+00 0.  1.
         22    1    3    3    0    0  0.10296712251E+03 -0.19440040658E+02  0.64700802097E+01  0.10498573921E+03  0.00000000000E+00 0.  1.
</event>
<event>
 7    1  0.6888820E-006  0.8512826E+02  0.7818608E-02  0.1423541E+00
          2   -1    0    0  502    0  0.00000000000E+00  0.00000000000E+00  0.30089635381E+02  0.30089635381E+02  0.00000000000E+00 0. -1.
          1   -1    0    0  501    0 -0.00000000000E+00 -0.00000000000E+00 -0.10082552235E+04  0.10082552235E+04  0.00000000000E+00 0. -1.
         25    2    1    2    0    0  0.41846992279E+02  0.53032815548E+02 -0.60602752511E+03  0.62246677722E+03  0.12502750603E+03 0.  0.
          2    1    1    2  501    0 -0.73114487189E+02 -0.67868891418E+02 -0.36769229186E+03  0.38098495528E+03  0.00000000000E+00 0. -1.
          1    1    1    2  502    0  0.31267494910E+02  0.14836075870E+02 -0.44457711136E+01  0.34893126343E+02  0.00000000000E+00 0. -1.
         22    1    3    3    0    0 -0.21388980927E+01  0.83415889673E+02 -0.28299502213E+03  0.29504062108E+03  0.00000000000E+00 0.  1.
         22    1    3    3    0    0  0.43985890372E+02 -0.30383074125E+02 -0.32303250298E+03  0.32742615614E+03  0.00000000000E+00 0.  1.
</event>
<event>
 7    1  0.6888820E-006  0.1485870E+03  0.7818608E-02  0.1334207E+00
          2   -1    0    0  502    0  0.00000000000E+00  0.00000000000E+00  0.12652331180E+03  0.12652331180E+03  0.00000000000E+00 0. -1.
          1   -1    0    0  501    0 -0.00000000000E+00 -0.00000000000E+00 -0.21085044632E+04  0.21085044632E+04  0.00000000000E+00 0. -1.
         25    2    1    2    0    0  0.20161512114E+02 -0.15094757407E+03 -0.15593598268E+03  0.25126270722E+03  0.12500104263E+03 0.  0.
          2    1    1    2  501    0  0.38606893711E+02  0.14291842183E+02 -0.18343168121E+04  0.18347787104E+04  0.00000000000E+00 0. -1.
          1    1    1    2  502    0 -0.58768405825E+02  0.13665573188E+03  0.82716434471E+01  0.14898635731E+03  0.00000000000E+00 0. -1.
         22    1    3    3    0    0  0.30717119347E+02 -0.10963791445E+03 -0.17151607064E+03  0.20586834675E+03  0.00000000000E+00 0.  1.
         22    1    3    3    0    0 -0.10555607234E+02 -0.41309659621E+02  0.15580087961E+02  0.45394360475E+02  0.00000000000E+00 0.  1.
</event>
<event>
 7    1  0.6888820E-006  0.7281851E+02  0.7818608E-02  0.1457741E+00
          2   -1    0    0  502    0  0.00000000000E+00  0.00000000000E+00  0.12480369255E+04  0.12480369255E+04  0.00000000000E+00 0. -1.
          1   -1    0    0  501    0 -0.00000000000E+00 -0.00000000000E+00 -0.36127374944E+03  0.36127374944E+03  0.00000000000E+00 0. -1.
         25    2    1    2    0    0  0.26357219655E+02 -0.97791303790E+02  0.85001915188E+02  0.18196034528E+03  0.12500559806E+03 0.  0.
          2    1    1    2  501    0 -0.27561040655E+02  0.66473532973E+02 -0.30843168839E+03  0.31671508955E+03  0.00000000000E+00 0. -1.
          1    1    1    2  502    0  0.12038210003E+01  0.31317770817E+02  0.11101929492E+04  0.11106352401E+04  0.00000000000E+00 0. -1.
         22    1    3    3    0    0  0.40831892515E+01 -0.79688031521E+02  0.11530488238E+03  0.14022150585E+03  0.00000000000E+00 0. -1.
         22    1    3    3    0    0  0.22274030403E+02 -0.18103272269E+02 -0.30302967188E+02  0.41738839438E+02  0.00000000000E+00 0. -1.
</event>
<event>
 7    1  0.6888820E-006  0.5409471E+02  0.7818608E-02  0.1495864E+00
          2   -1    0    0  502    0  0.00000000000E+00  0.00000000000E+00  0.73082690846E+03  0.73082690846E+03  0.00000000000E+00 0. -1.
          1   -1    0    0  501    0 -0.00000000000E+00 -0.00000000000E+00 -0.57587699836E+03  0.57587699836E+03  0.00000000000E+00 0. -1.
         25    2    1    2    0    0 -0.54328492493E+02 -0.56175512219E+02  0.20575409475E+03  0.25310706515E+03  0.12498466166E+03 0.  0.
          2    1    1    2  501    0  0.76859696320E+01  0.31258019616E+02 -0.55033461124E+03  0.55127517833E+03  0.00000000000E+00 0. -1.
          1    1    1    2  502    0  0.46642522861E+02  0.24917492603E+02  0.49953042659E+03  0.50232166334E+03  0.00000000000E+00 0. -1.
         22    1    3    3    0    0  0.73975051721E+01 -0.77408294681E+02  0.14180534770E+03  0.16172669478E+03  0.00000000000E+00 0.  1.
         22    1    3    3    0    0 -0.61725997665E+02  0.21232782461E+02  0.63948747056E+02  0.91380370369E+02  0.00000000000E+00 0.  1.
</event>
<event>
 7    1  0.6888820E-006  0.1051590E+03  0.7818608E-02  0.1396224E+00
          2   -1    0    0  502    0  0.00000000000E+00  0.00000000000E+00  0.91822235792E+03  0.91822235792E+03  0.00000000000E+00 0. -1.
          1   -1    0    0  501    0 -0.00000000000E+00 -0.00000000000E+00 -0.50408189707E+02  0.50408189707E+02  0.00000000000E+00 0. -1.
         25    2    1    2    0    0  0.80545498613E+02 -0.20286015253E+02  0.24220393575E+03  0.28493338216E+03  0.12500074406E+03 0.  0.
          2    1    1    2  501    0  0.17987007050E+02 -0.29644296551E+02 -0.11921596447E+02  0.36666622458E+02  0.00000000000E+00 0. -1.
          1    1    1    2  502    0 -0.98532505664E+02  0.49930311804E+02  0.63753182891E+03  0.64703054301E+03  0.00000000000E+00 0. -1.
         22    1    3    3    0    0  0.10151575010E+03  0.18649361842E+02  0.14338816209E+03  0.17667317636E+03  0.00000000000E+00 0. -1.
         22    1    3    3    0    0 -0.20970251491E+02 -0.38935377095E+02  0.98815773657E+02  0.10826020580E+03  0.00000000000E+00 0. -1.
</event>
<event>
 7    1  0.6888820E-006  0.7990886E+02  0.7818608E-02  0.1421077E+00
          2   -1    0    0  502    0  0.00000000000E+00  0.00000000000E+00  0.30350246385E+03  0.30350246385E+03  0.00000000000E+00 0. -1.
          1   -1    0    0  501    0 -0.00000000000E+00 -0.00000000000E+00 -0.29685438755E+03  0.29685438755E+03  0.00000000000E+00 0. -1.
         25    2    1    2    0    0 -0.46577996102E+02 -0.28118821697E+02  0.10097332121E+03  0.16965194246E+03  0.12500396845E+03 0.  0.
          2    1    1    2  501    0 -0.37554600837E+02 -0.11512019066E+01 -0.24921256411E+03  0.25202891783E+03  0.00000000000E+00 0. -1.
          1    1    1    2  502    0  0.84132596939E+02  0.29270023604E+02  0.15488731920E+03  0.17867599111E+03  0.00000000000E+00 0. -1.
         22    1    3    3    0    0 -0.79665569315E+02 -0.30593712893E+02  0.10601114532E+03  0.13609166446E+03  0.00000000000E+00 0.  1.
         22    1    3    3    0    0  0.33087573214E+02  0.24748911959E+01 -0.50378241069E+01  0.33560277999E+02  0.00000000000E+00 0.  1.
</event>
<event>
 7    1  0.6888820E-006  0.6442712E+02  0.7818608E-02  0.1398688E+00
          2   -1    0    0  502    0  0.00000000000E+00  0.00000000000E+00  0.22637727613E+04  0.22637727613E+04  0.00000000000E+00 0. -1.
          1   -1    0    0  501    0 -0.00000000000E+00 -0.00000000000E+00 -0.52602154047E+03  0.52602154047E+03  0.00000000000E+00 0. -1.
         25    2    1    2    0    0 -0.90029056974E+02  0.27017518914E+02  0.19990632365E+03  0.25381609013E+03  0.12499956780E+03 0.  0.
          2    1    1    2  501    0  0.61023827006E+02  0.20298520615E+02 -0.49661482677E+03  0.50076164347E+03  0.00000000000E+00 0. -1.
          1    1    1    2  502    0  0.29005229968E+02 -0.47316039529E+02  0.20344597239E+04  0.20352165681E+04  0.00000000000E+00 0. -1.
         22    1    3    3    0    0 -0.16464083307E+02 -0.30098807084E+02  0.13747773605E+03  0.14169379710E+03  0.00000000000E+00 0. -1.
         22    1    3    3    0    0 -0.73564973667E+02  0.57116325998E+02  0.62428587598E+02  0.11212229304E+03  0.00000000000E+00 0. -1.
</event>
<event>
 7    1  0.6888820E-006  0.4292327E+02  0.7818608E-02  0.1563983E+00
          2   -1    0    0  502    0  0.00000000000E+00  0.00000000000E+00  0.76154631299E+03  0.76154631299E+03  0.00000000000E+00 0. -1.
          1   -1    0    0  501    0 -0.00000000000E+00 -0.00000000000E+00 -0.12544512454E+04  0.12544512454E+04  0.00000000000E+00 0. -1.
         25    2    1    2    0    0 -0.15071159298E+02  0.44977314600E+02  0.79122501692E+02  0.15534846705E+03  0.12499070873E+03 0.  0.
          2    1    1    2  501    0  0.25661127573E+02 -0.33245584151E+01 -0.12154837174E+04  0.12157591099E+04  0.00000000000E+00 0. -1.
          1    1    1    2  502    0 -0.10589968275E+02 -0.41652756185E+02  0.64345628332E+03  0.64488998137E+03  0.00000000000E+00 0. -1.
         22    1    3    3    0    0 -0.60814263046E+02 -0.10535696927E+02  0.34704535535E+02  0.70808052412E+02  0.00000000000E+00 0.  1.
         22    1    3    3    0    0  0.45743103748E+02  0.55513011527E+02  0.44417966157E+02  0.84540414636E+02  0.00000000000E+00 0.  1.
</event>
<event>
 7    1  0.6888820E-006  0.6723562E+02  0.7818608E-02  0.1434767E+00
          2   -1    0    0  502    0  0.00000000000E+00  0.00000000000E+00  0.16044787192E+03  0.16044787192E+03  0.00000000000E+00 0. -1.
          1   -1    0    0  501    0 -0.00000000000E+00 -0.00000000000E+00 -0.54889851197E+03  0.54889851197E+03  0.00000000000E+00 0. -1.
         25    2    1    2    0    0 -0.14413573394E+02  0.39159515085E+02 -0.19169125253E+02  0.13316726405E+03  0.12499938452E+03 0.  0.
          2    1    1    2  501    0 -0.14566525323E+02 -0.67077263464E+02 -0.46620674692E+03  0.47123271725E+03  0.00000000000E+00 0. -1.
          1    1    1    2  502    0  0.28980098717E+02  0.27917748379E+02  0.96925232116E+02  0.10494640259E+03  0.00000000000E+00 0. -1.
         22    1    3    3    0    0 -0.23424909236E+02 -0.42904561885E+02 -0.25190580020E+01  0.48947660378E+02  0.00000000000E+00 0.  1.
         22    1    3    3    0    0  0.90113358421E+01  0.82064076970E+02 -0.16650067251E+02  0.84219603668E+02  0.00000000000E+00 0.  1.
</event>
<event>
 7    1  0.6888820E-006  0.6869107E+02  0.7818608E-02  0.1398480E+00
          2   -1    0    0  502    0  0.00000000000E+00  0.00000000000E+00  0.44411722270E+03  0.44411722270E+03  0.00000000000E+00 0. -1.
          1   -1    0    0  501    0 -0.00000000000E+00 -0.00000000000E+00 -0.27314566499E+04  0.27314566499E+04  0.00000000000E+00 0. -1.
         25    2    1    2    0    0 -0.82266849362E+02  0.72137853387E+02 -0.87584777137E+03  0.89145855925E+03  0.12496935570E+03 0.  0.
          2    1    1    2  501    0  0.61377889143E+02 -0.24365587010E+02 -0.18456531794E+04  0.18468342063E+04  0.00000000000E+00 0. -1.
          1    1    1    2  502    0  0.20888960219E+02 -0.47772266377E+02  0.43416152351E+03  0.43728110706E+03  0.00000000000E+00 0. -1.
         22    1    3    3    0    0 -0.67307239115E+02  0.73051394759E+02 -0.31240509691E+03  0.32781658788E+03  0.00000000000E+00 0.  1.
         22    1    3    3    0    0 -0.14959610248E+02 -0.91354137148E+00 -0.56344267445E+03  0.56364197137E+03  0.00000000000E+00 0.  1.
</event>
<event>
 7    1  0.6888820E-006  0.8645358E+02  0.7818608E-02  0.1391137E+00
          2   -1    0    0  502    0  0.00000000000E+00  0.00000000000E+00  0.85005791862E+02  0.85005791862E+02  0.00000000000E+00 0. -1.
          1   -1    0    0  501    0 -0.00000000000E+00 -0.00000000000E+00 -0.44251544803E+03  0.44251544803E+03  0.00000000000E+00 0. -1.
         25    2    1    2    0    0 -0.11992776659E+03 -0.31441817318E+02 -0.11400616476E+03  0.20974754142E+03  0.12500147381E+03 0.  0.
          2    1    1    2  501    0  0.80809087045E+02  0.11459768336E+02 -0.25871810430E+03  0.27128673453E+03  0.00000000000E+00 0. -1.
          1    1    1    2  502    0  0.39118679549E+02  0.19982048982E+02  0.15214612887E+02  0.46486963941E+02  0.00000000000E+00 0. -1.
         22    1    3    3    0    0 -0.53573382517E+02  0.14720330055E+02 -0.11629285211E+03  0.12888298135E+03  0.00000000000E+00 0.  1.
         22    1    3    3    0    0 -0.66354384077E+02 -0.46162147374E+02  0.22866873486E+01  0.80864560071E+02  0.00000000000E+00 0.  1.
</event>
<event>
 7    1  0.6888820E-006  0.4185714E+02  0.7818608E-02  0.1534786E+00
          2   -1    0    0  502    0  0.00000000000E+00  0.00000000000E+00  0.38632230240E+03  0.38632230240E+03  0.00000000000E+00 0. -1.
          1   -1    0    0  501    0 -0.00000000000E+00 -0.00000000000E+00 -0.81369979236E+03  0.81369979236E+03  0.00000000000E+00 0. -1.
         25    2    1    2    0    0  0.66949384013E+02 -0.27816533910E+02 -0.21806123160E+01  0.14451842494E+03  0.12499936200E+03 0.  0.
          2    1    1    2  501    0 -0.40416002360E+02  0.99049415255E+01 -0.73895043334E+03  0.74012114146E+03  0.00000000000E+00 0. -1.
          1    1    1    2  502    0 -0.26533381654E+02  0.17911592384E+02  0.31375355569E+03  0.31538252835E+03  0.00000000000E+00 0. -1.
         22    1    3    3    0    0  0.15084104872E+00  0.34798179512E+02 -0.32956294916E+02  0.47927585219E+02  0.00000000000E+00 0.  1.
         22    1    3    3    0    0  0.66798542964E+02 -0.62614713422E+02  0.30775682600E+02  0.96590839724E+02  0.00000000000E+00 0.  1.
</event>
<event>
 7    1  0.7999497E-006  0.3441988E+02  0.7818608E-02  0.1558988E+00
          2   -1    0    0  502    0  0.00000000000E+00  0.00000000000E+00  0.10818679502E+04  0.10818679502E+04  0.00000000000E+00 0. -1.
          1   -1    0    0  501    0 -0.00000000000E+00 -0.00000000000E+00 -0.14077598883E+04  0.14077598883E+04  0.00000000000E+00 0. -1.
         25    2    1    2    0    0 -0.46591375926E+02 -0.83901467637E+01 -0.31115514332E+03  0.33865114096E+03  0.12500368469E+03 0.  0.
          2    1    1    2  501    0  0.28379062888E+02 -0.19492960633E+02 -0.10823233473E+04  0.10828708024E+04  0.00000000000E+00 0. -1.
          1    1    1    2  502    0  0.18212313039E+02  0.27883107397E+02  0.10675865525E+04  0.10681058951E+04  0.00000000000E+00 0. -1.
         22    1    3    3    0    0 -0.30000993088E+02 -0.32091058603E+02 -0.30615616356E+03  0.30929192055E+03  0.00000000000E+00 0. -1.
         22    1    3    3    0    0 -0.16590382839E+02  0.23700911839E+02 -0.49989797596E+01  0.29359220415E+02  0.00000000000E+00 0. -1.
</event>
<event>
 7    1  0.6888820E-006  0.6819081E+02  0.7818608E-02  0.1457586E+00
          2   -1    0    0  502    0  0.00000000000E+00  0.00000000000E+00  0.49159980875E+03  0.49159980875E+03  0.00000000000E+00 0. -1.
          1   -1    0    0  501    0 -0.00000000000E+00 -0.00000000000E+00 -0.20298631110E+03  0.20298631110E+03  0.00000000000E+00 0. -1.
         25    2    1    2    0    0 -0.89854700503E+01  0.39326195955E+02  0.55965995179E+02  0.14277262631E+03  0.12499816738E+03 0.  0.
          2    1    1    2  501    0  0.12964750544E+02  0.30895627540E+02 -0.15462112383E+03  0.15820972313E+03  0.00000000000E+00 0. -1.
          1    1    1    2  502    0 -0.39792804939E+01 -0.70221823495E+02  0.38726862630E+03  0.39360377041E+03  0.00000000000E+00 0. -1.
         22    1    3    3    0    0  0.23391112626E+02 -0.18892046446E+02 -0.24160332430E+02  0.38571689514E+02  0.00000000000E+00 0.  1.
         22    1    3    3    0    0 -0.32376582676E+02  0.58218242401E+02  0.80126327609E+02  0.10420093680E+03  0.00000000000E+00 0.  1.
</event>
<event>
 7    1  0.6888820E-006  0.2996350E+02  0.7818608E-02  0.1665299E+00
          2   -1    0    0  502    0  0.00000000000E+00  0.00000000000E+00  0.45014049996E+03  0.45014049996E+03  0.00000000000E+00 0. -1.
          1   -1    0    0  501    0 -0.00000000000E+00 -0.00000000000E+00 -0.79019567518E+03  0.79019567518E+03  0.00000000000E+00 0. -1.
         25    2    1    2    0    0  0.49442084589E+02 -0.54150984112E+01  0.18313569503E+01  0.13454503769E+03  0.12500068111E+03 0.  0.
          2    1    1    2  501    0 -0.19649368825E+02  0.53576854353E+01 -0.72311426810E+03  0.72340102794E+03  0.00000000000E+00 0. -1.
          1    1    1    2  502    0 -0.29792715764E+02  0.57412975881E-01  0.38122773594E+03  0.38239010952E+03  0.00000000000E+00 0. -1.
         22    1    3    3    0    0  0.59852930177E+02 -0.80505924917E+01  0.54163364808E+02  0.81122471471E+02  0.00000000000E+00 0.  1.
         22    1    3    3    0    0 -0.10410845588E+02  0.26354940805E+01 -0.52332007858E+02  0.53422566218E+02  0.00000000000E+00 0.  1.
</event>
<event>
 7    1  0.6888820E-006  0.1257796E+03  0.7818608E-02  0.1326420E+00
          2   -1    0    0  502    0  0.00000000000E+00  0.00000000000E+00  0.28259190207E+04  0.28259190207E+04  0.00000000000E+00 0. -1.
          1   -1    0    0  501    0 -0.00000000000E+00 -0.00000000000E+00 -0.10626498300E+03  0.10626498300E+03  0.00000000000E+00 0. -1.
         25    2    1    2    0    0  0.12983738369E+03 -0.45227951809E+01  0.42675020222E+03  0.46326968416E+03  0.12499945315E+03 0.  0.
          2    1    1    2  501    0 -0.11414233785E+03  0.54179924468E+02 -0.42215413871E+02  0.13321440866E+03  0.00000000000E+00 0. -1.
          1    1    1    2  502    0 -0.15695045838E+02 -0.49657129287E+02  0.23351192494E+04  0.23356999109E+04  0.00000000000E+00 0. -1.
         22    1    3    3    0    0 -0.70250050007E+01  0.32804581238E+02  0.45874141624E+02  0.56832456529E+02  0.00000000000E+00 0.  1.
         22    1    3    3    0    0  0.13686238869E+03 -0.37327376419E+02  0.38087606060E+03  0.40643722763E+03  0.00000000000E+00 0.  1.
</event>
<event>
 7    1  0.6888820E-006  0.7620002E+02  0.7818608E-02  0.1362609E+00
          2   -1    0    0  502    0  0.00000000000E+00  0.00000000000E+00  0.55163015331E+03  0.55163015331E+03  0.00000000000E+00 0. -1.
          1   -1    0    0  501    0 -0.00000000000E+00 -0.00000000000E+00 -0.10513064253E+04  0.10513064253E+04  0.00000000000E+00 0. -1.
         25    2    1    2    0    0  0.82599573781E+01  0.11078165594E+03 -0.22818187162E+03  0.28290084285E+03  0.12500047263E+03 0.  0.
          2    1    1    2  501    0 -0.45233550377E+02 -0.59819528443E+02 -0.79209711054E+03  0.79563954313E+03  0.00000000000E+00 0. -1.
          1    1    1    2  502    0  0.36973592999E+02 -0.50962127499E+02  0.52060271017E+03  0.52439619264E+03  0.00000000000E+00 0. -1.
         22    1    3    3    0    0  0.30509516879E+00 -0.28109468880E+02 -0.38549275891E+02  0.47710397143E+02  0.00000000000E+00 0. -1.
         22    1    3    3    0    0  0.79548622093E+01  0.13889112482E+03 -0.18963259573E+03  0.23519044570E+03  0.00000000000E+00 0. -1.
</event>
<event>
 7    1  0.6888820E-006  0.3235710E+02  0.7818608E-02  0.1588150E+00
          2   -1    0    0  502    0  0.00000000000E+00  0.00000000000E+00  0.19556428790E+03  0.19556428790E+03  0.00000000000E+00 0. -1.
          1   -1    0    0  501    0 -0.00000000000E+00 -0.00000000000E+00 -0.76448425221E+03  0.76448425221E+03  0.00000000000E+00 0. -1.
         25    2    1    2    0    0 -0.52762191000E+02  0.30077206206E+02 -0.44698236674E+03  0.46808821566E+03  0.12499941734E+03 0.  0.
          2    1    1    2  501    0  0.28025855482E+02 -0.93497883038E+01 -0.30482193526E+03  0.30625035401E+03  0.00000000000E+00 0. -1.
          1    1    1    2  502    0  0.24736335518E+02 -0.20727417902E+02  0.18288433769E+03  0.18570997044E+03  0.00000000000E+00 0. -1.
         22    1    3    3    0    0 -0.34250532071E+02 -0.41872625823E+02 -0.10485331758E+03  0.11798573621E+03  0.00000000000E+00 0.  1.
         22    1    3    3    0    0 -0.18511658929E+02  0.71949832029E+02 -0.34212904915E+03  0.35010247945E+03  0.00000000000E+00 0.  1.
</event>
<event>
 7    1  0.6888820E-006  0.5585762E+02  0.7818608E-02  0.1438037E+00
          2   -1    0    0  502    0  0.00000000000E+00  0.00000000000E+00  0.63837346329E+03  0.63837346329E+03  0.00000000000E+00 0. -1.
          1   -1    0    0  501    0 -0.00000000000E+00 -0.00000000000E+00 -0.18834234222E+03  0.18834234222E+03  0.00000000000E+00 0. -1.
         25    2    1    2    0    0  0.28020630230E+02  0.89058552099E+02  0.10083361709E+03  0.18576430569E+03  0.12499751002E+03 0.  0.
          2    1    1    2  501    0 -0.32315674770E+02 -0.34486830723E+02 -0.14048351405E+03  0.14822031591E+03  0.00000000000E+00 0. -1.
          1    1    1    2  502    0  0.42950445405E+01 -0.54571721376E+02  0.48968101802E+03  0.49273118391E+03  0.00000000000E+00 0. -1.
         22    1    3    3    0    0 -0.41838075672E+02  0.64611548950E+02  0.27955807729E+02  0.81893858252E+02  0.00000000000E+00 0.  1.
         22    1    3    3    0    0  0.69858705902E+02  0.24447003149E+02  0.72877809362E+02  0.10387044744E+03  0.00000000000E+00 0.  1.
</event>
<event>
 7    1  0.6888820E-006  0.1660743E+03  0.7818608E-02  0.1209069E+00
          2   -1    0    0  502    0  0.00000000000E+00  0.00000000000E+00  0.51528181348E+03  0.51528181348E+03  0.00000000000E+00 0. -1.
          1   -1    0    0  501    0 -0.00000000000E+00 -0.00000000000E+00 -0.17179704084E+04  0.17179704084E+04  0.00000000000E+00 0. -1.
         25    2    1    2    0    0 -0.42620557064E+02 -0.23450089354E+02  0.38478414885E+02  0.13954020648E+03  0.12499784893E+03 0.  0.
          2    1    1    2  501    0  0.14415223728E+03  0.93760394542E+02 -0.16539421260E+04  0.16628576112E+04  0.00000000000E+00 0. -1.
          1    1    1    2  502    0 -0.10153168021E+03 -0.70310305188E+02  0.41277511615E+03  0.43085440420E+03  0.00000000000E+00 0. -1.
         22    1    3    3    0    0  0.16109614743E+02  0.13680317555E+02  0.62535520244E+02  0.66010317889E+02  0.00000000000E+00 0. -1.
         22    1    3    3    0    0 -0.58730171807E+02 -0.37130406909E+02 -0.24057105359E+02  0.73529888589E+02  0.00000000000E+00 0. -1.
</event>
<event>
 7    1  0.6888820E-006  0.1250747E+03  0.7818608E-02  0.1360936E+00
          2   -1    0    0  502    0  0.00000000000E+00  0.00000000000E+00  0.18916239145E+04  0.18916239145E+04  0.00000000000E+00 0. -1.
          1   -1    0    0  501    0 -0.00000000000E+00 -0.00000000000E+00 -0.10691216806E+03  0.10691216806E+03  0.00000000000E+00 0. -1.
         25    2    1    2    0    0 -0.66019831270E+02  0.65309235014E+02  0.21101789554E+03  0.26226229910E+03  0.12501618692E+03 0.  0.
          2    1    1    2  501    0 -0.37436029064E+02  0.10572368055E+02 -0.73995035200E+02  0.83597227661E+02  0.00000000000E+00 0. -1.
          1    1    1    2  502    0  0.10345586033E+03 -0.75881603069E+02  0.16476888861E+04  0.16526765558E+04  0.00000000000E+00 0. -1.
         22    1    3    3    0    0  0.17037562983E+02 -0.98371131039E+01 -0.37631330380E+01  0.20030190136E+02  0.00000000000E+00 0.  1.
         22    1    3    3    0    0 -0.83057394252E+02  0.75146348118E+02  0.21478102858E+03  0.24223210896E+03  0.00000000000E+00 0.  1.
</event>
<event>
 7    1  0.6888820E-006  0.1220813E+03  0.7818608E-02  0.1291128E+00
          2   -1    0    0  502    0  0.00000000000E+00  0.00000000000E+00  0.23928826960E+04  0.23928826960E+04  0.00000000000E+00 0. -1.
          1   -1    0    0  501    0 -0.00000000000E+00 -0.00000000000E+00 -0.61975650739E+03  0.61975650739E+03  0.00000000000E+00 0. -1.
         25    2    1    2    0    0 -0.38532724312E+02  0.13426259034E+03  0.92498550615E+02  0.20902937927E+03  0.12500434201E+03 0.  0.
          2    1    1    2  501    0  0.90723355684E+02 -0.81859547525E+02 -0.55422387757E+03  0.56753486171E+03  0.00000000000E+00 0. -1.
          1    1    1    2  502    0 -0.52190631373E+02 -0.52403042818E+02  0.22348515156E+04  0.22360749624E+04  0.00000000000E+00 0. -1.
         22    1    3    3    0    0  0.20532626658E+02 -0.22703938643E+01  0.50333407219E+02  0.54407677106E+02  0.00000000000E+00 0.  1.
         22    1    3    3    0    0 -0.59065350970E+02  0.13653298421E+03  0.42165143396E+02  0.15462170216E+03  0.00000000000E+00 0.  1.
</event>
<event>
 7    1  0.6888820E-006  0.3125710E+03  0.7818608E-02  0.1166381E+00
          2   -1    0    0  502    0  0.00000000000E+00  0.00000000000E+00  0.73448232570E+03  0.73448232570E+03  0.00000000000E+00 0. -1.
          1   -1    0    0  501    0 -0.00000000000E+00 -0.00000000000E+00 -0.96110536098E+03  0.96110536098E+03  0.00000000000E+00 0. -1.
         25    2    1    2    0    0  0.27001265370E+03  0.29913684915E+03  0.72201650178E+02  0.42805297072E+03  0.12500631895E+03 0.  0.
          2    1    1    2  501    0 -0.18208996896E+03 -0.24107264945E+03 -0.74771562684E+03  0.80644369781E+03  0.00000000000E+00 0. -1.
          1    1    1    2  502    0 -0.87922684737E+02 -0.58064199694E+02  0.44889094137E+03  0.46109101816E+03  0.00000000000E+00 0. -1.
         22    1    3    3    0    0  0.16376244097E+03  0.23634003302E+03  0.94441674651E+02  0.30264497054E+03  0.00000000000E+00 0. -1.
         22    1    3    3    0    0  0.10625021273E+03  0.62796816124E+02 -0.22240024473E+02  0.12540800018E+03  0.00000000000E+00 0. -1.
</event>
<event>
 7    1  0.6888820E-006  0.5765226E+02  0.7818608E-02  0.1453887E+00
          2   -1    0    0  502    0  0.00000000000E+00  0.00000000000E+00  0.84563802287E+03  0.84563802287E+03  0.00000000000E+00 0. -1.
          1   -1    0    0  501    0 -0.00000000000E+00 -0.00000000000E+00 -0.12550499254E+04  0.12550499254E+04  0.00000000000E+00 0. -1.
         25    2    1    2    0    0 -0.30111481661E+02 -0.54662195164E+02  0.44014329996E+02  0.14648623721E+03  0.12500519805E+03 0.  0.
          2    1    1    2  501    0 -0.23601639515E+02  0.33177804955E+02 -0.12023538755E+04  0.12030430774E+04  0.00000000000E+00 0. -1.
          1    1    1    2  502    0  0.53713121176E+02  0.21484390209E+02  0.74892764302E+03  0.75115863363E+03  0.00000000000E+00 0. -1.
         22    1    3    3    0    0 -0.29381951584E+02  0.18108163017E+02  0.62504139458E+02  0.71400084707E+02  0.00000000000E+00 0. -1.
         22    1    3    3    0    0 -0.72953007676E+00 -0.72770358181E+02 -0.18489809462E+02  0.75086152504E+02  0.00000000000E+00 0. -1.
</event>
<event>
 7    1  0.6888820E-006  0.8143900E+02  0.7818608E-02  0.1406872E+00
          2   -1    0    0  502    0  0.00000000000E+00  0.00000000000E+00  0.16062975055E+04  0.16062975055E+04  0.00000000000E+00 0. -1.
          1   -1    0    0  501    0 -0.00000000000E+00 -0.00000000000E+00 -0.18480257438E+03  0.18480257438E+03  0.00000000000E+00 0. -1.
         25    2    1    2    0    0 -0.78872387698E+02 -0.16861410780E+01  0.24869749891E+03  0.28930225524E+03  0.12498660852E+03 0.  0.
          2    1    1    2  501    0  0.64894202633E+01  0.40646569061E+02 -0.16063970049E+03  0.16582933855E+03  0.00000000000E+00 0. -1.
          1    1    1    2  502    0  0.72382967435E+02 -0.38960427983E+02  0.13334371327E+04  0.13359684861E+04  0.00000000000E+00 0. -1.
         22    1    3    3    0    0  0.18010012715E+02  0.14468643727E+02  0.13206137329E+01  0.23139711103E+02  0.00000000000E+00 0. -1.
         22    1    3    3    0    0 -0.96882400414E+02 -0.16154784805E+02  0.24737688518E+03  0.26616254414E+03  0.00000000000E+00 0. -1.
</event>
<event>
 7    1  0.6888820E-006  0.1105978E+03  0.7818608E-02  0.1321013E+00
          2   -1    0    0  502    0  0.00000000000E+00  0.00000000000E+00  0.20611763649E+04  0.20611763649E+04  0.00000000000E+00 0. -1.
          1   -1    0    0  501    0 -0.00000000000E+00 -0.00000000000E+00 -0.26438660846E+03  0.26438660846E+03  0.00000000000E+00 0. -1.
         25    2    1    2    0    0  0.40486126633E+02  0.74294368578E+02  0.13894458152E+03  0.20515729322E+03  0.12500055431E+03 0.  0.
          2    1    1    2  501    0 -0.99555350291E+02 -0.54996981835E+02 -0.21675124562E+03  0.24477957076E+03  0.00000000000E+00 0. -1.
          1    1    1    2  502    0  0.59069223658E+02 -0.19297386743E+02  0.18745964205E+04  0.18756261093E+04  0.00000000000E+00 0. -1.
         22    1    3    3    0    0  0.51699937252E+02  0.18985120519E+02 -0.12238302742E+00  0.55075705085E+02  0.00000000000E+00 0.  1.
         22    1    3    3    0    0 -0.11213810619E+02  0.55309248059E+02  0.13906696455E+03  0.15008158814E+03  0.00000000000E+00 0.  1.
</event>
<event>
 7    1  0.6888820E-006  0.5768178E+02  0.7818608E-02  0.1448436E+00
          2   -1    0    0  502    0  0.00000000000E+00  0.00000000000E+00  0.10002536915E+04  0.10002536915E+04  0.00000000000E+00 0. -1.
          1   -1    0    0  501    0 -0.00000000000E+00 -0.00000000000E+00 -0.16645759308E+04  0.16645759308E+04  0.00000000000E+00 0. -1.
         25    2    1    2    0    0  0.31202127095E+02  0.31769491033E+02  0.73113105539E+02  0.15149500931E+03  0.12498935294E+03 0.  0.
          2    1    1    2  501    0 -0.57793323008E+02  0.12043582721E+01 -0.16243653689E+04  0.16253936047E+04  0.00000000000E+00 0. -1.
          1    1    1    2  502    0  0.26591195913E+02 -0.32973849305E+02  0.88693002405E+03  0.88794100818E+03  0.00000000000E+00 0. -1.
         22    1    3    3    0    0 -0.12563479015E+01  0.45851846528E+02 -0.21371122639E+02  0.50603311383E+02  0.00000000000E+00 0.  1.
         22    1    3    3    0    0  0.32458474997E+02 -0.14082355494E+02  0.94484228178E+02  0.10089169792E+03  0.00000000000E+00 0.  1.
</event>
<event>
 7    1  0.6888820E-006  0.2946123E+03  0.7818608E-02  0.1261490E+00
          2   -1    0    0  502    0  0.00000000000E+00  0.00000000000E+00  0.13641600254E+04  0.13641600254E+04  0.00000000000E+00 0. -1.
          1   -1    0    0  501    0 -0.00000000000E+00 -0.00000000000E+00 -0.30401941874E+04  0.30401941874E+04  0.00000000000E+00 0. -1.
         25    2    1    2    0    0  0.31077379118E+03  0.61549040429E+02  0.17315368480E+03  0.38206798314E+03  0.12500044609E+03 0.  0.
          2    1    1    2  501    0 -0.21277446823E+02 -0.34697400868E+02 -0.29161434881E+04  0.29164275205E+04  0.00000000000E+00 0. -1.
          1    1    1    2  502    0 -0.28949634436E+03 -0.26851639561E+02  0.10669556413E+04  0.11058587091E+04  0.00000000000E+00 0. -1.
         22    1    3    3    0    0  0.62368987872E+02  0.61017191733E+02  0.17698003020E+02  0.89029251631E+02  0.00000000000E+00 0.  1.
         22    1    3    3    0    0  0.24840480331E+03  0.53184869658E+00  0.15545568178E+03  0.29303873151E+03  0.00000000000E+00 0.  1.
</event>
<event>
 7    1  0.6888820E-006  0.6201971E+02  0.7818608E-02  0.1472115E+00
          2   -1    0    0  502    0  0.00000000000E+00  0.00000000000E+00  0.64326700703E+03  0.64326700703E+03  0.00000000000E+00 0. -1.
          1   -1    0    0  501    0 -0.00000000000E+00 -0.00000000000E+00 -0.88683078581E+03  0.88683078581E+03  0.00000000000E+00 0. -1.
         25    2    1    2    0    0 -0.25499677792E+02  0.24254499517E+02  0.17240519504E+03  0.21584043085E+03  0.12500010399E+03 0.  0.
          2    1    1    2  501    0  0.23956934539E+02 -0.57391985041E+02 -0.86338059824E+03  0.86561760153E+03  0.00000000000E+00 0. -1.
          1    1    1    2  502    0  0.15427432522E+01  0.33137485524E+02  0.44741162442E+03  0.44863976046E+03  0.00000000000E+00 0. -1.
         22    1    3    3    0    0 -0.16097302733E+02 -0.99209960753E+01 -0.15605956513E+02  0.24517242852E+02  0.00000000000E+00 0.  1.
         22    1    3    3    0    0 -0.94023750587E+01  0.34175495592E+02  0.18801115155E+03  0.19132318799E+03  0.00000000000E+00 0.  1.
</event>
<event>
 7    1  0.8608391E-006  0.1154805E+03  0.7818608E-02  0.1291588E+00
          2   -1    0    0  502    0  0.00000000000E+00  0.00000000000E+00  0.12240614122E+04  0.12240614122E+04  0.00000000000E+00 0. -1.
          1   -1    0    0  501    0 -0.00000000000E+00 -0.00000000000E+00 -0.14297406603E+04  0.14297406603E+04  0.00000000000E+00 0. -1.
         25    2    1    2    0    0  0.12104496397E+03  0.53249841032E+02 -0.17739015207E+03  0.25412651833E+03  0.12500236956E+03 0.  0.
          2    1    1    2  501    0 -0.80200112884E+01 -0.77437479969E+02 -0.12099114527E+04  0.12124135463E+04  0.00000000000E+00 0. -1.
          1    1    1    2  502    0 -0.11302495268E+03  0.24187638937E+02  0.11816223566E+04  0.11872620079E+04  0.00000000000E+00 0. -1.
         22    1    3    3    0    0  0.95585727489E+02  0.27204332930E+02 -0.32245583105E+02  0.10448198246E+03  0.00000000000E+00 0. -1.
         22    1    3    3    0    0  0.25459236478E+02  0.26045508102E+02 -0.14514456897E+03  0.14964453587E+03  0.00000000000E+00 0. -1.
</event>
<event>
 7    1  0.6888820E-006  0.1156353E+03  0.7818608E-02  0.1372771E+00
          2   -1    0    0  502    0  0.00000000000E+00  0.00000000000E+00  0.31636635152E+03  0.31636635152E+03  0.00000000000E+00 0. -1.
          1   -1    0    0  501    0 -0.00000000000E+00 -0.00000000000E+00 -0.43279780631E+03  0.43279780631E+03  0.00000000000E+00 0. -1.
         25    2    1    2    0    0 -0.12146200367E+03  0.54774932003E+02 -0.57422074460E+02  0.19151001409E+03  0.12500191739E+03 0.  0.
          2    1    1    2  501    0  0.87556734205E+02 -0.72222718459E+02 -0.29631275738E+03  0.31730671747E+03  0.00000000000E+00 0. -1.
          1    1    1    2  502    0  0.33905269461E+02  0.17447786456E+02  0.23730337705E+03  0.24034742626E+03  0.00000000000E+00 0. -1.
         22    1    3    3    0    0 -0.92746959450E+02  0.84414389496E+02 -0.75579339171E+02  0.14642412421E+03  0.00000000000E+00 0. -1.
         22    1    3    3    0    0 -0.28715044216E+02 -0.29639457493E+02  0.18157264711E+02  0.45085889884E+02  0.00000000000E+00 0. -1.
</event>
<event>
 7    1  0.1426293E-005  0.6839024E+02  0.7818608E-02  0.1429772E+00
          2   -1    0    0  502    0  0.00000000000E+00  0.00000000000E+00  0.20614717736E+04  0.20614717736E+04  0.00000000000E+00 0. -1.
          1   -1    0    0  501    0 -0.00000000000E+00 -0.00000000000E+00 -0.19356806369E+04  0.19356806369E+04  0.00000000000E+00 0. -1.
         25    2    1    2    0    0 -0.33304758737E+02 -0.15339884508E+02 -0.79380455856E+03  0.80442246885E+03  0.12500124872E+03 0.  0.
          2    1    1    2  501    0  0.74367004725E+02  0.16613646915E+02 -0.11350843674E+04  0.11376392160E+04  0.00000000000E+00 0. -1.
          1    1    1    2  502    0 -0.41062245988E+02 -0.12737624071E+01  0.20546800627E+04  0.20550907257E+04  0.00000000000E+00 0. -1.
         22    1    3    3    0    0 -0.12461944023E+02 -0.35158551133E+02 -0.75600655880E+03  0.75692624523E+03  0.00000000000E+00 0. -1.
         22    1    3    3    0    0 -0.20842814714E+02  0.19818666625E+02 -0.37797999758E+02  0.47496223615E+02  0.00000000000E+00 0. -1.
</event>
<event>
 7    1  0.6888820E-006  0.8298621E+02  0.7818608E-02  0.1378881E+00
          2   -1    0    0  502    0  0.00000000000E+00  0.00000000000E+00  0.23758225027E+04  0.23758225027E+04  0.00000000000E+00 0. -1.
          1   -1    0    0  501    0 -0.00000000000E+00 -0.00000000000E+00 -0.28970078003E+03  0.28970078003E+03  0.00000000000E+00 0. -1.
         25    2    1    2    0    0 -0.15654687078E+02  0.30733935797E+02  0.36932313832E+03  0.39142554845E+03  0.12499894176E+03 0.  0.
          2    1    1    2  501    0  0.52504254079E+02 -0.65315800857E+02 -0.27202055095E+03  0.28463666432E+03  0.00000000000E+00 0. -1.
          1    1    1    2  502    0 -0.36849567002E+02  0.34581865060E+02  0.19888191353E+04  0.19894610700E+04  0.00000000000E+00 0. -1.
         22    1    3    3    0    0  0.30330617466E+02 -0.30242469883E+02  0.21516014204E+03  0.21938195017E+03  0.00000000000E+00 0.  1.
         22    1    3    3    0    0 -0.45985304544E+02  0.60976405680E+02  0.15416299629E+03  0.17204359828E+03  0.00000000000E+00 0.  1.
</event>
<event>
 7    1  0.6888820E-006  0.6686988E+02  0.7818608E-02  0.1484431E+00
          2   -1    0    0  502    0  0.00000000000E+00  0.00000000000E+00  0.18607008259E+04  0.18607008259E+04  0.00000000000E+00 0. -1.
          1   -1    0    0  501    0 -0.00000000000E+00 -0.00000000000E+00 -0.71064982264E+02  0.71064982264E+02  0.00000000000E+00 0. -1.
         25    2    1    2    0    0 -0.84081457539E+02 -0.45622707724E+01  0.29588527549E+03  0.33206030291E+03  0.12500177078E+03 0.  0.
          2    1    1    2  501    0  0.19638460483E+02  0.20234873972E+02 -0.48461452074E+02  0.56068097809E+02  0.00000000000E+00 0. -1.
          1    1    1    2  502    0  0.64442997055E+02 -0.15672603200E+02  0.15422120202E+04  0.15436374075E+04  0.00000000000E+00 0. -1.
         22    1    3    3    0    0 -0.58306674346E+02 -0.63174260849E+02  0.15333619138E+03  0.17579147617E+03  0.00000000000E+00 0. -1.
         22    1    3    3    0    0 -0.25774783193E+02  0.58611990077E+02  0.14254908411E+03  0.15626882674E+03  0.00000000000E+00 0. -1.
</event>
<event>
 7    1  0.6888820E-006  0.1184714E+03  0.7818608E-02  0.1328011E+00
          2   -1    0    0  502    0  0.00000000000E+00  0.00000000000E+00  0.26321914425E+03  0.26321914425E+03  0.00000000000E+00 0. -1.
          1   -1    0    0  501    0 -0.00000000000E+00 -0.00000000000E+00 -0.31988387830E+03  0.31988387830E+03  0.00000000000E+00 0. -1.
         25    2    1    2    0    0  0.76265304938E+02 -0.14149502049E+03 -0.96536700579E+02  0.22534590672E+03  0.12499682219E+03 0.  0.
          2    1    1    2  501    0 -0.20516825641E+01  0.54480495398E+02 -0.13682060476E+03  0.14728276093E+03  0.00000000000E+00 0. -1.
          1    1    1    2  502    0 -0.74213622374E+02  0.87014525088E+02  0.17669257129E+03  0.21047435490E+03  0.00000000000E+00 0. -1.
         22    1    3    3    0    0  0.40097626779E+02 -0.19640074344E+01  0.15241396242E+02  0.42941555141E+02  0.00000000000E+00 0. -1.
         22    1    3    3    0    0  0.36167678159E+02 -0.13953101305E+03 -0.11177809682E+03  0.18240435158E+03  0.00000000000E+00 0. -1.
</event>
<event>
 7    1  0.6888820E-006  0.6370773E+02  0.7818608E-02  0.1404061E+00
          2   -1    0    0  502    0  0.00000000000E+00  0.00000000000E+00  0.36184072180E+04  0.36184072180E+04  0.00000000000E+00 0. -1.
          1   -1    0    0  501    0 -0.00000000000E+00 -0.00000000000E+00 -0.27664454451E+03  0.27664454451E+03  0.00000000000E+00 0. -1.
         25    2    1    2    0    0  0.10611974507E+03 -0.50080990084E+02 -0.32075464213E+02  0.17442590348E+03  0.12500421808E+03 0.  0.
          2    1    1    2  501    0 -0.48341903979E+02  0.23594151205E+02 -0.16892989892E+03  0.17728771644E+03  0.00000000000E+00 0. -1.
          1    1    1    2  502    0 -0.57777841090E+02  0.26486838879E+02  0.35427680366E+04  0.35433381426E+04  0.00000000000E+00 0. -1.
         22    1    3    3    0    0  0.25604624111E+01 -0.58227823376E+02 -0.39299620041E+02  0.70295771696E+02  0.00000000000E+00 0.  1.
         22    1    3    3    0    0  0.10355928266E+03  0.81468332925E+01  0.72241558283E+01  0.10413013178E+03  0.00000000000E+00 0.  1.
</event>
<event>
 7    1  0.6888820E-006  0.7787751E+02  0.7818608E-02  0.1343954E+00
          2   -1    0    0  502    0  0.00000000000E+00  0.00000000000E+00  0.61792303867E+03  0.61792303867E+03  0.00000000000E+00 0. -1.
          1   -1    0    0  501    0 -0.00000000000E+00 -0.00000000000E+00 -0.70759555443E+02  0.70759555443E+02  0.00000000000E+00 0. -1.
         25    2    1    2    0    0  0.14124504949E+02  0.38237136983E+02  0.18895051022E+03  0.23019347884E+03  0.12500064841E+03 0.  0.
          2    1    1    2  501    0  0.48693762928E+02 -0.73781499900E+02 -0.46440659553E+01  0.88523215171E+02  0.00000000000E+00 0. -1.
          1    1    1    2  502    0 -0.62818267876E+02  0.35544362917E+02  0.36285703896E+03  0.36996590011E+03  0.00000000000E+00 0. -1.
         22    1    3    3    0    0  0.23518874386E+02  0.82728156267E+02  0.12396445147E+03  0.15087833019E+03  0.00000000000E+00 0. -1.
         22    1    3    3    0    0 -0.93943694372E+01 -0.44491019284E+02  0.64986058744E+02  0.79315148649E+02  0.00000000000E+00 0. -1.
</event>
<event>
 7    1  0.6888820E-006  0.2110605E+03  0.7818608E-02  0.1335834E+00
          2   -1    0    0  502    0  0.00000000000E+00  0.00000000000E+00  0.66806893395E+03  0.66806893395E+03  0.00000000000E+00 0. -1.
          1   -1    0    0  501    0 -0.00000000000E+00 -0.00000000000E+00 -0.14053876653E+04  0.14053876653E+04  0.00000000000E+00 0. -1.
         25    2    1    2    0    0 -0.56859440412E+02 -0.17754144890E+03 -0.64372616507E+03  0.68173488376E+03  0.12500045638E+03 0.  0.
          2    1    1    2  501    0 -0.21059287123E+02 -0.19311631168E+02 -0.72510402023E+03  0.72566677809E+03  0.00000000000E+00 0. -1.
          1    1    1    2  502    0  0.77918727535E+02  0.19685308007E+03  0.63151145392E+03  0.66605493743E+03  0.00000000000E+00 0. -1.
         22    1    3    3    0    0 -0.57087010976E+01 -0.33903112124E+01 -0.22819064722E+03  0.22828722031E+03  0.00000000000E+00 0. -1.
         22    1    3    3    0    0 -0.51150739315E+02 -0.17415113769E+03 -0.41553551785E+03  0.45344766345E+03  0.00000000000E+00 0. -1.
</event>
<event>
 7    1  0.6888820E-006  0.9557199E+02  0.7818608E-02  0.1376915E+00
          2   -1    0    0  502    0  0.00000000000E+00  0.00000000000E+00  0.48471872136E+03  0.48471872136E+03  0.00000000000E+00 0. -1.
          1   -1    0    0  501    0 -0.00000000000E+00 -0.00000000000E+00 -0.65187606326E+03  0.65187606326E+03  0.00000000000E+00 0. -1.
         25    2    1    2    0    0 -0.12610166716E+03  0.97367386613E+01 -0.27211821575E+03  0.32506909951E+03  0.12500064629E+03 0.  0.
          2    1    1    2  501    0  0.85187745381E+02 -0.27469418520E+02 -0.34649695213E+03  0.35787100854E+03  0.00000000000E+00 0. -1.
          1    1    1    2  502    0  0.40913921782E+02  0.17732679859E+02  0.45145782598E+03  0.45365467657E+03  0.00000000000E+00 0. -1.
         22    1    3    3    0    0 -0.11111401975E+03  0.53213017012E+00 -0.92461789538E+02  0.14455376534E+03  0.00000000000E+00 0. -1.
         22    1    3    3    0    0 -0.14987647409E+02  0.92046084912E+01 -0.17965642621E+03  0.18051533418E+03  0.00000000000E+00 0. -1.
</event>
<event>
 7    1  0.6888820E-006  0.8696596E+02  0.7818608E-02  0.1359072E+00
          2   -1    0    0  502    0  0.00000000000E+00  0.00000000000E+00  0.71575860775E+03  0.71575860775E+03  0.00000000000E+00 0. -1.
          1   -1    0    0  501    0 -0.00000000000E+00 -0.00000000000E+00 -0.68729025856E+03  0.68729025856E+03  0.00000000000E+00 0. -1.
         25    2    1    2    0    0  0.95882042732E+02 -0.38603115466E+02  0.23675665309E+03  0.28698903147E+03  0.12500169901E+03 0.  0.
          2    1    1    2  501    0 -0.85248244498E+02 -0.17222843757E+02 -0.65752046147E+03  0.66324734962E+03  0.00000000000E+00 0. -1.
          1    1    1    2  502    0 -0.10633798234E+02  0.55825959222E+02  0.44923215756E+03  0.45281248522E+03  0.00000000000E+00 0. -1.
         22    1    3    3    0    0 -0.64290923540E+00 -0.46535724851E+02  0.14968351602E+03  0.15675184844E+03  0.00000000000E+00 0. -1.
         22    1    3    3    0    0  0.96524951967E+02  0.79326093853E+01  0.87073137069E+02  0.13023718303E+03  0.00000000000E+00 0. -1.
</event>
<event>
 7    1  0.6888820E-006  0.1618714E+03  0.7818608E-02  0.1260659E+00
          2   -1    0    0  502    0  0.00000000000E+00  0.00000000000E+00  0.93284028356E+02  0.93284028356E+02  0.00000000000E+00 0. -1.
          1   -1    0    0  501    0 -0.00000000000E+00 -0.00000000000E+00 -0.16369143617E+04  0.16369143617E+04  0.00000000000E+00 0. -1.
         25    2    1    2    0    0  0.16535092351E+03 -0.24107265506E+02 -0.72963360538E+03  0.75888923861E+03  0.12500236085E+03 0.  0.
          2    1    1    2  501    0 -0.30834052305E+02 -0.68023399846E+02 -0.80453313620E+03  0.80799225797E+03  0.00000000000E+00 0. -1.
          1    1    1    2  502    0 -0.13451687120E+03  0.92130665352E+02 -0.94635918044E+01  0.16331689351E+03  0.00000000000E+00 0. -1.
         22    1    3    3    0    0  0.73614873853E+02  0.26958671712E+02 -0.14436283252E+03  0.16427582612E+03  0.00000000000E+00 0.  1.
         22    1    3    3    0    0  0.91736049656E+02 -0.51065937218E+02 -0.58527077286E+03  0.59461341249E+03  0.00000000000E+00 0.  1.
</event>
<event>
 7    1  0.6888820E-006  0.1027199E+03  0.7818608E-02  0.1466236E+00
          2   -1    0    0  502    0  0.00000000000E+00  0.00000000000E+00  0.28035090276E+04  0.28035090276E+04  0.00000000000E+00 0. -1.
          1   -1    0    0  501    0 -0.00000000000E+00 -0.00000000000E+00 -0.22804733677E+03  0.22804733677E+03  0.00000000000E+00 0. -1.
         25    2    1    2    0    0 -0.11200831571E+03 -0.25820090957E+02  0.24621105589E+04  0.24679598023E+04  0.12499856622E+03 0.  0.
          2    1    1    2  501    0  0.95255890384E+02  0.38302857097E+02 -0.21306577500E+03  0.23651177135E+03  0.00000000000E+00 0. -1.
          1    1    1    2  502    0  0.16752425321E+02 -0.12482766140E+02  0.32641690688E+03  0.32708479070E+03  0.00000000000E+00 0. -1.
         22    1    3    3    0    0 -0.84489979207E+02  0.43644006962E+02  0.13851965214E+04  0.13884569705E+04  0.00000000000E+00 0. -1.
         22    1    3    3    0    0 -0.27518336498E+02 -0.69464097920E+02  0.10769140375E+04  0.10795028318E+04  0.00000000000E+00 0. -1.
</event>
<event>
 7    1  0.6888820E-006  0.3257383E+02  0.7818608E-02  0.1603376E+00
          2   -1    0    0  502    0  0.00000000000E+00  0.00000000000E+00  0.16406955967E+04  0.16406955967E+04  0.00000000000E+00 0. -1.
          1   -1    0    0  501    0 -0.00000000000E+00 -0.00000000000E+00 -0.14051818920E+03  0.14051818920E+03  0.00000000000E+00 0. -1.
         25    2    1    2    0    0 -0.14920880569E+02  0.54040748079E+02  0.30724110247E+02  0.14039771477E+03  0.12499804892E+03 0.  0.
          2    1    1    2  501    0  0.15878995672E+02 -0.21546242641E+02 -0.83416855906E+02  0.87605678610E+02  0.00000000000E+00 0. -1.
          1    1    1    2  502    0 -0.95811510300E+00 -0.32494505438E+02  0.15528701532E+04  0.15532103925E+04  0.00000000000E+00 0. -1.
         22    1    3    3    0    0 -0.18424235624E+02  0.76546099344E+02 -0.23018353728E+02  0.82028058562E+02  0.00000000000E+00 0. -1.
         22    1    3    3    0    0  0.35033550556E+01 -0.22505351265E+02  0.53742463975E+02  0.58369656212E+02  0.00000000000E+00 0. -1.
</event>
<event>
 7    1  0.6888820E-006  0.9685111E+02  0.7818608E-02  0.1476821E+00
          2   -1    0    0  502    0  0.00000000000E+00  0.00000000000E+00  0.17059908928E+03  0.17059908928E+03  0.00000000000E+00 0. -1.
          1   -1    0    0  501    0 -0.00000000000E+00 -0.00000000000E+00 -0.12181227013E+04  0.12181227013E+04  0.00000000000E+00 0. -1.
         25    2    1    2    0    0 -0.10739477833E+03  0.45251010406E+02 -0.94591751733E+02  0.19532780505E+03  0.12499623824E+03 0.  0.
          2    1    1    2  501    0  0.88193847107E+02 -0.37947198311E+02 -0.10701202158E+04  0.10744186432E+04  0.00000000000E+00 0. -1.
          1    1    1    2  502    0  0.19200931225E+02 -0.73038120944E+01  0.11718835550E+03  0.11897534238E+03  0.00000000000E+00 0. -1.
         22    1    3    3    0    0 -0.94155792480E+02  0.65394490969E+02 -0.19273480473E+02  0.11624637524E+03  0.00000000000E+00 0.  1.
         22    1    3    3    0    0 -0.13238985852E+02 -0.20143480563E+02 -0.75318271261E+02  0.79081429813E+02  0.00000000000E+00 0.  1.
</event>
<event>
 7    1  0.6888820E-006  0.5121859E+02  0.7818608E-02  0.1446028E+00
          2   -1    0    0  502    0  0.00000000000E+00  0.00000000000E+00  0.50156556379E+03  0.50156556379E+03  0.00000000000E+00 0. -1.
          1   -1    0    0  501    0 -0.00000000000E+00 -0.00000000000E+00 -0.41213548886E+03  0.41213548886E+03  0.00000000000E+00 0. -1.
         25    2    1    2    0    0  0.14421473715E+02  0.47388600231E+02 -0.14809698920E+03  0.20002887494E+03  0.12500069705E+03 0.  0.
          2    1    1    2  501    0  0.33819176993E+02 -0.41804420286E+02 -0.23377268264E+03  0.23987707985E+03  0.00000000000E+00 0. -1.
          1    1    1    2  502    0 -0.48240650708E+02 -0.55841799447E+01  0.47129974677E+03  0.47379509786E+03  0.00000000000E+00 0. -1.
         22    1    3    3    0    0 -0.55696140061E+02  0.20692968248E+02 -0.64018533029E+02  0.87342037552E+02  0.00000000000E+00 0. -1.
         22    1    3    3    0    0  0.70117613776E+02  0.26695631983E+02 -0.84078456170E+02  0.11268683739E+03  0.00000000000E+00 0. -1.
</event>
<event>
 7    1  0.6888820E-006  0.7934826E+02  0.7818608E-02  0.1340470E+00
          2   -1    0    0  502    0  0.00000000000E+00  0.00000000000E+00  0.23087187562E+04  0.23087187562E+04  0.00000000000E+00 0. -1.
          1   -1    0    0  501    0 -0.00000000000E+00 -0.00000000000E+00 -0.91546791052E+03  0.91546791052E+03  0.00000000000E+00 0. -1.
         25    2    1    2    0    0 -0.29695074899E+02  0.57256431357E+02  0.16314691040E+04  0.16375216780E+04  0.12500284906E+03 0.  0.
          2    1    1    2  501    0 -0.42659335937E+02 -0.66964376519E+02 -0.90872940440E+03  0.91219141472E+03  0.00000000000E+00 0. -1.
          1    1    1    2  502    0  0.72354410837E+02  0.97079451623E+01  0.67051114614E+03  0.67447357403E+03  0.00000000000E+00 0. -1.
         22    1    3    3    0    0  0.72021590407E+01  0.77850579173E+02  0.58518824001E+03  0.59038788946E+03  0.00000000000E+00 0. -1.
         22    1    3    3    0    0 -0.36897233940E+02 -0.20594147816E+02  0.10462808640E+04  0.10471337885E+04  0.00000000000E+00 0. -1.
</event>
<event>
 7    1  0.6888820E-006  0.1445449E+03  0.7818608E-02  0.1234425E+00
          2   -1    0    0  502    0  0.00000000000E+00  0.00000000000E+00  0.88078979973E+03  0.88078979973E+03  0.00000000000E+00 0. -1.
          1   -1    0    0  501    0 -0.00000000000E+00 -0.00000000000E+00 -0.16475007851E+04  0.16475007851E+04  0.00000000000E+00 0. -1.
         25    2    1    2    0    0 -0.61835315677E+01  0.54600779750E+02  0.10665717108E+03  0.17326502397E+03  0.12500214068E+03 0.  0.
          2    1    1    2  501    0 -0.76238002161E+02 -0.12564353238E+03 -0.16068296075E+04  0.16135364631E+04  0.00000000000E+00 0. -1.
          1    1    1    2  502    0  0.82421533728E+02  0.71042752629E+02  0.73346145106E+03  0.74148909777E+03  0.00000000000E+00 0. -1.
         22    1    3    3    0    0  0.28728428643E+02  0.64673815925E+02  0.11875351231E+02  0.71756874551E+02  0.00000000000E+00 0.  1.
         22    1    3    3    0    0 -0.34911960210E+02 -0.10073036174E+02  0.94781819852E+02  0.10150814942E+03  0.00000000000E+00 0.  1.
</event>
<event>
 7    1  0.6888820E-006  0.1995407E+03  0.7818608E-02  0.1297020E+00
          2   -1    0    0  502    0  0.00000000000E+00  0.00000000000E+00  0.48577431809E+04  0.48577431809E+04  0.00000000000E+00 0. -1.
          1   -1    0    0  501    0 -0.00000000000E+00 -0.00000000000E+00 -0.46049748698E+03  0.46049748698E+03  0.00000000000E+00 0. -1.
         25    2    1    2    0    0  0.16086855700E+03  0.16542637558E+03  0.11788067312E+03  0.28769040505E+03  0.12500135079E+03 0.  0.
          2    1    1    2  501    0 -0.45431519697E+01 -0.42593864251E+02 -0.37224103403E+03  0.37469756460E+03  0.00000000000E+00 0. -1.
          1    1    1    2  502    0 -0.15632540503E+03 -0.12283251133E+03  0.46516060549E+04  0.46558526982E+04  0.00000000000E+00 0. -1.
         22    1    3    3    0    0  0.49862748932E+02  0.12173257023E+02  0.79462237834E+02  0.94597722801E+02  0.00000000000E+00 0. -1.
         22    1    3    3    0    0  0.11100580806E+03  0.15325311855E+03  0.38418435283E+02  0.19309268225E+03  0.00000000000E+00 0. -1.
</event>
<event>
 7    1  0.6888820E-006  0.2962570E+03  0.7818608E-02  0.1280085E+00
          2   -1    0    0  502    0  0.00000000000E+00  0.00000000000E+00  0.35848235954E+03  0.35848235954E+03  0.00000000000E+00 0. -1.
          1   -1    0    0  501    0 -0.00000000000E+00 -0.00000000000E+00 -0.12051879968E+04  0.12051879968E+04  0.00000000000E+00 0. -1.
         25    2    1    2    0    0 -0.32090220613E+03 -0.48108468988E+02 -0.33366787250E+03  0.48192570569E+03  0.12500194390E+03 0.  0.
          2    1    1    2  501    0  0.32305713051E+02  0.10014400720E+02 -0.72239016833E+03  0.72318151430E+03  0.00000000000E+00 0. -1.
          1    1    1    2  502    0  0.28859649308E+03  0.38094068268E+02  0.20935240359E+03  0.35856313634E+03  0.00000000000E+00 0. -1.
         22    1    3    3    0    0  0.89921102979E+01  0.57365315968E+01 -0.24020641942E+02  0.26282257926E+02  0.00000000000E+00 0.  1.
         22    1    3    3    0    0 -0.32989431643E+03 -0.53845000585E+02 -0.30964723056E+03  0.45564344777E+03  0.00000000000E+00 0.  1.
</event>
<event>
 7    1  0.6888820E-006  0.4157692E+02  0.7818608E-02  0.1504648E+00
          2   -1    0    0  502    0  0.00000000000E+00  0.00000000000E+00  0.53113667587E+03  0.53113667587E+03  0.00000000000E+00 0. -1.
          1   -1    0    0  501    0 -0.00000000000E+00 -0.00000000000E+00 -0.34424264501E+03  0.34424264501E+03  0.00000000000E+00 0. -1.
         25    2    1    2    0    0 -0.39953795638E+02 -0.63936010171E+02  0.11941596459E+03  0.18859834386E+03  0.12500017410E+03 0.  0.
          2    1    1    2  501    0  0.31057226240E+02  0.24290588887E+02 -0.30729382259E+03  0.30981297167E+03  0.00000000000E+00 0. -1.
          1    1    1    2  502    0  0.88965693975E+01  0.39645421283E+02  0.37477188886E+03  0.37696800535E+03  0.00000000000E+00 0. -1.
         22    1    3    3    0    0  0.65237616066E+01  0.74091081358E+01  0.10099957723E+03  0.10148087973E+03  0.00000000000E+00 0. -1.
         22    1    3    3    0    0 -0.46477557244E+02 -0.71345118306E+02  0.18416387357E+02  0.87117464132E+02  0.00000000000E+00 0. -1.
</event>
<event>
 7    1  0.6888820E-006  0.2035127E+03  0.7818608E-02  0.1171887E+00
          2   -1    0    0  502    0  0.00000000000E+00  0.00000000000E+00  0.92745366900E+03  0.92745366900E+03  0.00000000000E+00 0. -1.
          1   -1    0    0  501    0 -0.00000000000E+00 -0.00000000000E+00 -0.17600882684E+04  0.17600882684E+04  0.00000000000E+00 0. -1.
         25    2    1    2    0    0 -0.15799712601E+03  0.46139654547E+02 -0.37416731911E+03  0.42745395579E+03  0.12499496823E+03 0.  0.
          2    1    1    2  501    0  0.20836122618E+03  0.97207855818E+02 -0.13430313224E+04  0.13625699618E+04  0.00000000000E+00 0. -1.
          1    1    1    2  502    0 -0.50364100171E+02 -0.14334751037E+03  0.88456404212E+03  0.89751801983E+03  0.00000000000E+00 0. -1.
         22    1    3    3    0    0 -0.51143714180E+02  0.17921020706E+02 -0.27066993493E+03  0.27604176524E+03  0.00000000000E+00 0. -1.
         22    1    3    3    0    0 -0.10685341182E+03  0.28218633841E+02 -0.10349738418E+03  0.15141219055E+03  0.00000000000E+00 0. -1.
</event>
<event>
 7    1  0.6888820E-006  0.3798512E+02  0.7818608E-02  0.1534195E+00
          2   -1    0    0  502    0  0.00000000000E+00  0.00000000000E+00  0.79393372059E+03  0.79393372059E+03  0.00000000000E+00 0. -1.
          1   -1    0    0  501    0 -0.00000000000E+00 -0.00000000000E+00 -0.54693900253E+02  0.54693900253E+02  0.00000000000E+00 0. -1.
         25    2    1    2    0    0 -0.20868607775E+02 -0.58837719846E+02  0.27674051051E+03  0.31001221423E+03  0.12499954699E+03 0.  0.
          2    1    1    2  501    0  0.28539237340E+02  0.24264801037E+02 -0.28044536038E+02  0.46794921080E+02  0.00000000000E+00 0. -1.
          1    1    1    2  502    0 -0.76706295647E+01  0.34572918809E+02  0.49054384586E+03  0.49182048553E+03  0.00000000000E+00 0. -1.
         22    1    3    3    0    0  0.11957392565E+02  0.30832398760E+02  0.13580798759E+03  0.13977634114E+03  0.00000000000E+00 0. -1.
         22    1    3    3    0    0 -0.32826000340E+02 -0.89670118606E+02  0.14093252292E+03  0.17023587309E+03  0.00000000000E+00 0. -1.
</event>
<event>
 7    1  0.6888820E-006  0.1195707E+03  0.7818608E-02  0.1349254E+00
          2   -1    0    0  502    0  0.00000000000E+00  0.00000000000E+00  0.44353631080E+02  0.44353631080E+02  0.00000000000E+00 0. -1.
          1   -1    0    0  501    0 -0.00000000000E+00 -0.00000000000E+00 -0.29614146457E+04  0.29614146457E+04  0.00000000000E+00 0. -1.
         25    2    1    2    0    0 -0.28470400114E+02  0.12337854073E+03 -0.50523972291E+03  0.53565465056E+03  0.12500359618E+03 0.  0.
          2    1    1    2  501    0  0.66479388205E+02 -0.99436950635E+02 -0.24212593046E+04  0.24242120031E+04  0.00000000000E+00 0. -1.
          1    1    1    2  502    0 -0.38008988091E+02 -0.23941590096E+02  0.94380128869E+01  0.45901623058E+02  0.00000000000E+00 0. -1.
         22    1    3    3    0    0 -0.44015909885E+02 -0.24728330774E+01 -0.20583770341E+03  0.21050576090E+03  0.00000000000E+00 0.  1.
         22    1    3    3    0    0  0.15545509772E+02  0.12585137381E+03 -0.29940201951E+03  0.32514888966E+03  0.00000000000E+00 0.  1.
</event>
<event>
 7    1  0.6888820E-006  0.7579716E+02  0.7818608E-02  0.1346963E+00
          2   -1    0    0  502    0  0.00000000000E+00  0.00000000000E+00  0.20559480610E+03  0.20559480610E+03  0.00000000000E+00 0. -1.
          1   -1    0    0  501    0 -0.00000000000E+00 -0.00000000000E+00 -0.95237408976E+03  0.95237408976E+03  0.00000000000E+00 0. -1.
         25    2    1    2    0    0  0.19851641460E+02 -0.78004994289E+02 -0.19272007594E+01  0.14868598246E+03  0.12499976190E+03 0.  0.
          2    1    1    2  501    0 -0.70386820872E+02  0.16372510784E+02 -0.86340788595E+03  0.86642688161E+03  0.00000000000E+00 0. -1.
          1    1    1    2  502    0  0.50535179411E+02  0.61632483505E+02  0.11855580305E+03  0.14285603178E+03  0.00000000000E+00 0. -1.
         22    1    3    3    0    0 -0.67918036013E+01  0.24745521322E+02  0.28414025797E+02  0.38286110845E+02  0.00000000000E+00 0. -1.
         22    1    3    3    0    0  0.26643445062E+02 -0.10275051561E+03 -0.30341226556E+02  0.11039987161E+03  0.00000000000E+00 0. -1.
</event>
<event>
 7    1  0.6888820E-006  0.4620735E+02  0.7818608E-02  0.1515820E+00
          2   -1    0    0  502    0  0.00000000000E+00  0.00000000000E+00  0.16307197684E+03  0.16307197684E+03  0.00000000000E+00 0. -1.
          1   -1    0    0  501    0 -0.00000000000E+00 -0.00000000000E+00 -0.53362910694E+03  0.53362910694E+03  0.00000000000E+00 0. -1.
         25    2    1    2    0    0 -0.31542717387E+02  0.33341090501E+02 -0.75046693496E+02  0.15285396987E+03  0.12500303422E+03 0.  0.
          2    1    1    2  501    0  0.30086534793E+02  0.13289016750E+02 -0.41462228371E+03  0.41592479572E+03  0.00000000000E+00 0. -1.
          1    1    1    2  502    0  0.14561825940E+01 -0.46630107251E+02  0.11911184711E+03  0.12792231819E+03  0.00000000000E+00 0. -1.
         22    1    3    3    0    0 -0.62952396753E+02  0.77105840369E+01  0.44899007089E+01  0.63581574151E+02  0.00000000000E+00 0.  1.
         22    1    3    3    0    0  0.31409679366E+02  0.25630506464E+02 -0.79536594205E+02  0.89272395718E+02  0.00000000000E+00 0.  1.
</event>
<event>
 7    1  0.6888820E-006  0.1067948E+03  0.7818608E-02  0.1345865E+00
          2   -1    0    0  502    0  0.00000000000E+00  0.00000000000E+00  0.68388114413E+03  0.68388114413E+03  0.00000000000E+00 0. -1.
          1   -1    0    0  501    0 -0.00000000000E+00 -0.00000000000E+00 -0.63745953406E+03  0.63745953406E+03  0.00000000000E+00 0. -1.
         25    2    1    2    0    0 -0.40490622990E+02 -0.10924443729E+03 -0.22985905738E+03  0.28641588473E+03  0.12500014054E+03 0.  0.
          2    1    1    2  501    0  0.77666540874E+02  0.73207227981E+02 -0.37075969671E+03  0.38581620301E+03  0.00000000000E+00 0. -1.
          1    1    1    2  502    0 -0.37175917884E+02  0.36037209309E+02  0.64704036417E+03  0.64910859044E+03  0.00000000000E+00 0. -1.
         22    1    3    3    0    0 -0.74893855669E+02 -0.73843981024E+02 -0.91124024575E+02  0.13916037872E+03  0.00000000000E+00 0. -1.
         22    1    3    3    0    0  0.34403232679E+02 -0.35400456266E+02 -0.13873503281E+03  0.14725550601E+03  0.00000000000E+00 0. -1.
</event>
<event>
 7    1  0.6888820E-006  0.1414548E+03  0.7818608E-02  0.1308088E+00
          2   -1    0    0  502    0  0.00000000000E+00  0.00000000000E+00  0.24063602923E+03  0.24063602923E+03  0.00000000000E+00 0. -1.
          1   -1    0    0  501    0 -0.00000000000E+00 -0.00000000000E+00 -0.23362833574E+03  0.23362833574E+03  0.00000000000E+00 0. -1.
         25    2    1    2    0    0  0.13715831023E+03  0.18000737724E+02 -0.48026897403E+02  0.19252687972E+03  0.12499435154E+03 0.  0.
          2    1    1    2  501    0 -0.14334498325E+03  0.36233753508E+02 -0.55925902573E+02  0.15807711945E+03  0.00000000000E+00 0. -1.
          1    1    1    2  502    0  0.61866730218E+01 -0.54234491231E+02  0.11096049346E+03  0.12366036580E+03  0.00000000000E+00 0. -1.
         22    1    3    3    0    0  0.79925995980E+02  0.59265300329E+01  0.37840987149E+02  0.88629729211E+02  0.00000000000E+00 0. -1.
         22    1    3    3    0    0  0.57232314247E+02  0.12074207691E+02 -0.85867884552E+02  0.10389715050E+03  0.00000000000E+00 0. -1.
</event>
<event>
 7    1  0.6888820E-006  0.1598412E+03  0.7818608E-02  0.1329252E+00
          2   -1    0    0  502    0  0.00000000000E+00  0.00000000000E+00  0.47859658336E+03  0.47859658336E+03  0.00000000000E+00 0. -1.
          1   -1    0    0  501    0 -0.00000000000E+00 -0.00000000000E+00 -0.66018209230E+03  0.66018209230E+03  0.00000000000E+00 0. -1.
         25    2    1    2    0    0  0.91311162743E+02 -0.12015412131E+03  0.47139595884E+02  0.20155058906E+03  0.12500302853E+03 0.  0.
          2    1    1    2  501    0 -0.62875720932E+02  0.14824247579E+03 -0.57067103327E+03  0.59295414336E+03  0.00000000000E+00 0. -1.
          1    1    1    2  502    0 -0.28435441811E+02 -0.28088354483E+02  0.34194592845E+03  0.34427394324E+03  0.00000000000E+00 0. -1.
         22    1    3    3    0    0  0.30434591892E+02  0.18947814370E+02  0.33555309543E+02  0.49104407659E+02  0.00000000000E+00 0. -1.
         22    1    3    3    0    0  0.60876570851E+02 -0.13910193568E+03  0.13584286341E+02  0.15244618140E+03  0.00000000000E+00 0. -1.
</event>
<event>
 7    1  0.6888820E-006  0.2377891E+03  0.7818608E-02  0.1254921E+00
          2   -1    0    0  502    0  0.00000000000E+00  0.00000000000E+00  0.56273279121E+03  0.56273279121E+03  0.00000000000E+00 0. -1.
          1   -1    0    0  501    0 -0.00000000000E+00 -0.00000000000E+00 -0.25354423090E+04  0.25354423090E+04  0.00000000000E+00 0. -1.
         25    2    1    2    0    0 -0.77644898998E+02 -0.23770113520E+03 -0.11150997630E+04  0.11496119505E+04  0.12501837996E+03 0.  0.
          2    1    1    2  501    0  0.11719627930E+03  0.20122828704E+03 -0.13920643348E+04  0.14114074195E+04  0.00000000000E+00 0. -1.
          1    1    1    2  502    0 -0.39551380299E+02  0.36472848164E+02  0.53445458007E+03  0.53715573021E+03  0.00000000000E+00 0. -1.
         22    1    3    3    0    0 -0.40225595013E+02 -0.11473397306E+03 -0.80188071738E+03  0.81104541672E+03  0.00000000000E+00 0. -1.
         22    1    3    3    0    0 -0.37419303985E+02 -0.12296716214E+03 -0.31321904559E+03  0.33856653378E+03  0.00000000000E+00 0. -1.
</event>
<event>
 7    1  0.6888820E-006  0.1373323E+03  0.7818608E-02  0.1311352E+00
          2   -1    0    0  502    0  0.00000000000E+00  0.00000000000E+00  0.82221546392E+03  0.82221546392E+03  0.00000000000E+00 0. -1.
          1   -1    0    0  501    0 -0.00000000000E+00 -0.00000000000E+00 -0.88132504964E+02  0.88132504964E+02  0.00000000000E+00 0. -1.
         25    2    1    2    0    0  0.13385027302E+03 -0.70038588728E+02  0.99611118310E+02  0.21992869920E+03  0.12499983336E+03 0.  0.
          2    1    1    2  501    0 -0.43669167665E+02 -0.32746982914E+02  0.15811037196E+02  0.56827370094E+02  0.00000000000E+00 0. -1.
          1    1    1    2  502    0 -0.90181105359E+02  0.10278557164E+03  0.61866080345E+03  0.63359189959E+03  0.00000000000E+00 0. -1.
         22    1    3    3    0    0  0.74196847821E+02 -0.91315195353E+02  0.10318276850E+03  0.15649383644E+03  0.00000000000E+00 0.  1.
         22    1    3    3    0    0  0.59653425203E+02  0.21276606624E+02 -0.35716501915E+01  0.63434862757E+02  0.00000000000E+00 0.  1.
</event>
<event>
 7    1  0.6888820E-006  0.9782141E+02  0.7818608E-02  0.1387066E+00
          2   -1    0    0  502    0  0.00000000000E+00  0.00000000000E+00  0.14471175209E+03  0.14471175209E+03  0.00000000000E+00 0. -1.
          1   -1    0    0  501    0 -0.00000000000E+00 -0.00000000000E+00 -0.40875234587E+03  0.40875234587E+03  0.00000000000E+00 0. -1.
         25    2    1    2    0    0  0.91336856177E+02 -0.14875835192E+01 -0.16488117631E+03  0.22617587012E+03  0.12500035089E+03 0.  0.
          2    1    1    2  501    0 -0.11116535014E+01 -0.40099136833E+02 -0.18908042567E+03  0.19328886134E+03  0.00000000000E+00 0. -1.
          1    1    1    2  502    0 -0.90225202675E+02  0.41586720352E+02  0.89921008192E+02  0.13399936650E+03  0.00000000000E+00 0. -1.
         22    1    3    3    0    0  0.12105634037E+03 -0.11600102905E+02 -0.11587431613E+03  0.16797635866E+03  0.00000000000E+00 0.  1.
         22    1    3    3    0    0 -0.29719484196E+02  0.10112519386E+02 -0.49006860179E+02  0.58199511457E+02  0.00000000000E+00 0.  1.
</event>
<event>
 7    1  0.6888820E-006  0.1461125E+03  0.7818608E-02  0.1269804E+00
          2   -1    0    0  502    0  0.00000000000E+00  0.00000000000E+00  0.65425911077E+03  0.65425911077E+03  0.00000000000E+00 0. -1.
          1   -1    0    0  501    0 -0.00000000000E+00 -0.00000000000E+00 -0.17657563468E+04  0.17657563468E+04  0.00000000000E+00 0. -1.
         25    2    1    2    0    0  0.90561386737E+02  0.10562980713E+03 -0.10581872014E+03  0.21489715944E+03  0.12499666667E+03 0.  0.
          2    1    1    2  501    0 -0.26134651293E+02 -0.14534861136E+03 -0.15995955208E+04  0.16063981663E+04  0.00000000000E+00 0. -1.
          1    1    1    2  502    0 -0.64426735444E+02  0.39718804227E+02  0.59391700482E+03  0.59872013184E+03  0.00000000000E+00 0. -1.
         22    1    3    3    0    0 -0.30470132473E+01 -0.24727525025E+02 -0.51197055324E+01  0.25435136492E+02  0.00000000000E+00 0.  1.
         22    1    3    3    0    0  0.93608399984E+02  0.13035733216E+03 -0.10069901461E+03  0.18946202294E+03  0.00000000000E+00 0.  1.
</event>
<event>
 7    1  0.6888820E-006  0.6487036E+02  0.7818608E-02  0.1476792E+00
          2   -1    0    0  502    0  0.00000000000E+00  0.00000000000E+00  0.12168483841E+04  0.12168483841E+04  0.00000000000E+00 0. -1.
          1   -1    0    0  501    0 -0.00000000000E+00 -0.00000000000E+00 -0.54172627951E+03  0.54172627951E+03  0.00000000000E+00 0. -1.
         25    2    1    2    0    0  0.78853213932E+02  0.32711687165E+02  0.14930907800E+03  0.21261743791E+03  0.12500036121E+03 0.  0.
          2    1    1    2  501    0 -0.64436548653E+02 -0.56330277853E+01 -0.50779301804E+03  0.51189603336E+03  0.00000000000E+00 0. -1.
          1    1    1    2  502    0 -0.14416665279E+02 -0.27078659379E+02  0.10336060446E+04  0.10340611924E+04  0.00000000000E+00 0. -1.
         22    1    3    3    0    0  0.54386326935E+02 -0.37492952690E+02  0.31194891801E+02  0.73052825635E+02  0.00000000000E+00 0. -1.
         22    1    3    3    0    0  0.24466886997E+02  0.70204639855E+02  0.11811418620E+03  0.13956461227E+03  0.00000000000E+00 0. -1.
</event>
<event>
 7    1  0.6888820E-006  0.9883059E+02  0.7818608E-02  0.1294230E+00
          2   -1    0    0  502    0  0.00000000000E+00  0.00000000000E+00  0.10621400750E+04  0.10621400750E+04  0.00000000000E+00 0. -1.
          1   -1    0    0  501    0 -0.00000000000E+00 -0.00000000000E+00 -0.12113252499E+03  0.12113252499E+03  0.00000000000E+00 0. -1.
         25    2    1    2    0    0 -0.48362647955E+02  0.72666418182E+02  0.11928020947E+03  0.19357568130E+03  0.12499768786E+03 0.  0.
          2    1    1    2  501    0 -0.54206531586E+02 -0.70277303008E+02 -0.56686409326E+02  0.10531190050E+03  0.00000000000E+00 0. -1.
          1    1    1    2  502    0  0.10256917954E+03 -0.23891151743E+01  0.87841374983E+03  0.88438501816E+03  0.00000000000E+00 0. -1.
         22    1    3    3    0    0 -0.37520502900E+02 -0.20165658394E+02  0.83048806055E+02  0.93335663621E+02  0.00000000000E+00 0. -1.
         22    1    3    3    0    0 -0.10842145055E+02  0.92832076576E+02  0.36231403418E+02  0.10024001768E+03  0.00000000000E+00 0. -1.
</event>
<event>
 7    1  0.6888820E-006  0.1092280E+03  0.7818608E-02  0.1332768E+00
          2   -1    0    0  502    0  0.00000000000E+00  0.00000000000E+00  0.23424295325E+04  0.23424295325E+04  0.00000000000E+00 0. -1.
          1   -1    0    0  501    0 -0.00000000000E+00 -0.00000000000E+00 -0.42319866277E+03  0.42319866277E+03  0.00000000000E+00 0. -1.
         25    2    1    2    0    0 -0.55786912574E+02 -0.19162727302E+02  0.72597490152E+01  0.13841051490E+03  0.12500150778E+03 0.  0.
          2    1    1    2  501    0  0.10985337141E+03  0.36278498941E+02 -0.34790209404E+03  0.36663300415E+03  0.00000000000E+00 0. -1.
          1    1    1    2  502    0 -0.54066458836E+02 -0.17115771638E+02  0.22598732148E+04  0.22605846763E+04  0.00000000000E+00 0. -1.
         22    1    3    3    0    0 -0.60183535943E+02  0.38109825015E+02  0.29110903155E+02  0.76953631778E+02  0.00000000000E+00 0.  1.
         22    1    3    3    0    0  0.43966233690E+01 -0.57272552318E+02 -0.21851154140E+02  0.61456883124E+02  0.00000000000E+00 0.  1.
</event>
<event>
 7    1  0.6888820E-006  0.2696124E+02  0.7818608E-02  0.1665400E+00
          2   -1    0    0  502    0  0.00000000000E+00  0.00000000000E+00  0.32472680792E+03  0.32472680792E+03  0.00000000000E+00 0. -1.
          1   -1    0    0  501    0 -0.00000000000E+00 -0.00000000000E+00 -0.15731844767E+03  0.15731844767E+03  0.00000000000E+00 0. -1.
         25    2    1    2    0    0 -0.43057636548E+02  0.18986492407E+02 -0.39706029298E+01  0.13362375047E+03  0.12500037617E+03 0.  0.
          2    1    1    2  501    0  0.20568219185E+02 -0.16541217390E+02 -0.86046645055E+02  0.90003825688E+02  0.00000000000E+00 0. -1.
          1    1    1    2  502    0  0.22489417362E+02 -0.24452750176E+01  0.25742560824E+03  0.25841767942E+03  0.00000000000E+00 0. -1.
         22    1    3    3    0    0 -0.55164122919E+02 -0.99615324879E+00  0.50222918066E+02  0.74608406214E+02  0.00000000000E+00 0.  1.
         22    1    3    3    0    0  0.12106486371E+02  0.19982645656E+02 -0.54193520996E+02  0.59015344256E+02  0.00000000000E+00 0.  1.
</event>
<event>
 7    1  0.6888820E-006  0.1568409E+03  0.7818608E-02  0.1219883E+00
          2   -1    0    0  502    0  0.00000000000E+00  0.00000000000E+00  0.21571422421E+04  0.21571422421E+04  0.00000000000E+00 0. -1.
          1   -1    0    0  501    0 -0.00000000000E+00 -0.00000000000E+00 -0.13879374608E+03  0.13879374608E+03  0.00000000000E+00 0. -1.
         25    2    1    2    0    0 -0.18045114463E+03  0.11704823014E+03  0.45566985110E+03  0.51915624241E+03  0.12500114820E+03 0.  0.
          2    1    1    2  501    0  0.65826142970E+02 -0.13848508501E+03 -0.48934867950E+02  0.16095285387E+03  0.00000000000E+00 0. -1.
          1    1    1    2  502    0  0.11462500166E+03  0.21436854870E+02  0.16116135129E+04  0.16158268919E+04  0.00000000000E+00 0. -1.
         22    1    3    3    0    0 -0.14054787903E+03  0.65827983955E+02  0.41367410997E+03  0.44182949091E+03  0.00000000000E+00 0.  1.
         22    1    3    3    0    0 -0.39903265605E+02  0.51220246185E+02  0.41995741127E+02  0.77326751503E+02  0.00000000000E+00 0.  1.
</event>
<event>
 7    1  0.6888820E-006  0.1146844E+03  0.7818608E-02  0.1403081E+00
          2   -1    0    0  502    0  0.00000000000E+00  0.00000000000E+00  0.54860661084E+03  0.54860661084E+03  0.00000000000E+00 0. -1.
          1   -1    0    0  501    0 -0.00000000000E+00 -0.00000000000E+00 -0.27504635006E+03  0.27504635006E+03  0.00000000000E+00 0. -1.
         25    2    1    2    0    0 -0.78039181190E+02  0.55959696819E+02 -0.11322002960E+03  0.19407552635E+03  0.12499973342E+03 0.  0.
          2    1    1    2  501    0  0.88795645407E+00  0.30100297133E+02 -0.11282636263E+03  0.11677587276E+03  0.00000000000E+00 0. -1.
          1    1    1    2  502    0  0.77151224736E+02 -0.86059993951E+02  0.49960665301E+03  0.51280156179E+03  0.00000000000E+00 0. -1.
         22    1    3    3    0    0 -0.94362836403E+02  0.20814801841E+02 -0.28233545306E+02  0.10067141576E+03  0.00000000000E+00 0.  1.
         22    1    3    3    0    0  0.16323655213E+02  0.35144894978E+02 -0.84986484298E+02  0.93404110594E+02  0.00000000000E+00 0.  1.
</event>
<event>
 7    1  0.6888820E-006  0.2429596E+02  0.7818608E-02  0.1673647E+00
          2   -1    0    0  502    0  0.00000000000E+00  0.00000000000E+00  0.70413619128E+03  0.70413619128E+03  0.00000000000E+00 0. -1.
          1   -1    0    0  501    0 -0.00000000000E+00 -0.00000000000E+00 -0.52347361986E+03  0.52347361986E+03  0.00000000000E+00 0. -1.
         25    2    1    2    0    0 -0.13063520217E+02 -0.11794387867E+02  0.63159740400E+02  0.14114876331E+03  0.12499622967E+03 0.  0.
          2    1    1    2  501    0  0.21980202415E+02 -0.10474925793E+02 -0.48393393978E+03  0.48454608804E+03  0.00000000000E+00 0. -1.
          1    1    1    2  502    0 -0.89166821974E+01  0.22269313659E+02  0.60143677079E+03  0.60191495979E+03  0.00000000000E+00 0. -1.
         22    1    3    3    0    0 -0.55363055406E+02  0.32281065030E+02  0.23229092772E+02  0.68166896763E+02  0.00000000000E+00 0.  1.
         22    1    3    3    0    0  0.42299535189E+02 -0.44075452896E+02  0.39930647629E+02  0.72981866551E+02  0.00000000000E+00 0.  1.
</event>
<event>
 7    1  0.6888820E-006  0.1195817E+03  0.7818608E-02  0.1253222E+00
          2   -1    0    0  502    0  0.00000000000E+00  0.00000000000E+00  0.32006636086E+04  0.32006636086E+04  0.00000000000E+00 0. -1.
          1   -1    0    0  501    0 -0.00000000000E+00 -0.00000000000E+00 -0.40403408390E+02  0.40403408390E+02  0.00000000000E+00 0. -1.
         25    2    1    2    0    0 -0.27172985512E+00  0.24217944807E+02  0.33920357960E+03  0.36231134608E+03  0.12499544150E+03 0.  0.
          2    1    1    2  501    0  0.11351844654E+02  0.10820861816E+03  0.81410132440E+02  0.13588811238E+03  0.00000000000E+00 0. -1.
          1    1    1    2  502    0 -0.11080114799E+02 -0.13242656297E+03  0.27396464882E+04  0.27428675586E+04  0.00000000000E+00 0. -1.
         22    1    3    3    0    0 -0.54578138849E+02 -0.18981127928E+02  0.16270311529E+03  0.17265966577E+03  0.00000000000E+00 0.  1.
         22    1    3    3    0    0  0.54306408994E+02  0.43199072735E+02  0.17650046430E+03  0.18965168031E+03  0.00000000000E+00 0.  1.
</event>
<event>
 7    1  0.6888820E-006  0.9715333E+02  0.7818608E-02  0.1420733E+00
          2   -1    0    0  502    0  0.00000000000E+00  0.00000000000E+00  0.35365476497E+03  0.35365476497E+03  0.00000000000E+00 0. -1.
          1   -1    0    0  501    0 -0.00000000000E+00 -0.00000000000E+00 -0.42943804392E+03  0.42943804392E+03  0.00000000000E+00 0. -1.
         25    2    1    2    0    0  0.49302329779E+02  0.55662039091E+02 -0.38260553071E+03  0.40931568255E+03  0.12499341396E+03 0.  0.
          2    1    1    2  501    0  0.30984561802E+02 -0.15596311946E+00 -0.17154415418E+02  0.35416681986E+02  0.00000000000E+00 0. -1.
          1    1    1    2  502    0 -0.80286891582E+02 -0.55506075971E+02  0.32397666718E+03  0.33836044436E+03  0.00000000000E+00 0. -1.
         22    1    3    3    0    0  0.79560349784E+02 -0.12312207021E+01 -0.23947794502E+03  0.25235104777E+03  0.00000000000E+00 0. -1.
         22    1    3    3    0    0 -0.30258020004E+02  0.56893259793E+02 -0.14312758570E+03  0.15696463478E+03  0.00000000000E+00 0. -1.
</event>
<event>
 7    1  0.6888820E-006  0.3596569E+02  0.7818608E-02  0.1569149E+00
          2   -1    0    0  502    0  0.00000000000E+00  0.00000000000E+00  0.44705430903E+03  0.44705430903E+03  0.00000000000E+00 0. -1.
          1   -1    0    0  501    0 -0.00000000000E+00 -0.00000000000E+00 -0.26768740666E+03  0.26768740666E+03  0.00000000000E+00 0. -1.
         25    2    1    2    0    0  0.54321096668E+02 -0.34800565201E+02 -0.14545649734E+03  0.20234642350E+03  0.12499848641E+03 0.  0.
          2    1    1    2  501    0 -0.28002035861E+02  0.10468334614E+02 -0.90612193660E+02  0.95416296731E+02  0.00000000000E+00 0. -1.
          1    1    1    2  502    0 -0.26319060808E+02  0.24332230587E+02  0.41543559337E+03  0.41697899545E+03  0.00000000000E+00 0. -1.
         22    1    3    3    0    0  0.23815625188E+02 -0.80040922377E+02 -0.68501778989E+02  0.10801030961E+03  0.00000000000E+00 0.  1.
         22    1    3    3    0    0  0.30505471481E+02  0.45240357176E+02 -0.76954718351E+02  0.94336113892E+02  0.00000000000E+00 0.  1.
</event>
<event>
 7    1  0.6888820E-006  0.7063393E+02  0.7818608E-02  0.1401591E+00
          2   -1    0    0  502    0  0.00000000000E+00  0.00000000000E+00  0.36883123197E+03  0.36883123197E+03  0.00000000000E+00 0. -1.
          1   -1    0    0  501    0 -0.00000000000E+00 -0.00000000000E+00 -0.19043590092E+04  0.19043590092E+04  0.00000000000E+00 0. -1.
         25    2    1    2    0    0  0.85863344312E+02  0.28725299329E+02  0.50104448164E+01  0.15442820102E+03  0.12500123198E+03 0.  0.
          2    1    1    2  501    0 -0.68369955463E+02  0.17550410510E+02 -0.18268471842E+04  0.18282103550E+04  0.00000000000E+00 0. -1.
          1    1    1    2  502    0 -0.17493388849E+02 -0.46275709839E+02  0.28630896212E+03  0.29055168518E+03  0.00000000000E+00 0. -1.
         22    1    3    3    0    0  0.11368356005E+03 -0.69470644123E+00  0.68859633098E+01  0.11389403379E+03  0.00000000000E+00 0.  1.
         22    1    3    3    0    0 -0.27820215740E+02  0.29420005770E+02 -0.18755184934E+01  0.40534167229E+02  0.00000000000E+00 0.  1.
</event>
<event>
 7    1  0.6888820E-006  0.1599505E+03  0.7818608E-02  0.1224888E+00
          2   -1    0    0  502    0  0.00000000000E+00  0.00000000000E+00  0.45432705199E+04  0.45432705199E+04  0.00000000000E+00 0. -1.
          1   -1    0    0  501    0 -0.00000000000E+00 -0.00000000000E+00 -0.17275931813E+03  0.17275931813E+03  0.00000000000E+00 0. -1.
         25    2    1    2    0    0  0.20010598643E+02 -0.59185516238E+02  0.67760546253E+02  0.15530703551E+03  0.12500173703E+03 0.  0.
          2    1    1    2  501    0  0.87898154180E+02 -0.63634159147E+02 -0.10437598675E+03  0.15056473136E+03  0.00000000000E+00 0. -1.
          1    1    1    2  502    0 -0.10790875282E+03  0.12281967538E+03  0.44071266423E+04  0.44101580712E+04  0.00000000000E+00 0. -1.
         22    1    3    3    0    0  0.68110707137E+02 -0.20396808983E+02  0.59994946164E+02  0.93029521168E+02  0.00000000000E+00 0.  1.
         22    1    3    3    0    0 -0.48100108495E+02 -0.38788707255E+02  0.77656000889E+01  0.62277514340E+02  0.00000000000E+00 0.  1.
</event>
<event>
 7    1  0.6888820E-006  0.6600661E+02  0.7818608E-02  0.1389349E+00
          2   -1    0    0  502    0  0.00000000000E+00  0.00000000000E+00  0.26675313899E+03  0.26675313899E+03  0.00000000000E+00 0. -1.
          1   -1    0    0  501    0 -0.00000000000E+00 -0.00000000000E+00 -0.48114885551E+03  0.48114885551E+03  0.00000000000E+00 0. -1.
         25    2    1    2    0    0 -0.18071739459E+02  0.28503631323E+02  0.69067329133E+02  0.14675252305E+03  0.12500784896E+03 0.  0.
          2    1    1    2  501    0 -0.56568851759E+02 -0.14372842497E+02 -0.43114334927E+03  0.43507608669E+03  0.00000000000E+00 0. -1.
          1    1    1    2  502    0  0.74640591218E+02 -0.14130788826E+02  0.14768030362E+03  0.16607338476E+03  0.00000000000E+00 0. -1.
         22    1    3    3    0    0 -0.67253179061E+02 -0.77478920327E+01  0.28743364510E+02  0.73547270025E+02  0.00000000000E+00 0.  1.
         22    1    3    3    0    0  0.49181439603E+02  0.36251523356E+02  0.40323964623E+02  0.73205253022E+02  0.00000000000E+00 0.  1.
</event>
<event>
 7    1  0.6888820E-006  0.3494888E+03  0.7818608E-02  0.1147094E+00
          2   -1    0    0  502    0  0.00000000000E+00  0.00000000000E+00  0.63737068239E+03  0.63737068239E+03  0.00000000000E+00 0. -1.
          1   -1    0    0  501    0 -0.00000000000E+00 -0.00000000000E+00 -0.12732760889E+04  0.12732760889E+04  0.00000000000E+00 0. -1.
         25    2    1    2    0    0 -0.15882046912E+03  0.36146738207E+03 -0.42183428554E+03  0.59114480687E+03  0.12500163406E+03 0.  0.
          2    1    1    2  501    0  0.11675322196E+03 -0.17827091095E+02 -0.70719125399E+03  0.71698576676E+03  0.00000000000E+00 0. -1.
          1    1    1    2  502    0  0.42067247164E+02 -0.34364029098E+03  0.49312013301E+03  0.60251619766E+03  0.00000000000E+00 0. -1.
         22    1    3    3    0    0 -0.73666243597E+02  0.25574773692E+03 -0.34306569907E+03  0.43419775940E+03  0.00000000000E+00 0.  1.
         22    1    3    3    0    0 -0.85154225528E+02  0.10571964515E+03 -0.78768586467E+02  0.15694704747E+03  0.00000000000E+00 0.  1.
</event>
<event>
 7    1  0.1060639E-005  0.9220103E+02  0.7818608E-02  0.1301591E+00
          2   -1    0    0  502    0  0.00000000000E+00  0.00000000000E+00  0.19057181929E+04  0.19057181929E+04  0.00000000000E+00 0. -1.
          1   -1    0    0  501    0 -0.00000000000E+00 -0.00000000000E+00 -0.12711052074E+04  0.12711052074E+04  0.00000000000E+00 0. -1.
         25    2    1    2    0    0  0.32496095511E+02  0.17845290897E+02 -0.15973834186E+03  0.20619047304E+03  0.12499489062E+03 0.  0.
          2    1    1    2  501    0  0.19615019572E+02 -0.93907516427E+02 -0.10848938995E+04  0.10891272395E+04  0.00000000000E+00 0. -1.
          1    1    1    2  502    0 -0.52111115083E+02  0.76062225530E+02  0.18792452268E+04  0.18815056877E+04  0.00000000000E+00 0. -1.
         22    1    3    3    0    0 -0.10092743746E+02 -0.21153165364E+02  0.11044036794E+02  0.25909276909E+02  0.00000000000E+00 0.  1.
         22    1    3    3    0    0  0.42588839257E+02  0.38998456261E+02 -0.17078237865E+03  0.18028119613E+03  0.00000000000E+00 0.  1.
</event>
<event>
 7    1  0.6888820E-006  0.1598235E+03  0.7818608E-02  0.1324331E+00
          2   -1    0    0  502    0  0.00000000000E+00  0.00000000000E+00  0.12590790298E+04  0.12590790298E+04  0.00000000000E+00 0. -1.
          1   -1    0    0  501    0 -0.00000000000E+00 -0.00000000000E+00 -0.11043523322E+03  0.11043523322E+03  0.00000000000E+00 0. -1.
         25    2    1    2    0    0  0.51793572870E+00 -0.16629571791E+03  0.21134993280E+03  0.29656086638E+03  0.12500007729E+03 0.  0.
          2    1    1    2  501    0 -0.40308994998E+02  0.15365483224E+03  0.26315769687E+02  0.16101907428E+03  0.00000000000E+00 0. -1.
          1    1    1    2  502    0  0.39791059270E+02  0.12640885672E+02  0.91097809405E+03  0.91193432232E+03  0.00000000000E+00 0. -1.
         22    1    3    3    0    0  0.26011766065E+02 -0.27888936781E+02 -0.50016539292E+01  0.38463246231E+02  0.00000000000E+00 0. -1.
         22    1    3    3    0    0 -0.25493830336E+02 -0.13840678113E+03  0.21635158673E+03  0.25809762015E+03  0.00000000000E+00 0. -1.
</event>
<event>
 7    1  0.6888820E-006  0.5279888E+02  0.7818608E-02  0.1502405E+00
          2   -1    0    0  502    0  0.00000000000E+00  0.00000000000E+00  0.21786365455E+03  0.21786365455E+03  0.00000000000E+00 0. -1.
          1   -1    0    0  501    0 -0.00000000000E+00 -0.00000000000E+00 -0.82127385442E+03  0.82127385442E+03  0.00000000000E+00 0. -1.
         25    2    1    2    0    0 -0.49299356430E+02  0.24280165932E+01 -0.33890939157E+03  0.36458299159E+03  0.12499944101E+03 0.  0.
          2    1    1    2  501    0  0.48513905728E+01 -0.31152634275E+02 -0.46557053245E+03  0.46663684306E+03  0.00000000000E+00 0. -1.
          1    1    1    2  502    0  0.44447965858E+02  0.28724617682E+02  0.20106972414E+03  0.20791767432E+03  0.00000000000E+00 0. -1.
         22    1    3    3    0    0  0.30137435691E+02  0.29374002404E+02 -0.59678473186E+02  0.73024771202E+02  0.00000000000E+00 0. -1.
         22    1    3    3    0    0 -0.79436792122E+02 -0.26945985811E+02 -0.27923091838E+03  0.29155822039E+03  0.00000000000E+00 0. -1.
</event>
<event>
 7    1  0.6888820E-006  0.6666366E+02  0.7818608E-02  0.1458821E+00
          2   -1    0    0  502    0  0.00000000000E+00  0.00000000000E+00  0.13825538778E+03  0.13825538778E+03  0.00000000000E+00 0. -1.
          1   -1    0    0  501    0 -0.00000000000E+00 -0.00000000000E+00 -0.22093228864E+04  0.22093228864E+04  0.00000000000E+00 0. -1.
         25    2    1    2    0    0 -0.66320645217E+02 -0.74123364184E+02 -0.52834160851E+03  0.55196222276E+03  0.12499895589E+03 0.  0.
          2    1    1    2  501    0  0.26369987633E+02  0.21408803667E+02 -0.16603356105E+04  0.16606830078E+04  0.00000000000E+00 0. -1.
          1    1    1    2  502    0  0.39950657584E+02  0.52714560517E+02  0.11760972035E+03  0.13493304359E+03  0.00000000000E+00 0. -1.
         22    1    3    3    0    0  0.34577798091E+02 -0.32499691118E+02 -0.11391660845E+03  0.12340521758E+03  0.00000000000E+00 0.  1.
         22    1    3    3    0    0 -0.10089844331E+03 -0.41623673067E+02 -0.41442500005E+03  0.42855700518E+03  0.00000000000E+00 0.  1.
</event>
<event>
 7    1  0.6888820E-006  0.1808854E+03  0.7818608E-02  0.1291431E+00
          2   -1    0    0  502    0  0.00000000000E+00  0.00000000000E+00  0.32478225878E+03  0.32478225878E+03  0.00000000000E+00 0. -1.
          1   -1    0    0  501    0 -0.00000000000E+00 -0.00000000000E+00 -0.65888089797E+03  0.65888089797E+03  0.00000000000E+00 0. -1.
         25    2    1    2    0    0  0.50148759309E+02  0.12750411830E+03 -0.19017732467E+03  0.26563956363E+03  0.12499905881E+03 0.  0.
          2    1    1    2  501    0  0.16658397691E+02  0.46904291196E+02 -0.39888191882E+03  0.40197549665E+03  0.00000000000E+00 0. -1.
          1    1    1    2  502    0 -0.66807157000E+02 -0.17440840950E+03  0.25496060430E+03  0.31604809646E+03  0.00000000000E+00 0. -1.
         22    1    3    3    0    0 -0.12390057332E+02  0.48758781483E+02 -0.14849383035E+03  0.15678440594E+03  0.00000000000E+00 0.  1.
         22    1    3    3    0    0  0.62538816641E+02  0.78745336820E+02 -0.41683494316E+02  0.10885515769E+03  0.00000000000E+00 0.  1.
</event>
<event>
 7    1  0.6888820E-006  0.8321115E+02  0.7818608E-02  0.1484613E+00
          2   -1    0    0  502    0  0.00000000000E+00  0.00000000000E+00  0.37833882537E+03  0.37833882537E+03  0.00000000000E+00 0. -1.
          1   -1    0    0  501    0 -0.00000000000E+00 -0.00000000000E+00 -0.74401746178E+03  0.74401746178E+03  0.00000000000E+00 0. -1.
         25    2    1    2    0    0 -0.50631519639E+01 -0.60734932143E+02  0.20267832429E+03  0.24580205685E+03  0.12500312206E+03 0.  0.
          2    1    1    2  501    0  0.97085368254E+01  0.82884419512E+02 -0.71919876671E+03  0.72402413546E+03  0.00000000000E+00 0. -1.
          1    1    1    2  502    0 -0.46453848615E+01 -0.22149487368E+02  0.15084180601E+03  0.15253009484E+03  0.00000000000E+00 0. -1.
         22    1    3    3    0    0 -0.10081198224E+02  0.29233900255E+02  0.11858014728E+03  0.12254592123E+03  0.00000000000E+00 0. -1.
         22    1    3    3    0    0  0.50180462597E+01 -0.89968832398E+02  0.84098177009E+02  0.12325613562E+03  0.00000000000E+00 0. -1.
</event>
<event>
 7    1  0.6888820E-006  0.7008977E+02  0.7818608E-02  0.1505232E+00
          2   -1    0    0  502    0  0.00000000000E+00  0.00000000000E+00  0.13910784793E+04  0.13910784793E+04  0.00000000000E+00 0. -1.
          1   -1    0    0  501    0 -0.00000000000E+00 -0.00000000000E+00 -0.65362386906E+03  0.65362386906E+03  0.00000000000E+00 0. -1.
         25    2    1    2    0    0  0.82478272727E+02  0.40477697863E+02  0.60796306638E+03  0.62744312525E+03  0.12499870338E+03 0.  0.
          2    1    1    2  501    0 -0.59441406710E+02 -0.37014646008E+02 -0.64180363390E+03  0.64561232124E+03  0.00000000000E+00 0. -1.
          1    1    1    2  502    0 -0.23036866017E+02 -0.34630518553E+01  0.77129517773E+03  0.77164690183E+03  0.00000000000E+00 0. -1.
         22    1    3    3    0    0  0.40119716746E+02 -0.75375524665E+01  0.50185971439E+03  0.50351720854E+03  0.00000000000E+00 0. -1.
         22    1    3    3    0    0  0.42358555981E+02  0.48015250330E+02  0.10610335199E+03  0.12392591671E+03  0.00000000000E+00 0. -1.
</event>
<event>
 7    1  0.6888820E-006  0.3939646E+03  0.7818608E-02  0.1276012E+00
          2   -1    0    0  502    0  0.00000000000E+00  0.00000000000E+00  0.14719962577E+04  0.14719962577E+04  0.00000000000E+00 0. -1.
          1   -1    0    0  501    0 -0.00000000000E+00 -0.00000000000E+00 -0.19971819135E+04  0.19971819135E+04  0.00000000000E+00 0. -1.
         25    2    1    2    0    0  0.33045996518E+03  0.17139909396E+03 -0.28926840375E+03  0.48774660196E+03  0.12505638853E+03 0.  0.
          2    1    1    2  501    0  0.26430184915E+02 -0.79736485881E+00 -0.15800649164E+04  0.15802861546E+04  0.00000000000E+00 0. -1.
          1    1    1    2  502    0 -0.35689015010E+03 -0.17060172911E+03  0.13441476644E+04  0.14011454146E+04  0.00000000000E+00 0. -1.
         22    1    3    3    0    0  0.71695685321E+02  0.87467008216E+02 -0.43630597311E+02  0.12122036892E+03  0.00000000000E+00 0.  1.
         22    1    3    3    0    0  0.25876427986E+03  0.83932085748E+02 -0.24563780644E+03  0.36652623303E+03  0.00000000000E+00 0.  1.
</event>
<event>
 7    1  0.6888820E-006  0.5099696E+02  0.7818608E-02  0.1506387E+00
          2   -1    0    0  502    0  0.00000000000E+00  0.00000000000E+00  0.28898571819E+03  0.28898571819E+03  0.00000000000E+00 0. -1.
          1   -1    0    0  501    0 -0.00000000000E+00 -0.00000000000E+00 -0.25735690089E+03  0.25735690089E+03  0.00000000000E+00 0. -1.
         25    2    1    2    0    0 -0.54239690312E+01 -0.27489511048E+02 -0.83126655855E+02  0.15270865062E+03  0.12499919361E+03 0.  0.
          2    1    1    2  501    0 -0.12892839305E+02  0.53443199744E+02 -0.13296646862E+03  0.14388357335E+03  0.00000000000E+00 0. -1.
          1    1    1    2  502    0  0.18316808337E+02 -0.25953688696E+02  0.24772194177E+03  0.24975039511E+03  0.00000000000E+00 0. -1.
         22    1    3    3    0    0  0.31148065036E+02 -0.63476192531E+02 -0.70545145719E+02  0.99880160984E+02  0.00000000000E+00 0.  1.
         22    1    3    3    0    0 -0.36572034067E+02  0.35986681483E+02 -0.12581510136E+02  0.52828489636E+02  0.00000000000E+00 0.  1.
</event>
<event>
 7    1  0.6888820E-006  0.2053548E+03  0.7818608E-02  0.1243989E+00
          2   -1    0    0  502    0  0.00000000000E+00  0.00000000000E+00  0.15019653948E+04  0.15019653948E+04  0.00000000000E+00 0. -1.
          1   -1    0    0  501    0 -0.00000000000E+00 -0.00000000000E+00 -0.80152591647E+02  0.80152591647E+02  0.00000000000E+00 0. -1.
         25    2    1    2    0    0  0.32783852301E+02 -0.16157379882E+03  0.38101159203E+03  0.43356017831E+03  0.12499488596E+03 0.  0.
          2    1    1    2  501    0 -0.21227552808E+02  0.23010024997E+03  0.20211416474E+03  0.30699653031E+03  0.00000000000E+00 0. -1.
          1    1    1    2  502    0 -0.11556299493E+02 -0.68526451145E+02  0.83868704640E+03  0.84156127784E+03  0.00000000000E+00 0. -1.
         22    1    3    3    0    0  0.13995499176E+02 -0.15237827844E+03  0.20242967282E+03  0.25375733719E+03  0.00000000000E+00 0. -1.
         22    1    3    3    0    0  0.18788353125E+02 -0.91955203853E+01  0.17858191921E+03  0.17980284112E+03  0.00000000000E+00 0. -1.
</event>
<event>
 7    1  0.6888820E-006  0.2133769E+03  0.7818608E-02  0.1286700E+00
          2   -1    0    0  502    0  0.00000000000E+00  0.00000000000E+00  0.76166593587E+03  0.76166593587E+03  0.00000000000E+00 0. -1.
          1   -1    0    0  501    0 -0.00000000000E+00 -0.00000000000E+00 -0.20630037901E+04  0.20630037901E+04  0.00000000000E+00 0. -1.
         25    2    1    2    0    0 -0.14994556996E+03 -0.97406327997E+02 -0.25361471944E+03  0.33454029510E+03  0.12500046578E+03 0.  0.
          2    1    1    2  501    0 -0.14459318207E+02 -0.41672683146E+02 -0.17525680852E+04  0.17531230925E+04  0.00000000000E+00 0. -1.
          1    1    1    2  502    0  0.16440488817E+03  0.13907901114E+03  0.70484495040E+03  0.73700633831E+03  0.00000000000E+00 0. -1.
         22    1    3    3    0    0 -0.11458965241E+03 -0.15875935119E+01 -0.15311263645E+03  0.19125059041E+03  0.00000000000E+00 0. -1.
         22    1    3    3    0    0 -0.35355917553E+02 -0.95818734485E+02 -0.10050208300E+03  0.14328970469E+03  0.00000000000E+00 0. -1.
</event>
<event>
 7    1  0.6888820E-006  0.1032047E+03  0.7818608E-02  0.1308357E+00
          2   -1    0    0  502    0  0.00000000000E+00  0.00000000000E+00  0.14663012684E+04  0.14663012684E+04  0.00000000000E+00 0. -1.
          1   -1    0    0  501    0 -0.00000000000E+00 -0.00000000000E+00 -0.40735474762E+02  0.40735474762E+02  0.00000000000E+00 0. -1.
         25    2    1    2    0    0 -0.90547637546E+02 -0.64654198851E+02  0.27483924974E+03  0.32177482464E+03  0.12499353775E+03 0.  0.
          2    1    1    2  501    0  0.10792877201E+03 -0.79284479204E+01  0.16885554541E+03  0.20055840877E+03  0.00000000000E+00 0. -1.
          1    1    1    2  502    0 -0.17381134462E+02  0.72582646771E+02  0.98187099847E+03  0.98470350973E+03  0.00000000000E+00 0. -1.
         22    1    3    3    0    0  0.27462758332E+02 -0.36600271768E+02  0.83824252307E+02  0.95500200332E+02  0.00000000000E+00 0.  1.
         22    1    3    3    0    0 -0.11801039588E+03 -0.28053927083E+02  0.19101499743E+03  0.22627462430E+03  0.00000000000E+00 0.  1.
</event>
<event>
 7    1  0.6888820E-006  0.1773403E+03  0.7818608E-02  0.1334590E+00
          2   -1    0    0  502    0  0.00000000000E+00  0.00000000000E+00  0.57785165008E+03  0.57785165008E+03  0.00000000000E+00 0. -1.
          1   -1    0    0  501    0 -0.00000000000E+00 -0.00000000000E+00 -0.17098027091E+03  0.17098027091E+03  0.00000000000E+00 0. -1.
         25    2    1    2    0    0  0.46259288218E+02 -0.19076201792E+03  0.18655955873E+03  0.29826171333E+03  0.12500204581E+03 0.  0.
          2    1    1    2  501    0 -0.62959387442E+02  0.16071341356E+03 -0.48720900767E+02  0.17934997055E+03  0.00000000000E+00 0. -1.
          1    1    1    2  502    0  0.16700099224E+02  0.30048604368E+02  0.26903272120E+03  0.27122023711E+03  0.00000000000E+00 0. -1.
         22    1    3    3    0    0  0.38932083023E+02 -0.64359693436E+01  0.69086299731E+02  0.79561583697E+02  0.00000000000E+00 0. -1.
         22    1    3    3    0    0  0.73272051951E+01 -0.18432604858E+03  0.11747325900E+03  0.21870012963E+03  0.00000000000E+00 0. -1.
</event>
<event>
 7    1  0.6888820E-006  0.2547473E+03  0.7818608E-02  0.1173900E+00
          2   -1    0    0  502    0  0.00000000000E+00  0.00000000000E+00  0.13948403638E+03  0.13948403638E+03  0.00000000000E+00 0. -1.
          1   -1    0    0  501    0 -0.00000000000E+00 -0.00000000000E+00 -0.37950539320E+04  0.37950539320E+04  0.00000000000E+00 0. -1.
         25    2    1    2    0    0 -0.25228741664E+03  0.14279427092E+03 -0.25794228477E+03  0.40767421292E+03  0.12499958882E+03 0.  0.
          2    1    1    2  501    0  0.13659216872E+02 -0.11784235236E+03 -0.32346300854E+04  0.32368047800E+04  0.00000000000E+00 0. -1.
          1    1    1    2  502    0  0.23862819977E+03 -0.24951918551E+02 -0.16299752545E+03  0.29005897550E+03  0.00000000000E+00 0. -1.
         22    1    3    3    0    0 -0.65216204442E+02  0.98719128726E+02 -0.63508877821E+02  0.13428327245E+03  0.00000000000E+00 0. -1.
         22    1    3    3    0    0 -0.18707121220E+03  0.44075142190E+02 -0.19443340695E+03  0.27339094047E+03  0.00000000000E+00 0. -1.
</event>
<event>
 7    1  0.6888820E-006  0.7744949E+02  0.7818608E-02  0.1415423E+00
          2   -1    0    0  502    0  0.00000000000E+00  0.00000000000E+00  0.52108910655E+03  0.52108910655E+03  0.00000000000E+00 0. -1.
          1   -1    0    0  501    0 -0.00000000000E+00 -0.00000000000E+00 -0.68268875605E+03  0.68268875605E+03  0.00000000000E+00 0. -1.
         25    2    1    2    0    0  0.10904827696E+03  0.29206136294E+02 -0.22806336516E+03  0.28351831091E+03  0.12500083595E+03 0.  0.
          2    1    1    2  501    0 -0.68677501983E+02 -0.26067513506E+02 -0.42289541974E+03  0.42922797041E+03  0.00000000000E+00 0. -1.
          1    1    1    2  502    0 -0.40370774976E+02 -0.31386227884E+01  0.48935913540E+03  0.49103158129E+03  0.00000000000E+00 0. -1.
         22    1    3    3    0    0  0.30786520709E+01  0.52781345924E+02 -0.11606952057E+03  0.12754404016E+03  0.00000000000E+00 0. -1.
         22    1    3    3    0    0  0.10596962489E+03 -0.23575209630E+02 -0.11199384459E+03  0.15597427074E+03  0.00000000000E+00 0. -1.
</event>
<event>
 7    1  0.6888820E-006  0.1217940E+03  0.7818608E-02  0.1280286E+00
          2   -1    0    0  502    0  0.00000000000E+00  0.00000000000E+00  0.12007928596E+04  0.12007928596E+04  0.00000000000E+00 0. -1.
          1   -1    0    0  501    0 -0.00000000000E+00 -0.00000000000E+00 -0.63916836020E+03  0.63916836020E+03  0.00000000000E+00 0. -1.
         25    2    1    2    0    0 -0.16035301087E+03  0.12155148312E+03 -0.23509017563E+03  0.33373600549E+03  0.12499791813E+03 0.  0.
          2    1    1    2  501    0  0.72602647884E+02 -0.38359749166E+02 -0.34677289844E+03  0.35636225660E+03  0.00000000000E+00 0. -1.
          1    1    1    2  502    0  0.87750362990E+02 -0.83191733952E+02  0.11434875735E+04  0.11498629578E+04  0.00000000000E+00 0. -1.
         22    1    3    3    0    0 -0.50126677469E+01  0.32607376866E+01 -0.90694782363E+02  0.90891709171E+02  0.00000000000E+00 0.  1.
         22    1    3    3    0    0 -0.15534034313E+03  0.11829074543E+03 -0.14439539327E+03  0.24284429632E+03  0.00000000000E+00 0.  1.
</event>
<event>
 7    1  0.6888820E-006  0.7683197E+02  0.7818608E-02  0.1487051E+00
          2   -1    0    0  502    0  0.00000000000E+00  0.00000000000E+00  0.14944732500E+04  0.14944732500E+04  0.00000000000E+00 0. -1.
          1   -1    0    0  501    0 -0.00000000000E+00 -0.00000000000E+00 -0.60284004253E+03  0.60284004253E+03  0.00000000000E+00 0. -1.
         25    2    1    2    0    0 -0.33500021945E+02  0.52275665741E+02 -0.59201698356E+01  0.13969534900E+03  0.12499898168E+03 0.  0.
          2    1    1    2  501    0  0.57592885696E+02 -0.51929818878E+02 -0.52709340976E+03  0.53276740627E+03  0.00000000000E+00 0. -1.
          1    1    1    2  502    0 -0.24092863752E+02 -0.34584686288E+00  0.14246467870E+04  0.14248505372E+04  0.00000000000E+00 0. -1.
         22    1    3    3    0    0 -0.32354977457E+02  0.36929618997E+02 -0.63401519321E+02  0.80189737359E+02  0.00000000000E+00 0. -1.
         22    1    3    3    0    0 -0.11450444875E+01  0.15346046745E+02  0.57481349486E+02  0.59505611637E+02  0.00000000000E+00 0. -1.
</event>
<event>
 7    1  0.6888820E-006  0.1705831E+03  0.7818608E-02  0.1195181E+00
          2   -1    0    0  502    0  0.00000000000E+00  0.00000000000E+00  0.14670114496E+04  0.14670114496E+04  0.00000000000E+00 0. -1.
          1   -1    0    0  501    0 -0.00000000000E+00 -0.00000000000E+00 -0.91568398515E+03  0.91568398515E+03  0.00000000000E+00 0. -1.
         25    2    1    2    0    0 -0.15608967819E+02 -0.15985500100E+03  0.59990943994E+03  0.63349365134E+03  0.12500243572E+03 0.  0.
          2    1    1    2  501    0 -0.11923490804E+03  0.12321859922E+03 -0.88486544750E+03  0.90132493956E+03  0.00000000000E+00 0. -1.
          1    1    1    2  502    0  0.13484387586E+03  0.36636401778E+02  0.83628347197E+03  0.84787684382E+03  0.00000000000E+00 0. -1.
         22    1    3    3    0    0  0.25365733582E+02 -0.18763928532E+02  0.27628383685E+03  0.27807960004E+03  0.00000000000E+00 0. -1.
         22    1    3    3    0    0 -0.40974701401E+02 -0.14109107247E+03  0.32362560309E+03  0.35541405130E+03  0.00000000000E+00 0. -1.
</event>
<event>
 7    1  0.6888820E-006  0.3698872E+02  0.7818608E-02  0.1604986E+00
          2   -1    0    0  502    0  0.00000000000E+00  0.00000000000E+00  0.13372878291E+03  0.13372878291E+03  0.00000000000E+00 0. -1.
          1   -1    0    0  501    0 -0.00000000000E+00 -0.00000000000E+00 -0.11216727434E+04  0.11216727434E+04  0.00000000000E+00 0. -1.
         25    2    1    2    0    0 -0.17687631549E+02  0.16754837015E+02  0.71463439754E+02  0.14603354953E+03  0.12500078997E+03 0.  0.
          2    1    1    2  501    0  0.36878564343E+02 -0.34626461253E+01 -0.10785454043E+04  0.10791812672E+04  0.00000000000E+00 0. -1.
          1    1    1    2  502    0 -0.19190932794E+02 -0.13292190890E+02  0.19138003994E+02  0.30186709609E+02  0.00000000000E+00 0. -1.
         22    1    3    3    0    0  0.94609037950E+01  0.52776882733E+02  0.83604939847E+02  0.99321166014E+02  0.00000000000E+00 0. -1.
         22    1    3    3    0    0 -0.27148535344E+02 -0.36022045718E+02 -0.12141500093E+02  0.46712383514E+02  0.00000000000E+00 0. -1.
</event>
<event>
 7    1  0.6888820E-006  0.5774475E+02  0.7818608E-02  0.1529986E+00
          2   -1    0    0  502    0  0.00000000000E+00  0.00000000000E+00  0.87341553158E+03  0.87341553158E+03  0.00000000000E+00 0. -1.
          1   -1    0    0  501    0 -0.00000000000E+00 -0.00000000000E+00 -0.20608288927E+02  0.20608288927E+02  0.00000000000E+00 0. -1.
         25    2    1    2    0    0  0.71382839964E+01 -0.38036118732E+02  0.54448583238E+03  0.55998863691E+03  0.12499900152E+03 0.  0.
          2    1    1    2  501    0  0.14424074693E+01  0.60395578510E+02  0.62050058966E+02  0.86602056908E+02  0.00000000000E+00 0. -1.
          1    1    1    2  502    0 -0.85806914657E+01 -0.22359459778E+02  0.24627135130E+03  0.24743312668E+03  0.00000000000E+00 0. -1.
         22    1    3    3    0    0 -0.49716429694E+02 -0.47308071430E+02  0.36784043667E+03  0.37418760516E+03  0.00000000000E+00 0.  1.
         22    1    3    3    0    0  0.56854713691E+02  0.92719526970E+01  0.17664539571E+03  0.18580103176E+03  0.00000000000E+00 0.  1.
</event>
<event>
 7    1  0.6888820E-006  0.4442400E+02  0.7818608E-02  0.1511892E+00
          2   -1    0    0  502    0  0.00000000000E+00  0.00000000000E+00  0.19218547948E+04  0.19218547948E+04  0.00000000000E+00 0. -1.
          1   -1    0    0  501    0 -0.00000000000E+00 -0.00000000000E+00 -0.35907426058E+03  0.35907426058E+03  0.00000000000E+00 0. -1.
         25    2    1    2    0    0 -0.20322241101E+02  0.16450213611E+02  0.62791505606E+03  0.64076873806E+03  0.12499462003E+03 0.  0.
          2    1    1    2  501    0  0.43324931549E+02  0.10100603233E+02 -0.35100356987E+03  0.35381150058E+03  0.00000000000E+00 0. -1.
          1    1    1    2  502    0 -0.23002690448E+02 -0.26550816844E+02  0.12858690480E+04  0.12863488167E+04  0.00000000000E+00 0. -1.
         22    1    3    3    0    0 -0.71985032429E+02  0.19698504333E+02  0.32468166965E+03  0.33314870939E+03  0.00000000000E+00 0. -1.
         22    1    3    3    0    0  0.51662791328E+02 -0.32482907218E+01  0.30323338641E+03  0.30762002866E+03  0.00000000000E+00 0. -1.
</event>
<event>
 7    1  0.6888820E-006  0.3201650E+02  0.7818608E-02  0.1603133E+00
          2   -1    0    0  502    0  0.00000000000E+00  0.00000000000E+00  0.57255086151E+03  0.57255086151E+03  0.00000000000E+00 0. -1.
          1   -1    0    0  501    0 -0.00000000000E+00 -0.00000000000E+00 -0.67291849645E+03  0.67291849645E+03  0.00000000000E+00 0. -1.
         25    2    1    2    0    0  0.57878746321E+01 -0.13233147440E+02  0.28484368632E+03  0.31139771897E+03  0.12499599217E+03 0.  0.
          2    1    1    2  501    0 -0.31697928649E+02  0.47260622035E+01 -0.65857335761E+03  0.65935268385E+03  0.00000000000E+00 0. -1.
          1    1    1    2  502    0  0.25910054017E+02  0.85070852370E+01  0.27336203634E+03  0.27471895514E+03  0.00000000000E+00 0. -1.
         22    1    3    3    0    0  0.57360262408E+02  0.19118693883E+02  0.18316675519E+03  0.19288800991E+03  0.00000000000E+00 0.  1.
         22    1    3    3    0    0 -0.51572387776E+02 -0.32351841323E+02  0.10167693113E+03  0.11850970906E+03  0.00000000000E+00 0.  1.
</event>
<event>
 7    1  0.6888820E-006  0.9976643E+02  0.7818608E-02  0.1348354E+00
          2   -1    0    0  502    0  0.00000000000E+00  0.00000000000E+00  0.57924889613E+03  0.57924889613E+03  0.00000000000E+00 0. -1.
          1   -1    0    0  501    0 -0.00000000000E+00 -0.00000000000E+00 -0.40199958853E+04  0.40199958853E+04  0.00000000000E+00 0. -1.
         25    2    1    2    0    0 -0.12307870061E+03  0.91207078289E+02  0.86600706243E+02  0.21585079622E+03  0.12499914493E+03 0.  0.
          2    1    1    2  501    0  0.75913217218E+02 -0.64394694267E+02 -0.39530224821E+04  0.39542756906E+04  0.00000000000E+00 0. -1.
          1    1    1    2  502    0  0.47165483394E+02 -0.26812384022E+02  0.42567478669E+03  0.42911829463E+03  0.00000000000E+00 0. -1.
         22    1    3    3    0    0  0.96441821982E+01 -0.15522106656E+02 -0.91824320356E+01  0.20451481692E+02  0.00000000000E+00 0.  1.
         22    1    3    3    0    0 -0.13272288281E+03  0.10672918494E+03  0.95783138279E+02  0.19539931453E+03  0.00000000000E+00 0.  1.
</event>
<event>
 7    1  0.6888820E-006  0.6326868E+02  0.7818608E-02  0.1393106E+00
          2   -1    0    0  502    0  0.00000000000E+00  0.00000000000E+00  0.15077728297E+04  0.15077728297E+04  0.00000000000E+00 0. -1.
          1   -1    0    0  501    0 -0.00000000000E+00 -0.00000000000E+00 -0.19938276595E+03  0.19938276595E+03  0.00000000000E+00 0. -1.
         25    2    1    2    0    0 -0.87858405298E+00  0.46890528183E+01  0.40446782449E+03  0.42336909670E+03  0.12499764745E+03 0.  0.
          2    1    1    2  501    0 -0.62646516727E+02  0.88509944560E+01 -0.18366733448E+03  0.19425914628E+03  0.00000000000E+00 0. -1.
          1    1    1    2  502    0  0.63525100780E+02 -0.13540047274E+02  0.10875895737E+04  0.10895273526E+04  0.00000000000E+00 0. -1.
         22    1    3    3    0    0 -0.55488208699E+02  0.15855907524E+02  0.29428148106E+03  0.29988654722E+03  0.00000000000E+00 0.  1.
         22    1    3    3    0    0  0.54609624646E+02 -0.11166854705E+02  0.11018634344E+03  0.12348254949E+03  0.00000000000E+00 0.  1.
</event>
<event>
 7    1  0.6888820E-006  0.1102200E+03  0.7818608E-02  0.1333319E+00
          2   -1    0    0  502    0  0.00000000000E+00  0.00000000000E+00  0.66080659691E+03  0.66080659691E+03  0.00000000000E+00 0. -1.
          1   -1    0    0  501    0 -0.00000000000E+00 -0.00000000000E+00 -0.59048873443E+03  0.59048873443E+03  0.00000000000E+00 0. -1.
         25    2    1    2    0    0 -0.24614048827E+02 -0.12160956291E+03 -0.26298699113E+02  0.17807816946E+03  0.12500190268E+03 0.  0.
          2    1    1    2  501    0 -0.29140115762E+02  0.10616115050E+03 -0.48072683474E+03  0.49317099049E+03  0.00000000000E+00 0. -1.
          1    1    1    2  502    0  0.53754164589E+02  0.15448412407E+02  0.57734339633E+03  0.58004617138E+03  0.00000000000E+00 0. -1.
         22    1    3    3    0    0 -0.21239828744E+02 -0.14799289618E+03 -0.23237667072E+02  0.15130438466E+03  0.00000000000E+00 0. -1.
         22    1    3    3    0    0 -0.33742200822E+01  0.26383333272E+02 -0.30610320407E+01  0.26773784806E+02  0.00000000000E+00 0. -1.
</event>
<event>
 7    1  0.6888820E-006  0.1198016E+03  0.7818608E-02  0.1288473E+00
          2   -1    0    0  502    0  0.00000000000E+00  0.00000000000E+00  0.45495893312E+03  0.45495893312E+03  0.00000000000E+00 0. -1.
          1   -1    0    0  501    0 -0.00000000000E+00 -0.00000000000E+00 -0.23826583884E+03  0.23826583884E+03  0.00000000000E+00 0. -1.
         25    2    1    2    0    0  0.16845148488E+03  0.54739721937E+02 -0.12290006930E+03  0.24920300823E+03  0.12500148943E+03 0.  0.
          2    1    1    2  501    0 -0.75427245281E+02  0.16749894190E+02 -0.75086063666E+01  0.77628650997E+02  0.00000000000E+00 0. -1.
          1    1    1    2  502    0 -0.93024239602E+02 -0.71489616127E+02  0.34710176994E+03  0.36639311274E+03  0.00000000000E+00 0. -1.
         22    1    3    3    0    0  0.53243071292E+02  0.61722408918E+02 -0.12667147305E+01  0.81523524025E+02  0.00000000000E+00 0. -1.
         22    1    3    3    0    0  0.11520841359E+03 -0.69826869809E+01 -0.12163335457E+03  0.16767948420E+03  0.00000000000E+00 0. -1.
</event>
<event>
 7    1  0.6888820E-006  0.1096410E+03  0.7818608E-02  0.1350930E+00
          2   -1    0    0  502    0  0.00000000000E+00  0.00000000000E+00  0.95904197795E+03  0.95904197795E+03  0.00000000000E+00 0. -1.
          1   -1    0    0  501    0 -0.00000000000E+00 -0.00000000000E+00 -0.10603003443E+03  0.10603003443E+03  0.00000000000E+00 0. -1.
         25    2    1    2    0    0  0.72156303642E+02 -0.70095250469E+02  0.42293856077E+02  0.16593263134E+03  0.12499996635E+03 0.  0.
          2    1    1    2  501    0 -0.11262019225E+03  0.43733169201E+02  0.40518242023E+02  0.12742694270E+03  0.00000000000E+00 0. -1.
          1    1    1    2  502    0  0.40463888605E+02  0.26362081268E+02  0.77019984541E+03  0.77171243834E+03  0.00000000000E+00 0. -1.
         22    1    3    3    0    0  0.92484079079E+02 -0.51523588571E+02 -0.10502921105E+02  0.10638748241E+03  0.00000000000E+00 0.  1.
         22    1    3    3    0    0 -0.20327775437E+02 -0.18571661898E+02  0.52796777182E+02  0.59545148926E+02  0.00000000000E+00 0.  1.
</event>
<event>
 7    1  0.6888820E-006  0.1560903E+03  0.7818608E-02  0.1358360E+00
          2   -1    0    0  502    0  0.00000000000E+00  0.00000000000E+00  0.13357697498E+03  0.13357697498E+03  0.00000000000E+00 0. -1.
          1   -1    0    0  501    0 -0.00000000000E+00 -0.00000000000E+00 -0.72681493920E+03  0.72681493920E+03  0.00000000000E+00 0. -1.
         25    2    1    2    0    0 -0.13199023715E+03  0.10411402442E+03 -0.18283367420E+03  0.27805440200E+03  0.12499978107E+03 0.  0.
          2    1    1    2  501    0  0.10199372448E+03 -0.11483031897E+03 -0.48098005223E+03  0.50490645929E+03  0.00000000000E+00 0. -1.
          1    1    1    2  502    0  0.29996512671E+02  0.10716294547E+02  0.70575762205E+02  0.77431052892E+02  0.00000000000E+00 0. -1.
         22    1    3    3    0    0  0.20161103508E+01  0.92966416850E+01 -0.87917776080E+02  0.88430919923E+02  0.00000000000E+00 0.  1.
         22    1    3    3    0    0 -0.13400634750E+03  0.94817382737E+02 -0.94915898118E+02  0.18962348208E+03  0.00000000000E+00 0.  1.
</event>
<event>
 7    1  0.6888820E-006  0.9439518E+02  0.7818608E-02  0.1311967E+00
          2   -1    0    0  502    0  0.00000000000E+00  0.00000000000E+00  0.16342395143E+04  0.16342395143E+04  0.00000000000E+00 0. -1.
          1   -1    0    0  501    0 -0.00000000000E+00 -0.00000000000E+00 -0.20156644614E+04  0.20156644614E+04  0.00000000000E+00 0. -1.
         25    2    1    2    0    0 -0.41169402843E+02 -0.24799654160E+02  0.92919437291E+03  0.93879504714E+03  0.12499606116E+03 0.  0.
          2    1    1    2  501    0  0.38529464622E+01  0.94397379214E+02 -0.20075231753E+04  0.20097450111E+04  0.00000000000E+00 0. -1.
          1    1    1    2  502    0  0.37316456381E+02 -0.69597725054E+02  0.69690385525E+03  0.70136391746E+03  0.00000000000E+00 0. -1.
         22    1    3    3    0    0 -0.52163360022E+02 -0.70043784508E+02  0.59765082365E+03  0.60399805868E+03  0.00000000000E+00 0. -1.
         22    1    3    3    0    0  0.10993957179E+02  0.45244130348E+02  0.33154354926E+03  0.33479698846E+03  0.00000000000E+00 0. -1.
</event>
<event>
 7    1  0.6888820E-006  0.1053134E+03  0.7818608E-02  0.1432984E+00
          2   -1    0    0  502    0  0.00000000000E+00  0.00000000000E+00  0.23377080460E+04  0.23377080460E+04  0.00000000000E+00 0. -1.
          1   -1    0    0  501    0 -0.00000000000E+00 -0.00000000000E+00 -0.93942186804E+02  0.93942186804E+02  0.00000000000E+00 0. -1.
         25    2    1    2    0    0  0.83614421295E+02  0.32161270659E+02  0.14875684529E+03  0.21395703501E+03  0.12499317993E+03 0.  0.
          2    1    1    2  501    0  0.53643831794E+01  0.25479522944E+02 -0.57214119254E+02  0.62860465623E+02  0.00000000000E+00 0. -1.
          1    1    1    2  502    0 -0.88978804475E+02 -0.57640793603E+02  0.21522231332E+04  0.21548327322E+04  0.00000000000E+00 0. -1.
         22    1    3    3    0    0  0.71445019742E+02  0.11884456240E+02  0.98992600081E+01  0.73100112823E+02  0.00000000000E+00 0. -1.
         22    1    3    3    0    0  0.12169401553E+02  0.20276814419E+02  0.13885758528E+03  0.14085692218E+03  0.00000000000E+00 0. -1.
</event>
<event>
 7    1  0.6888820E-006  0.9373729E+02  0.7818608E-02  0.1351903E+00
          2   -1    0    0  502    0  0.00000000000E+00  0.00000000000E+00  0.70450002591E+03  0.70450002591E+03  0.00000000000E+00 0. -1.
          1   -1    0    0  501    0 -0.00000000000E+00 -0.00000000000E+00 -0.18575136183E+04  0.18575136183E+04  0.00000000000E+00 0. -1.
         25    2    1    2    0    0  0.41883641708E+02 -0.42853460216E+02 -0.26269709751E+03  0.29702665797E+03  0.12499764801E+03 0.  0.
          2    1    1    2  501    0  0.50506783624E+02  0.24237360339E+02 -0.15739202638E+04  0.15749169443E+04  0.00000000000E+00 0. -1.
          1    1    1    2  502    0 -0.92390425333E+02  0.18616099878E+02  0.68360376890E+03  0.69007004190E+03  0.00000000000E+00 0. -1.
         22    1    3    3    0    0 -0.27568022437E+02 -0.60444350615E+02 -0.13950982989E+03  0.15452025116E+03  0.00000000000E+00 0.  1.
         22    1    3    3    0    0  0.69451664145E+02  0.17590890399E+02 -0.12318726762E+03  0.14250640681E+03  0.00000000000E+00 0.  1.
</event>
<event>
 7    1  0.6888820E-006  0.2739893E+03  0.7818608E-02  0.1273337E+00
          2   -1    0    0  502    0  0.00000000000E+00  0.00000000000E+00  0.29478359577E+04  0.29478359577E+04  0.00000000000E+00 0. -1.
          1   -1    0    0  501    0 -0.00000000000E+00 -0.00000000000E+00 -0.28806753574E+04  0.28806753574E+04  0.00000000000E+00 0. -1.
         25    2    1    2    0    0 -0.22932825149E+03  0.19753777540E+03  0.40203794697E+03  0.51852913653E+03  0.12500133993E+03 0.  0.
          2    1    1    2  501    0  0.11441935889E+02 -0.37293935172E+02 -0.28149423612E+04  0.28152126479E+04  0.00000000000E+00 0. -1.
          1    1    1    2  502    0  0.21788631560E+03 -0.16024384022E+03  0.24800650146E+04  0.24947695307E+04  0.00000000000E+00 0. -1.
         22    1    3    3    0    0 -0.87767837616E+02  0.14886738822E+03  0.25985751886E+03  0.31207470693E+03  0.00000000000E+00 0.  1.
         22    1    3    3    0    0 -0.14156041387E+03  0.48670387172E+02  0.14218042811E+03  0.20645442960E+03  0.00000000000E+00 0.  1.
</event>
<event>
 7    1  0.6888820E-006  0.1570203E+03  0.7818608E-02  0.1319029E+00
          2   -1    0    0  502    0  0.00000000000E+00  0.00000000000E+00  0.75908473429E+03  0.75908473429E+03  0.00000000000E+00 0. -1.
          1   -1    0    0  501    0 -0.00000000000E+00 -0.00000000000E+00 -0.45409841697E+03  0.45409841697E+03  0.00000000000E+00 0. -1.
         25    2    1    2    0    0 -0.40160229677E+02  0.18931656431E+03 -0.28053248931E+02  0.23209984633E+03  0.12501899183E+03 0.  0.
          2    1    1    2  501    0  0.27177646903E+02 -0.35302563990E+02 -0.31333497932E+03  0.31648650016E+03  0.00000000000E+00 0. -1.
          1    1    1    2  502    0  0.12982582774E+02 -0.15401400032E+03  0.64637454557E+03  0.66459680477E+03  0.00000000000E+00 0. -1.
         22    1    3    3    0    0 -0.58069535287E+02  0.17005159884E+03 -0.61159718275E+02  0.18981603814E+03  0.00000000000E+00 0.  1.
         22    1    3    3    0    0  0.17909305610E+02  0.19264965475E+02  0.33106469344E+02  0.42283808185E+02  0.00000000000E+00 0.  1.
</event>
<event>
 7    1  0.6888820E-006  0.1416610E+03  0.7818608E-02  0.1277680E+00
          2   -1    0    0  502    0  0.00000000000E+00  0.00000000000E+00  0.13060202942E+03  0.13060202942E+03  0.00000000000E+00 0. -1.
          1   -1    0    0  501    0 -0.00000000000E+00 -0.00000000000E+00 -0.35279821147E+04  0.35279821147E+04  0.00000000000E+00 0. -1.
         25    2    1    2    0    0  0.20411716439E+03 -0.24193304535E+02 -0.87332235686E+03  0.90585232913E+03  0.12500948131E+03 0.  0.
          2    1    1    2  501    0 -0.13187727870E+03  0.28586419428E+02 -0.26250327413E+04  0.26284987527E+04  0.00000000000E+00 0. -1.
          1    1    1    2  502    0 -0.72239885684E+02 -0.43931148938E+01  0.10097501288E+03  0.12423306230E+03  0.00000000000E+00 0. -1.
         22    1    3    3    0    0  0.10430449079E+03  0.26300684727E+02 -0.61522302523E+03  0.62455626134E+03  0.00000000000E+00 0.  1.
         22    1    3    3    0    0  0.99812673596E+02 -0.50493989261E+02 -0.25809933164E+03  0.28129606779E+03  0.00000000000E+00 0.  1.
</event>
<event>
 7    1  0.6888820E-006  0.7798439E+02  0.7818608E-02  0.1381897E+00
          2   -1    0    0  502    0  0.00000000000E+00  0.00000000000E+00  0.14264099208E+04  0.14264099208E+04  0.00000000000E+00 0. -1.
          1   -1    0    0  501    0 -0.00000000000E+00 -0.00000000000E+00 -0.54125781337E+02  0.54125781337E+02  0.00000000000E+00 0. -1.
         25    2    1    2    0    0  0.14237069746E+02  0.30228437710E+02  0.67124495593E+03  0.68360148027E+03  0.12499896144E+03 0.  0.
          2    1    1    2  501    0 -0.62687555663E+02 -0.50369855729E+02 -0.12574687701E+02  0.81393948005E+02  0.00000000000E+00 0. -1.
          1    1    1    2  502    0  0.48450485917E+02  0.20141418018E+02  0.71361387123E+03  0.71554027386E+03  0.00000000000E+00 0. -1.
         22    1    3    3    0    0  0.79125926215E+01  0.64899558257E+01  0.65280266908E+03  0.65288287878E+03  0.00000000000E+00 0. -1.
         22    1    3    3    0    0  0.63244771246E+01  0.23738481885E+02  0.18442286855E+02  0.30718601490E+02  0.00000000000E+00 0. -1.
</event>
<event>
 7    1  0.6888820E-006  0.5566692E+02  0.7818608E-02  0.1539700E+00
          2   -1    0    0  502    0  0.00000000000E+00  0.00000000000E+00  0.17687455045E+04  0.17687455045E+04  0.00000000000E+00 0. -1.
          1   -1    0    0  501    0 -0.00000000000E+00 -0.00000000000E+00 -0.10988521069E+03  0.10988521069E+03  0.00000000000E+00 0. -1.
         25    2    1    2    0    0  0.67851646559E+02 -0.87590890301E+01  0.70893294337E+03  0.72311255031E+03  0.12500109858E+03 0.  0.
          2    1    1    2  501    0 -0.50152148175E+02  0.23929146873E+02 -0.95146245541E+02  0.11018461815E+03  0.00000000000E+00 0. -1.
          1    1    1    2  502    0 -0.17699498385E+02 -0.15170057843E+02  0.10450735960E+04  0.10453335467E+04  0.00000000000E+00 0. -1.
         22    1    3    3    0    0 -0.66975011574E+01 -0.23869870715E+02  0.50250465736E+03  0.50311584940E+03  0.00000000000E+00 0.  1.
         22    1    3    3    0    0  0.74549147717E+02  0.15110781685E+02  0.20642828601E+03  0.21999670091E+03  0.00000000000E+00 0.  1.
</event>
<event>
 7    1  0.6888820E-006  0.1630764E+03  0.7818608E-02  0.1294410E+00
          2   -1    0    0  502    0  0.00000000000E+00  0.00000000000E+00  0.15762708911E+04  0.15762708911E+04  0.00000000000E+00 0. -1.
          1   -1    0    0  501    0 -0.00000000000E+00 -0.00000000000E+00 -0.15801390366E+03  0.15801390366E+03  0.00000000000E+00 0. -1.
         25    2    1    2    0    0  0.44423249319E+02  0.15025050177E+03 -0.28784627467E+02  0.20248838291E+03  0.12499740827E+03 0.  0.
          2    1    1    2  501    0  0.50869840969E+02 -0.17198110971E+02 -0.18764418317E+02  0.56882502898E+02  0.00000000000E+00 0. -1.
          1    1    1    2  502    0 -0.95293090288E+02 -0.13305239080E+03  0.14658060332E+04  0.14749139090E+04  0.00000000000E+00 0. -1.
         22    1    3    3    0    0  0.24199435955E+01  0.11389922438E+02 -0.53998195693E+02  0.55239402588E+02  0.00000000000E+00 0.  1.
         22    1    3    3    0    0  0.42003305723E+02  0.13886057933E+03  0.25213568226E+02  0.14724898032E+03  0.00000000000E+00 0.  1.
</event>
<event>
 7    1  0.6888820E-006  0.1289103E+03  0.7818608E-02  0.1248756E+00
          2   -1    0    0  502    0  0.00000000000E+00  0.00000000000E+00  0.73875159358E+03  0.73875159358E+03  0.00000000000E+00 0. -1.
          1   -1    0    0  501    0 -0.00000000000E+00 -0.00000000000E+00 -0.64979169208E+03  0.64979169208E+03  0.00000000000E+00 0. -1.
         25    2    1    2    0    0  0.16005916227E+03  0.12381458719E+03 -0.98117043135E+02  0.25729588622E+03  0.12500092593E+03 0.  0.
          2    1    1    2  501    0 -0.35354604703E+02 -0.99427103457E+02 -0.45993023729E+03  0.47188083257E+03  0.00000000000E+00 0. -1.
          1    1    1    2  502    0 -0.12470455757E+03 -0.24387483732E+02  0.64700718193E+03  0.65936656687E+03  0.00000000000E+00 0. -1.
         22    1    3    3    0    0  0.55523647068E+02  0.97382664011E+01  0.22917253319E+02  0.60851538320E+02  0.00000000000E+00 0. -1.
         22    1    3    3    0    0  0.10453551521E+03  0.11407632079E+03 -0.12103429645E+03  0.19644434790E+03  0.00000000000E+00 0. -1.
</event>
<event>
 7    1  0.6888820E-006  0.3453254E+03  0.7818608E-02  0.1244479E+00
          2   -1    0    0  502    0  0.00000000000E+00  0.00000000000E+00  0.23477251627E+03  0.23477251627E+03  0.00000000000E+00 0. -1.
          1   -1    0    0  501    0 -0.00000000000E+00 -0.00000000000E+00 -0.22140828367E+04  0.22140828367E+04  0.00000000000E+00 0. -1.
         25    2    1    2    0    0 -0.17173550393E+03 -0.32402589309E+03 -0.16402813858E+03  0.42073454537E+03  0.12500585873E+03 0.  0.
          2    1    1    2  501    0  0.98904492733E+01  0.39915184358E+02 -0.16696903314E+04  0.16701966488E+04  0.00000000000E+00 0. -1.
          1    1    1    2  502    0  0.16184505466E+03  0.28411070873E+03 -0.14559185046E+03  0.35792415880E+03  0.00000000000E+00 0. -1.
         22    1    3    3    0    0 -0.18442409936E+03 -0.25165605244E+03 -0.11554737899E+03  0.33270739989E+03  0.00000000000E+00 0. -1.
         22    1    3    3    0    0  0.12688595427E+02 -0.72369840656E+02 -0.48480759592E+02  0.88027145479E+02  0.00000000000E+00 0. -1.
</event>
<event>
 7    1  0.6888820E-006  0.6514641E+02  0.7818608E-02  0.1463088E+00
          2   -1    0    0  502    0  0.00000000000E+00  0.00000000000E+00  0.34274644486E+04  0.34274644486E+04  0.00000000000E+00 0. -1.
          1   -1    0    0  501    0 -0.00000000000E+00 -0.00000000000E+00 -0.13700135422E+02  0.13700135422E+02  0.00000000000E+00 0. -1.
         25    2    1    2    0    0  0.42888129860E+02 -0.46406478553E+02  0.11985611787E+04  0.12067178817E+04  0.12500477625E+03 0.  0.
          2    1    1    2  501    0 -0.14450555008E+02  0.64485959095E+02  0.10559539736E+03  0.12456984147E+03  0.00000000000E+00 0. -1.
          1    1    1    2  502    0 -0.28437574852E+02 -0.18079480542E+02  0.21096077372E+04  0.21098768609E+04  0.00000000000E+00 0. -1.
         22    1    3    3    0    0 -0.40141473359E+02 -0.33405182795E+02  0.33083474416E+03  0.33493114526E+03  0.00000000000E+00 0.  1.
         22    1    3    3    0    0  0.83029603219E+02 -0.13001295758E+02  0.86772643452E+03  0.87178673646E+03  0.00000000000E+00 0.  1.
</event>
<event>
 7    1  0.6888820E-006  0.4661777E+03  0.7818608E-02  0.1190980E+00
          2   -1    0    0  502    0  0.00000000000E+00  0.00000000000E+00  0.12775147840E+04  0.12775147840E+04  0.00000000000E+00 0. -1.
          1   -1    0    0  501    0 -0.00000000000E+00 -0.00000000000E+00 -0.69453018611E+03  0.69453018611E+03  0.00000000000E+00 0. -1.
         25    2    1    2    0    0  0.18098682062E+03 -0.44758748750E+03  0.15574459995E+03  0.52246747345E+03  0.12500036876E+03 0.  0.
          2    1    1    2  501    0 -0.12758198742E+03  0.44369338436E+03 -0.40589169898E+03  0.61472681261E+03  0.00000000000E+00 0. -1.
          1    1    1    2  502    0 -0.53404833198E+02  0.38941031353E+01  0.83313169696E+03  0.83485068409E+03  0.00000000000E+00 0. -1.
         22    1    3    3    0    0  0.57904465910E+02 -0.23404114381E+03  0.13195057210E+03  0.27484384229E+03  0.00000000000E+00 0. -1.
         22    1    3    3    0    0  0.12308235471E+03 -0.21354634369E+03  0.23794027851E+02  0.24762363116E+03  0.00000000000E+00 0. -1.
</event>
<event>
 7    1  0.6888820E-006  0.5394428E+02  0.7818608E-02  0.1461046E+00
          2   -1    0    0  502    0  0.00000000000E+00  0.00000000000E+00  0.61474586092E+02  0.61474586092E+02  0.00000000000E+00 0. -1.
          1   -1    0    0  501    0 -0.00000000000E+00 -0.00000000000E+00 -0.14077738358E+04  0.14077738358E+04  0.00000000000E+00 0. -1.
         25    2    1    2    0    0 -0.26689138643E+02 -0.46952334605E+02 -0.37134451219E+03  0.39552363700E+03  0.12500147537E+03 0.  0.
          2    1    1    2  501    0  0.40906692737E+02 -0.57029072069E+01 -0.10087284009E+04  0.10095736067E+04  0.00000000000E+00 0. -1.
          1    1    1    2  502    0 -0.14217554094E+02  0.52655241812E+02  0.33773663304E+02  0.64151178225E+02  0.00000000000E+00 0. -1.
         22    1    3    3    0    0 -0.80959640167E+01 -0.47797713114E+00 -0.33135822710E+03  0.33145745996E+03  0.00000000000E+00 0. -1.
         22    1    3    3    0    0 -0.18593174626E+02 -0.46474357474E+02 -0.39986285095E+02  0.64066177043E+02  0.00000000000E+00 0. -1.
</event>
<event>
 7    1  0.6888820E-006  0.1027777E+03  0.7818608E-02  0.1311771E+00
          2   -1    0    0  502    0  0.00000000000E+00  0.00000000000E+00  0.19386626745E+04  0.19386626745E+04  0.00000000000E+00 0. -1.
          1   -1    0    0  501    0 -0.00000000000E+00 -0.00000000000E+00 -0.28402434589E+02  0.28402434589E+02  0.00000000000E+00 0. -1.
         25    2    1    2    0    0  0.33141876533E+02  0.94719699467E+02  0.51122252850E+03  0.53576471443E+03  0.12500060054E+03 0.  0.
          2    1    1    2  501    0  0.59644992288E+02 -0.41494217830E+02  0.80541956542E+02  0.10847258632E+03  0.00000000000E+00 0. -1.
          1    1    1    2  502    0 -0.92786868820E+02 -0.53225481637E+02  0.13184957549E+04  0.13228278084E+04  0.00000000000E+00 0. -1.
         22    1    3    3    0    0  0.53969859246E+02  0.11707338410E+03  0.43314599300E+03  0.45192297378E+03  0.00000000000E+00 0. -1.
         22    1    3    3    0    0 -0.20827982713E+02 -0.22353684635E+02  0.78076535495E+02  0.83841740652E+02  0.00000000000E+00 0. -1.
</event>
<event>
 7    1  0.6888820E-006  0.4455869E+02  0.7818608E-02  0.1483149E+00
          2   -1    0    0  502    0  0.00000000000E+00  0.00000000000E+00  0.79051488226E+03  0.79051488226E+03  0.00000000000E+00 0. -1.
          1   -1    0    0  501    0 -0.00000000000E+00 -0.00000000000E+00 -0.14553614928E+04  0.14553614928E+04  0.00000000000E+00 0. -1.
         25    2    1    2    0    0 -0.32121588313E+02 -0.44825365551E+02 -0.82085229351E+03  0.83214457458E+03  0.12499998162E+03 0.  0.
          2    1    1    2  501    0 -0.10573572306E+02  0.44177462578E+02 -0.62746061747E+03  0.62910275401E+03  0.00000000000E+00 0. -1.
          1    1    1    2  502    0  0.42695160619E+02  0.64790297353E+00  0.78346630048E+03  0.78462904643E+03  0.00000000000E+00 0. -1.
         22    1    3    3    0    0 -0.25824462341E+02 -0.17661522973E+02 -0.39941651956E+02  0.50736257350E+02  0.00000000000E+00 0.  1.
         22    1    3    3    0    0 -0.62971259721E+01 -0.27163842578E+02 -0.78091064155E+03  0.78140831723E+03  0.00000000000E+00 0.  1.
</event>
<event>
 7    1  0.6888820E-006  0.5647481E+02  0.7818608E-02  0.1498204E+00
          2   -1    0    0  502    0  0.00000000000E+00  0.00000000000E+00  0.25679884906E+03  0.25679884906E+03  0.00000000000E+00 0. -1.
          1   -1    0    0  501    0 -0.00000000000E+00 -0.00000000000E+00 -0.29966979754E+03  0.29966979754E+03  0.00000000000E+00 0. -1.
         25    2    1    2    0    0  0.19809598133E+02  0.48590789613E+02 -0.14106881051E+03  0.19564724387E+03  0.12499579883E+03 0.  0.
          2    1    1    2  501    0  0.26161689124E+02 -0.15362694785E+02 -0.12597848434E+03  0.12958018709E+03  0.00000000000E+00 0. -1.
          1    1    1    2  502    0 -0.45971287257E+02 -0.33228094828E+02  0.22417634637E+03  0.23124121564E+03  0.00000000000E+00 0. -1.
         22    1    3    3    0    0  0.90733242611E+01  0.61636221998E+02 -0.95268189983E+01  0.63024672594E+02  0.00000000000E+00 0. -1.
         22    1    3    3    0    0  0.10736273872E+02 -0.13045432385E+02 -0.13154199151E+03  0.13262257128E+03  0.00000000000E+00 0. -1.
</event>
<event>
 7    1  0.6888820E-006  0.8176521E+02  0.7818608E-02  0.1367137E+00
          2   -1    0    0  502    0  0.00000000000E+00  0.00000000000E+00  0.10981554191E+04  0.10981554191E+04  0.00000000000E+00 0. -1.
          1   -1    0    0  501    0 -0.00000000000E+00 -0.00000000000E+00 -0.13325107566E+03  0.13325107566E+03  0.00000000000E+00 0. -1.
         25    2    1    2    0    0  0.11543107225E+03 -0.58706012249E+02  0.51952461156E+03  0.54982008167E+03  0.12500228747E+03 0.  0.
          2    1    1    2  501    0 -0.79165953488E+02  0.15378529334E+02 -0.10271256455E+03  0.13058950292E+03  0.00000000000E+00 0. -1.
          1    1    1    2  502    0 -0.36265118759E+02  0.43327482915E+02  0.54809229644E+03  0.55099691019E+03  0.00000000000E+00 0. -1.
         22    1    3    3    0    0  0.60872905460E+02 -0.91970101058E+02  0.39144460923E+03  0.40668524955E+03  0.00000000000E+00 0. -1.
         22    1    3    3    0    0  0.54558166787E+02  0.33264088808E+02  0.12808000233E+03  0.14313483211E+03  0.00000000000E+00 0. -1.
</event>
<event>
 7    1  0.6888820E-006  0.3633424E+03  0.7818608E-02  0.1257361E+00
          2   -1    0    0  502    0  0.00000000000E+00  0.00000000000E+00  0.27172406520E+04  0.27172406520E+04  0.00000000000E+00 0. -1.
          1   -1    0    0  501    0 -0.00000000000E+00 -0.00000000000E+00 -0.24900629890E+03  0.24900629890E+03  0.00000000000E+00 0. -1.
         25    2    1    2    0    0  0.66587778902E+02 -0.37808238438E+03  0.50291281274E+03  0.64492575648E+03  0.12501084943E+03 0.  0.
          2    1    1    2  501    0 -0.82228081811E+02  0.34747639934E+03  0.13769858197E+01  0.35707590458E+03  0.00000000000E+00 0. -1.
          1    1    1    2  502    0  0.15640302909E+02  0.30605985034E+02  0.19639445546E+04  0.19642452899E+04  0.00000000000E+00 0. -1.
         22    1    3    3    0    0  0.68605484042E+02 -0.37146643658E+03  0.43276798815E+03  0.57444073455E+03  0.00000000000E+00 0.  1.
         22    1    3    3    0    0 -0.20177051407E+01 -0.66159478022E+01  0.70144824596E+02  0.70485021933E+02  0.00000000000E+00 0.  1.
</event>
<event>
 7    1  0.6888820E-006  0.1311546E+03  0.7818608E-02  0.1436847E+00
          2   -1    0    0  502    0  0.00000000000E+00  0.00000000000E+00  0.26845056922E+04  0.26845056922E+04  0.00000000000E+00 0. -1.
          1   -1    0    0  501    0 -0.00000000000E+00 -0.00000000000E+00 -0.86495651671E+03  0.86495651671E+03  0.00000000000E+00 0. -1.
         25    2    1    2    0    0  0.11951184596E+03 -0.14623184245E+01 -0.56173681140E+03  0.58775712900E+03  0.12499991085E+03 0.  0.
          2    1    1    2  501    0  0.10300228230E+02 -0.17502705902E+02 -0.28824145315E+03  0.28895600829E+03  0.00000000000E+00 0. -1.
          1    1    1    2  502    0 -0.12981207419E+03  0.18965024326E+02  0.26695274400E+04  0.26727490716E+04  0.00000000000E+00 0. -1.
         22    1    3    3    0    0 -0.67886402451E+01 -0.10132459375E+02 -0.26325645254E+03  0.26353882480E+03  0.00000000000E+00 0. -1.
         22    1    3    3    0    0  0.12630048621E+03  0.86701409506E+01 -0.29848035885E+03  0.32421830421E+03  0.00000000000E+00 0. -1.
</event>
<event>
 7    1  0.6888820E-006  0.6283690E+02  0.7818608E-02  0.1476550E+00
          2   -1    0    0  502    0  0.00000000000E+00  0.00000000000E+00  0.67309675103E+03  0.67309675103E+03  0.00000000000E+00 0. -1.
          1   -1    0    0  501    0 -0.00000000000E+00 -0.00000000000E+00 -0.23181063926E+03  0.23181063926E+03  0.00000000000E+00 0. -1.
         25    2    1    2    0    0 -0.27640819235E+02 -0.16482179675E+02  0.17757053862E+03  0.21952684506E+03  0.12500024953E+03 0.  0.
          2    1    1    2  501    0  0.57587823470E+02  0.26952015095E+02 -0.20549082536E+03  0.21510287733E+03  0.00000000000E+00 0. -1.
          1    1    1    2  502    0 -0.29947004235E+02 -0.10469835420E+02  0.46920639852E+03  0.47027766790E+03  0.00000000000E+00 0. -1.
         22    1    3    3    0    0 -0.12590207016E+02  0.28076890484E+02 -0.48414969233E+01  0.31149079993E+02  0.00000000000E+00 0.  1.
         22    1    3    3    0    0 -0.15050612218E+02 -0.44559070159E+02  0.18241203554E+03  0.18837776507E+03  0.00000000000E+00 0.  1.
</event>
<event>
 7    1  0.6888820E-006  0.2680345E+03  0.7818608E-02  0.1293862E+00
          2   -1    0    0  502    0  0.00000000000E+00  0.00000000000E+00  0.26370940233E+04  0.26370940233E+04  0.00000000000E+00 0. -1.
          1   -1    0    0  501    0 -0.00000000000E+00 -0.00000000000E+00 -0.74640735808E+03  0.74640735808E+03  0.00000000000E+00 0. -1.
         25    2    1    2    0    0 -0.21067404788E+03  0.20411770846E+03  0.33589486084E+03  0.46314017817E+03  0.12500349492E+03 0.  0.
          2    1    1    2  501    0  0.17844073594E+03 -0.19784581981E+03 -0.65666751645E+03  0.70865809233E+03  0.00000000000E+00 0. -1.
          1    1    1    2  502    0  0.32233311939E+02 -0.62718886571E+01  0.22114593208E+04  0.22117031108E+04  0.00000000000E+00 0. -1.
         22    1    3    3    0    0 -0.21441737163E+03  0.15748361155E+03  0.24866734574E+03  0.36415840784E+03  0.00000000000E+00 0.  1.
         22    1    3    3    0    0  0.37433237542E+01  0.46634096913E+02  0.87227515093E+02  0.98981770326E+02  0.00000000000E+00 0.  1.
</event>
<event>
 7    1  0.6888820E-006  0.1484533E+03  0.7818608E-02  0.1403180E+00
          2   -1    0    0  502    0  0.00000000000E+00  0.00000000000E+00  0.98313309219E+02  0.98313309219E+02  0.00000000000E+00 0. -1.
          1   -1    0    0  501    0 -0.00000000000E+00 -0.00000000000E+00 -0.17350955508E+04  0.17350955508E+04  0.00000000000E+00 0. -1.
         25    2    1    2    0    0  0.14376056092E+03 -0.75650281485E+02 -0.69023794779E+03  0.72002943873E+03  0.12499561633E+03 0.  0.
          2    1    1    2  501    0 -0.22078893735E+02 -0.72708076027E+01 -0.96473128465E+03  0.96501129205E+03  0.00000000000E+00 0. -1.
          1    1    1    2  502    0 -0.12168166718E+03  0.82921089088E+02  0.18186990847E+02  0.14836812926E+03  0.00000000000E+00 0. -1.
         22    1    3    3    0    0  0.87151082760E+02 -0.98232094447E+02 -0.33906333816E+03  0.36360528446E+03  0.00000000000E+00 0.  1.
         22    1    3    3    0    0  0.56609478156E+02  0.22581812962E+02 -0.35117460963E+03  0.35642415426E+03  0.00000000000E+00 0.  1.
</event>
<event>
 7    1  0.6888820E-006  0.5489622E+02  0.7818608E-02  0.1467505E+00
          2   -1    0    0  502    0  0.00000000000E+00  0.00000000000E+00  0.64619001651E+03  0.64619001651E+03  0.00000000000E+00 0. -1.
          1   -1    0    0  501    0 -0.00000000000E+00 -0.00000000000E+00 -0.21784557007E+03  0.21784557007E+03  0.00000000000E+00 0. -1.
         25    2    1    2    0    0 -0.55699790446E+02  0.25716678350E+02  0.56661986347E+02  0.15032901742E+03  0.12499767430E+03 0.  0.
          2    1    1    2  501    0  0.53621165891E+02  0.12964229378E+02 -0.16584791243E+03  0.17478223804E+03  0.00000000000E+00 0. -1.
          1    1    1    2  502    0  0.20786245553E+01 -0.38680907727E+02  0.53753037252E+03  0.53892433113E+03  0.00000000000E+00 0. -1.
         22    1    3    3    0    0  0.31261711366E+02 -0.16790399355E+02  0.37552622535E+02  0.51666348499E+02  0.00000000000E+00 0. -1.
         22    1    3    3    0    0 -0.86961501812E+02  0.42507077705E+02  0.19109363812E+02  0.98662668917E+02  0.00000000000E+00 0. -1.
</event>
<event>
 7    1  0.6888820E-006  0.1458640E+03  0.7818608E-02  0.1255447E+00
          2   -1    0    0  502    0  0.00000000000E+00  0.00000000000E+00  0.21628931816E+04  0.21628931816E+04  0.00000000000E+00 0. -1.
          1   -1    0    0  501    0 -0.00000000000E+00 -0.00000000000E+00 -0.19953645973E+03  0.19953645973E+03  0.00000000000E+00 0. -1.
         25    2    1    2    0    0  0.15905729057E+03  0.68664459131E+02  0.14011812661E+04  0.14173736815E+04  0.12500073169E+03 0.  0.
          2    1    1    2  501    0 -0.78308592414E+02  0.38478267423E+02 -0.17512046961E+03  0.19565273212E+03  0.00000000000E+00 0. -1.
          1    1    1    2  502    0 -0.80748698158E+02 -0.10714272655E+03  0.73729592541E+03  0.74940322773E+03  0.00000000000E+00 0. -1.
         22    1    3    3    0    0  0.48143611360E+02  0.40795880247E+02  0.17793959475E+03  0.18879780332E+03  0.00000000000E+00 0. -1.
         22    1    3    3    0    0  0.11091367921E+03  0.27868578885E+02  0.12232416713E+04  0.12285758782E+04  0.00000000000E+00 0. -1.
</event>
<event>
 7    1  0.6888820E-006  0.4544083E+02  0.7818608E-02  0.1541130E+00
          2   -1    0    0  502    0  0.00000000000E+00  0.00000000000E+00  0.23407956561E+03  0.23407956561E+03  0.00000000000E+00 0. -1.
          1   -1    0    0  501    0 -0.00000000000E+00 -0.00000000000E+00 -0.35699148230E+03  0.35699148230E+03  0.00000000000E+00 0. -1.
         25    2    1    2    0    0 -0.63090753963E+02  0.30584756430E+02  0.10348926963E+03  0.17677329655E+03  0.12499159525E+03 0.  0.
          2    1    1    2  501    0  0.44157505923E+02 -0.95609044242E+01 -0.31657851791E+03  0.31978626335E+03  0.00000000000E+00 0. -1.
          1    1    1    2  502    0  0.18933248040E+02 -0.21023852006E+02  0.90177331586E+02  0.94511488014E+02  0.00000000000E+00 0. -1.
         22    1    3    3    0    0  0.93745535875E+01  0.43613857547E+02 -0.58115335159E+01  0.44986939737E+02  0.00000000000E+00 0.  1.
         22    1    3    3    0    0 -0.72465307550E+02 -0.13029101117E+02  0.10930080314E+03  0.13178635681E+03  0.00000000000E+00 0.  1.
</event>
<event>
 7    1  0.6888820E-006  0.8105589E+02  0.7818608E-02  0.1383455E+00
          2   -1    0    0  502    0  0.00000000000E+00  0.00000000000E+00  0.59950830521E+03  0.59950830521E+03  0.00000000000E+00 0. -1.
          1   -1    0    0  501    0 -0.00000000000E+00 -0.00000000000E+00 -0.66665812991E+03  0.66665812991E+03  0.00000000000E+00 0. -1.
         25    2    1    2    0    0  0.64523543609E+02 -0.10548970682E+03 -0.44607656115E+03  0.47948036274E+03  0.12500301564E+03 0.  0.
          2    1    1    2  501    0 -0.41158251802E+02  0.28120030242E+02 -0.19797326917E+03  0.20415227919E+03  0.00000000000E+00 0. -1.
          1    1    1    2  502    0 -0.23365291807E+02  0.77369676576E+02  0.57690000563E+03  0.58253379319E+03  0.00000000000E+00 0. -1.
         22    1    3    3    0    0  0.27604913934E+02 -0.70267188676E+02 -0.41023720604E+03  0.41712596934E+03  0.00000000000E+00 0.  1.
         22    1    3    3    0    0  0.36918629674E+02 -0.35222518142E+02 -0.35839355107E+02  0.62354393396E+02  0.00000000000E+00 0.  1.
</event>
<event>
 7    1  0.6888820E-006  0.1349416E+03  0.7818608E-02  0.1361616E+00
          2   -1    0    0  502    0  0.00000000000E+00  0.00000000000E+00  0.28894690504E+04  0.28894690504E+04  0.00000000000E+00 0. -1.
          1   -1    0    0  501    0 -0.00000000000E+00 -0.00000000000E+00 -0.90648380766E+02  0.90648380766E+02  0.00000000000E+00 0. -1.
         25    2    1    2    0    0  0.10651507163E+03 -0.72529332920E+02  0.20849549827E+04  0.20926701188E+04  0.12499992573E+03 0.  0.
          2    1    1    2  501    0  0.31008585249E+02  0.17993273916E+02 -0.75901824109E+02  0.83942701699E+02  0.00000000000E+00 0. -1.
          1    1    1    2  502    0 -0.13752365688E+03  0.54536059003E+02  0.78976751099E+03  0.80350461066E+03  0.00000000000E+00 0. -1.
         22    1    3    3    0    0  0.72042500245E+02 -0.96273357777E+02  0.10488841859E+04  0.10557540986E+04  0.00000000000E+00 0.  1.
         22    1    3    3    0    0  0.34472571386E+02  0.23744024857E+02  0.10360707969E+04  0.10369160202E+04  0.00000000000E+00 0.  1.
</event>
<event>
 7    1  0.6888820E-006  0.5052814E+02  0.7818608E-02  0.1487111E+00
          2   -1    0    0  502    0  0.00000000000E+00  0.00000000000E+00  0.15043346660E+04  0.15043346660E+04  0.00000000000E+00 0. -1.
          1   -1    0    0  501    0 -0.00000000000E+00 -0.00000000000E+00 -0.39904800785E+03  0.39904800785E+03  0.00000000000E+00 0. -1.
         25    2    1    2    0    0  0.45709020723E+02  0.60737023529E+02 -0.49125833963E+02  0.15431905016E+03  0.12499088398E+03 0.  0.
          2    1    1    2  501    0 -0.14127319562E+01 -0.36596114798E+02 -0.29575752011E+03  0.29801641252E+03  0.00000000000E+00 0. -1.
          1    1    1    2  502    0 -0.44296288767E+02 -0.24140908731E+02  0.14501700122E+04  0.14510472111E+04  0.00000000000E+00 0. -1.
         22    1    3    3    0    0  0.11696644598E+02 -0.37083835084E+02 -0.29742578712E+02  0.48955523773E+02  0.00000000000E+00 0.  1.
         22    1    3    3    0    0  0.34012376125E+02  0.97820858613E+02 -0.19383255251E+02  0.10536352639E+03  0.00000000000E+00 0.  1.
</event>
<event>
 7    1  0.6888820E-006  0.9258480E+02  0.7818608E-02  0.1415813E+00
          2   -1    0    0  502    0  0.00000000000E+00  0.00000000000E+00  0.15821365663E+04  0.15821365663E+04  0.00000000000E+00 0. -1.
          1   -1    0    0  501    0 -0.00000000000E+00 -0.00000000000E+00 -0.49686646304E+03  0.49686646304E+03  0.00000000000E+00 0. -1.
         25    2    1    2    0    0 -0.12160159967E+03  0.12296799366E+02  0.18102405457E+03  0.25166174388E+03  0.12500305869E+03 0.  0.
          2    1    1    2  501    0  0.30294845493E+02 -0.14923298648E+02 -0.45939983953E+03  0.46063944150E+03  0.00000000000E+00 0. -1.
          1    1    1    2  502    0  0.91306754175E+02  0.26264992822E+01  0.13636458882E+04  0.13667018439E+04  0.00000000000E+00 0. -1.
         22    1    3    3    0    0 -0.88825702982E+02 -0.48100969751E+02  0.13638027976E+03  0.16971531902E+03  0.00000000000E+00 0. -1.
         22    1    3    3    0    0 -0.32775896686E+02  0.60397769117E+02  0.44643774806E+02  0.81946424857E+02  0.00000000000E+00 0. -1.
</event>
<event>
 7    1  0.6888820E-006  0.6249998E+02  0.7818608E-02  0.1441893E+00
          2   -1    0    0  502    0  0.00000000000E+00  0.00000000000E+00  0.93224933653E+03  0.93224933653E+03  0.00000000000E+00 0. -1.
          1   -1    0    0  501    0 -0.00000000000E+00 -0.00000000000E+00 -0.58940147806E+03  0.58940147806E+03  0.00000000000E+00 0. -1.
         25    2    1    2    0    0  0.82331447501E+02 -0.32621372691E+02  0.19713193305E+02  0.15445446346E+03  0.12499980035E+03 0.  0.
          2    1    1    2  501    0 -0.43113203301E+02  0.44709412393E+02 -0.51968235941E+03  0.52338077395E+03  0.00000000000E+00 0. -1.
          1    1    1    2  502    0 -0.39218244200E+02 -0.12088039701E+02  0.84281702458E+03  0.84381557719E+03  0.00000000000E+00 0. -1.
         22    1    3    3    0    0  0.83173241492E+02 -0.69324524176E+02  0.36258540331E+02  0.11418563613E+03  0.00000000000E+00 0. -1.
         22    1    3    3    0    0 -0.84179399075E+00  0.36703151485E+02 -0.16545347026E+02  0.40268827326E+02  0.00000000000E+00 0. -1.
</event>
<event>
 7    1  0.6888820E-006  0.6009809E+02  0.7818608E-02  0.1457858E+00
          2   -1    0    0  502    0  0.00000000000E+00  0.00000000000E+00  0.28649357024E+02  0.28649357024E+02  0.00000000000E+00 0. -1.
          1   -1    0    0  501    0 -0.00000000000E+00 -0.00000000000E+00 -0.22652599570E+04  0.22652599570E+04  0.00000000000E+00 0. -1.
         25    2    1    2    0    0  0.38459459844E+02 -0.18886449288E+02 -0.14183730645E+04  0.14245147663E+04  0.12499736499E+03 0.  0.
          2    1    1    2  501    0 -0.70298598213E+02 -0.17503083787E+01 -0.82738286080E+03  0.83036579580E+03  0.00000000000E+00 0. -1.
          1    1    1    2  502    0  0.31839138369E+02  0.20636757666E+02  0.91453253584E+01  0.39028751901E+02  0.00000000000E+00 0. -1.
         22    1    3    3    0    0  0.21479452240E+01  0.27468189106E+02 -0.75817247629E+02  0.80668272074E+02  0.00000000000E+00 0. -1.
         22    1    3    3    0    0  0.36311514621E+02 -0.46354638394E+02 -0.13425558169E+04  0.13438464942E+04  0.00000000000E+00 0. -1.
</event>
<event>
 7    1  0.6888820E-006  0.1298064E+03  0.7818608E-02  0.1290535E+00
          2   -1    0    0  502    0  0.00000000000E+00  0.00000000000E+00  0.71881150167E+03  0.71881150167E+03  0.00000000000E+00 0. -1.
          1   -1    0    0  501    0 -0.00000000000E+00 -0.00000000000E+00 -0.93460626854E+02  0.93460626854E+02  0.00000000000E+00 0. -1.
         25    2    1    2    0    0  0.29886229607E+02 -0.11521914156E+03  0.26105956389E+03  0.31296250668E+03  0.12499918955E+03 0.  0.
          2    1    1    2  501    0  0.68266660459E+02  0.15229145921E+02 -0.33507311960E+02  0.77556455376E+02  0.00000000000E+00 0. -1.
          1    1    1    2  502    0 -0.98152890066E+02  0.99989995636E+02  0.39779862288E+03  0.42175316647E+03  0.00000000000E+00 0. -1.
         22    1    3    3    0    0 -0.79622522034E+01 -0.12750683258E+03  0.16273985796E+03  0.20689526622E+03  0.00000000000E+00 0. -1.
         22    1    3    3    0    0  0.37848481810E+02  0.12287691019E+02  0.98319705928E+02  0.10606724046E+03  0.00000000000E+00 0. -1.
</event>
<event>
 7    1  0.6888820E-006  0.6387513E+02  0.7818608E-02  0.1456603E+00
          2   -1    0    0  502    0  0.00000000000E+00  0.00000000000E+00  0.95392223422E+03  0.95392223422E+03  0.00000000000E+00 0. -1.
          1   -1    0    0  501    0 -0.00000000000E+00 -0.00000000000E+00 -0.15027851344E+03  0.15027851344E+03  0.00000000000E+00 0. -1.
         25    2    1    2    0    0  0.53601743666E+02 -0.82433081768E+02  0.33265374262E+03  0.36871720487E+03  0.12500201917E+03 0.  0.
          2    1    1    2  501    0 -0.29063276435E+02  0.56055135181E+02 -0.12413410578E+03  0.13926998397E+03  0.00000000000E+00 0. -1.
          1    1    1    2  502    0 -0.24538467231E+02  0.26377946587E+02  0.59512408394E+03  0.59621355882E+03  0.00000000000E+00 0. -1.
         22    1    3    3    0    0 -0.23522917995E+02 -0.34418299565E+02  0.22039097223E+03  0.22429919227E+03  0.00000000000E+00 0.  1.
         22    1    3    3    0    0  0.77124661661E+02 -0.48014782202E+02  0.11226277039E+03  0.14441801259E+03  0.00000000000E+00 0.  1.
</event>
<event>
 7    1  0.6888820E-006  0.3111157E+03  0.7818608E-02  0.1175894E+00
          2   -1    0    0  502    0  0.00000000000E+00  0.00000000000E+00  0.18407055111E+04  0.18407055111E+04  0.00000000000E+00 0. -1.
          1   -1    0    0  501    0 -0.00000000000E+00 -0.00000000000E+00 -0.13866522871E+04  0.13866522871E+04  0.00000000000E+00 0. -1.
         25    2    1    2    0    0  0.17238044134E+03  0.13600436105E+03  0.46852118746E+03  0.53230154619E+03  0.12498251954E+03 0.  0.
          2    1    1    2  501    0 -0.24397158567E+03 -0.19839929743E+03 -0.13347861277E+04  0.13713272485E+04  0.00000000000E+00 0. -1.
          1    1    1    2  502    0  0.71591144329E+02  0.62394936377E+02  0.13203181642E+04  0.13237290035E+04  0.00000000000E+00 0. -1.
         22    1    3    3    0    0  0.99435201252E+02  0.11826900389E+03  0.19573041698E+03  0.24936983109E+03  0.00000000000E+00 0.  1.
         22    1    3    3    0    0  0.72945240093E+02  0.17735357164E+02  0.27279077049E+03  0.28293171510E+03  0.00000000000E+00 0.  1.
</event>
<event>
 7    1  0.6888820E-006  0.3498346E+02  0.7818608E-02  0.1632920E+00
          2   -1    0    0  502    0  0.00000000000E+00  0.00000000000E+00  0.18311175054E+04  0.18311175054E+04  0.00000000000E+00 0. -1.
          1   -1    0    0  501    0 -0.00000000000E+00 -0.00000000000E+00 -0.29287020015E+02  0.29287020015E+02  0.00000000000E+00 0. -1.
         25    2    1    2    0    0  0.43031338204E+01  0.24659888651E+02  0.49087075488E+03  0.50715255108E+03  0.12499193973E+03 0.  0.
          2    1    1    2  501    0 -0.25250806359E+02 -0.24834877690E+02 -0.61743527263E+01  0.35951314346E+02  0.00000000000E+00 0. -1.
          1    1    1    2  502    0  0.20947672538E+02  0.17498903891E+00  0.13171340832E+04  0.13173006600E+04  0.00000000000E+00 0. -1.
         22    1    3    3    0    0  0.42934161094E+02  0.26464306192E+02  0.44182243258E+03  0.44469176249E+03  0.00000000000E+00 0. -1.
         22    1    3    3    0    0 -0.38631027274E+02 -0.18044175411E+01  0.49048322297E+02  0.62460788588E+02  0.00000000000E+00 0. -1.
</event>
<event>
 7    1  0.6888820E-006  0.6425611E+02  0.7818608E-02  0.1409060E+00
          2   -1    0    0  502    0  0.00000000000E+00  0.00000000000E+00  0.11791558925E+02  0.11791558925E+02  0.00000000000E+00 0. -1.
          1   -1    0    0  501    0 -0.00000000000E+00 -0.00000000000E+00 -0.27811068187E+04  0.27811068187E+04  0.00000000000E+00 0. -1.
         25    2    1    2    0    0 -0.62861677331E+02 -0.26816778757E+02 -0.15791308416E+04  0.15855434982E+04  0.12499295793E+03 0.  0.
          2    1    1    2  501    0  0.26092285775E+02  0.62565233758E+02 -0.11106736305E+04  0.11127403692E+04  0.00000000000E+00 0. -1.
          1    1    1    2  502    0  0.36769391556E+02 -0.35748455002E+02 -0.79510787689E+02  0.94614510247E+02  0.00000000000E+00 0. -1.
         22    1    3    3    0    0 -0.29397695908E+02  0.14526156053E+02 -0.13469131991E+04  0.13473122873E+04  0.00000000000E+00 0. -1.
         22    1    3    3    0    0 -0.33463981423E+02 -0.41342934810E+02 -0.23221764255E+03  0.23823121085E+03  0.00000000000E+00 0. -1.
</event>
<event>
 7    1  0.6888820E-006  0.2564694E+03  0.7818608E-02  0.1318819E+00
          2   -1    0    0  502    0  0.00000000000E+00  0.00000000000E+00  0.34063425094E+03  0.34063425094E+03  0.00000000000E+00 0. -1.
          1   -1    0    0  501    0 -0.00000000000E+00 -0.00000000000E+00 -0.24569987330E+04  0.24569987330E+04  0.00000000000E+00 0. -1.
         25    2    1    2    0    0 -0.25254579629E+03 -0.62035812465E+02 -0.30507496974E+03  0.41990970302E+03  0.12500240108E+03 0.  0.
          2    1    1    2  501    0  0.25378538956E+03  0.34736048813E+02 -0.20859942503E+04  0.21016625869E+04  0.00000000000E+00 0. -1.
          1    1    1    2  502    0 -0.12395932708E+01  0.27299763652E+02  0.27470473799E+03  0.27606069398E+03  0.00000000000E+00 0. -1.
         22    1    3    3    0    0 -0.18110512830E+03 -0.10041806936E+03 -0.22844298127E+03  0.30833269668E+03  0.00000000000E+00 0. -1.
         22    1    3    3    0    0 -0.71440667983E+02  0.38382256891E+02 -0.76631988475E+02  0.11157700634E+03  0.00000000000E+00 0. -1.
</event>
<event>
 7    1  0.6888820E-006  0.5787330E+02  0.7818608E-02  0.1466548E+00
          2   -1    0    0  502    0  0.00000000000E+00  0.00000000000E+00  0.25078073088E+04  0.25078073088E+04  0.00000000000E+00 0. -1.
          1   -1    0    0  501    0 -0.00000000000E+00 -0.00000000000E+00 -0.74149133688E+03  0.74149133688E+03  0.00000000000E+00 0. -1.
         25    2    1    2    0    0  0.13460331052E+02 -0.40365971743E+02  0.11515785998E+03  0.17520459104E+03  0.12499889527E+03 0.  0.
          2    1    1    2  501    0  0.20851617612E+02  0.54204974675E+02 -0.71013760069E+03  0.71250851304E+03  0.00000000000E+00 0. -1.
          1    1    1    2  502    0 -0.34311948664E+02 -0.13839002932E+02  0.23612957126E+04  0.23615855416E+04  0.00000000000E+00 0. -1.
         22    1    3    3    0    0  0.59035885869E+02  0.14408039265E+02  0.51530120816E+02  0.79675471553E+02  0.00000000000E+00 0. -1.
         22    1    3    3    0    0 -0.45575554817E+02 -0.54774011008E+02  0.63627739161E+02  0.95529119485E+02  0.00000000000E+00 0. -1.
</event>
<event>
 7    1  0.6888820E-006  0.3694317E+02  0.7818608E-02  0.1532041E+00
          2   -1    0    0  502    0  0.00000000000E+00  0.00000000000E+00  0.56449540703E+03  0.56449540703E+03  0.00000000000E+00 0. -1.
          1   -1    0    0  501    0 -0.00000000000E+00 -0.00000000000E+00 -0.44244114372E+03  0.44244114372E+03  0.00000000000E+00 0. -1.
         25    2    1    2    0    0 -0.24358038493E+02  0.17031788362E+01 -0.34274097182E+03  0.36564130322E+03  0.12500389594E+03 0.  0.
          2    1    1    2  501    0  0.14554110338E+02  0.33955498878E+02 -0.83733628372E+02  0.91521137187E+02  0.00000000000E+00 0. -1.
          1    1    1    2  502    0  0.98039281552E+01 -0.35658677714E+02  0.54852886351E+03  0.54977411034E+03  0.00000000000E+00 0. -1.
         22    1    3    3    0    0  0.47847553335E+02  0.15614824841E+02 -0.18287240140E+03  0.18967215481E+03  0.00000000000E+00 0. -1.
         22    1    3    3    0    0 -0.72205591828E+02 -0.13911646005E+02 -0.15986857041E+03  0.17596914841E+03  0.00000000000E+00 0. -1.
</event>
<event>
 7    1  0.6888820E-006  0.4689253E+02  0.7818608E-02  0.1488068E+00
          2   -1    0    0  502    0  0.00000000000E+00  0.00000000000E+00  0.20648629534E+03  0.20648629534E+03  0.00000000000E+00 0. -1.
          1   -1    0    0  501    0 -0.00000000000E+00 -0.00000000000E+00 -0.48583610124E+03  0.48583610124E+03  0.00000000000E+00 0. -1.
         25    2    1    2    0    0  0.13487744044E+02 -0.10840579947E+02 -0.29416344688E+03  0.32008814729E+03  0.12499940457E+03 0.  0.
          2    1    1    2  501    0  0.32395313330E+02  0.22071600150E+02 -0.17360957080E+03  0.17798004083E+03  0.00000000000E+00 0. -1.
          1    1    1    2  502    0 -0.45883057374E+02 -0.11231020203E+02  0.18842321178E+03  0.19425420847E+03  0.00000000000E+00 0. -1.
         22    1    3    3    0    0  0.20686852300E+02  0.33579202025E+02 -0.26156547497E+03  0.26452222281E+03  0.00000000000E+00 0. -1.
         22    1    3    3    0    0 -0.71991082559E+01 -0.44419781973E+02 -0.32597971910E+02  0.55565924475E+02  0.00000000000E+00 0. -1.
</event>
<event>
 7    1  0.6888820E-006  0.1759684E+03  0.7818608E-02  0.1295873E+00
          2   -1    0    0  502    0  0.00000000000E+00  0.00000000000E+00  0.68607255782E+03  0.68607255782E+03  0.00000000000E+00 0. -1.
          1   -1    0    0  501    0 -0.00000000000E+00 -0.00000000000E+00 -0.52664633348E+03  0.52664633348E+03  0.00000000000E+00 0. -1.
         25    2    1    2    0    0  0.61484964683E+02  0.11701900764E+03 -0.23928432024E+03  0.30059434750E+03  0.12500450714E+03 0.  0.
          2    1    1    2  501    0  0.38909538467E+02  0.29935202872E+02 -0.24211609725E+03  0.24704305921E+03  0.00000000000E+00 0. -1.
          1    1    1    2  502    0 -0.10039450315E+03 -0.14695421051E+03  0.64082664183E+03  0.66508148458E+03  0.00000000000E+00 0. -1.
         22    1    3    3    0    0  0.74675315956E+02  0.13775135785E+03 -0.19733726552E+03  0.25197983206E+03  0.00000000000E+00 0.  1.
         22    1    3    3    0    0 -0.13190351273E+02 -0.20732350206E+02 -0.41947054725E+02  0.48614515444E+02  0.00000000000E+00 0.  1.
</event>
<event>
 7    1  0.6888820E-006  0.2245324E+03  0.7818608E-02  0.1151541E+00
          2   -1    0    0  502    0  0.00000000000E+00  0.00000000000E+00  0.10351509583E+04  0.10351509583E+04  0.00000000000E+00 0. -1.
          1   -1    0    0  501    0 -0.00000000000E+00 -0.00000000000E+00 -0.62012609750E+03  0.62012609750E+03  0.00000000000E+00 0. -1.
         25    2    1    2    0    0  0.75795096112E+02  0.26428027247E+02  0.14105714976E+03  0.20485720937E+03  0.12500407799E+03 0.  0.
          2    1    1    2  501    0  0.11047339595E+03 -0.19547483827E+03 -0.54726100271E+03  0.59153139283E+03  0.00000000000E+00 0. -1.
          1    1    1    2  502    0 -0.18626849206E+03  0.16904681102E+03  0.82122871377E+03  0.85888845362E+03  0.00000000000E+00 0. -1.
         22    1    3    3    0    0  0.45393871623E+02 -0.21989317915E+02  0.13875717295E+03  0.14764039667E+03  0.00000000000E+00 0.  1.
         22    1    3    3    0    0  0.30401224489E+02  0.48417345161E+02  0.22999768131E+01  0.57216812706E+02  0.00000000000E+00 0.  1.
</event>
<event>
 7    1  0.6888820E-006  0.6570017E+02  0.7818608E-02  0.1476528E+00
          2   -1    0    0  502    0  0.00000000000E+00  0.00000000000E+00  0.19741013250E+04  0.19741013250E+04  0.00000000000E+00 0. -1.
          1   -1    0    0  501    0 -0.00000000000E+00 -0.00000000000E+00 -0.20797810474E+03  0.20797810474E+03  0.00000000000E+00 0. -1.
         25    2    1    2    0    0 -0.23259096293E+02  0.93020546093E+02  0.11291486519E+04  0.11400857732E+04  0.12500033893E+03 0.  0.
          2    1    1    2  501    0  0.14995679569E+02 -0.63820806571E+02 -0.19692042723E+03  0.20754667045E+03  0.00000000000E+00 0. -1.
          1    1    1    2  502    0  0.82634167243E+01 -0.29199739522E+02  0.83389499559E+03  0.83444698604E+03  0.00000000000E+00 0. -1.
         22    1    3    3    0    0 -0.67462126672E+02  0.90500043311E+02  0.84579093762E+03  0.85328993111E+03  0.00000000000E+00 0.  1.
         22    1    3    3    0    0  0.44203030379E+02  0.25205027820E+01  0.28335771426E+03  0.28679584212E+03  0.00000000000E+00 0.  1.
</event>
<event>
 7    1  0.6888820E-006  0.6217727E+02  0.7818608E-02  0.1440735E+00
          2   -1    0    0  502    0  0.00000000000E+00  0.00000000000E+00  0.93826277970E+03  0.93826277970E+03  0.00000000000E+00 0. -1.
          1   -1    0    0  501    0 -0.00000000000E+00 -0.00000000000E+00 -0.75260600040E+02  0.75260600040E+02  0.00000000000E+00 0. -1.
         25    2    1    2    0    0 -0.12403862814E+02  0.75548834499E+02  0.24742662257E+03  0.28758768693E+03  0.12500104765E+03 0.  0.
          2    1    1    2  501    0  0.37146733993E+02 -0.18747788670E+02 -0.45676454919E+02  0.61787522691E+02  0.00000000000E+00 0. -1.
          1    1    1    2  502    0 -0.24742871179E+02 -0.56801045829E+02  0.66125201202E+03  0.66414817012E+03  0.00000000000E+00 0. -1.
         22    1    3    3    0    0 -0.20117665204E+02 -0.15144810329E+02  0.13506092429E+01  0.25217253587E+02  0.00000000000E+00 0.  1.
         22    1    3    3    0    0  0.77138023903E+01  0.90693644828E+02  0.24607601332E+03  0.26237043334E+03  0.00000000000E+00 0.  1.
</event>
<event>
 7    1  0.6888820E-006  0.5511168E+03  0.7818608E-02  0.1166944E+00
          2   -1    0    0  502    0  0.00000000000E+00  0.00000000000E+00  0.23285803924E+04  0.23285803924E+04  0.00000000000E+00 0. -1.
          1   -1    0    0  501    0 -0.00000000000E+00 -0.00000000000E+00 -0.20175929620E+04  0.20175929620E+04  0.00000000000E+00 0. -1.
         25    2    1    2    0    0  0.43395696155E+03  0.37503481144E+03  0.47165182846E+03  0.75302747425E+03  0.12500070168E+03 0.  0.
          2    1    1    2  501    0  0.95202478176E+01 -0.58604849890E+02 -0.18331783882E+04  0.18341396257E+04  0.00000000000E+00 0. -1.
          1    1    1    2  502    0 -0.44347720937E+03 -0.31642996155E+03  0.16725139902E+04  0.17590062544E+04  0.00000000000E+00 0. -1.
         22    1    3    3    0    0  0.16094635082E+03  0.13768780912E+03  0.99463592535E+02  0.23399715140E+03  0.00000000000E+00 0.  1.
         22    1    3    3    0    0  0.27301061073E+03  0.23734700232E+03  0.37218823593E+03  0.51903032285E+03  0.00000000000E+00 0.  1.
</event>
<event>
 7    1  0.6888820E-006  0.1596372E+03  0.7818608E-02  0.1265106E+00
          2   -1    0    0  502    0  0.00000000000E+00  0.00000000000E+00  0.39153161057E+03  0.39153161057E+03  0.00000000000E+00 0. -1.
          1   -1    0    0  501    0 -0.00000000000E+00 -0.00000000000E+00 -0.23403146775E+03  0.23403146775E+03  0.00000000000E+00 0. -1.
         25    2    1    2    0    0  0.18044929139E+02 -0.18939231645E+03  0.24046313876E+03  0.33112507734E+03  0.12500490688E+03 0.  0.
          2    1    1    2  501    0  0.29559213105E+02  0.66208553977E+02 -0.13440100959E+03  0.15271198734E+03  0.00000000000E+00 0. -1.
          1    1    1    2  502    0 -0.47604142244E+02  0.12318376247E+03  0.51438013651E+02  0.14172601364E+03  0.00000000000E+00 0. -1.
         22    1    3    3    0    0  0.59350941045E+02 -0.17148679292E+03  0.20527017253E+03  0.27398193020E+03  0.00000000000E+00 0. -1.
         22    1    3    3    0    0 -0.41306011906E+02 -0.17905523531E+02  0.35192966230E+02  0.57143147135E+02  0.00000000000E+00 0. -1.
</event>
<event>
 7    1  0.6888820E-006  0.2581612E+03  0.7818608E-02  0.1161614E+00
          2   -1    0    0  502    0  0.00000000000E+00  0.00000000000E+00  0.15693650713E+04  0.15693650713E+04  0.00000000000E+00 0. -1.
          1   -1    0    0  501    0 -0.00000000000E+00 -0.00000000000E+00 -0.10947027514E+04  0.10947027514E+04  0.00000000000E+00 0. -1.
         25    2    1    2    0    0  0.20544567664E+03  0.76485164355E+02 -0.21500803852E+03  0.33152827605E+03  0.12499853909E+03 0.  0.
          2    1    1    2  501    0 -0.18864260412E+03 -0.21023079492E+03 -0.79400693145E+03  0.84275146183E+03  0.00000000000E+00 0. -1.
          1    1    1    2  502    0 -0.16803072520E+02  0.13374563056E+03  0.14836772899E+04  0.14897880847E+04  0.00000000000E+00 0. -1.
         22    1    3    3    0    0  0.10655960390E+03  0.98024836484E+02 -0.89177178439E+02  0.17004818995E+03  0.00000000000E+00 0. -1.
         22    1    3    3    0    0  0.98886072739E+02 -0.21539672129E+02 -0.12583086008E+03  0.16148008610E+03  0.00000000000E+00 0. -1.
</event>
<event>
 7    1  0.6888820E-006  0.5207889E+02  0.7818608E-02  0.1555787E+00
          2   -1    0    0  502    0  0.00000000000E+00  0.00000000000E+00  0.62344597330E+03  0.62344597330E+03  0.00000000000E+00 0. -1.
          1   -1    0    0  501    0 -0.00000000000E+00 -0.00000000000E+00 -0.56060975211E+02  0.56060975211E+02  0.00000000000E+00 0. -1.
         25    2    1    2    0    0 -0.19965684966E+02 -0.33496179782E+02  0.19878397088E+03  0.23803512808E+03  0.12500012994E+03 0.  0.
          2    1    1    2  501    0 -0.22446586535E+02  0.88206642053E+00 -0.31011947280E+02  0.38293186892E+02  0.00000000000E+00 0. -1.
          1    1    1    2  502    0  0.42412271501E+02  0.32614113361E+02  0.39961297448E+03  0.40317863353E+03  0.00000000000E+00 0. -1.
         22    1    3    3    0    0 -0.15161270479E+02  0.42964569589E+02  0.11900129471E+03  0.12742498384E+03  0.00000000000E+00 0.  1.
         22    1    3    3    0    0 -0.48044144865E+01 -0.76460749371E+02  0.79782676170E+02  0.11061014424E+03  0.00000000000E+00 0.  1.
</event>
<event>
 7    1  0.6888820E-006  0.1152874E+03  0.7818608E-02  0.1417073E+00
          2   -1    0    0  502    0  0.00000000000E+00  0.00000000000E+00  0.82644945755E+03  0.82644945755E+03  0.00000000000E+00 0. -1.
          1   -1    0    0  501    0 -0.00000000000E+00 -0.00000000000E+00 -0.37544355719E+02  0.37544355719E+02  0.00000000000E+00 0. -1.
         25    2    1    2    0    0 -0.68872418912E+02 -0.73544142021E+02  0.29745674746E+03  0.33800956988E+03  0.12497120391E+03 0.  0.
          2    1    1    2  501    0 -0.26853672202E+02 -0.46584595739E+00  0.85929697146E+01  0.28198862596E+02  0.00000000000E+00 0. -1.
          1    1    1    2  502    0  0.95726091113E+02  0.74009987979E+02  0.48285538465E+03  0.49778538079E+03  0.00000000000E+00 0. -1.
         22    1    3    3    0    0 -0.57039734419E+02 -0.79172269501E+02  0.30678202818E+03  0.32192699852E+03  0.00000000000E+00 0.  1.
         22    1    3    3    0    0 -0.11832684492E+02  0.56281274802E+01 -0.93252807168E+01  0.16082571364E+02  0.00000000000E+00 0.  1.
</event>
<event>
 7    1  0.6888820E-006  0.1350649E+03  0.7818608E-02  0.1283646E+00
          2   -1    0    0  502    0  0.00000000000E+00  0.00000000000E+00  0.14013575167E+03  0.14013575167E+03  0.00000000000E+00 0. -1.
          1   -1    0    0  501    0 -0.00000000000E+00 -0.00000000000E+00 -0.89478528622E+03  0.89478528622E+03  0.00000000000E+00 0. -1.
         25    2    1    2    0    0 -0.14602710547E+03 -0.13425477505E+03 -0.14298037943E+03  0.27461994395E+03  0.12499785823E+03 0.  0.
          2    1    1    2  501    0  0.84142049336E+02  0.97999940255E+02 -0.66083788629E+03  0.67334284336E+03  0.00000000000E+00 0. -1.
          1    1    1    2  502    0  0.61885056129E+02  0.36254834794E+02  0.49168731169E+02  0.86958250574E+02  0.00000000000E+00 0. -1.
         22    1    3    3    0    0 -0.14776318235E+03 -0.10305938868E+03 -0.66553747834E+02  0.19205363054E+03  0.00000000000E+00 0. -1.
         22    1    3    3    0    0  0.17360768874E+01 -0.31195386371E+02 -0.76426631594E+02  0.82566313413E+02  0.00000000000E+00 0. -1.
</event>
<event>
 7    1  0.6888820E-006  0.9933615E+02  0.7818608E-02  0.1438272E+00
          2   -1    0    0  502    0  0.00000000000E+00  0.00000000000E+00  0.51267362028E+03  0.51267362028E+03  0.00000000000E+00 0. -1.
          1   -1    0    0  501    0 -0.00000000000E+00 -0.00000000000E+00 -0.15131145634E+03  0.15131145634E+03  0.00000000000E+00 0. -1.
         25    2    1    2    0    0  0.63321431501E+02  0.39653772787E+02  0.34687355344E+03  0.37620296774E+03  0.12500154190E+03 0.  0.
          2    1    1    2  501    0 -0.81571540572E+02 -0.58907459407E+02 -0.11661411800E+03  0.15402226307E+03  0.00000000000E+00 0. -1.
          1    1    1    2  502    0  0.18250109072E+02  0.19253686620E+02  0.13110272850E+03  0.13375984581E+03  0.00000000000E+00 0. -1.
         22    1    3    3    0    0  0.65410055899E+01  0.76816160162E+02  0.16635730448E+03  0.18335282918E+03  0.00000000000E+00 0.  1.
         22    1    3    3    0    0  0.56780425911E+02 -0.37162387375E+02  0.18051624896E+03  0.19285013856E+03  0.00000000000E+00 0.  1.
</event>
<event>
 7    1  0.6888820E-006  0.2250358E+03  0.7818608E-02  0.1249961E+00
          2   -1    0    0  502    0  0.00000000000E+00  0.00000000000E+00  0.35629442292E+03  0.35629442292E+03  0.00000000000E+00 0. -1.
          1   -1    0    0  501    0 -0.00000000000E+00 -0.00000000000E+00 -0.61924765787E+03  0.61924765787E+03  0.00000000000E+00 0. -1.
         25    2    1    2    0    0 -0.13921675379E+03 -0.20657831484E+03 -0.27965984770E+03  0.39483840287E+03  0.12502731408E+03 0.  0.
          2    1    1    2  501    0  0.80794144313E+02  0.19416748298E+03 -0.23886068719E+03  0.31825011090E+03  0.00000000000E+00 0. -1.
          1    1    1    2  502    0  0.58422609475E+02  0.12410831867E+02  0.25556729994E+03  0.26245356702E+03  0.00000000000E+00 0. -1.
         22    1    3    3    0    0 -0.26083615296E+01  0.14909801118E+02 -0.32910046730E+02  0.36223982319E+02  0.00000000000E+00 0. -1.
         22    1    3    3    0    0 -0.13660839226E+03 -0.22148811596E+03 -0.24674980097E+03  0.35861442055E+03  0.00000000000E+00 0. -1.
</event>
<event>
 7    1  0.6888820E-006  0.1752053E+03  0.7818608E-02  0.1320684E+00
          2   -1    0    0  502    0  0.00000000000E+00  0.00000000000E+00  0.41291193240E+03  0.41291193240E+03  0.00000000000E+00 0. -1.
          1   -1    0    0  501    0 -0.00000000000E+00 -0.00000000000E+00 -0.77377102107E+03  0.77377102107E+03  0.00000000000E+00 0. -1.
         25    2    1    2    0    0 -0.14952033078E+03  0.18655812334E+02 -0.20165833254E+02  0.19681456589E+03  0.12499977546E+03 0.  0.
          2    1    1    2  501    0  0.17863608691E+03  0.78025923540E+01 -0.65200602940E+03  0.67607957694E+03  0.00000000000E+00 0. -1.
          1    1    1    2  502    0 -0.29115756126E+02 -0.26458404688E+02  0.31131277399E+03  0.31378881064E+03  0.00000000000E+00 0. -1.
         22    1    3    3    0    0 -0.79676147139E+02 -0.84866618170E+01  0.49761909932E+02  0.94321575113E+02  0.00000000000E+00 0. -1.
         22    1    3    3    0    0 -0.69844183641E+02  0.27142474151E+02 -0.69927743186E+02  0.10249299078E+03  0.00000000000E+00 0. -1.
</event>
<event>
 7    1  0.6888820E-006  0.3925500E+02  0.7818608E-02  0.1555756E+00
          2   -1    0    0  502    0  0.00000000000E+00  0.00000000000E+00  0.10311852890E+04  0.10311852890E+04  0.00000000000E+00 0. -1.
          1   -1    0    0  501    0 -0.00000000000E+00 -0.00000000000E+00 -0.70921049075E+03  0.70921049075E+03  0.00000000000E+00 0. -1.
         25    2    1    2    0    0  0.42689381423E+02 -0.86892929785E+01 -0.13739602299E+03  0.19079062845E+03  0.12500203867E+03 0.  0.
          2    1    1    2  501    0 -0.23600772848E+02  0.31583905021E+02 -0.54418263801E+03  0.54560909363E+03  0.00000000000E+00 0. -1.
          1    1    1    2  502    0 -0.19088608575E+02 -0.22894612043E+02  0.10035534592E+04  0.10039960577E+04  0.00000000000E+00 0. -1.
         22    1    3    3    0    0  0.80271423279E+02 -0.23229410555E+02 -0.12151941010E+03  0.14747906272E+03  0.00000000000E+00 0. -1.
         22    1    3    3    0    0 -0.37582041856E+02  0.14540117577E+02 -0.15876612889E+02  0.43311565730E+02  0.00000000000E+00 0. -1.
</event>
<event>
 7    1  0.6888820E-006  0.7536801E+02  0.7818608E-02  0.1429994E+00
          2   -1    0    0  502    0  0.00000000000E+00  0.00000000000E+00  0.21489182829E+04  0.21489182829E+04  0.00000000000E+00 0. -1.
          1   -1    0    0  501    0 -0.00000000000E+00 -0.00000000000E+00 -0.13482306365E+02  0.13482306365E+02  0.00000000000E+00 0. -1.
         25    2    1    2    0    0 -0.72265680306E+01  0.59561612565E+02  0.77755889303E+03  0.78982601469E+03  0.12500996913E+03 0.  0.
          2    1    1    2  501    0  0.33924591606E+02  0.15301839622E+02  0.50232193482E+02  0.62516377642E+02  0.00000000000E+00 0. -1.
          1    1    1    2  502    0 -0.26698023575E+02 -0.74863452188E+02  0.13076448901E+04  0.13100581970E+04  0.00000000000E+00 0. -1.
         22    1    3    3    0    0  0.36415435256E+02  0.40353382468E+02  0.13545129698E+03  0.14595044794E+03  0.00000000000E+00 0. -1.
         22    1    3    3    0    0 -0.43642003286E+02  0.19208230098E+02  0.64210759605E+03  0.64387556675E+03  0.00000000000E+00 0. -1.
</event>
<event>
 7    1  0.6888820E-006  0.1102374E+03  0.7818608E-02  0.1294835E+00
          2   -1    0    0  502    0  0.00000000000E+00  0.00000000000E+00  0.76954975446E+03  0.76954975446E+03  0.00000000000E+00 0. -1.
          1   -1    0    0  501    0 -0.00000000000E+00 -0.00000000000E+00 -0.24428164321E+03  0.24428164321E+03  0.00000000000E+00 0. -1.
         25    2    1    2    0    0  0.65705955919E+02  0.59920186943E+02 -0.28711666447E+02  0.15606763792E+03  0.12500018548E+03 0.  0.
          2    1    1    2  501    0 -0.12519911194E+03 -0.77551339936E+01 -0.12329183597E+03  0.17588586228E+03  0.00000000000E+00 0. -1.
          1    1    1    2  502    0  0.59493156019E+02 -0.52165052950E+02  0.67727161367E+03  0.68187789746E+03  0.00000000000E+00 0. -1.
         22    1    3    3    0    0  0.20762465483E+02 -0.22154903547E+01 -0.67125638918E+02  0.70298220252E+02  0.00000000000E+00 0. -1.
         22    1    3    3    0    0  0.44943490436E+02  0.62135677298E+02  0.38413972471E+02  0.85769417667E+02  0.00000000000E+00 0. -1.
</event>
<event>
 7    1  0.6888820E-006  0.5897387E+02  0.7818608E-02  0.1536887E+00
          2   -1    0    0  502    0  0.00000000000E+00  0.00000000000E+00  0.37111889703E+02  0.37111889703E+02  0.00000000000E+00 0. -1.
          1   -1    0    0  501    0 -0.00000000000E+00 -0.00000000000E+00 -0.16958442580E+04  0.16958442580E+04  0.00000000000E+00 0. -1.
         25    2    1    2    0    0  0.73518242744E+02  0.10681447786E+02 -0.10316289251E+04  0.10418263800E+04  0.12499976673E+03 0.  0.
          2    1    1    2  501    0 -0.52509806980E+02 -0.18486085478E+02 -0.65386103528E+03  0.65622653759E+03  0.00000000000E+00 0. -1.
          1    1    1    2  502    0 -0.21008435764E+02  0.78046376917E+01  0.26757592027E+02  0.34903230134E+02  0.00000000000E+00 0. -1.
         22    1    3    3    0    0  0.95841371534E+02 -0.11636856410E+02 -0.49845203835E+03  0.50771588458E+03  0.00000000000E+00 0.  1.
         22    1    3    3    0    0 -0.22323128790E+02  0.22318304196E+02 -0.53317688674E+03  0.53411049543E+03  0.00000000000E+00 0.  1.
</event>
<event>
 7    1  0.1709228E-005  0.1146595E+03  0.7818608E-02  0.1299938E+00
          2   -1    0    0  502    0  0.00000000000E+00  0.00000000000E+00  0.19140550853E+04  0.19140550853E+04  0.00000000000E+00 0. -1.
          1   -1    0    0  501    0 -0.00000000000E+00 -0.00000000000E+00 -0.14426607850E+04  0.14426607850E+04  0.00000000000E+00 0. -1.
         25    2    1    2    0    0  0.12387908062E+02  0.52510624517E+02 -0.34927808339E+03  0.37487787248E+03  0.12500965476E+03 0.  0.
          2    1    1    2  501    0  0.64744899121E+02  0.32763574525E+02 -0.10776230742E+04  0.10800633517E+04  0.00000000000E+00 0. -1.
          1    1    1    2  502    0 -0.77132807184E+02 -0.85274199042E+02  0.18982954579E+04  0.19017746461E+04  0.00000000000E+00 0. -1.
         22    1    3    3    0    0  0.54439628435E+02 -0.14914322211E+02 -0.13406990790E+03  0.14546769523E+03  0.00000000000E+00 0.  1.
         22    1    3    3    0    0 -0.42051720373E+02  0.67424946727E+02 -0.21520817548E+03  0.22941017724E+03  0.00000000000E+00 0.  1.
</event>
<event>
 7    1  0.6888820E-006  0.8829611E+02  0.7818608E-02  0.1440002E+00
          2   -1    0    0  502    0  0.00000000000E+00  0.00000000000E+00  0.10324079173E+04  0.10324079173E+04  0.00000000000E+00 0. -1.
          1   -1    0    0  501    0 -0.00000000000E+00 -0.00000000000E+00 -0.99981351671E+02  0.99981351671E+02  0.00000000000E+00 0. -1.
         25    2    1    2    0    0  0.11335123196E+03 -0.14088115693E+02  0.24190315691E+03  0.29527711725E+03  0.12499784740E+03 0.  0.
          2    1    1    2  501    0 -0.85812955846E+02  0.36167990890E+01 -0.47737234811E+02  0.98263870340E+02  0.00000000000E+00 0. -1.
          1    1    1    2  502    0 -0.27538276116E+02  0.10471316604E+02  0.73826064351E+03  0.73884828137E+03  0.00000000000E+00 0. -1.
         22    1    3    3    0    0  0.44053997959E+01  0.25130146154E+02 -0.16850781396E+01  0.25568951512E+02  0.00000000000E+00 0. -1.
         22    1    3    3    0    0  0.10894583217E+03 -0.39218261847E+02  0.24358823505E+03  0.26970816574E+03  0.00000000000E+00 0. -1.
</event>
<event>
 7    1  0.6888820E-006  0.4217799E+02  0.7818608E-02  0.1545730E+00
          2   -1    0    0  502    0  0.00000000000E+00  0.00000000000E+00  0.12579204505E+04  0.12579204505E+04  0.00000000000E+00 0. -1.
          1   -1    0    0  501    0 -0.00000000000E+00 -0.00000000000E+00 -0.85777764361E+03  0.85777764361E+03  0.00000000000E+00 0. -1.
         25    2    1    2    0    0 -0.46704481984E+02 -0.38390017068E+02 -0.25853338055E+02  0.14123772415E+03  0.12499839034E+03 0.  0.
          2    1    1    2  501    0  0.41005032932E+02  0.93580831177E+01 -0.77347835713E+03  0.77462103986E+03  0.00000000000E+00 0. -1.
          1    1    1    2  502    0  0.56994490522E+01  0.29031933950E+02  0.11994745020E+04  0.11998393301E+04  0.00000000000E+00 0. -1.
         22    1    3    3    0    0 -0.48464272456E+02  0.29607760439E+02  0.18853835523E+02  0.59840390180E+02  0.00000000000E+00 0.  1.
         22    1    3    3    0    0  0.17597904720E+01 -0.67997777507E+02 -0.44707173578E+02  0.81397333972E+02  0.00000000000E+00 0.  1.
</event>
<event>
 7    1  0.6888820E-006  0.6497269E+02  0.7818608E-02  0.1399095E+00
          2   -1    0    0  502    0  0.00000000000E+00  0.00000000000E+00  0.20837023551E+03  0.20837023551E+03  0.00000000000E+00 0. -1.
          1   -1    0    0  501    0 -0.00000000000E+00 -0.00000000000E+00 -0.26479876241E+03  0.26479876241E+03  0.00000000000E+00 0. -1.
         25    2    1    2    0    0 -0.25253431252E+02 -0.46443705460E+01  0.54162154213E+02  0.13862572852E+03  0.12499699073E+03 0.  0.
          2    1    1    2  501    0  0.33213360812E+02  0.58918837205E+02 -0.21020810215E+03  0.22082120126E+03  0.00000000000E+00 0. -1.
          1    1    1    2  502    0 -0.79599295600E+01 -0.54274466659E+02  0.99617421034E+02  0.11372206815E+03  0.00000000000E+00 0. -1.
         22    1    3    3    0    0  0.51939216826E+01  0.15984613481E+02  0.87431876346E+02  0.89032677663E+02  0.00000000000E+00 0.  1.
         22    1    3    3    0    0 -0.30447352934E+02 -0.20628984027E+02 -0.33269722133E+02  0.49593050859E+02  0.00000000000E+00 0.  1.
</event>
<event>
 7    1  0.6888820E-006  0.6106418E+02  0.7818608E-02  0.1407222E+00
          2   -1    0    0  502    0  0.00000000000E+00  0.00000000000E+00  0.43819797623E+03  0.43819797623E+03  0.00000000000E+00 0. -1.
          1   -1    0    0  501    0 -0.00000000000E+00 -0.00000000000E+00 -0.27900037283E+03  0.27900037283E+03  0.00000000000E+00 0. -1.
         25    2    1    2    0    0  0.87675193223E+02  0.48051043178E+02 -0.58424534952E+01  0.16017329154E+03  0.12500202719E+03 0.  0.
          2    1    1    2  501    0 -0.54695290455E+02  0.23320133296E+01 -0.18958130634E+03  0.19732735441E+03  0.00000000000E+00 0. -1.
          1    1    1    2  502    0 -0.32979902768E+02 -0.50383056508E+02  0.35462136323E+03  0.35969770312E+03  0.00000000000E+00 0. -1.
         22    1    3    3    0    0  0.39890655071E+02  0.20826762133E+02 -0.65221184777E+02  0.79239013918E+02  0.00000000000E+00 0. -1.
         22    1    3    3    0    0  0.47784538152E+02  0.27224281045E+02  0.59378731282E+02  0.80934277618E+02  0.00000000000E+00 0. -1.
</event>
<event>
 7    1  0.6888820E-006  0.9960130E+02  0.7818608E-02  0.1381075E+00
          2   -1    0    0  502    0  0.00000000000E+00  0.00000000000E+00  0.29163780712E+03  0.29163780712E+03  0.00000000000E+00 0. -1.
          1   -1    0    0  501    0 -0.00000000000E+00 -0.00000000000E+00 -0.12722857442E+04  0.12722857442E+04  0.00000000000E+00 0. -1.
         25    2    1    2    0    0 -0.11388864501E+03 -0.71871932013E+02 -0.30771815444E+03  0.35840169584E+03  0.12500045973E+03 0.  0.
          2    1    1    2  501    0  0.87616119111E+02  0.39930429564E+02 -0.93513294593E+03  0.94007693839E+03  0.00000000000E+00 0. -1.
          1    1    1    2  502    0  0.26272525895E+02  0.31941502449E+02  0.26220316326E+03  0.26544491711E+03  0.00000000000E+00 0. -1.
         22    1    3    3    0    0 -0.71655414734E+02  0.25698356424E+02 -0.10776607885E+03  0.13194101612E+03  0.00000000000E+00 0. -1.
         22    1    3    3    0    0 -0.42233230273E+02 -0.97570288438E+02 -0.19995207559E+03  0.22646067972E+03  0.00000000000E+00 0. -1.
</event>
<event>
 7    1  0.6888820E-006  0.5181431E+02  0.7818608E-02  0.1532995E+00
          2   -1    0    0  502    0  0.00000000000E+00  0.00000000000E+00  0.67382655375E+03  0.67382655375E+03  0.00000000000E+00 0. -1.
          1   -1    0    0  501    0 -0.00000000000E+00 -0.00000000000E+00 -0.38105887026E+04  0.38105887026E+04  0.00000000000E+00 0. -1.
         25    2    1    2    0    0  0.25305472102E+02  0.57967016938E+01  0.41701728878E+03  0.43612297096E+03  0.12500343190E+03 0.  0.
          2    1    1    2  501    0 -0.48970146043E+02 -0.16963590332E+02 -0.38001663686E+04  0.38005197365E+04  0.00000000000E+00 0. -1.
          1    1    1    2  502    0  0.23664673940E+02  0.11166888639E+02  0.24638693099E+03  0.24777254884E+03  0.00000000000E+00 0. -1.
         22    1    3    3    0    0 -0.88490079551E+01 -0.47511100757E+02  0.82049387325E+02  0.95224532539E+02  0.00000000000E+00 0.  1.
         22    1    3    3    0    0  0.34154480057E+02  0.53307802451E+02  0.33496790146E+03  0.34089843842E+03  0.00000000000E+00 0.  1.
</event>
<event>
 7    1  0.7391038E-006  0.1133424E+03  0.7818608E-02  0.1282077E+00
          2   -1    0    0  502    0  0.00000000000E+00  0.00000000000E+00  0.18777229431E+04  0.18777229431E+04  0.00000000000E+00 0. -1.
          1   -1    0    0  501    0 -0.00000000000E+00 -0.00000000000E+00 -0.11786324306E+04  0.11786324306E+04  0.00000000000E+00 0. -1.
         25    2    1    2    0    0 -0.81790994694E+02 -0.15653746828E+03 -0.44711040925E+03  0.49671973367E+03  0.12501611884E+03 0.  0.
          2    1    1    2  501    0  0.78145777003E+02  0.69866020682E+02 -0.70180730291E+03  0.70959249836E+03  0.00000000000E+00 0. -1.
          1    1    1    2  502    0  0.36452176909E+01  0.86671447601E+02  0.18480082247E+04  0.18500431417E+04  0.00000000000E+00 0. -1.
         22    1    3    3    0    0 -0.25443761176E+02 -0.12356039883E+03 -0.16809561428E+03  0.21016824851E+03  0.00000000000E+00 0. -1.
         22    1    3    3    0    0 -0.56347233518E+02 -0.32977069452E+02 -0.27901479497E+03  0.28655148516E+03  0.00000000000E+00 0. -1.
</event>
<event>
 7    1  0.6888820E-006  0.1366054E+03  0.7818608E-02  0.1360740E+00
          2   -1    0    0  502    0  0.00000000000E+00  0.00000000000E+00  0.16793921751E+03  0.16793921751E+03  0.00000000000E+00 0. -1.
          1   -1    0    0  501    0 -0.00000000000E+00 -0.00000000000E+00 -0.62191529299E+03  0.62191529299E+03  0.00000000000E+00 0. -1.
         25    2    1    2    0    0  0.88466350576E+02 -0.65497385225E+02 -0.10462571046E+03  0.19669240420E+03  0.12500063969E+03 0.  0.
          2    1    1    2  501    0 -0.10501908282E+03  0.97100202012E+02 -0.45747034034E+03  0.47930842813E+03  0.00000000000E+00 0. -1.
          1    1    1    2  502    0  0.16552732241E+02 -0.31602816786E+02  0.10811997531E+03  0.11385367818E+03  0.00000000000E+00 0. -1.
         22    1    3    3    0    0 -0.20473549802E+02 -0.33052352639E+02  0.44764919007E+01  0.39136469388E+02  0.00000000000E+00 0. -1.
         22    1    3    3    0    0  0.10893990038E+03 -0.32445032586E+02 -0.10910220236E+03  0.15755593481E+03  0.00000000000E+00 0. -1.
</event>
<event>
 7    1  0.6888820E-006  0.4476520E+02  0.7818608E-02  0.1497309E+00
          2   -1    0    0  502    0  0.00000000000E+00  0.00000000000E+00  0.91905308651E+03  0.91905308651E+03  0.00000000000E+00 0. -1.
          1   -1    0    0  501    0 -0.00000000000E+00 -0.00000000000E+00 -0.17854742231E+03  0.17854742231E+03  0.00000000000E+00 0. -1.
         25    2    1    2    0    0  0.86400465601E+01 -0.11316974276E+02  0.43701008572E+03  0.45474505385E+03  0.12495008872E+03 0.  0.
          2    1    1    2  501    0 -0.52133500976E+01 -0.38157206620E+02 -0.16617226832E+03  0.17057659334E+03  0.00000000000E+00 0. -1.
          1    1    1    2  502    0 -0.34266964625E+01  0.49474180896E+02  0.46966784681E+03  0.47227886164E+03  0.00000000000E+00 0. -1.
         22    1    3    3    0    0  0.29533703901E+02  0.37519314722E+02  0.34669351385E+03  0.34996618578E+03  0.00000000000E+00 0.  1.
         22    1    3    3    0    0 -0.20893657341E+02 -0.48836288998E+02  0.90316571870E+02  0.10477886807E+03  0.00000000000E+00 0.  1.
</event>
<event>
 7    1  0.6888820E-006  0.2886879E+02  0.7818608E-02  0.1633940E+00
          2   -1    0    0  502    0  0.00000000000E+00  0.00000000000E+00  0.60604100126E+02  0.60604100126E+02  0.00000000000E+00 0. -1.
          1   -1    0    0  501    0 -0.00000000000E+00 -0.00000000000E+00 -0.13967217013E+04  0.13967217013E+04  0.00000000000E+00 0. -1.
         25    2    1    2    0    0  0.18381605847E+02  0.14969838150E+02 -0.50459155391E+03  0.52038440848E+03  0.12500126728E+03 0.  0.
          2    1    1    2  501    0 -0.21066078346E+02  0.13896259262E+02 -0.88005269490E+03  0.88041446574E+03  0.00000000000E+00 0. -1.
          1    1    1    2  502    0  0.26844724989E+01 -0.28866097412E+02  0.48526647620E+02  0.56526927226E+02  0.00000000000E+00 0. -1.
         22    1    3    3    0    0 -0.39765296196E+02 -0.69060609959E+01 -0.36943611101E+03  0.37163424570E+03  0.00000000000E+00 0. -1.
         22    1    3    3    0    0  0.58146902043E+02  0.21875899146E+02 -0.13515544290E+03  0.14875016277E+03  0.00000000000E+00 0. -1.
</event>
<event>
 7    1  0.6888820E-006  0.7269354E+02  0.7818608E-02  0.1404162E+00
          2   -1    0    0  502    0  0.00000000000E+00  0.00000000000E+00  0.47363611366E+03  0.47363611366E+03  0.00000000000E+00 0. -1.
          1   -1    0    0  501    0 -0.00000000000E+00 -0.00000000000E+00 -0.86335514115E+02  0.86335514115E+02  0.00000000000E+00 0. -1.
         25    2    1    2    0    0  0.19723406807E+02 -0.73314812626E+02  0.24099503517E+03  0.28190033420E+03  0.12500046769E+03 0.  0.
          2    1    1    2  501    0 -0.57778645948E+02  0.45553104273E+02 -0.41483051826E+02  0.84464790448E+02  0.00000000000E+00 0. -1.
          1    1    1    2  502    0  0.38055239141E+02  0.27761708352E+02  0.18778861620E+03  0.19360650312E+03  0.00000000000E+00 0. -1.
         22    1    3    3    0    0 -0.22313953957E+02  0.24236385095E+02  0.10054726397E+03  0.10580674457E+03  0.00000000000E+00 0.  1.
         22    1    3    3    0    0  0.42037360764E+02 -0.97551197721E+02  0.14044777119E+03  0.17609358963E+03  0.00000000000E+00 0.  1.
</event>
<event>
 7    1  0.6888820E-006  0.1477641E+03  0.7818608E-02  0.1256520E+00
          2   -1    0    0  502    0  0.00000000000E+00  0.00000000000E+00  0.35928560214E+04  0.35928560214E+04  0.00000000000E+00 0. -1.
          1   -1    0    0  501    0 -0.00000000000E+00 -0.00000000000E+00 -0.57838338628E+03  0.57838338628E+03  0.00000000000E+00 0. -1.
         25    2    1    2    0    0  0.75105221555E+02  0.75857910941E+02  0.12964454410E+04  0.13068249499E+04  0.12500180505E+03 0.  0.
          2    1    1    2  501    0  0.83294999020E+00  0.85215666386E+02 -0.56654194315E+03  0.57291550594E+03  0.00000000000E+00 0. -1.
          1    1    1    2  502    0 -0.75938171546E+02 -0.16107357733E+03  0.22845691373E+04  0.22914989518E+04  0.00000000000E+00 0. -1.
         22    1    3    3    0    0  0.78435430052E+02  0.57045097303E+02  0.45773745537E+03  0.46789938861E+03  0.00000000000E+00 0.  1.
         22    1    3    3    0    0 -0.33302084966E+01  0.18812813638E+02  0.83870798559E+03  0.83892556127E+03  0.00000000000E+00 0.  1.
</event>
<event>
 7    1  0.6888820E-006  0.7181230E+02  0.7818608E-02  0.1448782E+00
          2   -1    0    0  502    0  0.00000000000E+00  0.00000000000E+00  0.34048803174E+02  0.34048803174E+02  0.00000000000E+00 0. -1.
          1   -1    0    0  501    0 -0.00000000000E+00 -0.00000000000E+00 -0.60516795144E+03  0.60516795144E+03  0.00000000000E+00 0. -1.
         25    2    1    2    0    0 -0.14774398921E+01 -0.46775572535E+02 -0.26127212132E+03  0.29339721599E+03  0.12501467096E+03 0.  0.
          2    1    1    2  501    0  0.32422763011E+01 -0.33782844259E+02 -0.22961517374E+03  0.23210971745E+03  0.00000000000E+00 0. -1.
          1    1    1    2  502    0 -0.17648364089E+01  0.80558416794E+02 -0.80231853206E+02  0.11370982118E+03  0.00000000000E+00 0. -1.
         22    1    3    3    0    0 -0.31659633624E+02  0.27599659396E+01 -0.69328446019E+01  0.32527129407E+02  0.00000000000E+00 0.  1.
         22    1    3    3    0    0  0.30182193732E+02 -0.49535538475E+02 -0.25433927672E+03  0.26087008658E+03  0.00000000000E+00 0.  1.
</event>
<event>
 7    1  0.6888820E-006  0.8000963E+02  0.7818608E-02  0.1432761E+00
          2   -1    0    0  502    0  0.00000000000E+00  0.00000000000E+00  0.25521767917E+04  0.25521767917E+04  0.00000000000E+00 0. -1.
          1   -1    0    0  501    0 -0.00000000000E+00 -0.00000000000E+00 -0.15262330804E+02  0.15262330804E+02  0.00000000000E+00 0. -1.
         25    2    1    2    0    0 -0.44533144049E+02 -0.18362471435E+02  0.17984530669E+04  0.18034351699E+04  0.12499838871E+03 0.  0.
          2    1    1    2  501    0  0.77076939720E+02  0.29293955774E+02  0.12600642363E+03  0.15058754689E+03  0.00000000000E+00 0. -1.
          1    1    1    2  502    0 -0.32543795671E+02 -0.10931484339E+02  0.61245497041E+03  0.61341640569E+03  0.00000000000E+00 0. -1.
         22    1    3    3    0    0  0.43925300591E+02 -0.10042230847E+02  0.62898851299E+03  0.63060037100E+03  0.00000000000E+00 0.  1.
         22    1    3    3    0    0 -0.88458444640E+02 -0.83202405883E+01  0.11694645539E+04  0.11728347989E+04  0.00000000000E+00 0.  1.
</event>
<event>
 7    1  0.6888820E-006  0.1599146E+03  0.7818608E-02  0.1296259E+00
          2   -1    0    0  502    0  0.00000000000E+00  0.00000000000E+00  0.14908424243E+04  0.14908424243E+04  0.00000000000E+00 0. -1.
          1   -1    0    0  501    0 -0.00000000000E+00 -0.00000000000E+00 -0.77130701614E+03  0.77130701614E+03  0.00000000000E+00 0. -1.
         25    2    1    2    0    0  0.18115477023E+03 -0.46520965190E+02  0.10291983966E+04  0.10534971455E+04  0.12500258043E+03 0.  0.
          2    1    1    2  501    0 -0.45122160814E+02  0.29350100456E+02 -0.74771154532E+03  0.74964657859E+03  0.00000000000E+00 0. -1.
          1    1    1    2  502    0 -0.13603260941E+03  0.17170864734E+02  0.43804855684E+03  0.45900571627E+03  0.00000000000E+00 0. -1.
         22    1    3    3    0    0  0.72480689629E+02  0.34806444363E+02  0.25143428680E+03  0.26397753601E+03  0.00000000000E+00 0.  1.
         22    1    3    3    0    0  0.10867408060E+03 -0.81327409553E+02  0.77776410980E+03  0.78951960953E+03  0.00000000000E+00 0.  1.
</event>
<event>
 7    1  0.6888820E-006  0.5377438E+02  0.7818608E-02  0.1490200E+00
          2   -1    0    0  502    0  0.00000000000E+00  0.00000000000E+00  0.83027260389E+03  0.83027260389E+03  0.00000000000E+00 0. -1.
          1   -1    0    0  501    0 -0.00000000000E+00 -0.00000000000E+00 -0.24963045596E+03  0.24963045596E+03  0.00000000000E+00 0. -1.
         25    2    1    2    0    0  0.24431042528E+02  0.25592795382E+01  0.97152986392E+02  0.16023786000E+03  0.12503616782E+03 0.  0.
          2    1    1    2  501    0  0.27944591812E+02 -0.18797607658E+02 -0.21570789224E+03  0.21832119696E+03  0.00000000000E+00 0. -1.
          1    1    1    2  502    0 -0.52375634339E+02  0.16238328120E+02  0.69919705378E+03  0.70134400289E+03  0.00000000000E+00 0. -1.
         22    1    3    3    0    0  0.71328258460E+02  0.19154934865E+02  0.38363028084E+02  0.83224719335E+02  0.00000000000E+00 0. -1.
         22    1    3    3    0    0 -0.46897215933E+02 -0.16595655327E+02  0.58789958308E+02  0.77013140670E+02  0.00000000000E+00 0. -1.
</event>
<event>
 7    1  0.6888820E-006  0.1200608E+03  0.7818608E-02  0.1274227E+00
          2   -1    0    0  502    0  0.00000000000E+00  0.00000000000E+00  0.12574854991E+04  0.12574854991E+04  0.00000000000E+00 0. -1.
          1   -1    0    0  501    0 -0.00000000000E+00 -0.00000000000E+00 -0.71190001436E+02  0.71190001436E+02  0.00000000000E+00 0. -1.
         25    2    1    2    0    0 -0.35679750660E+02  0.13471844368E+03  0.40249409032E+03  0.44390105317E+03  0.12499819435E+03 0.  0.
          2    1    1    2  501    0  0.97656216291E+02 -0.71872419752E+02  0.28794195877E+02  0.12462538673E+03  0.00000000000E+00 0. -1.
          1    1    1    2  502    0 -0.61976465631E+02 -0.62846023926E+02  0.75500721151E+03  0.76014906068E+03  0.00000000000E+00 0. -1.
         22    1    3    3    0    0 -0.44763206170E+02  0.12213943248E+03  0.18669661824E+03  0.22754650702E+03  0.00000000000E+00 0. -1.
         22    1    3    3    0    0  0.90834555099E+01  0.12579011199E+02  0.21579747207E+03  0.21635454615E+03  0.00000000000E+00 0. -1.
</event>
<event>
 7    1  0.6888820E-006  0.2690947E+02  0.7818608E-02  0.1676911E+00
          2   -1    0    0  502    0  0.00000000000E+00  0.00000000000E+00  0.35742815899E+02  0.35742815899E+02  0.00000000000E+00 0. -1.
          1   -1    0    0  501    0 -0.00000000000E+00 -0.00000000000E+00 -0.14499701318E+04  0.14499701318E+04  0.00000000000E+00 0. -1.
         25    2    1    2    0    0  0.17354672954E+02 -0.15250740387E+01 -0.32986422072E+03  0.35318255244E+03  0.12499600281E+03 0.  0.
          2    1    1    2  501    0 -0.22171201361E+01 -0.21159062632E+02 -0.11005907168E+04  0.11007963243E+04  0.00000000000E+00 0. -1.
          1    1    1    2  502    0 -0.15137552818E+02  0.22684136671E+02  0.16227621595E+02  0.31734071035E+02  0.00000000000E+00 0. -1.
         22    1    3    3    0    0  0.26525939927E+02  0.45168138012E+02 -0.62184920650E+02  0.81306522105E+02  0.00000000000E+00 0.  1.
         22    1    3    3    0    0 -0.91712669726E+01 -0.46693212050E+02 -0.26767930007E+03  0.27187603034E+03  0.00000000000E+00 0.  1.
</event>
<event>
 7    1  0.6888820E-006  0.1341474E+03  0.7818608E-02  0.1324236E+00
          2   -1    0    0  502    0  0.00000000000E+00  0.00000000000E+00  0.75737316909E+03  0.75737316909E+03  0.00000000000E+00 0. -1.
          1   -1    0    0  501    0 -0.00000000000E+00 -0.00000000000E+00 -0.25180798707E+04  0.25180798707E+04  0.00000000000E+00 0. -1.
         25    2    1    2    0    0  0.13378694636E+02  0.16017123661E+03 -0.16608638248E+04  0.16732985084E+04  0.12500175744E+03 0.  0.
          2    1    1    2  501    0 -0.40552487723E+02 -0.28878305931E+02 -0.84427673157E+03  0.84574325909E+03  0.00000000000E+00 0. -1.
          1    1    1    2  502    0  0.27173793087E+02 -0.13129293068E+03  0.74443385476E+03  0.75641127225E+03  0.00000000000E+00 0. -1.
         22    1    3    3    0    0 -0.31881842688E+02  0.14734209806E+03 -0.10703985105E+04  0.10809621256E+04  0.00000000000E+00 0.  1.
         22    1    3    3    0    0  0.45260537324E+02  0.12829138556E+02 -0.59046531426E+03  0.59233638279E+03  0.00000000000E+00 0.  1.
</event>
<event>
 7    1  0.6888820E-006  0.2022099E+03  0.7818608E-02  0.1219535E+00
          2   -1    0    0  502    0  0.00000000000E+00  0.00000000000E+00  0.27849308261E+03  0.27849308261E+03  0.00000000000E+00 0. -1.
          1   -1    0    0  501    0 -0.00000000000E+00 -0.00000000000E+00 -0.23839167235E+04  0.23839167235E+04  0.00000000000E+00 0. -1.
         25    2    1    2    0    0 -0.21554092593E+03  0.10746549237E+03 -0.75928438515E+02  0.28177394044E+03  0.12499881175E+03 0.  0.
          2    1    1    2  501    0  0.20038070111E+03 -0.17961307822E+02 -0.21884003647E+04  0.21976285378E+04  0.00000000000E+00 0. -1.
          1    1    1    2  502    0  0.15160224816E+02 -0.89504184547E+02  0.15890516228E+03  0.18300732791E+03  0.00000000000E+00 0. -1.
         22    1    3    3    0    0 -0.72803057605E+02  0.79843515717E+02  0.16775827497E+02  0.10934669902E+03  0.00000000000E+00 0.  1.
         22    1    3    3    0    0 -0.14273786832E+03  0.27621976652E+02 -0.92704266012E+02  0.17242724142E+03  0.00000000000E+00 0.  1.
</event>
<event>
 7    1  0.6888820E-006  0.8029704E+02  0.7818608E-02  0.1436872E+00
          2   -1    0    0  502    0  0.00000000000E+00  0.00000000000E+00  0.39693866573E+03  0.39693866573E+03  0.00000000000E+00 0. -1.
          1   -1    0    0  501    0 -0.00000000000E+00 -0.00000000000E+00 -0.70325149826E+03  0.70325149826E+03  0.00000000000E+00 0. -1.
         25    2    1    2    0    0  0.25765162511E+02  0.10906304280E+03 -0.18604748044E+03  0.25059280675E+03  0.12499799563E+03 0.  0.
          2    1    1    2  501    0 -0.16765531606E+01 -0.33122990571E+02 -0.48000096571E+03  0.48114537348E+03  0.00000000000E+00 0. -1.
          1    1    1    2  502    0 -0.24088609350E+02 -0.75940052224E+02  0.35973561363E+03  0.36845198377E+03  0.00000000000E+00 0. -1.
         22    1    3    3    0    0  0.13611304380E+01 -0.19709084311E+02  0.35816916446E+01  0.20078077485E+02  0.00000000000E+00 0. -1.
         22    1    3    3    0    0  0.24404032073E+02  0.12877212711E+03 -0.18962917208E+03  0.23051472926E+03  0.00000000000E+00 0. -1.
</event>
<event>
 7    1  0.6888820E-006  0.2758630E+02  0.7818608E-02  0.1674999E+00
          2   -1    0    0  502    0  0.00000000000E+00  0.00000000000E+00  0.22013341400E+04  0.22013341400E+04  0.00000000000E+00 0. -1.
          1   -1    0    0  501    0 -0.00000000000E+00 -0.00000000000E+00 -0.26888200287E+03  0.26888200287E+03  0.00000000000E+00 0. -1.
         25    2    1    2    0    0 -0.34150600181E+02 -0.30628982834E+02  0.23580531736E+03  0.27080287415E+03  0.12500260346E+03 0.  0.
          2    1    1    2  501    0  0.19677361369E+02  0.72515419735E+01 -0.25084865181E+03  0.25172371665E+03  0.00000000000E+00 0. -1.
          1    1    1    2  502    0  0.14473238811E+02  0.23377440860E+02  0.19474954716E+04  0.19476895521E+04  0.00000000000E+00 0. -1.
         22    1    3    3    0    0 -0.70566536033E+02 -0.47165245329E+02  0.11091591011E+03  0.13966579929E+03  0.00000000000E+00 0.  1.
         22    1    3    3    0    0  0.36415935852E+02  0.16536262495E+02  0.12488940725E+03  0.13113707487E+03  0.00000000000E+00 0.  1.
</event>
<event>
 7    1  0.6888820E-006  0.8418174E+02  0.7818608E-02  0.1450664E+00
          2   -1    0    0  502    0  0.00000000000E+00  0.00000000000E+00  0.84857771751E+03  0.84857771751E+03  0.00000000000E+00 0. -1.
          1   -1    0    0  501    0 -0.00000000000E+00 -0.00000000000E+00 -0.47722384055E+03  0.47722384055E+03  0.00000000000E+00 0. -1.
         25    2    1    2    0    0 -0.12962790678E+02  0.83004806794E+02  0.10333025801E+03  0.18265033952E+03  0.12500468957E+03 0.  0.
          2    1    1    2  501    0  0.28552499041E+02  0.26853300935E-01 -0.43456477447E+03  0.43550176709E+03  0.00000000000E+00 0. -1.
          1    1    1    2  502    0 -0.15589708363E+02 -0.83031660095E+02  0.70258839341E+03  0.70764945145E+03  0.00000000000E+00 0. -1.
         22    1    3    3    0    0  0.35781844269E+02 -0.16797211996E+02  0.26027495431E+02  0.47327763824E+02  0.00000000000E+00 0. -1.
         22    1    3    3    0    0 -0.48744634947E+02  0.99802018790E+02  0.77302762583E+02  0.13532257570E+03  0.00000000000E+00 0. -1.
</event>
<event>
 7    1  0.6888820E-006  0.7495957E+02  0.7818608E-02  0.1389343E+00
          2   -1    0    0  502    0  0.00000000000E+00  0.00000000000E+00  0.80710623236E+03  0.80710623236E+03  0.00000000000E+00 0. -1.
          1   -1    0    0  501    0 -0.00000000000E+00 -0.00000000000E+00 -0.53510324531E+03  0.53510324531E+03  0.00000000000E+00 0. -1.
         25    2    1    2    0    0  0.10424149302E+03  0.10140797803E+02 -0.14853412934E+03  0.22058214113E+03  0.12499987504E+03 0.  0.
          2    1    1    2  501    0 -0.34781431275E+02 -0.37841178006E+02 -0.34683379103E+03  0.35062142165E+03  0.00000000000E+00 0. -1.
          1    1    1    2  502    0 -0.69460061750E+02  0.27700380203E+02  0.76737090742E+03  0.77100591489E+03  0.00000000000E+00 0. -1.
         22    1    3    3    0    0  0.13165213265E+03  0.17906442457E+02 -0.10901160569E+03  0.17186173189E+03  0.00000000000E+00 0. -1.
         22    1    3    3    0    0 -0.27410639624E+02 -0.77656446543E+01 -0.39522523645E+02  0.48720409243E+02  0.00000000000E+00 0. -1.
</event>
<event>
 7    1  0.6888820E-006  0.7690387E+02  0.7818608E-02  0.1407760E+00
          2   -1    0    0  502    0  0.00000000000E+00  0.00000000000E+00  0.48785422737E+03  0.48785422737E+03  0.00000000000E+00 0. -1.
          1   -1    0    0  501    0 -0.00000000000E+00 -0.00000000000E+00 -0.18135518829E+03  0.18135518829E+03  0.00000000000E+00 0. -1.
         25    2    1    2    0    0  0.64720656548E+02  0.10033856330E+01  0.27205856539E+03  0.30632089486E+03  0.12500742960E+03 0.  0.
          2    1    1    2  501    0 -0.65119334530E+02  0.42281449015E+02 -0.15243285607E+03  0.17106730918E+03  0.00000000000E+00 0. -1.
          1    1    1    2  502    0  0.39867798213E+00 -0.43284834648E+02  0.18687332975E+03  0.19182121162E+03  0.00000000000E+00 0. -1.
         22    1    3    3    0    0  0.14291653592E+02  0.21702715609E+01  0.25139470856E+03  0.25180996989E+03  0.00000000000E+00 0. -1.
         22    1    3    3    0    0  0.50429002956E+02 -0.11668859278E+01  0.20663856832E+02  0.54510924970E+02  0.00000000000E+00 0. -1.
</event>
<event>
 7    1  0.6888820E-006  0.4693540E+02  0.7818608E-02  0.1477797E+00
          2   -1    0    0  502    0  0.00000000000E+00  0.00000000000E+00  0.37063971785E+04  0.37063971785E+04  0.00000000000E+00 0. -1.
          1   -1    0    0  501    0 -0.00000000000E+00 -0.00000000000E+00 -0.43903075108E+02  0.43903075108E+02  0.00000000000E+00 0. -1.
         25    2    1    2    0    0  0.64150574574E+02 -0.51126592428E+02  0.66972804487E+03  0.68621493442E+03  0.12500422979E+03 0.  0.
          2    1    1    2  501    0 -0.20065799020E+02  0.37008584650E+02 -0.22994893946E+02  0.47969123149E+02  0.00000000000E+00 0. -1.
          1    1    1    2  502    0 -0.44084775553E+02  0.14118007778E+02  0.30157609525E+04  0.30161161961E+04  0.00000000000E+00 0. -1.
         22    1    3    3    0    0  0.91943286047E+02 -0.10465578860E+01  0.43323313665E+03  0.44288329594E+03  0.00000000000E+00 0. -1.
         22    1    3    3    0    0 -0.27792711473E+02 -0.50080034542E+02  0.23649490822E+03  0.24333163848E+03  0.00000000000E+00 0. -1.
</event>
<event>
 7    1  0.1111123E-005  0.5210813E+02  0.7818608E-02  0.1559121E+00
          2   -1    0    0  502    0  0.00000000000E+00  0.00000000000E+00  0.12244446560E+04  0.12244446560E+04  0.00000000000E+00 0. -1.
          1   -1    0    0  501    0 -0.00000000000E+00 -0.00000000000E+00 -0.92936084438E+03  0.92936084438E+03  0.00000000000E+00 0. -1.
         25    2    1    2    0    0  0.43638241581E+02  0.20577767960E+02 -0.13225513732E+03  0.18828753573E+03  0.12503213227E+03 0.  0.
          2    1    1    2  501    0 -0.10233333423E+02  0.19452834813E+02 -0.76836425901E+03  0.76867858590E+03  0.00000000000E+00 0. -1.
          1    1    1    2  502    0 -0.33404908159E+02 -0.40030602773E+02  0.11957032080E+04  0.11968393788E+04  0.00000000000E+00 0. -1.
         22    1    3    3    0    0 -0.20479065365E+02  0.17977208360E+02  0.12474653603E+02  0.29969803488E+02  0.00000000000E+00 0. -1.
         22    1    3    3    0    0  0.64117306946E+02  0.26005596005E+01 -0.14472979092E+03  0.15831773224E+03  0.00000000000E+00 0. -1.
</event>
<event>
 7    1  0.6888820E-006  0.1092283E+03  0.7818608E-02  0.1265998E+00
          2   -1    0    0  502    0  0.00000000000E+00  0.00000000000E+00  0.80212999417E+03  0.80212999417E+03  0.00000000000E+00 0. -1.
          1   -1    0    0  501    0 -0.00000000000E+00 -0.00000000000E+00 -0.10059809055E+04  0.10059809055E+04  0.00000000000E+00 0. -1.
         25    2    1    2    0    0 -0.46540163432E+02 -0.20142762918E+03 -0.63053195377E+02  0.24968084375E+03  0.12500296667E+03 0.  0.
          2    1    1    2  501    0  0.45487393992E+00  0.10505101795E+03 -0.84230727835E+03  0.84883300739E+03  0.00000000000E+00 0. -1.
          1    1    1    2  502    0  0.46085289493E+02  0.96376611232E+02  0.70150956241E+03  0.70959704851E+03  0.00000000000E+00 0. -1.
         22    1    3    3    0    0 -0.48733217289E+02 -0.95514083756E+02  0.27073828054E+02  0.11059321330E+03  0.00000000000E+00 0.  1.
         22    1    3    3    0    0  0.21930538562E+01 -0.10591354542E+03 -0.90127023431E+02  0.13908763044E+03  0.00000000000E+00 0.  1.
</event>
<event>
 7    1  0.6888820E-006  0.9038113E+02  0.7818608E-02  0.1321149E+00
          2   -1    0    0  502    0  0.00000000000E+00  0.00000000000E+00  0.56578554540E+03  0.56578554540E+03  0.00000000000E+00 0. -1.
          1   -1    0    0  501    0 -0.00000000000E+00 -0.00000000000E+00 -0.24488606490E+04  0.24488606490E+04  0.00000000000E+00 0. -1.
         25    2    1    2    0    0  0.47261408169E+02 -0.84127361951E+01 -0.15262465755E+04  0.15321092506E+04  0.12500292682E+03 0.  0.
          2    1    1    2  501    0 -0.87834367675E+02  0.89175245972E+02 -0.91175086129E+03  0.92030252293E+03  0.00000000000E+00 0. -1.
          1    1    1    2  502    0  0.40572959506E+02 -0.80762509777E+02  0.55492233324E+03  0.56223442082E+03  0.00000000000E+00 0. -1.
         22    1    3    3    0    0 -0.55072387978E+01  0.37468178208E+02 -0.17482249531E+03  0.17887732926E+03  0.00000000000E+00 0.  1.
         22    1    3    3    0    0  0.52768646966E+02 -0.45880914403E+02 -0.13514240802E+04  0.13532319214E+04  0.00000000000E+00 0.  1.
</event>
<event>
 7    1  0.6888820E-006  0.4481013E+02  0.7818608E-02  0.1537014E+00
          2   -1    0    0  502    0  0.00000000000E+00  0.00000000000E+00  0.36124128689E+03  0.36124128689E+03  0.00000000000E+00 0. -1.
          1   -1    0    0  501    0 -0.00000000000E+00 -0.00000000000E+00 -0.27399244976E+03  0.27399244976E+03  0.00000000000E+00 0. -1.
         25    2    1    2    0    0 -0.10702033124E+02 -0.29143497760E+02  0.14570455183E+03  0.19447078598E+03  0.12500077281E+03 0.  0.
          2    1    1    2  501    0  0.39304812301E+02  0.22043884240E+02 -0.24641778297E+03  0.25050454061E+03  0.00000000000E+00 0. -1.
          1    1    1    2  502    0 -0.28602779177E+02  0.70996135194E+01  0.18796206827E+03  0.19025841006E+03  0.00000000000E+00 0. -1.
         22    1    3    3    0    0  0.31678084750E+02  0.16293635709E+02 -0.48379479110E+00  0.35626081394E+02  0.00000000000E+00 0. -1.
         22    1    3    3    0    0 -0.42380117875E+02 -0.45437133468E+02  0.14618834662E+03  0.15884470459E+03  0.00000000000E+00 0. -1.
</event>
<event>
 7    1  0.6888820E-006  0.8182532E+02  0.7818608E-02  0.1438280E+00
          2   -1    0    0  502    0  0.00000000000E+00  0.00000000000E+00  0.13035176984E+04  0.13035176984E+04  0.00000000000E+00 0. -1.
          1   -1    0    0  501    0 -0.00000000000E+00 -0.00000000000E+00 -0.20416828959E+04  0.20416828959E+04  0.00000000000E+00 0. -1.
         25    2    1    2    0    0  0.85502412599E+02 -0.11408487295E+02 -0.13937476563E+03  0.20612854450E+03  0.12499134138E+03 0.  0.
          2    1    1    2  501    0 -0.79337546407E+02 -0.20200069632E+02 -0.18678302993E+04  0.18696236295E+04  0.00000000000E+00 0. -1.
          1    1    1    2  502    0 -0.61648661913E+01  0.31608556926E+02  0.12690398674E+04  0.12694484202E+04  0.00000000000E+00 0. -1.
         22    1    3    3    0    0  0.73456801347E+02  0.99585019060E+01 -0.15853097203E+03  0.17500612137E+03  0.00000000000E+00 0. -1.
         22    1    3    3    0    0  0.12045611251E+02 -0.21366989201E+02  0.19156206397E+02  0.31122423129E+02  0.00000000000E+00 0. -1.
</event>
<event>
 7    1  0.6888820E-006  0.9915081E+02  0.7818608E-02  0.1320469E+00
          2   -1    0    0  502    0  0.00000000000E+00  0.00000000000E+00  0.12536065582E+04  0.12536065582E+04  0.00000000000E+00 0. -1.
          1   -1    0    0  501    0 -0.00000000000E+00 -0.00000000000E+00 -0.10319012132E+04  0.10319012132E+04  0.00000000000E+00 0. -1.
         25    2    1    2    0    0 -0.32007029953E+02  0.10035325992E+01  0.89969552470E+02  0.15730592428E+03  0.12500070559E+03 0.  0.
          2    1    1    2  501    0  0.97360082892E+02 -0.25096791204E+02 -0.99462282923E+03  0.99969165601E+03  0.00000000000E+00 0. -1.
          1    1    1    2  502    0 -0.65353052939E+02  0.24093258605E+02  0.11263586217E+04  0.11285101911E+04  0.00000000000E+00 0. -1.
         22    1    3    3    0    0 -0.75805006835E+02  0.16189780576E+02  0.34030565455E+02  0.84655699404E+02  0.00000000000E+00 0.  1.
         22    1    3    3    0    0  0.43797976882E+02 -0.15186247977E+02  0.55938987016E+02  0.72650224879E+02  0.00000000000E+00 0.  1.
</event>
<event>
 7    1  0.6888820E-006  0.9433210E+02  0.7818608E-02  0.1325635E+00
          2   -1    0    0  502    0  0.00000000000E+00  0.00000000000E+00  0.14324746267E+04  0.14324746267E+04  0.00000000000E+00 0. -1.
          1   -1    0    0  501    0 -0.00000000000E+00 -0.00000000000E+00 -0.22011570510E+02  0.22011570510E+02  0.00000000000E+00 0. -1.
         25    2    1    2    0    0 -0.12000289566E+02  0.44800799215E+02  0.47501573169E+03  0.49337247965E+03  0.12500135906E+03 0.  0.
          2    1    1    2  501    0 -0.12570652019E+02  0.68784632008E+02  0.13267542959E+03  0.14997371940E+03  0.00000000000E+00 0. -1.
          1    1    1    2  502    0  0.24570941584E+02 -0.11358543122E+03  0.80277189494E+03  0.81113999819E+03  0.00000000000E+00 0. -1.
         22    1    3    3    0    0  0.30171764833E+02 -0.26863157643E+02  0.79096783745E+02  0.88815909783E+02  0.00000000000E+00 0. -1.
         22    1    3    3    0    0 -0.42172054399E+02  0.71663956858E+02  0.39591894794E+03  0.40455656987E+03  0.00000000000E+00 0. -1.
</event>
<event>
 7    1  0.6888820E-006  0.5608212E+02  0.7818608E-02  0.1436545E+00
          2   -1    0    0  502    0  0.00000000000E+00  0.00000000000E+00  0.13394785477E+04  0.13394785477E+04  0.00000000000E+00 0. -1.
          1   -1    0    0  501    0 -0.00000000000E+00 -0.00000000000E+00 -0.12943659495E+03  0.12943659495E+03  0.00000000000E+00 0. -1.
         25    2    1    2    0    0  0.10400639614E+02 -0.99232013715E+02  0.28763627000E+03  0.32911195008E+03  0.12499954406E+03 0.  0.
          2    1    1    2  501    0  0.61991272183E+01  0.47196807089E+02 -0.10272508171E+03  0.11321841807E+03  0.00000000000E+00 0. -1.
          1    1    1    2  502    0 -0.16599766832E+02  0.52035206626E+02  0.10251307644E+04  0.10265847745E+04  0.00000000000E+00 0. -1.
         22    1    3    3    0    0 -0.38781020609E+02 -0.63911026800E+02  0.24201604066E+03  0.25329893574E+03  0.00000000000E+00 0. -1.
         22    1    3    3    0    0  0.49181660223E+02 -0.35320986914E+02  0.45620229334E+02  0.75813014341E+02  0.00000000000E+00 0. -1.
</event>
<event>
 7    1  0.6888820E-006  0.9394475E+02  0.7818608E-02  0.1308251E+00
          2   -1    0    0  502    0  0.00000000000E+00  0.00000000000E+00  0.14017878555E+04  0.14017878555E+04  0.00000000000E+00 0. -1.
          1   -1    0    0  501    0 -0.00000000000E+00 -0.00000000000E+00 -0.20865320354E+03  0.20865320354E+03  0.00000000000E+00 0. -1.
         25    2    1    2    0    0  0.26674145886E+02 -0.99759626765E+02  0.52458291816E+03  0.54907160469E+03  0.12501558250E+03 0.  0.
          2    1    1    2  501    0  0.60871747271E+02  0.55046930302E+02 -0.18488912844E+03  0.20228574831E+03  0.00000000000E+00 0. -1.
          1    1    1    2  502    0 -0.87545893157E+02  0.44712696463E+02  0.85344086228E+03  0.85908370607E+03  0.00000000000E+00 0. -1.
         22    1    3    3    0    0 -0.11815246870E+02 -0.10846994944E+03  0.26622183242E+03  0.28771408385E+03  0.00000000000E+00 0.  1.
         22    1    3    3    0    0  0.38489392756E+02  0.87103226781E+01  0.25836108574E+03  0.26135752084E+03  0.00000000000E+00 0.  1.
</event>
<event>
 7    1  0.6888820E-006  0.8625579E+02  0.7818608E-02  0.1337160E+00
          2   -1    0    0  502    0  0.00000000000E+00  0.00000000000E+00  0.95213308512E+03  0.95213308512E+03  0.00000000000E+00 0. -1.
          1   -1    0    0  501    0 -0.00000000000E+00 -0.00000000000E+00 -0.16038261847E+04  0.16038261847E+04  0.00000000000E+00 0. -1.
         25    2    1    2    0    0 -0.48796882649E+02  0.10471594950E+03 -0.10664225664E+04  0.10799204201E+04  0.12499783104E+03 0.  0.
          2    1    1    2  501    0  0.66088541877E+02 -0.20223537352E+02 -0.52642429687E+03  0.53094183030E+03  0.00000000000E+00 0. -1.
          1    1    1    2  502    0 -0.17291659228E+02 -0.84492412153E+02  0.94115376370E+03  0.94509701942E+03  0.00000000000E+00 0. -1.
         22    1    3    3    0    0 -0.76330901140E+02  0.22973937871E+02 -0.63292118214E+03  0.63792117937E+03  0.00000000000E+00 0. -1.
         22    1    3    3    0    0  0.27534018491E+02  0.81742011634E+02 -0.43350138428E+03  0.44199924073E+03  0.00000000000E+00 0. -1.
</event>
<event>
 7    1  0.6888820E-006  0.2533724E+03  0.7818608E-02  0.1216148E+00
          2   -1    0    0  502    0  0.00000000000E+00  0.00000000000E+00  0.11629062385E+04  0.11629062385E+04  0.00000000000E+00 0. -1.
          1   -1    0    0  501    0 -0.00000000000E+00 -0.00000000000E+00 -0.60226840397E+03  0.60226840397E+03  0.00000000000E+00 0. -1.
         25    2    1    2    0    0  0.61688599974E+02 -0.18994289411E+03  0.20979733529E+03  0.31547471744E+03  0.12500235623E+03 0.  0.
          2    1    1    2  501    0  0.26608185394E+02 -0.70208171119E+02 -0.52574142290E+03  0.53107553754E+03  0.00000000000E+00 0. -1.
          1    1    1    2  502    0 -0.88296785368E+02  0.26015106523E+03  0.87658192212E+03  0.91862438746E+03  0.00000000000E+00 0. -1.
         22    1    3    3    0    0 -0.38295161568E+02 -0.57199661958E+02  0.51558531674E+02  0.86003505255E+02  0.00000000000E+00 0.  1.
         22    1    3    3    0    0  0.99983761542E+02 -0.13274323215E+03  0.15823880361E+03  0.22947121219E+03  0.00000000000E+00 0.  1.
</event>
<event>
 7    1  0.6888820E-006  0.1438256E+03  0.7818608E-02  0.1330076E+00
          2   -1    0    0  502    0  0.00000000000E+00  0.00000000000E+00  0.27557858427E+04  0.27557858427E+04  0.00000000000E+00 0. -1.
          1   -1    0    0  501    0 -0.00000000000E+00 -0.00000000000E+00 -0.33419203173E+03  0.33419203173E+03  0.00000000000E+00 0. -1.
         25    2    1    2    0    0  0.95884946802E+02 -0.67185657465E+02  0.74291813535E+03  0.76240423503E+03  0.12500010468E+03 0.  0.
          2    1    1    2  501    0  0.91735775751E+01 -0.43133961001E+02 -0.32003838898E+03  0.32306232144E+03  0.00000000000E+00 0. -1.
          1    1    1    2  502    0 -0.10505852438E+03  0.11031961847E+03  0.19987140645E+04  0.20045113179E+04  0.00000000000E+00 0. -1.
         22    1    3    3    0    0  0.77679872937E+02 -0.10380698158E+03  0.59297604793E+03  0.60698488078E+03  0.00000000000E+00 0. -1.
         22    1    3    3    0    0  0.18205073864E+02  0.36621324113E+02  0.14994208743E+03  0.15541935425E+03  0.00000000000E+00 0. -1.
</event>
<event>
 7    1  0.6888820E-006  0.9280219E+02  0.7818608E-02  0.1358533E+00
          2   -1    0    0  502    0  0.00000000000E+00  0.00000000000E+00  0.18245162184E+04  0.18245162184E+04  0.00000000000E+00 0. -1.
          1   -1    0    0  501    0 -0.00000000000E+00 -0.00000000000E+00 -0.46085903563E+02  0.46085903563E+02  0.00000000000E+00 0. -1.
         25    2    1    2    0    0  0.99056482250E+01  0.64137442769E+02  0.16921309599E+03  0.22016107130E+03  0.12500436804E+03 0.  0.
          2    1    1    2  501    0 -0.60497715252E+01 -0.11749643894E+03  0.15186256062E+03  0.19210478967E+03  0.00000000000E+00 0. -1.
          1    1    1    2  502    0 -0.38558766999E+01  0.53358996169E+02  0.14573546583E+04  0.14583362610E+04  0.00000000000E+00 0. -1.
         22    1    3    3    0    0  0.42629883928E+01  0.74720925764E+02  0.18544540298E+03  0.19997846710E+03  0.00000000000E+00 0.  1.
         22    1    3    3    0    0  0.56426598322E+01 -0.10583482995E+02 -0.16232306986E+02  0.20182604202E+02  0.00000000000E+00 0.  1.
</event>
<event>
 7    1  0.6888820E-006  0.1182487E+03  0.7818608E-02  0.1313239E+00
          2   -1    0    0  502    0  0.00000000000E+00  0.00000000000E+00  0.62100226438E+03  0.62100226438E+03  0.00000000000E+00 0. -1.
          1   -1    0    0  501    0 -0.00000000000E+00 -0.00000000000E+00 -0.16883430438E+04  0.16883430438E+04  0.00000000000E+00 0. -1.
         25    2    1    2    0    0  0.20019120190E+02  0.63990492448E+02 -0.48788389560E+02  0.15000363577E+03  0.12500094196E+03 0.  0.
          2    1    1    2  501    0  0.52091029963E+02  0.34209954652E+02 -0.15818207741E+04  0.15830479329E+04  0.00000000000E+00 0. -1.
          1    1    1    2  502    0 -0.72110150153E+02 -0.98200447100E+02  0.56326838423E+03  0.57629373954E+03  0.00000000000E+00 0. -1.
         22    1    3    3    0    0 -0.19578916109E+02 -0.12897483892E+02 -0.58453053228E+02  0.62979667182E+02  0.00000000000E+00 0.  1.
         22    1    3    3    0    0  0.39598036298E+02  0.76887976340E+02  0.96646636682E+01  0.87023968584E+02  0.00000000000E+00 0.  1.
</event>
<event>
 7    1  0.6888820E-006  0.5794275E+02  0.7818608E-02  0.1464640E+00
          2   -1    0    0  502    0  0.00000000000E+00  0.00000000000E+00  0.85320877954E+03  0.85320877954E+03  0.00000000000E+00 0. -1.
          1   -1    0    0  501    0 -0.00000000000E+00 -0.00000000000E+00 -0.16601735761E+04  0.16601735761E+04  0.00000000000E+00 0. -1.
         25    2    1    2    0    0 -0.61402733190E+02 -0.21985947157E+02 -0.41706000847E+02  0.14703031639E+03  0.12499938366E+03 0.  0.
          2    1    1    2  501    0  0.33688467225E+02  0.47196168528E+02 -0.15648297892E+04  0.15659037839E+04  0.00000000000E+00 0. -1.
          1    1    1    2  502    0  0.27714265966E+02 -0.25210221372E+02  0.79957099352E+03  0.80044825534E+03  0.00000000000E+00 0. -1.
         22    1    3    3    0    0  0.16412183805E+02  0.34726162855E+02  0.71303657149E+01  0.39065435862E+02  0.00000000000E+00 0.  1.
         22    1    3    3    0    0 -0.77814916995E+02 -0.56712110012E+02 -0.48836366561E+02  0.10796488053E+03  0.00000000000E+00 0.  1.
</event>
<event>
 7    1  0.6888820E-006  0.1595792E+03  0.7818608E-02  0.1322857E+00
          2   -1    0    0  502    0  0.00000000000E+00  0.00000000000E+00  0.94368776496E+03  0.94368776496E+03  0.00000000000E+00 0. -1.
          1   -1    0    0  501    0 -0.00000000000E+00 -0.00000000000E+00 -0.74524848395E+02  0.74524848395E+02  0.00000000000E+00 0. -1.
         25    2    1    2    0    0 -0.18835330510E+03  0.10629258013E+01  0.21991213115E+03  0.31538053069E+03  0.12500174541E+03 0.  0.
          2    1    1    2  501    0  0.35804270559E+02  0.22647859977E+02  0.78163146165E+01  0.43080925315E+02  0.00000000000E+00 0. -1.
          1    1    1    2  502    0  0.15254903454E+03 -0.23710785778E+02  0.64143447080E+03  0.65975115735E+03  0.00000000000E+00 0. -1.
         22    1    3    3    0    0  0.94801931881E+01  0.18774059638E+02  0.29624029595E+01  0.21239472909E+02  0.00000000000E+00 0.  1.
         22    1    3    3    0    0 -0.19783349829E+03 -0.17711133837E+02  0.21694972819E+03  0.29414105778E+03  0.00000000000E+00 0.  1.
</event>
<event>
 7    1  0.6888820E-006  0.7053597E+02  0.7818608E-02  0.1435954E+00
          2   -1    0    0  502    0  0.00000000000E+00  0.00000000000E+00  0.10463488578E+04  0.10463488578E+04  0.00000000000E+00 0. -1.
          1   -1    0    0  501    0 -0.00000000000E+00 -0.00000000000E+00 -0.96631810772E+02  0.96631810772E+02  0.00000000000E+00 0. -1.
         25    2    1    2    0    0 -0.93828057700E+02 -0.94620111267E+01  0.17572911304E+03  0.23536114246E+03  0.12498364751E+03 0.  0.
          2    1    1    2  501    0  0.26488850421E+02  0.27268179137E+02 -0.59836110542E+02  0.70891275309E+02  0.00000000000E+00 0. -1.
          1    1    1    2  502    0  0.67339207279E+02 -0.17806168011E+02  0.83382404449E+03  0.83672825077E+03  0.00000000000E+00 0. -1.
         22    1    3    3    0    0 -0.10677223687E+03  0.19312751507E+02  0.80683147732E+02  0.13521487812E+03  0.00000000000E+00 0.  1.
         22    1    3    3    0    0  0.12944179175E+02 -0.28774762634E+02  0.95045965311E+02  0.10014626434E+03  0.00000000000E+00 0.  1.
</event>
<event>
 7    1  0.6888820E-006  0.4581251E+02  0.7818608E-02  0.1561185E+00
          2   -1    0    0  502    0  0.00000000000E+00  0.00000000000E+00  0.75046392636E+03  0.75046392636E+03  0.00000000000E+00 0. -1.
          1   -1    0    0  501    0 -0.00000000000E+00 -0.00000000000E+00 -0.34414453913E+03  0.34414453913E+03  0.00000000000E+00 0. -1.
         25    2    1    2    0    0  0.41779969871E+02  0.28791043664E+02 -0.53039589167E+02  0.14495682841E+03  0.12499917602E+03 0.  0.
          2    1    1    2  501    0 -0.45652983395E+02 -0.44208958928E+01 -0.24278230487E+03  0.24707688434E+03  0.00000000000E+00 0. -1.
          1    1    1    2  502    0  0.38730135239E+01 -0.24370147771E+02  0.70214128127E+03  0.70257475275E+03  0.00000000000E+00 0. -1.
         22    1    3    3    0    0 -0.22794926990E+02  0.58819665985E+02 -0.31784112369E+02  0.70637041290E+02  0.00000000000E+00 0.  1.
         22    1    3    3    0    0  0.64574896861E+02 -0.30028622322E+02 -0.21255476798E+02  0.74319787117E+02  0.00000000000E+00 0.  1.
</event>
<event>
 7    1  0.6888820E-006  0.7631944E+02  0.7818608E-02  0.1503353E+00
          2   -1    0    0  502    0  0.00000000000E+00  0.00000000000E+00  0.19639951759E+04  0.19639951759E+04  0.00000000000E+00 0. -1.
          1   -1    0    0  501    0 -0.00000000000E+00 -0.00000000000E+00 -0.78293931397E+02  0.78293931397E+02  0.00000000000E+00 0. -1.
         25    2    1    2    0    0  0.53973964222E+02 -0.26430469720E+02  0.60988339937E+03  0.62545406867E+03  0.12499309040E+03 0.  0.
          2    1    1    2  501    0 -0.74444945361E+02  0.19320602904E+02 -0.49419819093E+02  0.91420206221E+02  0.00000000000E+00 0. -1.
          1    1    1    2  502    0  0.20470981139E+02  0.71098668162E+01  0.13252376642E+04  0.13254148324E+04  0.00000000000E+00 0. -1.
         22    1    3    3    0    0  0.45651869978E+02  0.37847189793E+02  0.43354040602E+03  0.43757717794E+03  0.00000000000E+00 0.  1.
         22    1    3    3    0    0  0.83220942441E+01 -0.64277659513E+02  0.17634299335E+03  0.18787689073E+03  0.00000000000E+00 0.  1.
</event>
<event>
 7    1  0.6888820E-006  0.1050151E+03  0.7818608E-02  0.1324886E+00
          2   -1    0    0  502    0  0.00000000000E+00  0.00000000000E+00  0.30744805792E+03  0.30744805792E+03  0.00000000000E+00 0. -1.
          1   -1    0    0  501    0 -0.00000000000E+00 -0.00000000000E+00 -0.73118988851E+03  0.73118988851E+03  0.00000000000E+00 0. -1.
         25    2    1    2    0    0  0.10887936874E+03  0.11582108660E+03 -0.43101130467E+02  0.20677369974E+03  0.12501365694E+03 0.  0.
          2    1    1    2  501    0 -0.27632406834E+02 -0.56871196763E+02 -0.59332357277E+03  0.59668311937E+03  0.00000000000E+00 0. -1.
          1    1    1    2  502    0 -0.81246961909E+02 -0.58949889832E+02  0.21268287265E+03  0.23518112732E+03  0.00000000000E+00 0. -1.
         22    1    3    3    0    0  0.12884075052E+03  0.12203300102E+03 -0.50650653180E+02  0.18454669057E+03  0.00000000000E+00 0.  1.
         22    1    3    3    0    0 -0.19961381781E+02 -0.62119144278E+01  0.75495227135E+01  0.22227009170E+02  0.00000000000E+00 0.  1.
</event>
<event>
 7    1  0.6888820E-006  0.4109761E+02  0.7818608E-02  0.1578337E+00
          2   -1    0    0  502    0  0.00000000000E+00  0.00000000000E+00  0.17170499748E+04  0.17170499748E+04  0.00000000000E+00 0. -1.
          1   -1    0    0  501    0 -0.00000000000E+00 -0.00000000000E+00 -0.37542403576E+02  0.37542403576E+02  0.00000000000E+00 0. -1.
         25    2    1    2    0    0  0.17283174766E+02  0.23838633884E+01  0.32814381166E+03  0.35157275341E+03  0.12498259430E+03 0.  0.
          2    1    1    2  501    0  0.22559313384E+02  0.10076665053E+02 -0.19527678663E+02  0.31492729842E+02  0.00000000000E+00 0. -1.
          1    1    1    2  502    0 -0.39842488150E+02 -0.12460528441E+02  0.13708914382E+04  0.13715268951E+04  0.00000000000E+00 0. -1.
         22    1    3    3    0    0  0.31390127405E+02  0.11998169545E+02  0.13102103729E+02  0.36068841027E+02  0.00000000000E+00 0.  1.
         22    1    3    3    0    0 -0.14106952639E+02 -0.96143061565E+01  0.31504170793E+03  0.31550391239E+03  0.00000000000E+00 0.  1.
</event>
<event>
 7    1  0.6888820E-006  0.1154360E+03  0.7818608E-02  0.1318277E+00
          2   -1    0    0  502    0  0.00000000000E+00  0.00000000000E+00  0.38543191279E+03  0.38543191279E+03  0.00000000000E+00 0. -1.
          1   -1    0    0  501    0 -0.00000000000E+00 -0.00000000000E+00 -0.65825761256E+03  0.65825761256E+03  0.00000000000E+00 0. -1.
         25    2    1    2    0    0 -0.12402937011E+03  0.84686869610E+02  0.21189311934E+03  0.28823747303E+03  0.12500798495E+03 0.  0.
          2    1    1    2  501    0  0.63976810672E+02 -0.95457483198E+02 -0.60753994585E+03  0.61831217779E+03  0.00000000000E+00 0. -1.
          1    1    1    2  502    0  0.60052559438E+02  0.10770613589E+02  0.12282112674E+03  0.13713987453E+03  0.00000000000E+00 0. -1.
         22    1    3    3    0    0 -0.71783351620E+02  0.39760560292E+02  0.20275134489E+03  0.21872782077E+03  0.00000000000E+00 0. -1.
         22    1    3    3    0    0 -0.52246018490E+02  0.44926309318E+02  0.91417744464E+01  0.69509652258E+02  0.00000000000E+00 0. -1.
</event>
<event>
 7    1  0.6888820E-006  0.7907023E+02  0.7818608E-02  0.1482983E+00
          2   -1    0    0  502    0  0.00000000000E+00  0.00000000000E+00  0.26182912292E+04  0.26182912292E+04  0.00000000000E+00 0. -1.
          1   -1    0    0  501    0 -0.00000000000E+00 -0.00000000000E+00 -0.67529615509E+03  0.67529615509E+03  0.00000000000E+00 0. -1.
         25    2    1    2    0    0  0.88051726536E+02  0.53408189797E+02  0.91433834975E+03  0.92857864104E+03  0.12505252295E+03 0.  0.
          2    1    1    2  501    0 -0.68609828063E+02 -0.39181934127E+02 -0.66575442211E+03  0.67042634422E+03  0.00000000000E+00 0. -1.
          1    1    1    2  502    0 -0.19441898472E+02 -0.14226255670E+02  0.16944111465E+04  0.16945823991E+04  0.00000000000E+00 0. -1.
         22    1    3    3    0    0  0.25643608832E+02 -0.41181972762E+02  0.29352537135E+03  0.29750746744E+03  0.00000000000E+00 0.  1.
         22    1    3    3    0    0  0.62408117704E+02  0.94590162559E+02  0.62081297840E+03  0.63107117361E+03  0.00000000000E+00 0.  1.
</event>
<event>
 7    1  0.6888820E-006  0.1942555E+03  0.7818608E-02  0.1198945E+00
          2   -1    0    0  502    0  0.00000000000E+00  0.00000000000E+00  0.22928393815E+04  0.22928393815E+04  0.00000000000E+00 0. -1.
          1   -1    0    0  501    0 -0.00000000000E+00 -0.00000000000E+00 -0.67097013969E+03  0.67097013969E+03  0.00000000000E+00 0. -1.
         25    2    1    2    0    0 -0.14605085886E+03  0.13356586565E+02  0.81297185427E+03  0.83550015909E+03  0.12501211234E+03 0.  0.
          2    1    1    2  501    0  0.14515545398E+03 -0.13111902739E+03 -0.64276912151E+03  0.67187383393E+03  0.00000000000E+00 0. -1.
          1    1    1    2  502    0  0.89540488445E+00  0.11776244083E+03  0.14516665090E+04  0.14564355281E+04  0.00000000000E+00 0. -1.
         22    1    3    3    0    0  0.21491487749E+02 -0.84719035767E+01  0.12228946892E+03  0.12445228565E+03  0.00000000000E+00 0. -1.
         22    1    3    3    0    0 -0.16754234661E+03  0.21828490141E+02  0.69068238535E+03  0.71104787344E+03  0.00000000000E+00 0. -1.
</event>
<event>
 7    1  0.6888820E-006  0.7874851E+02  0.7818608E-02  0.1422934E+00
          2   -1    0    0  502    0  0.00000000000E+00  0.00000000000E+00  0.19613586421E+04  0.19613586421E+04  0.00000000000E+00 0. -1.
          1   -1    0    0  501    0 -0.00000000000E+00 -0.00000000000E+00 -0.17097501351E+03  0.17097501351E+03  0.00000000000E+00 0. -1.
         25    2    1    2    0    0 -0.44196714026E+02 -0.36772394627E+02  0.68701778452E+02  0.15378437663E+03  0.12499656633E+03 0.  0.
          2    1    1    2  501    0  0.11914129051E+02 -0.35648438714E+02 -0.12481459469E+03  0.13035122056E+03  0.00000000000E+00 0. -1.
          1    1    1    2  502    0  0.32282584976E+02  0.72420833341E+02  0.18464964448E+04  0.18481980584E+04  0.00000000000E+00 0. -1.
         22    1    3    3    0    0  0.44164144812E+02 -0.13539791485E+02  0.21607031024E+02  0.50996680579E+02  0.00000000000E+00 0.  1.
         22    1    3    3    0    0 -0.88360858838E+02 -0.23232603141E+02  0.47094747428E+02  0.10278769605E+03  0.00000000000E+00 0.  1.
</event>
<event>
 7    1  0.6888820E-006  0.1045177E+03  0.7818608E-02  0.1364886E+00
          2   -1    0    0  502    0  0.00000000000E+00  0.00000000000E+00  0.22379933659E+04  0.22379933659E+04  0.00000000000E+00 0. -1.
          1   -1    0    0  501    0 -0.00000000000E+00 -0.00000000000E+00 -0.76497303161E+03  0.76497303161E+03  0.00000000000E+00 0. -1.
         25    2    1    2    0    0 -0.22904217566E+02 -0.13946413224E+03  0.85937952154E+03  0.87984754758E+03  0.12499479024E+03 0.  0.
          2    1    1    2  501    0  0.17967285138E+02  0.41299174342E+02 -0.75229967627E+03  0.75364663341E+03  0.00000000000E+00 0. -1.
          1    1    1    2  502    0  0.49369324283E+01  0.98164957900E+02  0.13659404890E+04  0.13694722165E+04  0.00000000000E+00 0. -1.
         22    1    3    3    0    0 -0.57409736067E+01 -0.13595685775E+03  0.45074843624E+03  0.47084113958E+03  0.00000000000E+00 0. -1.
         22    1    3    3    0    0 -0.17163243960E+02 -0.35072744896E+01  0.40863108529E+03  0.40900640800E+03  0.00000000000E+00 0. -1.
</event>
<event>
 7    1  0.6888820E-006  0.4539688E+02  0.7818608E-02  0.1518519E+00
          2   -1    0    0  502    0  0.00000000000E+00  0.00000000000E+00  0.55025002127E+03  0.55025002127E+03  0.00000000000E+00 0. -1.
          1   -1    0    0  501    0 -0.00000000000E+00 -0.00000000000E+00 -0.26357752697E+03  0.26357752697E+03  0.00000000000E+00 0. -1.
         25    2    1    2    0    0  0.18832591981E+02 -0.36900263897E+02  0.18254114571E+03  0.22508278048E+03  0.12499876878E+03 0.  0.
          2    1    1    2  501    0 -0.31966369160E+02 -0.76838967966E+01 -0.23962029205E+03  0.24186520086E+03  0.00000000000E+00 0. -1.
          1    1    1    2  502    0  0.13133777179E+02  0.44584160694E+02  0.34375164064E+03  0.34687956689E+03  0.00000000000E+00 0. -1.
         22    1    3    3    0    0 -0.16481131156E+02 -0.52861355552E+02  0.17758104253E+03  0.18601337926E+03  0.00000000000E+00 0. -1.
         22    1    3    3    0    0  0.35313723137E+02  0.15961091655E+02  0.49601031774E+01  0.39069401226E+02  0.00000000000E+00 0. -1.
</event>
<event>
 7    1  0.6888820E-006  0.2437866E+03  0.7818608E-02  0.1182875E+00
          2   -1    0    0  502    0  0.00000000000E+00  0.00000000000E+00  0.35623080953E+03  0.35623080953E+03  0.00000000000E+00 0. -1.
          1   -1    0    0  501    0 -0.00000000000E+00 -0.00000000000E+00 -0.66510880919E+03  0.66510880919E+03  0.00000000000E+00 0. -1.
         25    2    1    2    0    0  0.15777106185E+03 -0.12585620322E+03 -0.45223734359E+03  0.51075888351E+03  0.12499812118E+03 0.  0.
          2    1    1    2  501    0 -0.50202399154E+02 -0.10016093384E+03 -0.10816403425E+03  0.15573038193E+03  0.00000000000E+00 0. -1.
          1    1    1    2  502    0 -0.10756866270E+03  0.22601713707E+03  0.25152337819E+03  0.35485035328E+03  0.00000000000E+00 0. -1.
         22    1    3    3    0    0  0.62295134035E+02 -0.10004852486E+03 -0.34641037622E+03  0.36591056258E+03  0.00000000000E+00 0.  1.
         22    1    3    3    0    0  0.95475927817E+02 -0.25807678361E+02 -0.10582696737E+03  0.14484832094E+03  0.00000000000E+00 0.  1.
</event>
<event>
 7    1  0.6888820E-006  0.1822949E+03  0.7818608E-02  0.1270005E+00
          2   -1    0    0  502    0  0.00000000000E+00  0.00000000000E+00  0.10464852381E+04  0.10464852381E+04  0.00000000000E+00 0. -1.
          1   -1    0    0  501    0 -0.00000000000E+00 -0.00000000000E+00 -0.11617798028E+03  0.11617798028E+03  0.00000000000E+00 0. -1.
         25    2    1    2    0    0  0.19936538950E+03  0.60716115686E+02  0.25404753946E+03  0.35156593273E+03  0.12500179005E+03 0.  0.
          2    1    1    2  501    0 -0.17416004829E+03 -0.56657682968E+01  0.49121948200E+02  0.18104361117E+03  0.00000000000E+00 0. -1.
          1    1    1    2  502    0 -0.25205341212E+02 -0.55050347389E+02  0.62713777020E+03  0.63005367453E+03  0.00000000000E+00 0. -1.
         22    1    3    3    0    0  0.14100088668E+03 -0.20880089866E+02  0.14280159084E+03  0.20176600939E+03  0.00000000000E+00 0.  1.
         22    1    3    3    0    0  0.58364502825E+02  0.81596205552E+02  0.11124594861E+03  0.14979992334E+03  0.00000000000E+00 0.  1.
</event>
<event>
 7    1  0.6888820E-006  0.6697908E+02  0.7818608E-02  0.1420348E+00
          2   -1    0    0  502    0  0.00000000000E+00  0.00000000000E+00  0.12655319779E+03  0.12655319779E+03  0.00000000000E+00 0. -1.
          1   -1    0    0  501    0 -0.00000000000E+00 -0.00000000000E+00 -0.18856409907E+04  0.18856409907E+04  0.00000000000E+00 0. -1.
         25    2    1    2    0    0 -0.26935083508E+02  0.47209296659E+02 -0.12181696500E+04  0.12257696871E+04  0.12497925162E+03 0.  0.
          2    1    1    2  501    0 -0.36812998439E+02 -0.26013985275E+02 -0.65364527327E+03  0.65519773164E+03  0.00000000000E+00 0. -1.
          1    1    1    2  502    0  0.63748081948E+02 -0.21195311384E+02  0.11272713034E+03  0.13122676972E+03  0.00000000000E+00 0. -1.
         22    1    3    3    0    0 -0.15920913210E+02  0.60578098643E+02 -0.25980846287E+03  0.26725197641E+03  0.00000000000E+00 0.  1.
         22    1    3    3    0    0 -0.11014170298E+02 -0.13368801984E+02 -0.95836118712E+03  0.95851771073E+03  0.00000000000E+00 0.  1.
</event>
<event>
 7    1  0.6888820E-006  0.7701579E+02  0.7818608E-02  0.1384581E+00
          2   -1    0    0  502    0  0.00000000000E+00  0.00000000000E+00  0.41606944515E+03  0.41606944515E+03  0.00000000000E+00 0. -1.
          1   -1    0    0  501    0 -0.00000000000E+00 -0.00000000000E+00 -0.17300031425E+03  0.17300031425E+03  0.00000000000E+00 0. -1.
         25    2    1    2    0    0  0.16126217715E+02  0.28612546047E+02 -0.55395488813E+02  0.14061457763E+03  0.12500026629E+03 0.  0.
          2    1    1    2  501    0 -0.12667935984E+02  0.50418529923E+02 -0.61139388048E+02  0.80252909807E+02  0.00000000000E+00 0. -1.
          1    1    1    2  502    0 -0.34582817309E+01 -0.79031075970E+02  0.35960400776E+03  0.36820227196E+03  0.00000000000E+00 0. -1.
         22    1    3    3    0    0  0.51522606470E+02 -0.27576058232E+02 -0.79000326819E+01  0.58969725126E+02  0.00000000000E+00 0. -1.
         22    1    3    3    0    0 -0.35396388755E+02  0.56188604280E+02 -0.47495456131E+02  0.81644852507E+02  0.00000000000E+00 0. -1.
</event>
<event>
 7    1  0.6888820E-006  0.6155574E+02  0.7818608E-02  0.1410777E+00
          2   -1    0    0  502    0  0.00000000000E+00  0.00000000000E+00  0.47888710774E+02  0.47888710774E+02  0.00000000000E+00 0. -1.
          1   -1    0    0  501    0 -0.00000000000E+00 -0.00000000000E+00 -0.98514028193E+03  0.98514028193E+03  0.00000000000E+00 0. -1.
         25    2    1    2    0    0 -0.37406119282E+02  0.32673302760E+02 -0.19274981473E+03  0.23503711082E+03  0.12499275944E+03 0.  0.
          2    1    1    2  501    0 -0.56043113519E+01 -0.63333665334E+02 -0.74241296363E+03  0.74513057247E+03  0.00000000000E+00 0. -1.
          1    1    1    2  502    0  0.43010430634E+02  0.30660362574E+02 -0.20887927936E+01  0.52861309403E+02  0.00000000000E+00 0. -1.
         22    1    3    3    0    0 -0.53049299631E+02  0.68759827248E+02 -0.90242196096E+02  0.12524294787E+03  0.00000000000E+00 0.  1.
         22    1    3    3    0    0  0.15643180350E+02 -0.36086524488E+02 -0.10250761863E+03  0.10979416295E+03  0.00000000000E+00 0.  1.
</event>
<event>
 7    1  0.6888820E-006  0.3716984E+02  0.7818608E-02  0.1561655E+00
          2   -1    0    0  502    0  0.00000000000E+00  0.00000000000E+00  0.80412470449E+03  0.80412470449E+03  0.00000000000E+00 0. -1.
          1   -1    0    0  501    0 -0.00000000000E+00 -0.00000000000E+00 -0.40825922084E+03  0.40825922084E+03  0.00000000000E+00 0. -1.
         25    2    1    2    0    0  0.59696207610E+01 -0.53360049634E+02 -0.22317198055E+02  0.13786137639E+03  0.12499908200E+03 0.  0.
          2    1    1    2  501    0  0.16590902614E+02  0.33098590366E+02 -0.32681626333E+03  0.32890674166E+03  0.00000000000E+00 0. -1.
          1    1    1    2  502    0 -0.22560523375E+02  0.20261459268E+02  0.74499894504E+03  0.74561580728E+03  0.00000000000E+00 0. -1.
         22    1    3    3    0    0  0.23375276356E+02 -0.90586052923E+01 -0.67640315585E+02  0.72136496775E+02  0.00000000000E+00 0.  1.
         22    1    3    3    0    0 -0.17405655595E+02 -0.44301444341E+02  0.45323117530E+02  0.65724879612E+02  0.00000000000E+00 0.  1.
</event>
<event>
 7    1  0.6888820E-006  0.3379105E+02  0.7818608E-02  0.1610449E+00
          2   -1    0    0  502    0  0.00000000000E+00  0.00000000000E+00  0.60852942373E+03  0.60852942373E+03  0.00000000000E+00 0. -1.
          1   -1    0    0  501    0 -0.00000000000E+00 -0.00000000000E+00 -0.10497913663E+04  0.10497913663E+04  0.00000000000E+00 0. -1.
         25    2    1    2    0    0 -0.21982253632E+01  0.57654213806E+02  0.16260554573E+03  0.21305934866E+03  0.12499952794E+03 0.  0.
          2    1    1    2  501    0  0.60188681190E+01 -0.33215570734E+02 -0.10239224905E+04  0.10244787784E+04  0.00000000000E+00 0. -1.
          1    1    1    2  502    0 -0.38206427558E+01 -0.24438643072E+02  0.42005500218E+03  0.42078266295E+03  0.00000000000E+00 0. -1.
         22    1    3    3    0    0  0.97698824344E+01  0.45965825901E+02 -0.25470932423E+01  0.47061613206E+02  0.00000000000E+00 0. -1.
         22    1    3    3    0    0 -0.11968107798E+02  0.11688387905E+02  0.16515263897E+03  0.16599773546E+03  0.00000000000E+00 0. -1.
</event>
<event>
 7    1  0.6888820E-006  0.6990830E+02  0.7818608E-02  0.1466811E+00
          2   -1    0    0  502    0  0.00000000000E+00  0.00000000000E+00  0.16694247238E+04  0.16694247238E+04  0.00000000000E+00 0. -1.
          1   -1    0    0  501    0 -0.00000000000E+00 -0.00000000000E+00 -0.23786734419E+03  0.23786734419E+03  0.00000000000E+00 0. -1.
         25    2    1    2    0    0 -0.31412670636E+02 -0.25507832538E+02  0.63648729054E+02  0.14599165339E+03  0.12499998700E+03 0.  0.
          2    1    1    2  501    0 -0.27794244036E+02 -0.12729607658E+02 -0.19470889224E+03  0.19709417959E+03  0.00000000000E+00 0. -1.
          1    1    1    2  502    0  0.59206914672E+02  0.38237440196E+02  0.15626175427E+04  0.15642062350E+04  0.00000000000E+00 0. -1.
         22    1    3    3    0    0 -0.79281974611E+02 -0.13124806135E+02  0.50193767029E+02  0.94748647921E+02  0.00000000000E+00 0. -1.
         22    1    3    3    0    0  0.47869303975E+02 -0.12383026403E+02  0.13454962026E+02  0.51243005465E+02  0.00000000000E+00 0. -1.
</event>
<event>
 7    1  0.6888820E-006  0.9859460E+02  0.7818608E-02  0.1433024E+00
          2   -1    0    0  502    0  0.00000000000E+00  0.00000000000E+00  0.45316078229E+03  0.45316078229E+03  0.00000000000E+00 0. -1.
          1   -1    0    0  501    0 -0.00000000000E+00 -0.00000000000E+00 -0.22914007386E+04  0.22914007386E+04  0.00000000000E+00 0. -1.
         25    2    1    2    0    0  0.47237569493E+02  0.94932013302E+02 -0.70585306925E+03  0.72463598239E+03  0.12500110594E+03 0.  0.
          2    1    1    2  501    0 -0.19451661784E+02 -0.95936234619E+02 -0.15741989265E+04  0.15772394835E+04  0.00000000000E+00 0. -1.
          1    1    1    2  502    0 -0.27785907710E+02  0.10042213164E+01  0.44181203940E+03  0.44268605500E+03  0.00000000000E+00 0. -1.
         22    1    3    3    0    0  0.58621440296E+02  0.11685619591E+03 -0.48170728973E+03  0.49913300509E+03  0.00000000000E+00 0. -1.
         22    1    3    3    0    0 -0.11383870802E+02 -0.21924182612E+02 -0.22414577951E+03  0.22550297730E+03  0.00000000000E+00 0. -1.
</event>
<event>
 7    1  0.6888820E-006  0.6074519E+02  0.7818608E-02  0.1527432E+00
          2   -1    0    0  502    0  0.00000000000E+00  0.00000000000E+00  0.60768042829E+03  0.60768042829E+03  0.00000000000E+00 0. -1.
          1   -1    0    0  501    0 -0.00000000000E+00 -0.00000000000E+00 -0.11026539381E+04  0.11026539381E+04  0.00000000000E+00 0. -1.
         25    2    1    2    0    0 -0.20358830869E+02 -0.33784905482E+02 -0.24937580328E+03  0.28172425818E+03  0.12499745819E+03 0.  0.
          2    1    1    2  501    0  0.36172374494E+02  0.50697691692E+02 -0.83571819364E+03  0.83803555760E+03  0.00000000000E+00 0. -1.
          1    1    1    2  502    0 -0.15813543625E+02 -0.16912786210E+02  0.59012048712E+03  0.59057455060E+03  0.00000000000E+00 0. -1.
         22    1    3    3    0    0  0.31798680813E+02 -0.50065383063E+02 -0.58982773833E+02  0.83646077563E+02  0.00000000000E+00 0.  1.
         22    1    3    3    0    0 -0.52157511681E+02  0.16280477581E+02 -0.19039302945E+03  0.19807818062E+03  0.00000000000E+00 0.  1.
</event>
<event>
 7    1  0.6888820E-006  0.6486648E+02  0.7818608E-02  0.1391107E+00
          2   -1    0    0  502    0  0.00000000000E+00  0.00000000000E+00  0.13540595465E+03  0.13540595465E+03  0.00000000000E+00 0. -1.
          1   -1    0    0  501    0 -0.00000000000E+00 -0.00000000000E+00 -0.12681483803E+04  0.12681483803E+04  0.00000000000E+00 0. -1.
         25    2    1    2    0    0  0.56278663690E+02 -0.78892313886E+02  0.19873137627E+02  0.15940786918E+03  0.12499856791E+03 0.  0.
          2    1    1    2  501    0 -0.64288043852E+00  0.58555655693E+02 -0.11781763757E+04  0.11796307686E+04  0.00000000000E+00 0. -1.
          1    1    1    2  502    0 -0.55635783251E+02  0.20336658193E+02  0.25560812408E+02  0.64515697124E+02  0.00000000000E+00 0. -1.
         22    1    3    3    0    0  0.95704898150E+02 -0.43789356610E+02  0.16260323927E+02  0.10649569670E+03  0.00000000000E+00 0.  1.
         22    1    3    3    0    0 -0.39426234461E+02 -0.35102957276E+02  0.36128136998E+01  0.52912172475E+02  0.00000000000E+00 0.  1.
</event>
<event>
 7    1  0.6888820E-006  0.7401335E+02  0.7818608E-02  0.1487905E+00
          2   -1    0    0  502    0  0.00000000000E+00  0.00000000000E+00  0.15385137619E+03  0.15385137619E+03  0.00000000000E+00 0. -1.
          1   -1    0    0  501    0 -0.00000000000E+00 -0.00000000000E+00 -0.18685399492E+03  0.18685399492E+03  0.00000000000E+00 0. -1.
         25    2    1    2    0    0  0.65830935964E+02 -0.19541828066E+01 -0.55983660236E+02  0.15197234813E+03  0.12499557361E+03 0.  0.
          2    1    1    2  501    0 -0.75195620711E+02 -0.21078896433E+02 -0.62300876269E+02  0.99900452615E+02  0.00000000000E+00 0. -1.
          1    1    1    2  502    0  0.93646847465E+01  0.23033079239E+02  0.85281917768E+02  0.88832570366E+02  0.00000000000E+00 0. -1.
         22    1    3    3    0    0 -0.36814090493E+01  0.31451702837E+02  0.24847549729E+02  0.40251249813E+02  0.00000000000E+00 0.  1.
         22    1    3    3    0    0  0.69512345013E+02 -0.33405885644E+02 -0.80831209965E+02  0.11172109832E+03  0.00000000000E+00 0.  1.
</event>
<event>
 7    1  0.6888820E-006  0.4935143E+02  0.7818608E-02  0.1486844E+00
          2   -1    0    0  502    0  0.00000000000E+00  0.00000000000E+00  0.22739726761E+04  0.22739726761E+04  0.00000000000E+00 0. -1.
          1   -1    0    0  501    0 -0.00000000000E+00 -0.00000000000E+00 -0.81812318021E+03  0.81812318021E+03  0.00000000000E+00 0. -1.
         25    2    1    2    0    0 -0.43257688548E+02 -0.71166758990E+01  0.83778842208E+03  0.84819638402E+03  0.12500316392E+03 0.  0.
          2    1    1    2  501    0  0.14268045799E+02 -0.34751693027E+02 -0.81203173654E+03  0.81290023893E+03  0.00000000000E+00 0. -1.
          1    1    1    2  502    0  0.28989642749E+02  0.41868368926E+02  0.14300928103E+04  0.14309992334E+04  0.00000000000E+00 0. -1.
         22    1    3    3    0    0 -0.27758959986E+02  0.56627369620E+02  0.31025607069E+03  0.31660077108E+03  0.00000000000E+00 0.  1.
         22    1    3    3    0    0 -0.15498728562E+02 -0.63744045519E+02  0.52753235139E+03  0.53159561294E+03  0.00000000000E+00 0.  1.
</event>
<event>
 7    1  0.6888820E-006  0.6496786E+02  0.7818608E-02  0.1381088E+00
          2   -1    0    0  502    0  0.00000000000E+00  0.00000000000E+00  0.15052389373E+04  0.15052389373E+04  0.00000000000E+00 0. -1.
          1   -1    0    0  501    0 -0.00000000000E+00 -0.00000000000E+00 -0.45191945151E+03  0.45191945151E+03  0.00000000000E+00 0. -1.
         25    2    1    2    0    0  0.11158525777E+03  0.23021073995E+02 -0.14891283888E+03  0.22534691928E+03  0.12499984338E+03 0.  0.
          2    1    1    2  501    0 -0.49062767186E+02 -0.40153220741E+02 -0.26026628262E+03  0.26787678908E+03  0.00000000000E+00 0. -1.
          1    1    1    2  502    0 -0.62522490583E+02  0.17132146746E+02  0.14624986073E+04  0.14639346805E+04  0.00000000000E+00 0. -1.
         22    1    3    3    0    0  0.52559592053E+02 -0.80784683939E+00 -0.15278532316E+03  0.16157511661E+03  0.00000000000E+00 0.  1.
         22    1    3    3    0    0  0.59025665717E+02  0.23828920835E+02  0.38724842815E+01  0.63771802672E+02  0.00000000000E+00 0.  1.
</event>
<event>
 7    1  0.6888820E-006  0.6475147E+02  0.7818608E-02  0.1524770E+00
          2   -1    0    0  502    0  0.00000000000E+00  0.00000000000E+00  0.84507091068E+03  0.84507091068E+03  0.00000000000E+00 0. -1.
          1   -1    0    0  501    0 -0.00000000000E+00 -0.00000000000E+00 -0.15308052394E+04  0.15308052394E+04  0.00000000000E+00 0. -1.
         25    2    1    2    0    0 -0.55983998143E+02 -0.52238737740E+02 -0.81210345207E+02  0.16757997226E+03  0.12499933265E+03 0.  0.
          2    1    1    2  501    0  0.34036355758E+02  0.54898480739E+02 -0.14055158160E+04  0.14069992984E+04  0.00000000000E+00 0. -1.
          1    1    1    2  502    0  0.21947642386E+02 -0.26597429989E+01  0.80099183249E+03  0.80129687941E+03  0.00000000000E+00 0. -1.
         22    1    3    3    0    0  0.32927169686E+02 -0.46887231206E+02 -0.36310460506E+02  0.67831117460E+02  0.00000000000E+00 0.  1.
         22    1    3    3    0    0 -0.88911167829E+02 -0.53515065340E+01 -0.44899884701E+02  0.99748854796E+02  0.00000000000E+00 0.  1.
</event>
<event>
 7    1  0.6888820E-006  0.7963277E+02  0.7818608E-02  0.1377225E+00
          2   -1    0    0  502    0  0.00000000000E+00  0.00000000000E+00  0.28925748392E+03  0.28925748392E+03  0.00000000000E+00 0. -1.
          1   -1    0    0  501    0 -0.00000000000E+00 -0.00000000000E+00 -0.23554673275E+03  0.23554673275E+03  0.00000000000E+00 0. -1.
         25    2    1    2    0    0  0.16935910696E+02 -0.36116939358E+02  0.65052072621E+02  0.14644991246E+03  0.12499818530E+03 0.  0.
          2    1    1    2  501    0 -0.69252571963E+02  0.46723931677E+02 -0.18161583569E+03  0.19990836973E+03  0.00000000000E+00 0. -1.
          1    1    1    2  502    0  0.52316661267E+02 -0.10606992319E+02  0.17027451424E+03  0.17844593448E+03  0.00000000000E+00 0. -1.
         22    1    3    3    0    0 -0.35283798958E+02  0.28747289053E+02  0.36757721989E+02  0.58501993322E+02  0.00000000000E+00 0.  1.
         22    1    3    3    0    0  0.52219709654E+02 -0.64864228410E+02  0.28294350631E+02  0.87947919141E+02  0.00000000000E+00 0.  1.
</event>
<event>
 7    1  0.6888820E-006  0.1435958E+03  0.7818608E-02  0.1319668E+00
          2   -1    0    0  502    0  0.00000000000E+00  0.00000000000E+00  0.23664497520E+04  0.23664497520E+04  0.00000000000E+00 0. -1.
          1   -1    0    0  501    0 -0.00000000000E+00 -0.00000000000E+00 -0.12325360535E+04  0.12325360535E+04  0.00000000000E+00 0. -1.
         25    2    1    2    0    0  0.35964083814E+02 -0.16112064810E+03 -0.82104351514E+03  0.84675300637E+03  0.12499968591E+03 0.  0.
          2    1    1    2  501    0 -0.53764411826E+02  0.11607034422E+03 -0.38811923668E+03  0.40865569698E+03  0.00000000000E+00 0. -1.
          1    1    1    2  502    0  0.17800328012E+02  0.45050303879E+02  0.23430764503E+04  0.23435771022E+04  0.00000000000E+00 0. -1.
         22    1    3    3    0    0  0.51199156920E+02 -0.14105660989E+03 -0.79992785069E+03  0.81388137168E+03  0.00000000000E+00 0.  1.
         22    1    3    3    0    0 -0.15235073105E+02 -0.20064038212E+02 -0.21115664448E+02  0.32871634687E+02  0.00000000000E+00 0.  1.
</event>
<event>
 7    1  0.6888820E-006  0.6646122E+02  0.7818608E-02  0.1423039E+00
          2   -1    0    0  502    0  0.00000000000E+00  0.00000000000E+00  0.42262904979E+03  0.42262904979E+03  0.00000000000E+00 0. -1.
          1   -1    0    0  501    0 -0.00000000000E+00 -0.00000000000E+00 -0.15076728054E+03  0.15076728054E+03  0.00000000000E+00 0. -1.
         25    2    1    2    0    0  0.54349337597E+02  0.96112002430E+01  0.77265191572E+02  0.15697126449E+03  0.12499536944E+03 0.  0.
          2    1    1    2  501    0  0.50906460346E+01 -0.44207784333E+02 -0.10235669850E+03  0.11161154331E+03  0.00000000000E+00 0. -1.
          1    1    1    2  502    0 -0.59439983632E+02  0.34596584090E+02  0.29695327617E+03  0.30481352252E+03  0.00000000000E+00 0. -1.
         22    1    3    3    0    0  0.70189529041E+02 -0.49871920346E+01 -0.63249182488E+01  0.70650171000E+02  0.00000000000E+00 0.  1.
         22    1    3    3    0    0 -0.15840191444E+02  0.14598392278E+02  0.83590109820E+02  0.86321093493E+02  0.00000000000E+00 0.  1.
</event>
<event>
 7    1  0.6888820E-006  0.1127774E+03  0.7818608E-02  0.1383746E+00
          2   -1    0    0  502    0  0.00000000000E+00  0.00000000000E+00  0.22662896127E+04  0.22662896127E+04  0.00000000000E+00 0. -1.
          1   -1    0    0  501    0 -0.00000000000E+00 -0.00000000000E+00 -0.21550539352E+03  0.21550539352E+03  0.00000000000E+00 0. -1.
         25    2    1    2    0    0 -0.98659463730E+02 -0.30691338594E+02  0.48946433965E+03  0.51563246562E+03  0.12500340700E+03 0.  0.
          2    1    1    2  501    0  0.48482893215E+01 -0.35411624529E+02 -0.19896039412E+03  0.20214531280E+03  0.00000000000E+00 0. -1.
          1    1    1    2  502    0  0.93811174408E+02  0.66102963123E+02  0.17602802737E+04  0.17640172278E+04  0.00000000000E+00 0. -1.
         22    1    3    3    0    0  0.11034169684E+01 -0.43753348376E+02  0.58392370536E+02  0.72974255460E+02  0.00000000000E+00 0. -1.
         22    1    3    3    0    0 -0.99762880698E+02  0.13062009782E+02  0.43107196912E+03  0.44265821016E+03  0.00000000000E+00 0. -1.
</event>
<event>
 7    1  0.6888820E-006  0.1254412E+03  0.7818608E-02  0.1441919E+00
          2   -1    0    0  502    0  0.00000000000E+00  0.00000000000E+00  0.56850685550E+03  0.56850685550E+03  0.00000000000E+00 0. -1.
          1   -1    0    0  501    0 -0.00000000000E+00 -0.00000000000E+00 -0.31027373295E+03  0.31027373295E+03  0.00000000000E+00 0. -1.
         25    2    1    2    0    0  0.10144981623E+03 -0.99094076207E+02  0.73609295577E+02  0.20286721243E+03  0.12500030533E+03 0.  0.
          2    1    1    2  501    0 -0.19027954717E+02  0.74740424105E+01 -0.23637003249E+03  0.23725243230E+03  0.00000000000E+00 0. -1.
          1    1    1    2  502    0 -0.82421861508E+02  0.91620033797E+02  0.42099385946E+03  0.43866094373E+03  0.00000000000E+00 0. -1.
         22    1    3    3    0    0 -0.15900815374E+02  0.15935593893E+02  0.19728982319E+02  0.29933456627E+02  0.00000000000E+00 0.  1.
         22    1    3    3    0    0  0.11735063160E+03 -0.11502967010E+03  0.53880313258E+02  0.17293375581E+03  0.00000000000E+00 0.  1.
</event>
<event>
 7    1  0.6888820E-006  0.3789938E+02  0.7818608E-02  0.1618204E+00
          2   -1    0    0  502    0  0.00000000000E+00  0.00000000000E+00  0.25484352145E+04  0.25484352145E+04  0.00000000000E+00 0. -1.
          1   -1    0    0  501    0 -0.00000000000E+00 -0.00000000000E+00 -0.42842770149E+02  0.42842770149E+02  0.00000000000E+00 0. -1.
         25    2    1    2    0    0 -0.13889916287E+02 -0.42008986027E+02  0.24283174376E+03  0.27667788596E+03  0.12500284845E+03 0.  0.
          2    1    1    2  501    0 -0.13681178643E+02  0.16019746437E+02 -0.21455887684E+02  0.30069287342E+02  0.00000000000E+00 0. -1.
          1    1    1    2  502    0  0.27571094930E+02  0.25989239590E+02  0.22842165883E+04  0.22845308114E+04  0.00000000000E+00 0. -1.
         22    1    3    3    0    0 -0.85255065026E+01 -0.41990004719E+02  0.25750989763E+03  0.26105017168E+03  0.00000000000E+00 0. -1.
         22    1    3    3    0    0 -0.53644097846E+01 -0.18981307667E-01 -0.14678153868E+02  0.15627714280E+02  0.00000000000E+00 0. -1.
</event>
<event>
 7    1  0.6888820E-006  0.1109074E+03  0.7818608E-02  0.1371156E+00
          2   -1    0    0  502    0  0.00000000000E+00  0.00000000000E+00  0.25533952157E+04  0.25533952157E+04  0.00000000000E+00 0. -1.
          1   -1    0    0  501    0 -0.00000000000E+00 -0.00000000000E+00 -0.22607862780E+02  0.22607862780E+02  0.00000000000E+00 0. -1.
         25    2    1    2    0    0  0.66221522994E+02 -0.10931568832E+03  0.77396478945E+03  0.79434542467E+03  0.12501179370E+03 0.  0.
          2    1    1    2  501    0 -0.40128910879E+02  0.36025292660E+01  0.27202516577E+02  0.48613625802E+02  0.00000000000E+00 0. -1.
          1    1    1    2  502    0 -0.26092612114E+02  0.10571315905E+03  0.17296200469E+04  0.17330440280E+04  0.00000000000E+00 0. -1.
         22    1    3    3    0    0 -0.30288109125E+02 -0.11350499952E+00  0.87887757047E+02  0.92960423173E+02  0.00000000000E+00 0.  1.
         22    1    3    3    0    0  0.96509632118E+02 -0.10920218332E+03  0.68607703240E+03  0.70138500149E+03  0.00000000000E+00 0.  1.
</event>
<event>
 7    1  0.6888820E-006  0.1387293E+03  0.7818608E-02  0.1401765E+00
          2   -1    0    0  502    0  0.00000000000E+00  0.00000000000E+00  0.11987457733E+04  0.11987457733E+04  0.00000000000E+00 0. -1.
          1   -1    0    0  501    0 -0.00000000000E+00 -0.00000000000E+00 -0.15756106075E+03  0.15756106075E+03  0.00000000000E+00 0. -1.
         25    2    1    2    0    0 -0.13605433804E+03  0.86672810687E+02  0.83616476721E+02  0.22055000340E+03  0.12501051879E+03 0.  0.
          2    1    1    2  501    0  0.24066248172E+02 -0.73168795984E+01 -0.82716496633E+02  0.86456577791E+02  0.00000000000E+00 0. -1.
          1    1    1    2  502    0  0.11198808986E+03 -0.79355931089E+02  0.10402847324E+04  0.10493002528E+04  0.00000000000E+00 0. -1.
         22    1    3    3    0    0 -0.49457952226E+02  0.98106282430E+02  0.18070194153E+02  0.11134389793E+03  0.00000000000E+00 0.  1.
         22    1    3    3    0    0 -0.86596385811E+02 -0.11433471742E+02  0.65546282568E+02  0.10920610546E+03  0.00000000000E+00 0.  1.
</event>
<event>
 7    1  0.6888820E-006  0.1044997E+03  0.7818608E-02  0.1349950E+00
          2   -1    0    0  502    0  0.00000000000E+00  0.00000000000E+00  0.34531736144E+04  0.34531736144E+04  0.00000000000E+00 0. -1.
          1   -1    0    0  501    0 -0.00000000000E+00 -0.00000000000E+00 -0.14581428087E+02  0.14581428087E+02  0.00000000000E+00 0. -1.
         25    2    1    2    0    0  0.69638988735E+02  0.10448729654E+02  0.11810638498E+04  0.11897477988E+04  0.12501696970E+03 0.  0.
          2    1    1    2  501    0 -0.10414695938E+03 -0.48130382310E+02  0.32242501407E+03  0.34222947353E+03  0.00000000000E+00 0. -1.
          1    1    1    2  502    0  0.34507970644E+02  0.37681652656E+02  0.19351033224E+04  0.19357777701E+04  0.00000000000E+00 0. -1.
         22    1    3    3    0    0  0.67525379660E+02  0.45292196689E+02  0.41506174994E+03  0.42295072554E+03  0.00000000000E+00 0. -1.
         22    1    3    3    0    0  0.21136090745E+01 -0.34843467034E+02  0.76600209986E+03  0.76679707324E+03  0.00000000000E+00 0. -1.
</event>
<event>
 7    1  0.6888820E-006  0.7174070E+02  0.7818608E-02  0.1399659E+00
          2   -1    0    0  502    0  0.00000000000E+00  0.00000000000E+00  0.54728637494E+03  0.54728637494E+03  0.00000000000E+00 0. -1.
          1   -1    0    0  501    0 -0.00000000000E+00 -0.00000000000E+00 -0.19380024630E+04  0.19380024630E+04  0.00000000000E+00 0. -1.
         25    2    1    2    0    0  0.17616167967E+01 -0.11303970827E+03 -0.58240054057E+02  0.17831960931E+03  0.12499960091E+03 0.  0.
          2    1    1    2  501    0  0.19779347106E+02  0.68518296274E+02 -0.18177665164E+04  0.18191649424E+04  0.00000000000E+00 0. -1.
          1    1    1    2  502    0 -0.21540963903E+02  0.44521411996E+02  0.48529048246E+03  0.48780428618E+03  0.00000000000E+00 0. -1.
         22    1    3    3    0    0 -0.79301378883E+01 -0.13515764781E+03 -0.68911462986E+02  0.15191861828E+03  0.00000000000E+00 0.  1.
         22    1    3    3    0    0  0.96917546851E+01  0.22117939544E+02  0.10671408930E+02  0.26400991025E+02  0.00000000000E+00 0.  1.
</event>
<event>
 7    1  0.6888820E-006  0.7588574E+02  0.7818608E-02  0.1389520E+00
          2   -1    0    0  502    0  0.00000000000E+00  0.00000000000E+00  0.15901768064E+04  0.15901768064E+04  0.00000000000E+00 0. -1.
          1   -1    0    0  501    0 -0.00000000000E+00 -0.00000000000E+00 -0.46428972661E+02  0.46428972661E+02  0.00000000000E+00 0. -1.
         25    2    1    2    0    0  0.39058408362E+02  0.77139452501E+01  0.51725515450E+03  0.53363183977E+03  0.12499992538E+03 0.  0.
          2    1    1    2  501    0  0.42567765560E+02 -0.27536930251E+02 -0.18978368677E+02  0.54133868050E+02  0.00000000000E+00 0. -1.
          1    1    1    2  502    0 -0.81626173922E+02  0.19822985001E+02  0.10454710479E+04  0.10488400712E+04  0.00000000000E+00 0. -1.
         22    1    3    3    0    0  0.63370817302E+02  0.46124247103E+02  0.23465794301E+03  0.24740181259E+03  0.00000000000E+00 0. -1.
         22    1    3    3    0    0 -0.24312408940E+02 -0.38410301853E+02  0.28259721149E+03  0.28623002718E+03  0.00000000000E+00 0. -1.
</event>
<event>
 7    1  0.6888820E-006  0.1206502E+03  0.7818608E-02  0.1297880E+00
          2   -1    0    0  502    0  0.00000000000E+00  0.00000000000E+00  0.28506635805E+04  0.28506635805E+04  0.00000000000E+00 0. -1.
          1   -1    0    0  501    0 -0.00000000000E+00 -0.00000000000E+00 -0.26313448386E+03  0.26313448386E+03  0.00000000000E+00 0. -1.
         25    2    1    2    0    0  0.93554994729E+02  0.10382995770E+03 -0.94579600930E+02  0.21001321843E+03  0.12500821512E+03 0.  0.
          2    1    1    2  501    0  0.21323807021E+02 -0.66970017739E+02 -0.98255137456E+02  0.12080463591E+03  0.00000000000E+00 0. -1.
          1    1    1    2  502    0 -0.11487880175E+03 -0.36859939961E+02  0.27803638350E+04  0.27829802100E+04  0.00000000000E+00 0. -1.
         22    1    3    3    0    0  0.81293530508E+02  0.37691103417E-01 -0.55498740419E+02  0.98431446760E+02  0.00000000000E+00 0.  1.
         22    1    3    3    0    0  0.12261464221E+02  0.10379226660E+03 -0.39080860511E+02  0.11158177167E+03  0.00000000000E+00 0.  1.
</event>
<event>
 7    1  0.6888820E-006  0.6656685E+02  0.7818608E-02  0.1383374E+00
          2   -1    0    0  502    0  0.00000000000E+00  0.00000000000E+00  0.30430259910E+04  0.30430259910E+04  0.00000000000E+00 0. -1.
          1   -1    0    0  501    0 -0.00000000000E+00 -0.00000000000E+00 -0.63209126519E+02  0.63209126519E+02  0.00000000000E+00 0. -1.
         25    2    1    2    0    0 -0.70386181370E+01 -0.50096248056E+02  0.16355702346E+04  0.16411196029E+04  0.12499752994E+03 0.  0.
          2    1    1    2  501    0  0.65992924397E+02  0.87223469978E+01 -0.40880172420E+02  0.78117436624E+02  0.00000000000E+00 0. -1.
          1    1    1    2  502    0 -0.58954306260E+02  0.41373901059E+02  0.13851268023E+04  0.13869980780E+04  0.00000000000E+00 0. -1.
         22    1    3    3    0    0  0.23293315667E+02  0.16041867106E+02  0.10269597914E+03  0.10651940756E+03  0.00000000000E+00 0.  1.
         22    1    3    3    0    0 -0.30331933804E+02 -0.66138115162E+02  0.15328742555E+04  0.15346001954E+04  0.00000000000E+00 0.  1.
</event>
<event>
 7    1  0.6888820E-006  0.1001508E+03  0.7818608E-02  0.1427187E+00
          2   -1    0    0  502    0  0.00000000000E+00  0.00000000000E+00  0.30336271369E+04  0.30336271369E+04  0.00000000000E+00 0. -1.
          1   -1    0    0  501    0 -0.00000000000E+00 -0.00000000000E+00 -0.24689735421E+03  0.24689735421E+03  0.00000000000E+00 0. -1.
         25    2    1    2    0    0  0.96036032073E+02 -0.39419688222E+01 -0.91002235657E+01  0.15795072559E+03  0.12500863599E+03 0.  0.
          2    1    1    2  501    0 -0.12280859053E+01 -0.28583843625E+02 -0.16126364712E+03  0.16378189214E+03  0.00000000000E+00 0. -1.
          1    1    1    2  502    0 -0.94807946168E+02  0.32525812447E+02  0.29570936534E+04  0.29587918734E+04  0.00000000000E+00 0. -1.
         22    1    3    3    0    0  0.10500115280E+03 -0.29540107321E+02  0.27409962812E+02  0.11246851156E+03  0.00000000000E+00 0.  1.
         22    1    3    3    0    0 -0.89651207291E+01  0.25598138498E+02 -0.36510186377E+02  0.45482214035E+02  0.00000000000E+00 0.  1.
</event>
<event>
 7    1  0.6888820E-006  0.1640404E+03  0.7818608E-02  0.1207402E+00
          2   -1    0    0  502    0  0.00000000000E+00  0.00000000000E+00  0.22382848445E+04  0.22382848445E+04  0.00000000000E+00 0. -1.
          1   -1    0    0  501    0 -0.00000000000E+00 -0.00000000000E+00 -0.15951380301E+03  0.15951380301E+03  0.00000000000E+00 0. -1.
         25    2    1    2    0    0 -0.99709038910E+02  0.21910181040E+03  0.35977158428E+03  0.45056483752E+03  0.12500233676E+03 0.  0.
          2    1    1    2  501    0  0.11253982123E+03 -0.59461208804E+02 -0.73910054403E+02  0.14718540300E+03  0.00000000000E+00 0. -1.
          1    1    1    2  502    0 -0.12830782315E+02 -0.15964060160E+03  0.17929095116E+04  0.18000484070E+04  0.00000000000E+00 0. -1.
         22    1    3    3    0    0  0.17871216008E+02 -0.11994704068E+01  0.91650985234E+01  0.20120092490E+02  0.00000000000E+00 0. -1.
         22    1    3    3    0    0 -0.11758025492E+03  0.22030128081E+03  0.35060648576E+03  0.43044474503E+03  0.00000000000E+00 0. -1.
</event>
<event>
 7    1  0.6888820E-006  0.6435605E+02  0.7818608E-02  0.1446982E+00
          2   -1    0    0  502    0  0.00000000000E+00  0.00000000000E+00  0.15233611537E+04  0.15233611537E+04  0.00000000000E+00 0. -1.
          1   -1    0    0  501    0 -0.00000000000E+00 -0.00000000000E+00 -0.29813637048E+03  0.29813637048E+03  0.00000000000E+00 0. -1.
         25    2    1    2    0    0 -0.75875869181E+02  0.18286021338E+02  0.54918559752E+02  0.15728892894E+03  0.12502892810E+03 0.  0.
          2    1    1    2  501    0  0.47071686166E+02 -0.43646172770E+02 -0.24251460521E+03  0.25086662946E+03  0.00000000000E+00 0. -1.
          1    1    1    2  502    0  0.28804183015E+02  0.25360151432E+02  0.14128208287E+04  0.14133419658E+04  0.00000000000E+00 0. -1.
         22    1    3    3    0    0 -0.47633798020E+02  0.25114904025E+02 -0.34039585227E+02  0.63705811983E+02  0.00000000000E+00 0. -1.
         22    1    3    3    0    0 -0.28242071161E+02 -0.68288826868E+01  0.88958144979E+02  0.93583116962E+02  0.00000000000E+00 0. -1.
</event>
<event>
 7    1  0.6888820E-006  0.1426354E+03  0.7818608E-02  0.1359333E+00
          2   -1    0    0  502    0  0.00000000000E+00  0.00000000000E+00  0.14935567025E+04  0.14935567025E+04  0.00000000000E+00 0. -1.
          1   -1    0    0  501    0 -0.00000000000E+00 -0.00000000000E+00 -0.27337217100E+03  0.27337217100E+03  0.00000000000E+00 0. -1.
         25    2    1    2    0    0 -0.11134571233E+03  0.21837384489E+02  0.84686237934E+02  0.18887029317E+03  0.12500195890E+03 0.  0.
          2    1    1    2  501    0  0.14575623542E+03 -0.25189420613E+02 -0.19631161227E+03  0.24579999224E+03  0.00000000000E+00 0. -1.
          1    1    1    2  502    0 -0.34410523087E+02  0.33520361244E+01  0.13318099058E+04  0.13322585881E+04  0.00000000000E+00 0. -1.
         22    1    3    3    0    0  0.16728973388E+02  0.93397326964E+01  0.52981121316E+02  0.56339048389E+02  0.00000000000E+00 0.  1.
         22    1    3    3    0    0 -0.12807468572E+03  0.12497651792E+02  0.31705116618E+02  0.13253124478E+03  0.00000000000E+00 0.  1.
</event>
<event>
 7    1  0.6888820E-006  0.7213485E+02  0.7818608E-02  0.1509618E+00
          2   -1    0    0  502    0  0.00000000000E+00  0.00000000000E+00  0.15985905405E+03  0.15985905405E+03  0.00000000000E+00 0. -1.
          1   -1    0    0  501    0 -0.00000000000E+00 -0.00000000000E+00 -0.18985887229E+04  0.18985887229E+04  0.00000000000E+00 0. -1.
         25    2    1    2    0    0 -0.76618021205E+02 -0.23230757903E+02 -0.16629856999E+04  0.16695975516E+04  0.12499822828E+03 0.  0.
          2    1    1    2  501    0  0.45291714926E+01  0.21498057441E+02 -0.22342605315E+03  0.22450363270E+03  0.00000000000E+00 0. -1.
          1    1    1    2  502    0  0.72088849712E+02  0.17327004619E+01  0.14768208421E+03  0.16434659260E+03  0.00000000000E+00 0. -1.
         22    1    3    3    0    0  0.19417566763E+02 -0.44838253346E+02 -0.65334900123E+03  0.65517358637E+03  0.00000000000E+00 0. -1.
         22    1    3    3    0    0 -0.96035587968E+02  0.21607495443E+02 -0.10096366987E+04  0.10144239653E+04  0.00000000000E+00 0. -1.
</event>
<event>
 7    1  0.6888820E-006  0.3521682E+02  0.7818608E-02  0.1630332E+00
          2   -1    0    0  502    0  0.00000000000E+00  0.00000000000E+00  0.10198910973E+04  0.10198910973E+04  0.00000000000E+00 0. -1.
          1   -1    0    0  501    0 -0.00000000000E+00 -0.00000000000E+00 -0.13109878656E+04  0.13109878656E+04  0.00000000000E+00 0. -1.
         25    2    1    2    0    0 -0.11983052631E+02  0.17795773475E+02 -0.29692205729E+03  0.32287423049E+03  0.12499911001E+03 0.  0.
          2    1    1    2  501    0  0.32764846658E+02 -0.14014232861E+02 -0.10006617341E+04  0.10012960801E+04  0.00000000000E+00 0. -1.
          1    1    1    2  502    0 -0.20781794027E+02 -0.37815406135E+01  0.10064870231E+04  0.10067086524E+04  0.00000000000E+00 0. -1.
         22    1    3    3    0    0  0.61519849344E+01  0.34307121784E+02 -0.11945919833E+02  0.36844681087E+02  0.00000000000E+00 0. -1.
         22    1    3    3    0    0 -0.18135037565E+02 -0.16511348310E+02 -0.28497613746E+03  0.28602954940E+03  0.00000000000E+00 0. -1.
</event>
<event>
 7    1  0.6888820E-006  0.1605516E+03  0.7818608E-02  0.1195364E+00
          2   -1    0    0  502    0  0.00000000000E+00  0.00000000000E+00  0.15989663729E+03  0.15989663729E+03  0.00000000000E+00 0. -1.
          1   -1    0    0  501    0 -0.00000000000E+00 -0.00000000000E+00 -0.23445802356E+04  0.23445802356E+04  0.00000000000E+00 0. -1.
         25    2    1    2    0    0  0.16574064080E+03  0.17744512308E+03 -0.67985549445E+03  0.73265736295E+03  0.12500634561E+03 0.  0.
          2    1    1    2  501    0 -0.19596837144E+02 -0.15304646564E+03 -0.15923008295E+04  0.15997591032E+04  0.00000000000E+00 0. -1.
          1    1    1    2  502    0 -0.14614380366E+03 -0.24398657444E+02  0.87472725641E+02  0.17206040673E+03  0.00000000000E+00 0. -1.
         22    1    3    3    0    0  0.30615416024E+02  0.12605365933E+02 -0.25695932573E+03  0.25908356572E+03  0.00000000000E+00 0.  1.
         22    1    3    3    0    0  0.13512522478E+03  0.16483975715E+03 -0.42289616872E+03  0.47357379723E+03  0.00000000000E+00 0.  1.
</event>
<event>
 7    1  0.6888820E-006  0.9972446E+02  0.7818608E-02  0.1284849E+00
          2   -1    0    0  502    0  0.00000000000E+00  0.00000000000E+00  0.13090124950E+04  0.13090124950E+04  0.00000000000E+00 0. -1.
          1   -1    0    0  501    0 -0.00000000000E+00 -0.00000000000E+00 -0.84780799663E+03  0.84780799663E+03  0.00000000000E+00 0. -1.
         25    2    1    2    0    0  0.10738913728E+02 -0.34121616654E+01  0.43935928165E+02  0.13297190022E+03  0.12499677336E+03 0.  0.
          2    1    1    2  501    0 -0.88856200694E+02 -0.52460045166E+02 -0.79807400988E+03  0.80471709686E+03  0.00000000000E+00 0. -1.
          1    1    1    2  502    0  0.78117286966E+02  0.55872206831E+02  0.12153425801E+04  0.12191314946E+04  0.00000000000E+00 0. -1.
         22    1    3    3    0    0  0.37543344336E+02 -0.50952365297E+02  0.61646370082E+00  0.63293177047E+02  0.00000000000E+00 0. -1.
         22    1    3    3    0    0 -0.26804430608E+02  0.47540203631E+02  0.43319464464E+02  0.69678723173E+02  0.00000000000E+00 0. -1.
</event>
<event>
 7    1  0.6888820E-006  0.1361508E+03  0.7818608E-02  0.1428965E+00
          2   -1    0    0  502    0  0.00000000000E+00  0.00000000000E+00  0.14222666907E+04  0.14222666907E+04  0.00000000000E+00 0. -1.
          1   -1    0    0  501    0 -0.00000000000E+00 -0.00000000000E+00 -0.25339967805E+03  0.25339967805E+03  0.00000000000E+00 0. -1.
         25    2    1    2    0    0 -0.84582453864E+02 -0.81685778700E+02  0.14949180983E+03  0.22759624707E+03  0.12500197011E+03 0.  0.
          2    1    1    2  501    0  0.99432653594E+02  0.96196704854E+02 -0.19192488669E+03  0.23659209783E+03  0.00000000000E+00 0. -1.
          1    1    1    2  502    0 -0.14850199730E+02 -0.14510926154E+02  0.12113000895E+04  0.12114780238E+04  0.00000000000E+00 0. -1.
         22    1    3    3    0    0  0.22344984561E+02  0.13383592314E+02  0.10383870392E+02  0.28040036423E+02  0.00000000000E+00 0.  1.
         22    1    3    3    0    0 -0.10692743843E+03 -0.95069371014E+02  0.13910793943E+03  0.19955621064E+03  0.00000000000E+00 0.  1.
</event>
<event>
 7    1  0.6888820E-006  0.4075994E+02  0.7818608E-02  0.1518322E+00
          2   -1    0    0  502    0  0.00000000000E+00  0.00000000000E+00  0.35206453471E+03  0.35206453471E+03  0.00000000000E+00 0. -1.
          1   -1    0    0  501    0 -0.00000000000E+00 -0.00000000000E+00 -0.12579388498E+04  0.12579388498E+04  0.00000000000E+00 0. -1.
         25    2    1    2    0    0  0.24461262365E+02  0.62735821517E+02 -0.43125103753E+03  0.45402239725E+03  0.12499897267E+03 0.  0.
          2    1    1    2  501    0  0.40709838468E+01 -0.39708377533E+02 -0.81382502671E+03  0.81480335189E+03  0.00000000000E+00 0. -1.
          1    1    1    2  502    0 -0.28532246212E+02 -0.23027443983E+02  0.33920174916E+03  0.34117763538E+03  0.00000000000E+00 0. -1.
         22    1    3    3    0    0 -0.46710494578E+02  0.81273376513E+00 -0.11940004732E+03  0.12821428212E+03  0.00000000000E+00 0.  1.
         22    1    3    3    0    0  0.71171756943E+02  0.61923087752E+02 -0.31185099021E+03  0.32580811512E+03  0.00000000000E+00 0.  1.
</event>
<event>
 7    1  0.6888820E-006  0.8153779E+02  0.7818608E-02  0.1330850E+00
          2   -1    0    0  502    0  0.00000000000E+00  0.00000000000E+00  0.91618390226E+03  0.91618390226E+03  0.00000000000E+00 0. -1.
          1   -1    0    0  501    0 -0.00000000000E+00 -0.00000000000E+00 -0.47392428005E+03  0.47392428005E+03  0.00000000000E+00 0. -1.
         25    2    1    2    0    0 -0.11280773726E+03 -0.25280576246E+02 -0.11566453584E+02  0.17065668972E+03  0.12500091911E+03 0.  0.
          2    1    1    2  501    0  0.70869416909E+02 -0.39605247303E+02 -0.37669520694E+03  0.38534442879E+03  0.00000000000E+00 0. -1.
          1    1    1    2  502    0  0.41938320350E+02  0.64885823549E+02  0.83052128274E+03  0.83410706380E+03  0.00000000000E+00 0. -1.
         22    1    3    3    0    0 -0.67850111527E+02 -0.69611163906E+02  0.21244695858E+02  0.99502205386E+02  0.00000000000E+00 0.  1.
         22    1    3    3    0    0 -0.44957625732E+02  0.44330587660E+02 -0.32811149442E+02  0.71154484338E+02  0.00000000000E+00 0.  1.
</event>
<event>
 7    1  0.6888820E-006  0.6192846E+02  0.7818608E-02  0.1509940E+00
          2   -1    0    0  502    0  0.00000000000E+00  0.00000000000E+00  0.18276738324E+04  0.18276738324E+04  0.00000000000E+00 0. -1.
          1   -1    0    0  501    0 -0.00000000000E+00 -0.00000000000E+00 -0.76372782717E+02  0.76372782717E+02  0.00000000000E+00 0. -1.
         25    2    1    2    0    0  0.81430850382E+02  0.21411861928E+02  0.53477834259E+03  0.55560959849E+03  0.12499879602E+03 0.  0.
          2    1    1    2  501    0 -0.21458953817E+02 -0.13840001230E+02 -0.62745022227E+02  0.67741937877E+02  0.00000000000E+00 0. -1.
          1    1    1    2  502    0 -0.59971896564E+02 -0.75718606981E+01  0.12792677293E+04  0.12806950787E+04  0.00000000000E+00 0. -1.
         22    1    3    3    0    0  0.10359921493E+03  0.49343359411E+02  0.39245050952E+03  0.40888258324E+03  0.00000000000E+00 0.  1.
         22    1    3    3    0    0 -0.22168364553E+02 -0.27931497483E+02  0.14232783307E+03  0.14672701525E+03  0.00000000000E+00 0.  1.
</event>
<event>
 7    1  0.6888820E-006  0.3777335E+02  0.7818608E-02  0.1580594E+00
          2   -1    0    0  502    0  0.00000000000E+00  0.00000000000E+00  0.66400707699E+03  0.66400707699E+03  0.00000000000E+00 0. -1.
          1   -1    0    0  501    0 -0.00000000000E+00 -0.00000000000E+00 -0.31497686363E+03  0.31497686363E+03  0.00000000000E+00 0. -1.
         25    2    1    2    0    0 -0.75602490251E+01  0.19896822157E+02 -0.11676031723E+03  0.17236580669E+03  0.12499583489E+03 0.  0.
          2    1    1    2  501    0  0.34069615258E+02 -0.19998973778E+02 -0.16784335025E+03  0.17242995059E+03  0.00000000000E+00 0. -1.
          1    1    1    2  502    0 -0.26509366233E+02  0.10215162115E+00  0.63363388085E+03  0.63418818334E+03  0.00000000000E+00 0. -1.
         22    1    3    3    0    0 -0.42490723072E+02  0.52361839926E+02 -0.10231534882E+03  0.12253837942E+03  0.00000000000E+00 0. -1.
         22    1    3    3    0    0  0.34930474047E+02 -0.32465017769E+02 -0.14444968410E+02  0.49827427269E+02  0.00000000000E+00 0. -1.
</event>
<event>
 7    1  0.6888820E-006  0.1078010E+03  0.7818608E-02  0.1294003E+00
          2   -1    0    0  502    0  0.00000000000E+00  0.00000000000E+00  0.24162665559E+03  0.24162665559E+03  0.00000000000E+00 0. -1.
          1   -1    0    0  501    0 -0.00000000000E+00 -0.00000000000E+00 -0.44025766976E+03  0.44025766976E+03  0.00000000000E+00 0. -1.
         25    2    1    2    0    0  0.32076349130E+02  0.12894192341E+03 -0.16978110788E+03  0.24921071517E+03  0.12500177669E+03 0.  0.
          2    1    1    2  501    0 -0.75701449951E+02 -0.30300321700E+02 -0.20808348769E+03  0.22348950058E+03  0.00000000000E+00 0. -1.
          1    1    1    2  502    0  0.43625100822E+02 -0.98641601708E+02  0.17923358139E+03  0.20918410960E+03  0.00000000000E+00 0. -1.
         22    1    3    3    0    0  0.10774094005E+02 -0.20389100291E+02 -0.13390888062E+01  0.23099559977E+02  0.00000000000E+00 0.  1.
         22    1    3    3    0    0  0.21302255125E+02  0.14933102370E+03 -0.16844201907E+03  0.22611115519E+03  0.00000000000E+00 0.  1.
</event>
<event>
 7    1  0.6888820E-006  0.1401626E+03  0.7818608E-02  0.1392776E+00
          2   -1    0    0  502    0  0.00000000000E+00  0.00000000000E+00  0.43242976005E+03  0.43242976005E+03  0.00000000000E+00 0. -1.
          1   -1    0    0  501    0 -0.00000000000E+00 -0.00000000000E+00 -0.12704507183E+04  0.12704507183E+04  0.00000000000E+00 0. -1.
         25    2    1    2    0    0 -0.34391007369E+02 -0.12337910800E+03  0.86463223642E+01  0.17917906647E+03  0.12500093316E+03 0.  0.
          2    1    1    2  501    0  0.60894640680E+02  0.12693385835E+03 -0.11804668952E+04  0.11888323904E+04  0.00000000000E+00 0. -1.
          1    1    1    2  502    0 -0.26503633311E+02 -0.35547503534E+01  0.33379961463E+03  0.33486902150E+03  0.00000000000E+00 0. -1.
         22    1    3    3    0    0  0.20123865318E+02 -0.10183087788E+03  0.41722999105E+02  0.11187182979E+03  0.00000000000E+00 0.  1.
         22    1    3    3    0    0 -0.54514872687E+02 -0.21548230115E+02 -0.33076676741E+02  0.67307236679E+02  0.00000000000E+00 0.  1.
</event>
<event>
 7    1  0.8030164E-006  0.7551823E+02  0.7818608E-02  0.1374142E+00
          2   -1    0    0  502    0  0.00000000000E+00  0.00000000000E+00  0.49481547738E+03  0.49481547738E+03  0.00000000000E+00 0. -1.
          1   -1    0    0  501    0 -0.00000000000E+00 -0.00000000000E+00 -0.16645585940E+04  0.16645585940E+04  0.00000000000E+00 0. -1.
         25    2    1    2    0    0  0.20004182489E+02  0.40549536810E+02 -0.64462992631E+03  0.65819279682E+03  0.12500233453E+03 0.  0.
          2    1    1    2  501    0 -0.49906245253E+02  0.29023326203E+02 -0.10093798699E+04  0.10110295290E+04  0.00000000000E+00 0. -1.
          1    1    1    2  502    0  0.29902062764E+02 -0.69572863013E+02  0.48426667963E+03  0.49015174550E+03  0.00000000000E+00 0. -1.
         22    1    3    3    0    0 -0.43711705715E+02  0.33280242217E+02 -0.15638910246E+03  0.16575837568E+03  0.00000000000E+00 0.  1.
         22    1    3    3    0    0  0.63715888203E+02  0.72692945931E+01 -0.48824082384E+03  0.49243442114E+03  0.00000000000E+00 0.  1.
</event>
<event>
 7    1  0.6888820E-006  0.5455775E+02  0.7818608E-02  0.1447956E+00
          2   -1    0    0  502    0  0.00000000000E+00  0.00000000000E+00  0.16811019817E+04  0.16811019817E+04  0.00000000000E+00 0. -1.
          1   -1    0    0  501    0 -0.00000000000E+00 -0.00000000000E+00 -0.99230110290E+02  0.99230110290E+02  0.00000000000E+00 0. -1.
         25    2    1    2    0    0 -0.52822052133E+02  0.51994350876E+01  0.52589735961E+02  0.14562978497E+03  0.12500060250E+03 0.  0.
          2    1    1    2  501    0  0.13173542567E+02 -0.42970722532E+02 -0.42565012203E+02  0.61901578999E+02  0.00000000000E+00 0. -1.
          1    1    1    2  502    0  0.39648509566E+02  0.37771287445E+02  0.15718471476E+04  0.15728007280E+04  0.00000000000E+00 0. -1.
         22    1    3    3    0    0 -0.76962994267E+02 -0.34058891492E+02  0.53148870579E+02  0.99539504822E+02  0.00000000000E+00 0.  1.
         22    1    3    3    0    0  0.24140942135E+02  0.39258326580E+02 -0.55913461812E+00  0.46090280153E+02  0.00000000000E+00 0.  1.
</event>
<event>
 7    1  0.6888820E-006  0.4461281E+02  0.7818608E-02  0.1483941E+00
          2   -1    0    0  502    0  0.00000000000E+00  0.00000000000E+00  0.14856054514E+04  0.14856054514E+04  0.00000000000E+00 0. -1.
          1   -1    0    0  501    0 -0.00000000000E+00 -0.00000000000E+00 -0.31197310601E+02  0.31197310601E+02  0.00000000000E+00 0. -1.
         25    2    1    2    0    0  0.91372620054E+01 -0.12599776062E+02  0.54441967942E+03  0.55880243292E+03  0.12500051115E+03 0.  0.
          2    1    1    2  501    0 -0.29117478376E+02 -0.30836640268E+02 -0.41485904362E+01  0.42613809177E+02  0.00000000000E+00 0. -1.
          1    1    1    2  502    0  0.19980216371E+02  0.43436416330E+02  0.91413705184E+03  0.91538651992E+03  0.00000000000E+00 0. -1.
         22    1    3    3    0    0  0.33272927641E+02 -0.54984512419E+02  0.17992069407E+03  0.19105454843E+03  0.00000000000E+00 0. -1.
         22    1    3    3    0    0 -0.24135665636E+02  0.42384736357E+02  0.36449898534E+03  0.36774788449E+03  0.00000000000E+00 0. -1.
</event>
<event>
 7    1  0.6888820E-006  0.6166126E+02  0.7818608E-02  0.1467340E+00
          2   -1    0    0  502    0  0.00000000000E+00  0.00000000000E+00  0.78608501643E+03  0.78608501643E+03  0.00000000000E+00 0. -1.
          1   -1    0    0  501    0 -0.00000000000E+00 -0.00000000000E+00 -0.85385018588E+03  0.85385018588E+03  0.00000000000E+00 0. -1.
         25    2    1    2    0    0 -0.14776177182E+01 -0.94880047181E+02 -0.10682318019E+03  0.18985797746E+03  0.12502181039E+03 0.  0.
          2    1    1    2  501    0 -0.24293481677E+01  0.60574019043E+02 -0.70380558563E+03  0.70641164761E+03  0.00000000000E+00 0. -1.
          1    1    1    2  502    0  0.39069658859E+01  0.34306028138E+02  0.74286359637E+03  0.74366557723E+03  0.00000000000E+00 0. -1.
         22    1    3    3    0    0 -0.65837479608E+01  0.29394817166E+02 -0.35202301665E+02  0.46331447808E+02  0.00000000000E+00 0.  1.
         22    1    3    3    0    0  0.51061302427E+01 -0.12427486435E+03 -0.71620878523E+02  0.14352652966E+03  0.00000000000E+00 0.  1.
</event>
<event>
 7    1  0.6888820E-006  0.6758013E+02  0.7818608E-02  0.1369111E+00
          2   -1    0    0  502    0  0.00000000000E+00  0.00000000000E+00  0.13506424888E+04  0.13506424888E+04  0.00000000000E+00 0. -1.
          1   -1    0    0  501    0 -0.00000000000E+00 -0.00000000000E+00 -0.17352351860E+03  0.17352351860E+03  0.00000000000E+00 0. -1.
         25    2    1    2    0    0  0.66215354182E+01  0.48753177121E+01  0.16803039613E+03  0.20958820054E+03  0.12500154530E+03 0.  0.
          2    1    1    2  501    0  0.19276465859E+02 -0.67296204753E+02 -0.14368219386E+03  0.15982782656E+03  0.00000000000E+00 0. -1.
          1    1    1    2  502    0 -0.25898001277E+02  0.62420887041E+02  0.11527707680E+04  0.11547499803E+04  0.00000000000E+00 0. -1.
         22    1    3    3    0    0  0.35991907944E+02 -0.10879727401E+02  0.17196481794E+03  0.17602751068E+03  0.00000000000E+00 0.  1.
         22    1    3    3    0    0 -0.29370372526E+02  0.15755045113E+02 -0.39344218151E+01  0.33560689859E+02  0.00000000000E+00 0.  1.
</event>
<event>
 7    1  0.6888820E-006  0.8465517E+02  0.7818608E-02  0.1366141E+00
          2   -1    0    0  502    0  0.00000000000E+00  0.00000000000E+00  0.36310515891E+04  0.36310515891E+04  0.00000000000E+00 0. -1.
          1   -1    0    0  501    0 -0.00000000000E+00 -0.00000000000E+00 -0.20447740044E+02  0.20447740044E+02  0.00000000000E+00 0. -1.
         25    2    1    2    0    0  0.55429758337E+02 -0.53379151212E+02  0.84863747108E+03  0.86123859047E+03  0.12499824196E+03 0.  0.
          2    1    1    2  501    0 -0.43970606895E+02 -0.33083493676E+02  0.42841874870E+02  0.69737780772E+02  0.00000000000E+00 0. -1.
          1    1    1    2  502    0 -0.11459151442E+02  0.86462644888E+02  0.27191245031E+04  0.27205229579E+04  0.00000000000E+00 0. -1.
         22    1    3    3    0    0  0.26253637186E+02 -0.26678067792E+02  0.78771830475E+03  0.78860706337E+03  0.00000000000E+00 0.  1.
         22    1    3    3    0    0  0.29176121151E+02 -0.26701083420E+02  0.60919166335E+02  0.72631527095E+02  0.00000000000E+00 0.  1.
</event>
<event>
 7    1  0.6888820E-006  0.1079644E+03  0.7818608E-02  0.1283327E+00
          2   -1    0    0  502    0  0.00000000000E+00  0.00000000000E+00  0.91134156330E+03  0.91134156330E+03  0.00000000000E+00 0. -1.
          1   -1    0    0  501    0 -0.00000000000E+00 -0.00000000000E+00 -0.33971825461E+04  0.33971825461E+04  0.00000000000E+00 0. -1.
         25    2    1    2    0    0  0.65027222260E+02 -0.69507995670E+02 -0.40774133628E+03  0.43696506547E+03  0.12500228012E+03 0.  0.
          2    1    1    2  501    0 -0.81797905016E+02 -0.37531799078E+02 -0.29708727719E+04  0.29722356165E+04  0.00000000000E+00 0. -1.
          1    1    1    2  502    0  0.16770682757E+02  0.10703979475E+03  0.89277312545E+03  0.89932342735E+03  0.00000000000E+00 0. -1.
         22    1    3    3    0    0  0.86338061636E+02 -0.41571107723E+01 -0.26056594519E+03  0.27452896797E+03  0.00000000000E+00 0. -1.
         22    1    3    3    0    0 -0.21310839376E+02 -0.65350884898E+02 -0.14717539109E+03  0.16243609751E+03  0.00000000000E+00 0. -1.
</event>
<event>
 7    1  0.6888820E-006  0.1376977E+03  0.7818608E-02  0.1306962E+00
          2   -1    0    0  502    0  0.00000000000E+00  0.00000000000E+00  0.24663159750E+03  0.24663159750E+03  0.00000000000E+00 0. -1.
          1   -1    0    0  501    0 -0.00000000000E+00 -0.00000000000E+00 -0.23629879558E+04  0.23629879558E+04  0.00000000000E+00 0. -1.
         25    2    1    2    0    0  0.14825473554E+03 -0.75882744337E+02 -0.37645419677E+03  0.43021068715E+03  0.12500326225E+03 0.  0.
          2    1    1    2  501    0 -0.95514237610E+02  0.96574068357E+02 -0.19536063257E+04  0.19583225465E+04  0.00000000000E+00 0. -1.
          1    1    1    2  502    0 -0.52740497933E+02 -0.20691324020E+02  0.21370416410E+03  0.22108631972E+03  0.00000000000E+00 0. -1.
         22    1    3    3    0    0  0.11698507811E+03 -0.10516326580E+03 -0.33728721049E+03  0.37216593521E+03  0.00000000000E+00 0.  1.
         22    1    3    3    0    0  0.31269657437E+02  0.29280521460E+02 -0.39166986280E+02  0.58044751938E+02  0.00000000000E+00 0.  1.
</event>
<event>
 7    1  0.6888820E-006  0.3538394E+02  0.7818608E-02  0.1568295E+00
          2   -1    0    0  502    0  0.00000000000E+00  0.00000000000E+00  0.11562795625E+03  0.11562795625E+03  0.00000000000E+00 0. -1.
          1   -1    0    0  501    0 -0.00000000000E+00 -0.00000000000E+00 -0.88799194317E+03  0.88799194317E+03  0.00000000000E+00 0. -1.
         25    2    1    2    0    0 -0.76724456048E+01 -0.31444411038E+01 -0.71799850529E+02  0.14439181384E+03  0.12500009374E+03 0.  0.
          2    1    1    2  501    0 -0.27246845481E+02  0.13815762875E+02 -0.77537789074E+03  0.77597947095E+03  0.00000000000E+00 0. -1.
          1    1    1    2  502    0  0.34919291086E+02 -0.10671321771E+02  0.74813754352E+02  0.83248614635E+02  0.00000000000E+00 0. -1.
         22    1    3    3    0    0  0.25710766379E+02 -0.12966095164E+02  0.27104071061E+02  0.39544832781E+02  0.00000000000E+00 0.  1.
         22    1    3    3    0    0 -0.33383211983E+02  0.98216540601E+01 -0.98903921590E+02  0.10484698106E+03  0.00000000000E+00 0.  1.
</event>
<event>
 7    1  0.6888820E-006  0.2633143E+02  0.7818608E-02  0.1680915E+00
          2   -1    0    0  502    0  0.00000000000E+00  0.00000000000E+00  0.51365742504E+03  0.51365742504E+03  0.00000000000E+00 0. -1.
          1   -1    0    0  501    0 -0.00000000000E+00 -0.00000000000E+00 -0.68998698151E+02  0.68998698151E+02  0.00000000000E+00 0. -1.
         25    2    1    2    0    0  0.20115721323E+02  0.19285646019E+02  0.24594919403E+03  0.27729391848E+03  0.12499733115E+03 0.  0.
          2    1    1    2  501    0 -0.26397980286E+02  0.10384018946E+01 -0.49571370592E+02  0.56171633624E+02  0.00000000000E+00 0. -1.
          1    1    1    2  502    0  0.62822589633E+01 -0.20324047914E+02  0.24828090345E+03  0.24919057109E+03  0.00000000000E+00 0. -1.
         22    1    3    3    0    0 -0.30750312721E+02 -0.35362992133E+02  0.54934486148E+02  0.72207483777E+02  0.00000000000E+00 0. -1.
         22    1    3    3    0    0  0.50866034044E+02  0.54648638153E+02  0.19101470789E+03  0.20508643471E+03  0.00000000000E+00 0. -1.
</event>
<event>
 7    1  0.6888820E-006  0.5831482E+02  0.7818608E-02  0.1417403E+00
          2   -1    0    0  502    0  0.00000000000E+00  0.00000000000E+00  0.24693984491E+03  0.24693984491E+03  0.00000000000E+00 0. -1.
          1   -1    0    0  501    0 -0.00000000000E+00 -0.00000000000E+00 -0.17129666630E+03  0.17129666630E+03  0.00000000000E+00 0. -1.
         25    2    1    2    0    0 -0.16021225740E+02 -0.86173810930E+01 -0.66397018596E+02  0.14270428215E+03  0.12500003653E+03 0.  0.
          2    1    1    2  501    0  0.42559922021E+02  0.60543444229E+02 -0.40179010346E+02  0.84209313463E+02  0.00000000000E+00 0. -1.
          1    1    1    2  502    0 -0.26538696281E+02 -0.51926063136E+02  0.18221920755E+03  0.19132291560E+03  0.00000000000E+00 0. -1.
         22    1    3    3    0    0 -0.29170457841E+02 -0.31538655625E+02  0.23525030261E+02  0.48979888301E+02  0.00000000000E+00 0.  1.
         22    1    3    3    0    0  0.13149232101E+02  0.22921274532E+02 -0.89922048856E+02  0.93724393845E+02  0.00000000000E+00 0.  1.
</event>
<event>
 7    1  0.6888820E-006  0.5808617E+02  0.7818608E-02  0.1420644E+00
          2   -1    0    0  502    0  0.00000000000E+00  0.00000000000E+00  0.16882179635E+03  0.16882179635E+03  0.00000000000E+00 0. -1.
          1   -1    0    0  501    0 -0.00000000000E+00 -0.00000000000E+00 -0.17665956028E+04  0.17665956028E+04  0.00000000000E+00 0. -1.
         25    2    1    2    0    0 -0.23234202666E+02 -0.72621835964E+02 -0.45493660303E+03  0.47792043826E+03  0.12500749296E+03 0.  0.
          2    1    1    2  501    0  0.47853900507E+02  0.19987226272E+02 -0.12942646526E+04  0.12953032371E+04  0.00000000000E+00 0. -1.
          1    1    1    2  502    0 -0.24619697841E+02  0.52634609692E+02  0.15142744921E+03  0.16219372378E+03  0.00000000000E+00 0. -1.
         22    1    3    3    0    0  0.13160202922E+02  0.26392175923E+02 -0.19779282290E+03  0.19997934564E+03  0.00000000000E+00 0.  1.
         22    1    3    3    0    0 -0.36394405588E+02 -0.99014011887E+02 -0.25714378012E+03  0.27794109262E+03  0.00000000000E+00 0.  1.
</event>
<event>
 7    1  0.6888820E-006  0.1368770E+03  0.7818608E-02  0.1320635E+00
          2   -1    0    0  502    0  0.00000000000E+00  0.00000000000E+00  0.20695514716E+04  0.20695514716E+04  0.00000000000E+00 0. -1.
          1   -1    0    0  501    0 -0.00000000000E+00 -0.00000000000E+00 -0.74530810780E+03  0.74530810780E+03  0.00000000000E+00 0. -1.
         25    2    1    2    0    0  0.76648942657E+02 -0.54463863281E+02  0.15508295517E+03  0.22026588543E+03  0.12499985794E+03 0.  0.
          2    1    1    2  501    0  0.49996454392E+02 -0.62060000001E+01 -0.70920209024E+03  0.71098928592E+03  0.00000000000E+00 0. -1.
          1    1    1    2  502    0 -0.12664539705E+03  0.60669863281E+02  0.18783624989E+04  0.18836044080E+04  0.00000000000E+00 0. -1.
         22    1    3    3    0    0  0.38870384684E+02  0.35701925739E+02  0.84726390006E+02  0.99820315920E+02  0.00000000000E+00 0.  1.
         22    1    3    3    0    0  0.37778557973E+02 -0.90165789020E+02  0.70356565165E+02  0.12044556951E+03  0.00000000000E+00 0.  1.
</event>
<event>
 7    1  0.6888820E-006  0.9930506E+02  0.7818608E-02  0.1427327E+00
          2   -1    0    0  502    0  0.00000000000E+00  0.00000000000E+00  0.81235086117E+03  0.81235086117E+03  0.00000000000E+00 0. -1.
          1   -1    0    0  501    0 -0.00000000000E+00 -0.00000000000E+00 -0.81065274450E+03  0.81065274450E+03  0.00000000000E+00 0. -1.
         25    2    1    2    0    0  0.69511467612E+02 -0.41118729477E+02  0.61189395730E+02  0.16090855630E+03  0.12499930919E+03 0.  0.
          2    1    1    2  501    0  0.26664876791E+02  0.10943671197E+02 -0.75689545638E+03  0.75744406492E+03  0.00000000000E+00 0. -1.
          1    1    1    2  502    0 -0.96176344402E+02  0.30175058280E+02  0.69740417731E+03  0.70465098446E+03  0.00000000000E+00 0. -1.
         22    1    3    3    0    0  0.63193936970E+02 -0.98317868953E+01 -0.25254661780E+02  0.68759985783E+02  0.00000000000E+00 0. -1.
         22    1    3    3    0    0  0.63175306419E+01 -0.31286942582E+02  0.86444057510E+02  0.92148570517E+02  0.00000000000E+00 0. -1.
</event>
<event>
 7    1  0.6888820E-006  0.2926069E+02  0.7818608E-02  0.1619616E+00
          2   -1    0    0  502    0  0.00000000000E+00  0.00000000000E+00  0.10915508992E+04  0.10915508992E+04  0.00000000000E+00 0. -1.
          1   -1    0    0  501    0 -0.00000000000E+00 -0.00000000000E+00 -0.70814523573E+03  0.70814523573E+03  0.00000000000E+00 0. -1.
         25    2    1    2    0    0 -0.55072014748E+02 -0.99235962686E+01  0.38180872771E+02  0.14217918143E+03  0.12500294403E+03 0.  0.
          2    1    1    2  501    0  0.26975519610E+02  0.21476567064E+01 -0.65565474105E+03  0.65621294604E+03  0.00000000000E+00 0. -1.
          1    1    1    2  502    0  0.28096495138E+02  0.77759395622E+01  0.10008795317E+04  0.10013040074E+04  0.00000000000E+00 0. -1.
         22    1    3    3    0    0 -0.11141834336E+02 -0.34426672710E+02  0.72676083762E+02  0.81185894201E+02  0.00000000000E+00 0.  1.
         22    1    3    3    0    0 -0.43930180412E+02  0.24503076441E+02 -0.34495210991E+02  0.60993287232E+02  0.00000000000E+00 0.  1.
</event>
<event>
 7    1  0.6888820E-006  0.4501702E+02  0.7818608E-02  0.1520144E+00
          2   -1    0    0  502    0  0.00000000000E+00  0.00000000000E+00  0.28945158039E+04  0.28945158039E+04  0.00000000000E+00 0. -1.
          1   -1    0    0  501    0 -0.00000000000E+00 -0.00000000000E+00 -0.29771443390E+02  0.29771443390E+02  0.00000000000E+00 0. -1.
         25    2    1    2    0    0 -0.50655572335E+02  0.40541063307E+02  0.48015884033E+03  0.50038677987E+03  0.12499941077E+03 0.  0.
          2    1    1    2  501    0  0.32792035543E+02  0.49592364928E+00 -0.56218142552E+01  0.33274139070E+02  0.00000000000E+00 0. -1.
          1    1    1    2  502    0  0.17863536792E+02 -0.41036986957E+02  0.23902073345E+04  0.23906263284E+04  0.00000000000E+00 0. -1.
         22    1    3    3    0    0 -0.61849221723E+02  0.72841788895E+02  0.42405613468E+03  0.43468938081E+03  0.00000000000E+00 0.  1.
         22    1    3    3    0    0  0.11193649388E+02 -0.32300725588E+02  0.56102705657E+02  0.65697399052E+02  0.00000000000E+00 0.  1.
</event>
<event>
 7    1  0.6888820E-006  0.5752116E+02  0.7818608E-02  0.1517968E+00
          2   -1    0    0  502    0  0.00000000000E+00  0.00000000000E+00  0.20866207734E+04  0.20866207734E+04  0.00000000000E+00 0. -1.
          1   -1    0    0  501    0 -0.00000000000E+00 -0.00000000000E+00 -0.14017385386E+03  0.14017385386E+03  0.00000000000E+00 0. -1.
         25    2    1    2    0    0 -0.41876773252E+02 -0.70302314358E+02  0.21301017888E+02  0.15090694219E+03  0.12499236895E+03 0.  0.
          2    1    1    2  501    0  0.63454862658E+01  0.25258230217E+02 -0.72697057331E+02  0.77221146937E+02  0.00000000000E+00 0. -1.
          1    1    1    2  502    0  0.35531286986E+02  0.45044084140E+02  0.19978429590E+04  0.19986665381E+04  0.00000000000E+00 0. -1.
         22    1    3    3    0    0 -0.64913048853E+02 -0.92004072463E+02 -0.28283398581E+00  0.11259899314E+03  0.00000000000E+00 0.  1.
         22    1    3    3    0    0  0.23036275601E+02  0.21701758105E+02  0.21583851874E+02  0.38307949047E+02  0.00000000000E+00 0.  1.
</event>
<event>
 7    1  0.6888820E-006  0.5406268E+02  0.7818608E-02  0.1500491E+00
          2   -1    0    0  502    0  0.00000000000E+00  0.00000000000E+00  0.14919255792E+03  0.14919255792E+03  0.00000000000E+00 0. -1.
          1   -1    0    0  501    0 -0.00000000000E+00 -0.00000000000E+00 -0.29285024906E+03  0.29285024906E+03  0.00000000000E+00 0. -1.
         25    2    1    2    0    0 -0.65048949834E+02 -0.12100581124E+02 -0.21906886401E+03  0.26073588065E+03  0.12495696196E+03 0.  0.
          2    1    1    2  501    0  0.47471778629E+02 -0.13674306031E+02 -0.38859560552E+02  0.62853972491E+02  0.00000000000E+00 0. -1.
          1    1    1    2  502    0  0.17577171205E+02  0.25774887156E+02  0.11427073342E+03  0.11845295384E+03  0.00000000000E+00 0. -1.
         22    1    3    3    0    0 -0.63040071651E+02 -0.66703176221E+01 -0.27533827875E+02  0.69113352172E+02  0.00000000000E+00 0.  1.
         22    1    3    3    0    0 -0.20088781824E+01 -0.54302635023E+01 -0.19153503614E+03  0.19162252848E+03  0.00000000000E+00 0.  1.
</event>
<event>
 7    1  0.6888820E-006  0.2485965E+03  0.7818608E-02  0.1148683E+00
          2   -1    0    0  502    0  0.00000000000E+00  0.00000000000E+00  0.11006842719E+04  0.11006842719E+04  0.00000000000E+00 0. -1.
          1   -1    0    0  501    0 -0.00000000000E+00 -0.00000000000E+00 -0.99156021439E+03  0.99156021439E+03  0.00000000000E+00 0. -1.
         25    2    1    2    0    0 -0.12242548082E+03 -0.27348002244E+03  0.21829782616E+03  0.39122654645E+03  0.12499979487E+03 0.  0.
          2    1    1    2  501    0 -0.38058408804E+02  0.24533871050E+03 -0.87938584029E+03  0.91376089950E+03  0.00000000000E+00 0. -1.
          1    1    1    2  502    0  0.16048388962E+03  0.28141311940E+02  0.77021207166E+03  0.78725704036E+03  0.00000000000E+00 0. -1.
         22    1    3    3    0    0 -0.14311353614E+03 -0.19583201448E+03  0.18095991504E+03  0.30261882455E+03  0.00000000000E+00 0.  1.
         22    1    3    3    0    0  0.20688055328E+02 -0.77648007962E+02  0.37337911117E+02  0.88607721900E+02  0.00000000000E+00 0.  1.
</event>
<event>
 7    1  0.6888820E-006  0.1645429E+03  0.7818608E-02  0.1367452E+00
          2   -1    0    0  502    0  0.00000000000E+00  0.00000000000E+00  0.85995550856E+03  0.85995550856E+03  0.00000000000E+00 0. -1.
          1   -1    0    0  501    0 -0.00000000000E+00 -0.00000000000E+00 -0.11199160240E+03  0.11199160240E+03  0.00000000000E+00 0. -1.
         25    2    1    2    0    0  0.36985418682E+02  0.16803991792E+03  0.46406942846E+03  0.51048078375E+03  0.12499944375E+03 0.  0.
          2    1    1    2  501    0 -0.60098515389E+02 -0.15222893883E+03 -0.12138078651E+02  0.16411220041E+03  0.00000000000E+00 0. -1.
          1    1    1    2  502    0  0.23113096707E+02 -0.15810979086E+02  0.29603255636E+03  0.29735412680E+03  0.00000000000E+00 0. -1.
         22    1    3    3    0    0 -0.25259746545E+02  0.13185037613E+03  0.35743330349E+03  0.38181296852E+03  0.00000000000E+00 0.  1.
         22    1    3    3    0    0  0.62245165227E+02  0.36189541788E+02  0.10663612497E+03  0.12866781523E+03  0.00000000000E+00 0.  1.
</event>
<event>
 7    1  0.6888820E-006  0.1658090E+03  0.7818608E-02  0.1292176E+00
          2   -1    0    0  502    0  0.00000000000E+00  0.00000000000E+00  0.14541793757E+04  0.14541793757E+04  0.00000000000E+00 0. -1.
          1   -1    0    0  501    0 -0.00000000000E+00 -0.00000000000E+00 -0.11823704700E+03  0.11823704700E+03  0.00000000000E+00 0. -1.
         25    2    1    2    0    0 -0.14656746338E+03 -0.66740197991E+02  0.12764993800E+04  0.12926759371E+04  0.12499654378E+03 0.  0.
          2    1    1    2  501    0 -0.53902504005E+02  0.15200205511E+01 -0.15329206842E+02  0.56060458283E+02  0.00000000000E+00 0. -1.
          1    1    1    2  502    0  0.20046996739E+03  0.65220177440E+02  0.74772155576E+02  0.22368002732E+03  0.00000000000E+00 0. -1.
         22    1    3    3    0    0 -0.13987747344E+02 -0.63740161884E+02  0.58040086731E+03  0.58405790131E+03  0.00000000000E+00 0. -1.
         22    1    3    3    0    0 -0.13257971604E+03 -0.30000361073E+01  0.69609851270E+03  0.70861803583E+03  0.00000000000E+00 0. -1.
</event>
<event>
 7    1  0.6888820E-006  0.4265660E+02  0.7818608E-02  0.1570152E+00
          2   -1    0    0  502    0  0.00000000000E+00  0.00000000000E+00  0.40378397779E+03  0.40378397779E+03  0.00000000000E+00 0. -1.
          1   -1    0    0  501    0 -0.00000000000E+00 -0.00000000000E+00 -0.12554837828E+04  0.12554837828E+04  0.00000000000E+00 0. -1.
         25    2    1    2    0    0 -0.47627122607E+02  0.33913546960E+02 -0.93220627317E+03  0.94236535353E+03  0.12500180923E+03 0.  0.
          2    1    1    2  501    0  0.24951148602E+02  0.22001790886E+01 -0.31656165187E+03  0.31755106682E+03  0.00000000000E+00 0. -1.
          1    1    1    2  502    0  0.22675974004E+02 -0.36113726048E+02  0.39706812003E+03  0.39935134024E+03  0.00000000000E+00 0. -1.
         22    1    3    3    0    0 -0.85518133617E+01 -0.44914477346E+02 -0.43886992756E+03  0.44124512134E+03  0.00000000000E+00 0.  1.
         22    1    3    3    0    0 -0.39075309245E+02  0.78828024306E+02 -0.49333634561E+03  0.50112023219E+03  0.00000000000E+00 0.  1.
</event>
<event>
 7    1  0.6888820E-006  0.3100143E+02  0.7818608E-02  0.1605624E+00
          2   -1    0    0  502    0  0.00000000000E+00  0.00000000000E+00  0.25922187448E+03  0.25922187448E+03  0.00000000000E+00 0. -1.
          1   -1    0    0  501    0 -0.00000000000E+00 -0.00000000000E+00 -0.83162403468E+02  0.83162403468E+02  0.00000000000E+00 0. -1.
         25    2    1    2    0    0  0.53200146620E+01 -0.42073581675E+02  0.21830569524E+03  0.25511109389E+03  0.12500321924E+03 0.  0.
          2    1    1    2  501    0 -0.20445485998E+02  0.18758658475E+02 -0.51064563893E+02  0.58116218485E+02  0.00000000000E+00 0. -1.
          1    1    1    2  502    0  0.15125471336E+02  0.23314923200E+02  0.88183396620E+01  0.29156965572E+02  0.00000000000E+00 0. -1.
         22    1    3    3    0    0 -0.41679304049E+02 -0.50523242438E+02  0.18667753668E+03  0.19783393317E+03  0.00000000000E+00 0. -1.
         22    1    3    3    0    0  0.46999318711E+02  0.84496607633E+01  0.31628158565E+02  0.57277160724E+02  0.00000000000E+00 0. -1.
</event>
<event>
 7    1  0.6888820E-006  0.1037247E+03  0.7818608E-02  0.1414930E+00
          2   -1    0    0  502    0  0.00000000000E+00  0.00000000000E+00  0.92684479847E+02  0.92684479847E+02  0.00000000000E+00 0. -1.
          1   -1    0    0  501    0 -0.00000000000E+00 -0.00000000000E+00 -0.30173102850E+04  0.30173102850E+04  0.00000000000E+00 0. -1.
         25    2    1    2    0    0  0.10182034873E+03 -0.29423832754E+02 -0.15365167720E+04  0.15452317279E+04  0.12499662767E+03 0.  0.
          2    1    1    2  501    0 -0.14513902359E+02 -0.26655556220E+02 -0.14457459959E+04  0.14460645410E+04  0.00000000000E+00 0. -1.
          1    1    1    2  502    0 -0.87306446370E+02  0.56079388973E+02  0.57636962811E+02  0.11869849589E+03  0.00000000000E+00 0. -1.
         22    1    3    3    0    0 -0.95753562682E+01 -0.40014594798E+02 -0.20926874895E+03  0.21327509121E+03  0.00000000000E+00 0. -1.
         22    1    3    3    0    0  0.11139570500E+03  0.10590762044E+02 -0.13272480230E+04  0.13319566367E+04  0.00000000000E+00 0. -1.
</event>
<event>
 7    1  0.6888820E-006  0.8768106E+02  0.7818608E-02  0.1330119E+00
          2   -1    0    0  502    0  0.00000000000E+00  0.00000000000E+00  0.77828635266E+03  0.77828635266E+03  0.00000000000E+00 0. -1.
          1   -1    0    0  501    0 -0.00000000000E+00 -0.00000000000E+00 -0.27557528927E+03  0.27557528927E+03  0.00000000000E+00 0. -1.
         25    2    1    2    0    0  0.27676978733E+02 -0.93341403271E+01  0.31560193681E+02  0.13219398221E+03  0.12500424705E+03 0.  0.
          2    1    1    2  501    0 -0.60898090138E+02  0.73560108003E+02 -0.21314582069E+03  0.23356114350E+03  0.00000000000E+00 0. -1.
          1    1    1    2  502    0  0.33221111405E+02 -0.64225967676E+02  0.68429669041E+03  0.68810651622E+03  0.00000000000E+00 0. -1.
         22    1    3    3    0    0 -0.11608160424E+02 -0.15010239982E+02  0.72635875999E+02  0.75073478506E+02  0.00000000000E+00 0.  1.
         22    1    3    3    0    0  0.39285139157E+02  0.56760996546E+01 -0.41075682318E+02  0.57120503708E+02  0.00000000000E+00 0.  1.
</event>
<event>
 7    1  0.6888820E-006  0.1804044E+03  0.7818608E-02  0.1306301E+00
          2   -1    0    0  502    0  0.00000000000E+00  0.00000000000E+00  0.86151931595E+03  0.86151931595E+03  0.00000000000E+00 0. -1.
          1   -1    0    0  501    0 -0.00000000000E+00 -0.00000000000E+00 -0.94199679468E+03  0.94199679468E+03  0.00000000000E+00 0. -1.
         25    2    1    2    0    0  0.15577130428E+03 -0.15481462195E+03  0.31127248252E+03  0.40093310084E+03  0.12499810625E+03 0.  0.
          2    1    1    2  501    0 -0.13743200351E+03  0.11536517534E+03 -0.88723208658E+03  0.90519470543E+03  0.00000000000E+00 0. -1.
          1    1    1    2  502    0 -0.18339300769E+02  0.39449446616E+02  0.49548212534E+03  0.49738830437E+03  0.00000000000E+00 0. -1.
         22    1    3    3    0    0  0.38686897247E+02 -0.11743601144E+03  0.11212706727E+03  0.16691426546E+03  0.00000000000E+00 0.  1.
         22    1    3    3    0    0  0.11708440703E+03 -0.37378610515E+02  0.19914541525E+03  0.23401883537E+03  0.00000000000E+00 0.  1.
</event>
<event>
 7    1  0.6888820E-006  0.1402063E+03  0.7818608E-02  0.1264221E+00
          2   -1    0    0  502    0  0.00000000000E+00  0.00000000000E+00  0.47207623697E+03  0.47207623697E+03  0.00000000000E+00 0. -1.
          1   -1    0    0  501    0 -0.00000000000E+00 -0.00000000000E+00 -0.14384394275E+04  0.14384394275E+04  0.00000000000E+00 0. -1.
         25    2    1    2    0    0  0.40312687247E+02  0.95534017693E+02 -0.20662802804E+01  0.16242710054E+03  0.12500572861E+03 0.  0.
          2    1    1    2  501    0 -0.65528786649E+02  0.51381444820E+02 -0.13406794011E+04  0.13432629420E+04  0.00000000000E+00 0. -1.
          1    1    1    2  502    0  0.25216099402E+02 -0.14691546251E+03  0.37638249084E+03  0.40482562197E+03  0.00000000000E+00 0. -1.
         22    1    3    3    0    0 -0.36887991601E+02  0.72720636623E+02 -0.65299787387E+01  0.81802539921E+02  0.00000000000E+00 0.  1.
         22    1    3    3    0    0  0.77200678848E+02  0.22813381070E+02  0.44636984583E+01  0.80624560615E+02  0.00000000000E+00 0.  1.
</event>
<event>
 7    1  0.6888820E-006  0.7633427E+02  0.7818608E-02  0.1362705E+00
          2   -1    0    0  502    0  0.00000000000E+00  0.00000000000E+00  0.20991179082E+04  0.20991179082E+04  0.00000000000E+00 0. -1.
          1   -1    0    0  501    0 -0.00000000000E+00 -0.00000000000E+00 -0.14359023653E+03  0.14359023653E+03  0.00000000000E+00 0. -1.
         25    2    1    2    0    0 -0.52446669488E+02 -0.62829235054E+01  0.17928304477E+03  0.22485263744E+03  0.12500468053E+03 0.  0.
          2    1    1    2  501    0  0.40551157649E+02  0.67946460264E+02 -0.10726870763E+03  0.13329551187E+03  0.00000000000E+00 0. -1.
          1    1    1    2  502    0  0.11895511839E+02 -0.61663536758E+02  0.18835133345E+04  0.18845599954E+04  0.00000000000E+00 0. -1.
         22    1    3    3    0    0 -0.67214781517E+02 -0.34327823448E+02  0.47194047530E+02  0.89014068772E+02  0.00000000000E+00 0.  1.
         22    1    3    3    0    0  0.14768112029E+02  0.28044899943E+02  0.13208899724E+03  0.13583856867E+03  0.00000000000E+00 0.  1.
</event>
<event>
 7    1  0.6888820E-006  0.9085035E+02  0.7818608E-02  0.1328181E+00
          2   -1    0    0  502    0  0.00000000000E+00  0.00000000000E+00  0.43810987008E+03  0.43810987008E+03  0.00000000000E+00 0. -1.
          1   -1    0    0  501    0 -0.00000000000E+00 -0.00000000000E+00 -0.41229902140E+03  0.41229902140E+03  0.00000000000E+00 0. -1.
         25    2    1    2    0    0 -0.28061852632E+02  0.71688273389E+01 -0.15732278995E+02  0.12927092115E+03  0.12499842717E+03 0.  0.
          2    1    1    2  501    0 -0.46924686393E+02  0.53266806830E+02 -0.32987998804E+03  0.33743160109E+03  0.00000000000E+00 0. -1.
          1    1    1    2  502    0  0.74986539025E+02 -0.60435634169E+02  0.37142311571E+03  0.38370636924E+03  0.00000000000E+00 0. -1.
         22    1    3    3    0    0 -0.38763174959E+02  0.24014718155E+02  0.45772194830E+02  0.64609474851E+02  0.00000000000E+00 0. -1.
         22    1    3    3    0    0  0.10701322327E+02 -0.16845890816E+02 -0.61504473824E+02  0.64661446298E+02  0.00000000000E+00 0. -1.
</event>
<event>
 7    1  0.6888820E-006  0.8828630E+02  0.7818608E-02  0.1376352E+00
          2   -1    0    0  502    0  0.00000000000E+00  0.00000000000E+00  0.87865207462E+02  0.87865207462E+02  0.00000000000E+00 0. -1.
          1   -1    0    0  501    0 -0.00000000000E+00 -0.00000000000E+00 -0.11316286475E+04  0.11316286475E+04  0.00000000000E+00 0. -1.
         25    2    1    2    0    0 -0.80434580605E+01  0.50998349434E+02 -0.69464640713E+02  0.15204250480E+03  0.12500423231E+03 0.  0.
          2    1    1    2  501    0 -0.24547527529E+02 -0.86908567475E+02 -0.10056554887E+04  0.10097022543E+04  0.00000000000E+00 0. -1.
          1    1    1    2  502    0  0.32590985589E+02  0.35910218040E+02  0.31356689448E+02  0.57749095876E+02  0.00000000000E+00 0. -1.
         22    1    3    3    0    0 -0.83328696829E+01 -0.37099520378E+02 -0.48239081032E+02  0.61423286043E+02  0.00000000000E+00 0. -1.
         22    1    3    3    0    0  0.28941162241E+00  0.88097869813E+02 -0.21225559681E+02  0.90619218759E+02  0.00000000000E+00 0. -1.
</event>
<event>
 7    1  0.6888820E-006  0.5901839E+02  0.7818608E-02  0.1423995E+00
          2   -1    0    0  502    0  0.00000000000E+00  0.00000000000E+00  0.24483531371E+04  0.24483531371E+04  0.00000000000E+00 0. -1.
          1   -1    0    0  501    0 -0.00000000000E+00 -0.00000000000E+00 -0.56182413167E+02  0.56182413167E+02  0.00000000000E+00 0. -1.
         25    2    1    2    0    0  0.17864318719E+01  0.13025842765E+02  0.14901928506E+04  0.14954842994E+04  0.12500277488E+03 0.  0.
          2    1    1    2  501    0 -0.39006081983E+02  0.44291039800E+02 -0.35640845146E+02  0.68945199114E+02  0.00000000000E+00 0. -1.
          1    1    1    2  502    0  0.37219650111E+02 -0.57316882564E+02  0.93761871847E+03  0.94010605179E+03  0.00000000000E+00 0. -1.
         22    1    3    3    0    0 -0.54281988237E+02 -0.13710641555E+02  0.45537394323E+03  0.45880272897E+03  0.00000000000E+00 0.  1.
         22    1    3    3    0    0  0.56068420109E+02  0.26736484320E+02  0.10348189074E+04  0.10366815704E+04  0.00000000000E+00 0.  1.
</event>
<event>
 7    1  0.6888820E-006  0.8375049E+02  0.7818608E-02  0.1378223E+00
          2   -1    0    0  502    0  0.00000000000E+00  0.00000000000E+00  0.10851728603E+03  0.10851728603E+03  0.00000000000E+00 0. -1.
          1   -1    0    0  501    0 -0.00000000000E+00 -0.00000000000E+00 -0.53895149781E+03  0.53895149781E+03  0.00000000000E+00 0. -1.
         25    2    1    2    0    0 -0.41663468845E+02  0.11880559761E+03 -0.51531488804E+02  0.18474824464E+03  0.12500321956E+03 0.  0.
          2    1    1    2  501    0  0.85316869519E+01 -0.80900778580E+02 -0.39996092249E+03  0.40815005228E+03  0.00000000000E+00 0. -1.
          1    1    1    2  502    0  0.33131781893E+02 -0.37904819029E+02  0.21058199511E+02  0.54570486930E+02  0.00000000000E+00 0. -1.
         22    1    3    3    0    0 -0.79156500808E+02  0.36896273338E+02 -0.25223335815E+02  0.90902713249E+02  0.00000000000E+00 0. -1.
         22    1    3    3    0    0  0.37493031963E+02  0.81909324271E+02 -0.26308152990E+02  0.93845531391E+02  0.00000000000E+00 0. -1.
</event>
<event>
 7    1  0.6888820E-006  0.5714115E+02  0.7818608E-02  0.1472528E+00
          2   -1    0    0  502    0  0.00000000000E+00  0.00000000000E+00  0.24809749404E+03  0.24809749404E+03  0.00000000000E+00 0. -1.
          1   -1    0    0  501    0 -0.00000000000E+00 -0.00000000000E+00 -0.56294407393E+02  0.56294407393E+02  0.00000000000E+00 0. -1.
         25    2    1    2    0    0  0.74056164177E+01  0.32678694318E+02  0.11155236068E+03  0.17085613672E+03  0.12500060026E+03 0.  0.
          2    1    1    2  501    0  0.84950550966E+01  0.34880156462E+02  0.17366228364E+02  0.39879533141E+02  0.00000000000E+00 0. -1.
          1    1    1    2  502    0 -0.15900671514E+02 -0.67558850780E+02  0.62884497594E+02  0.93656231565E+02  0.00000000000E+00 0. -1.
         22    1    3    3    0    0 -0.43466949882E+02  0.56592497864E+02  0.47947987902E+02  0.85971484170E+02  0.00000000000E+00 0.  1.
         22    1    3    3    0    0  0.50872566300E+02 -0.23913803546E+02  0.63604372782E+02  0.84884652552E+02  0.00000000000E+00 0.  1.
</event>
<event>
 7    1  0.6888820E-006  0.2686635E+02  0.7818608E-02  0.1643006E+00
          2   -1    0    0  502    0  0.00000000000E+00  0.00000000000E+00  0.88173064831E+03  0.88173064831E+03  0.00000000000E+00 0. -1.
          1   -1    0    0  501    0 -0.00000000000E+00 -0.00000000000E+00 -0.25635215888E+02  0.25635215888E+02  0.00000000000E+00 0. -1.
         25    2    1    2    0    0  0.15316801839E+02 -0.18422856041E+02  0.33914070696E+03  0.36223619947E+03  0.12499855617E+03 0.  0.
          2    1    1    2  501    0 -0.24708133388E+02 -0.72329535035E+01 -0.16574620369E+01  0.25798345922E+02  0.00000000000E+00 0. -1.
          1    1    1    2  502    0  0.93913315495E+01  0.25655809545E+02  0.51861218750E+03  0.51933131880E+03  0.00000000000E+00 0. -1.
         22    1    3    3    0    0 -0.27698392664E+02 -0.41813866673E+02  0.28441511729E+03  0.28880366921E+03  0.00000000000E+00 0. -1.
         22    1    3    3    0    0  0.43015194502E+02  0.23391010632E+02  0.54725589670E+02  0.73432530265E+02  0.00000000000E+00 0. -1.
</event>
<event>
 7    1  0.6888820E-006  0.2110649E+03  0.7818608E-02  0.1226051E+00
          2   -1    0    0  502    0  0.00000000000E+00  0.00000000000E+00  0.12245670630E+03  0.12245670630E+03  0.00000000000E+00 0. -1.
          1   -1    0    0  501    0 -0.00000000000E+00 -0.00000000000E+00 -0.77312735248E+03  0.77312735248E+03  0.00000000000E+00 0. -1.
         25    2    1    2    0    0 -0.18071035810E+03  0.65314628875E+02 -0.26814656396E+03  0.35277364311E+03  0.12499771694E+03 0.  0.
          2    1    1    2  501    0  0.17726126258E+03 -0.14648745207E+03 -0.39842347474E+03  0.46002325381E+03  0.00000000000E+00 0. -1.
          1    1    1    2  502    0  0.34490955151E+01  0.81172823194E+02  0.15899392520E+02  0.82787161853E+02  0.00000000000E+00 0. -1.
         22    1    3    3    0    0 -0.56413333202E+02 -0.22778304380E+02 -0.14373422229E+03  0.15607960140E+03  0.00000000000E+00 0. -1.
         22    1    3    3    0    0 -0.12429702490E+03  0.88092933255E+02 -0.12441234167E+03  0.19669404172E+03  0.00000000000E+00 0. -1.
</event>
<event>
 7    1  0.6888820E-006  0.8149741E+02  0.7818608E-02  0.1426191E+00
          2   -1    0    0  502    0  0.00000000000E+00  0.00000000000E+00  0.10275946440E+04  0.10275946440E+04  0.00000000000E+00 0. -1.
          1   -1    0    0  501    0 -0.00000000000E+00 -0.00000000000E+00 -0.52531466027E+03  0.52531466027E+03  0.00000000000E+00 0. -1.
         25    2    1    2    0    0  0.34973019868E+02  0.62350337421E+02  0.12174371656E+03  0.18856533667E+03  0.12499870789E+03 0.  0.
          2    1    1    2  501    0 -0.52959283102E+01 -0.81697014896E+02 -0.48813392549E+03  0.49495169290E+03  0.00000000000E+00 0. -1.
          1    1    1    2  502    0 -0.29677091558E+02  0.19346677475E+02  0.86867019269E+03  0.86939227473E+03  0.00000000000E+00 0. -1.
         22    1    3    3    0    0 -0.45852683822E+01  0.81360687923E+02  0.29950701364E+02  0.86819529702E+02  0.00000000000E+00 0. -1.
         22    1    3    3    0    0  0.39558288250E+02 -0.19010350503E+02  0.91793015197E+02  0.10174580696E+03  0.00000000000E+00 0. -1.
</event>
<event>
 7    1  0.6888820E-006  0.6309708E+02  0.7818608E-02  0.1451219E+00
          2   -1    0    0  502    0  0.00000000000E+00  0.00000000000E+00  0.81792929331E+03  0.81792929331E+03  0.00000000000E+00 0. -1.
          1   -1    0    0  501    0 -0.00000000000E+00 -0.00000000000E+00 -0.39513851992E+03  0.39513851992E+03  0.00000000000E+00 0. -1.
         25    2    1    2    0    0 -0.95773698232E+02 -0.10504891835E+02  0.39852779026E+03  0.42864191006E+03  0.12500613355E+03 0.  0.
          2    1    1    2  501    0  0.37797477028E+02  0.32660379230E+01 -0.37701386072E+03  0.37891789012E+03  0.00000000000E+00 0. -1.
          1    1    1    2  502    0  0.57976221203E+02  0.72388539118E+01  0.40127684385E+03  0.40550801304E+03  0.00000000000E+00 0. -1.
         22    1    3    3    0    0 -0.38479113753E+02  0.48410891321E+02  0.26275935123E+03  0.26993838788E+03  0.00000000000E+00 0.  1.
         22    1    3    3    0    0 -0.57294584479E+02 -0.58915783156E+02  0.13576843904E+03  0.15870352218E+03  0.00000000000E+00 0.  1.
</event>
<event>
 7    1  0.7425533E-006  0.9412126E+02  0.7818608E-02  0.1446988E+00
          2   -1    0    0  502    0  0.00000000000E+00  0.00000000000E+00  0.18407545710E+04  0.18407545710E+04  0.00000000000E+00 0. -1.
          1   -1    0    0  501    0 -0.00000000000E+00 -0.00000000000E+00 -0.14081523686E+04  0.14081523686E+04  0.00000000000E+00 0. -1.
         25    2    1    2    0    0  0.74152171822E+02  0.48548637562E+02 -0.18845715671E+03  0.24289275328E+03  0.12500109953E+03 0.  0.
          2    1    1    2  501    0 -0.12807023193E+02  0.22901714745E+02 -0.11911102984E+04  0.11913992829E+04  0.00000000000E+00 0. -1.
          1    1    1    2  502    0 -0.61345148629E+02 -0.71450352307E+02  0.18121696575E+04  0.18146149034E+04  0.00000000000E+00 0. -1.
         22    1    3    3    0    0 -0.13482758050E+00 -0.80024161762E+00 -0.14261308257E+03  0.14261539147E+03  0.00000000000E+00 0.  1.
         22    1    3    3    0    0  0.74286999402E+02  0.49348879180E+02 -0.45844074142E+02  0.10027736180E+03  0.00000000000E+00 0.  1.
</event>
<event>
 7    1  0.6888820E-006  0.9974244E+02  0.7818608E-02  0.1297069E+00
          2   -1    0    0  502    0  0.00000000000E+00  0.00000000000E+00  0.41043835601E+03  0.41043835601E+03  0.00000000000E+00 0. -1.
          1   -1    0    0  501    0 -0.00000000000E+00 -0.00000000000E+00 -0.27476347417E+04  0.27476347417E+04  0.00000000000E+00 0. -1.
         25    2    1    2    0    0  0.17835724850E+03  0.27337848007E+02 -0.15062433870E+03  0.26621496020E+03  0.12499619034E+03 0.  0.
          2    1    1    2  501    0 -0.98399286196E+02  0.33797164241E+01 -0.25330432450E+04  0.25349560002E+04  0.00000000000E+00 0. -1.
          1    1    1    2  502    0 -0.79957962305E+02 -0.30717564431E+02  0.34647119804E+03  0.35690213725E+03  0.00000000000E+00 0. -1.
         22    1    3    3    0    0  0.16343235038E+03 -0.15850964981E+02 -0.81398786198E+02  0.18326796947E+03  0.00000000000E+00 0.  1.
         22    1    3    3    0    0  0.14924898123E+02  0.43188812989E+02 -0.69225552503E+02  0.82946990727E+02  0.00000000000E+00 0.  1.
</event>
<event>
 7    1  0.6888820E-006  0.7351429E+02  0.7818608E-02  0.1433785E+00
          2   -1    0    0  502    0  0.00000000000E+00  0.00000000000E+00  0.19373664891E+03  0.19373664891E+03  0.00000000000E+00 0. -1.
          1   -1    0    0  501    0 -0.00000000000E+00 -0.00000000000E+00 -0.14055926839E+04  0.14055926839E+04  0.00000000000E+00 0. -1.
         25    2    1    2    0    0 -0.13712113863E+02 -0.38125063491E+02 -0.10751707130E+04  0.10831700355E+04  0.12499488481E+03 0.  0.
          2    1    1    2  501    0 -0.30754593104E+02 -0.20707846899E+02 -0.31813885287E+03  0.32029203803E+03  0.00000000000E+00 0. -1.
          1    1    1    2  502    0  0.44466706967E+02  0.58832910390E+02  0.18145353089E+03  0.19586725925E+03  0.00000000000E+00 0. -1.
         22    1    3    3    0    0  0.37951432141E+01 -0.44109833248E+02 -0.12141683479E+03  0.12923671410E+03  0.00000000000E+00 0.  1.
         22    1    3    3    0    0 -0.17507257077E+02  0.59847697566E+01 -0.95375387819E+03  0.95393332140E+03  0.00000000000E+00 0.  1.
</event>
<event>
 7    1  0.6888820E-006  0.1805440E+03  0.7818608E-02  0.1227830E+00
          2   -1    0    0  502    0  0.00000000000E+00  0.00000000000E+00  0.17770299343E+04  0.17770299343E+04  0.00000000000E+00 0. -1.
          1   -1    0    0  501    0 -0.00000000000E+00 -0.00000000000E+00 -0.79604414743E+03  0.79604414743E+03  0.00000000000E+00 0. -1.
         25    2    1    2    0    0 -0.20505800552E+03 -0.90751189035E+02  0.80429264137E+03  0.84427216074E+03  0.12499705798E+03 0.  0.
          2    1    1    2  501    0  0.18022061740E+03  0.87677233319E+00 -0.76325314558E+03  0.78424205695E+03  0.00000000000E+00 0. -1.
          1    1    1    2  502    0  0.24837388125E+02  0.89874416702E+02  0.93994629106E+03  0.94455986401E+03  0.00000000000E+00 0. -1.
         22    1    3    3    0    0 -0.16274035482E+03 -0.93032097801E+02  0.76077296326E+03  0.78352721454E+03  0.00000000000E+00 0.  1.
         22    1    3    3    0    0 -0.42317650702E+02  0.22809087659E+01  0.43519678113E+02  0.60744946199E+02  0.00000000000E+00 0.  1.
</event>
<event>
 7    1  0.6888820E-006  0.6870216E+02  0.7818608E-02  0.1453240E+00
          2   -1    0    0  502    0  0.00000000000E+00  0.00000000000E+00  0.43053156098E+03  0.43053156098E+03  0.00000000000E+00 0. -1.
          1   -1    0    0  501    0 -0.00000000000E+00 -0.00000000000E+00 -0.12494833948E+04  0.12494833948E+04  0.00000000000E+00 0. -1.
         25    2    1    2    0    0  0.80793211802E+02  0.49382038389E+02  0.22193086140E+03  0.27174193395E+03  0.12499697051E+03 0.  0.
          2    1    1    2  501    0 -0.21812052292E+02 -0.26509861610E+02 -0.12188826005E+04  0.12193659549E+04  0.00000000000E+00 0. -1.
          1    1    1    2  502    0 -0.58981159510E+02 -0.22872176779E+02  0.17799990525E+03  0.18890706688E+03  0.00000000000E+00 0. -1.
         22    1    3    3    0    0  0.20570493527E+02 -0.18497621185E+01  0.18199345267E+03  0.18316163255E+03  0.00000000000E+00 0.  1.
         22    1    3    3    0    0  0.60222718276E+02  0.51231800507E+02  0.39937408728E+02  0.88580301397E+02  0.00000000000E+00 0.  1.
</event>
<event>
 7    1  0.6888820E-006  0.1106574E+03  0.7818608E-02  0.1300561E+00
          2   -1    0    0  502    0  0.00000000000E+00  0.00000000000E+00  0.18535326787E+03  0.18535326787E+03  0.00000000000E+00 0. -1.
          1   -1    0    0  501    0 -0.00000000000E+00 -0.00000000000E+00 -0.19035130069E+04  0.19035130069E+04  0.00000000000E+00 0. -1.
         25    2    1    2    0    0 -0.50900845693E+02  0.31993660185E+01 -0.84450717689E+02  0.15924691696E+03  0.12500609908E+03 0.  0.
          2    1    1    2  501    0  0.94101880055E+02 -0.64209539414E+02 -0.17702719790E+04  0.17739337385E+04  0.00000000000E+00 0. -1.
          1    1    1    2  502    0 -0.43201034362E+02  0.61010173396E+02  0.13656295773E+03  0.15568561929E+03  0.00000000000E+00 0. -1.
         22    1    3    3    0    0 -0.59826200862E+01  0.12075495553E+02  0.31673910512E+02  0.34421591234E+02  0.00000000000E+00 0.  1.
         22    1    3    3    0    0 -0.44918225607E+02 -0.88761295342E+01 -0.11612462820E+03  0.12482532572E+03  0.00000000000E+00 0.  1.
</event>
<event>
 7    1  0.6888820E-006  0.1363740E+03  0.7818608E-02  0.1277765E+00
          2   -1    0    0  502    0  0.00000000000E+00  0.00000000000E+00  0.48387360050E+03  0.48387360050E+03  0.00000000000E+00 0. -1.
          1   -1    0    0  501    0 -0.00000000000E+00 -0.00000000000E+00 -0.53850924270E+03  0.53850924270E+03  0.00000000000E+00 0. -1.
         25    2    1    2    0    0 -0.27791442692E+01  0.86995382696E+02  0.10549853287E+03  0.18528991036E+03  0.12500596062E+03 0.  0.
          2    1    1    2  501    0 -0.61184911602E+02 -0.12638156700E+03 -0.48434815723E+03  0.50429062186E+03  0.00000000000E+00 0. -1.
          1    1    1    2  502    0  0.63964055871E+02  0.39386184309E+02  0.32421398217E+03  0.33280231097E+03  0.00000000000E+00 0. -1.
         22    1    3    3    0    0 -0.34589491332E+01  0.10463208395E+03  0.31660833055E+02  0.10937205160E+03  0.00000000000E+00 0. -1.
         22    1    3    3    0    0  0.67980486406E+00 -0.17636701252E+02  0.73837699815E+02  0.75917858767E+02  0.00000000000E+00 0. -1.
</event>
<event>
 7    1  0.6888820E-006  0.1591462E+03  0.7818608E-02  0.1302946E+00
          2   -1    0    0  502    0  0.00000000000E+00  0.00000000000E+00  0.93169606126E+03  0.93169606126E+03  0.00000000000E+00 0. -1.
          1   -1    0    0  501    0 -0.00000000000E+00 -0.00000000000E+00 -0.17884075854E+04  0.17884075854E+04  0.00000000000E+00 0. -1.
         25    2    1    2    0    0 -0.91061689297E+02 -0.81320648020E+02 -0.12899574203E+03  0.21718868139E+03  0.12500297121E+03 0.  0.
          2    1    1    2  501    0  0.14189462425E+03  0.79901161595E+02 -0.16104775635E+04  0.16186896745E+04  0.00000000000E+00 0. -1.
          1    1    1    2  502    0 -0.50832934953E+02  0.14194864255E+01  0.88276178134E+03  0.88422529076E+03  0.00000000000E+00 0. -1.
         22    1    3    3    0    0 -0.10396814352E+03 -0.55099415210E+02 -0.41222970402E+02  0.12467820063E+03  0.00000000000E+00 0.  1.
         22    1    3    3    0    0  0.12906454227E+02 -0.26221232811E+02 -0.87772771627E+02  0.92510480757E+02  0.00000000000E+00 0.  1.
</event>
<event>
 7    1  0.6888820E-006  0.1668442E+03  0.7818608E-02  0.1265241E+00
          2   -1    0    0  502    0  0.00000000000E+00  0.00000000000E+00  0.13029545691E+03  0.13029545691E+03  0.00000000000E+00 0. -1.
          1   -1    0    0  501    0 -0.00000000000E+00 -0.00000000000E+00 -0.26347828764E+04  0.26347828764E+04  0.00000000000E+00 0. -1.
         25    2    1    2    0    0  0.84216997581E+02 -0.16116032692E+03 -0.24798680112E+03  0.33194519173E+03  0.12500001252E+03 0.  0.
          2    1    1    2  501    0 -0.69178104046E+02 -0.38266967525E+01 -0.22661239762E+04  0.22671828619E+04  0.00000000000E+00 0. -1.
          1    1    1    2  502    0 -0.15038893535E+02  0.16498702367E+03  0.96233578922E+01  0.16595027965E+03  0.00000000000E+00 0. -1.
         22    1    3    3    0    0  0.77336584752E+02 -0.18157647846E+03 -0.23462400337E+03  0.30659319599E+03  0.00000000000E+00 0.  1.
         22    1    3    3    0    0  0.68804128281E+01  0.20416151539E+02 -0.13362797751E+02  0.25351995741E+02  0.00000000000E+00 0.  1.
</event>
<event>
 7    1  0.6888820E-006  0.1578608E+03  0.7818608E-02  0.1258696E+00
          2   -1    0    0  502    0  0.00000000000E+00  0.00000000000E+00  0.27792423700E+04  0.27792423700E+04  0.00000000000E+00 0. -1.
          1   -1    0    0  501    0 -0.00000000000E+00 -0.00000000000E+00 -0.15523429161E+03  0.15523429161E+03  0.00000000000E+00 0. -1.
         25    2    1    2    0    0  0.40490801561E+02 -0.19917414134E+03  0.60647650242E+02  0.24619805355E+03  0.12500200200E+03 0.  0.
          2    1    1    2  501    0  0.67438862080E+01  0.13700767705E+03  0.14181888775E+02  0.13790471182E+03  0.00000000000E+00 0. -1.
          1    1    1    2  502    0 -0.47234687769E+02  0.62166464291E+02  0.25491785394E+04  0.25503738962E+04  0.00000000000E+00 0. -1.
         22    1    3    3    0    0 -0.16444730641E+02  0.35274990390E+01 -0.14938765092E+02  0.22495313241E+02  0.00000000000E+00 0.  1.
         22    1    3    3    0    0  0.56935532202E+02 -0.20270164038E+03  0.75586415334E+02  0.22370274031E+03  0.00000000000E+00 0.  1.
</event>
<event>
 7    1  0.6888820E-006  0.1052975E+03  0.7818608E-02  0.1455224E+00
          2   -1    0    0  502    0  0.00000000000E+00  0.00000000000E+00  0.86824675110E+02  0.86824675110E+02  0.00000000000E+00 0. -1.
          1   -1    0    0  501    0 -0.00000000000E+00 -0.00000000000E+00 -0.87763445969E+03  0.87763445969E+03  0.00000000000E+00 0. -1.
         25    2    1    2    0    0 -0.63427364721E+02 -0.74996944468E+02 -0.12637525184E+03  0.20308585526E+03  0.12500235220E+03 0.  0.
          2    1    1    2  501    0  0.50944499188E+02  0.93204482365E+02 -0.70619416080E+03  0.71413766900E+03  0.00000000000E+00 0. -1.
          1    1    1    2  502    0  0.12482865533E+02 -0.18207537897E+02  0.41759628056E+02  0.47235610545E+02  0.00000000000E+00 0. -1.
         22    1    3    3    0    0 -0.26273186065E+02  0.17210158654E+02 -0.93097318885E+02  0.98252636863E+02  0.00000000000E+00 0. -1.
         22    1    3    3    0    0 -0.37154178656E+02 -0.92207103123E+02 -0.33277932951E+02  0.10483321840E+03  0.00000000000E+00 0. -1.
</event>
<event>
 7    1  0.6888820E-006  0.5082694E+02  0.7818608E-02  0.1455004E+00
          2   -1    0    0  502    0  0.00000000000E+00  0.00000000000E+00  0.33035761069E+03  0.33035761069E+03  0.00000000000E+00 0. -1.
          1   -1    0    0  501    0 -0.00000000000E+00 -0.00000000000E+00 -0.20165011011E+04  0.20165011011E+04  0.00000000000E+00 0. -1.
         25    2    1    2    0    0  0.24745165647E+02  0.30159057546E+02 -0.68683209666E+03  0.69920317552E+03  0.12499943872E+03 0.  0.
          2    1    1    2  501    0  0.25562030127E+02 -0.38012293870E+02 -0.13210847301E+04  0.13218786691E+04  0.00000000000E+00 0. -1.
          1    1    1    2  502    0 -0.50307195775E+02  0.78532363240E+01  0.32177333627E+03  0.32577686720E+03  0.00000000000E+00 0. -1.
         22    1    3    3    0    0 -0.82947794615E+01  0.50243352939E+02 -0.11155739062E+03  0.12263053977E+03  0.00000000000E+00 0. -1.
         22    1    3    3    0    0  0.33039945109E+02 -0.20084295393E+02 -0.57527470603E+03  0.57657263575E+03  0.00000000000E+00 0. -1.
</event>
<event>
 7    1  0.6888820E-006  0.1098811E+03  0.7818608E-02  0.1346359E+00
          2   -1    0    0  502    0  0.00000000000E+00  0.00000000000E+00  0.62432712143E+02  0.62432712143E+02  0.00000000000E+00 0. -1.
          1   -1    0    0  501    0 -0.00000000000E+00 -0.00000000000E+00 -0.65689150781E+03  0.65689150781E+03  0.00000000000E+00 0. -1.
         25    2    1    2    0    0  0.29427630452E+02  0.66260222234E+02 -0.31955335403E+03  0.35070833018E+03  0.12500233719E+03 0.  0.
          2    1    1    2  501    0  0.39399968636E+02  0.30959594997E+02 -0.23901217908E+03  0.24420826317E+03  0.00000000000E+00 0. -1.
          1    1    1    2  502    0 -0.68827599088E+02 -0.97219817231E+02 -0.35893262550E+02  0.12440762660E+03  0.00000000000E+00 0. -1.
         22    1    3    3    0    0  0.75471375172E+02  0.36532898784E+02 -0.14220263598E+03  0.16508231536E+03  0.00000000000E+00 0.  1.
         22    1    3    3    0    0 -0.46043744720E+02  0.29727323450E+02 -0.17735071805E+03  0.18562601482E+03  0.00000000000E+00 0.  1.
</event>
<event>
 7    1  0.6888820E-006  0.1013421E+03  0.7818608E-02  0.1349229E+00
          2   -1    0    0  502    0  0.00000000000E+00  0.00000000000E+00  0.24627959602E+04  0.24627959602E+04  0.00000000000E+00 0. -1.
          1   -1    0    0  501    0 -0.00000000000E+00 -0.00000000000E+00 -0.40437814344E+03  0.40437814344E+03  0.00000000000E+00 0. -1.
         25    2    1    2    0    0 -0.70330801213E+02 -0.72206330863E+02 -0.84365476490E+02  0.18139191397E+03  0.12500126804E+03 0.  0.
          2    1    1    2  501    0  0.25553578746E+02  0.10058412852E+03 -0.26127926620E+03  0.28113521168E+03  0.00000000000E+00 0. -1.
          1    1    1    2  502    0  0.44777222467E+02 -0.28377797656E+02  0.24040625595E+04  0.24046469780E+04  0.00000000000E+00 0. -1.
         22    1    3    3    0    0 -0.41618171135E+02 -0.10625073156E+03 -0.72881174597E+02  0.13539924570E+03  0.00000000000E+00 0. -1.
         22    1    3    3    0    0 -0.28712630078E+02  0.34044400692E+02 -0.11484301893E+02  0.45992668268E+02  0.00000000000E+00 0. -1.
</event>
<event>
 7    1  0.6888820E-006  0.1231650E+03  0.7818608E-02  0.1335794E+00
          2   -1    0    0  502    0  0.00000000000E+00  0.00000000000E+00  0.65899481858E+03  0.65899481858E+03  0.00000000000E+00 0. -1.
          1   -1    0    0  501    0 -0.00000000000E+00 -0.00000000000E+00 -0.32710147337E+03  0.32710147337E+03  0.00000000000E+00 0. -1.
         25    2    1    2    0    0 -0.11365301497E+03  0.78388301239E+02  0.56213050328E+03  0.59218015154E+03  0.12499958233E+03 0.  0.
          2    1    1    2  501    0  0.48350236631E+02 -0.78369497099E+01 -0.28097572313E+03  0.28521311357E+03  0.00000000000E+00 0. -1.
          1    1    1    2  502    0  0.65302778344E+02 -0.70551351530E+02  0.50738565058E+02  0.10870302685E+03  0.00000000000E+00 0. -1.
         22    1    3    3    0    0 -0.51109521458E+02 -0.73154086074E+01  0.60886113025E+02  0.79829926381E+02  0.00000000000E+00 0.  1.
         22    1    3    3    0    0 -0.62543493517E+02  0.85703709847E+02  0.50124439025E+03  0.51235022516E+03  0.00000000000E+00 0.  1.
</event>
<event>
 7    1  0.6888820E-006  0.7061095E+02  0.7818608E-02  0.1392927E+00
          2   -1    0    0  502    0  0.00000000000E+00  0.00000000000E+00  0.11931249161E+04  0.11931249161E+04  0.00000000000E+00 0. -1.
          1   -1    0    0  501    0 -0.00000000000E+00 -0.00000000000E+00 -0.59678432117E+02  0.59678432117E+02  0.00000000000E+00 0. -1.
         25    2    1    2    0    0 -0.20325374320E+02 -0.31514334952E+01  0.65226225341E+03  0.66445048591E+03  0.12500139449E+03 0.  0.
          2    1    1    2  501    0 -0.88922584219E+01  0.70048796341E+02 -0.26520388572E+02  0.75427031883E+02  0.00000000000E+00 0. -1.
          1    1    1    2  502    0  0.29217632742E+02 -0.66897362846E+02  0.50770461915E+03  0.51292583044E+03  0.00000000000E+00 0. -1.
         22    1    3    3    0    0 -0.13758125423E+02 -0.38228700140E+02  0.59876971875E+03  0.60014656178E+03  0.00000000000E+00 0. -1.
         22    1    3    3    0    0 -0.65672488974E+01  0.35077266645E+02  0.53492534664E+02  0.64303924127E+02  0.00000000000E+00 0. -1.
</event>
<event>
 7    1  0.6888820E-006  0.7466143E+02  0.7818608E-02  0.1432231E+00
          2   -1    0    0  502    0  0.00000000000E+00  0.00000000000E+00  0.22224274504E+04  0.22224274504E+04  0.00000000000E+00 0. -1.
          1   -1    0    0  501    0 -0.00000000000E+00 -0.00000000000E+00 -0.12210056148E+04  0.12210056148E+04  0.00000000000E+00 0. -1.
         25    2    1    2    0    0  0.10740394478E+03  0.14658503829E+01  0.14240747831E+03  0.21781367391E+03  0.12500060237E+03 0.  0.
          2    1    1    2  501    0 -0.34670931407E+02  0.12739651128E+02 -0.11823417411E+04  0.11829185791E+04  0.00000000000E+00 0. -1.
          1    1    1    2  502    0 -0.72733013377E+02 -0.14205501511E+02  0.20413560984E+04  0.20427008122E+04  0.00000000000E+00 0. -1.
         22    1    3    3    0    0  0.50378057686E+02 -0.31582833045E+02  0.13972336065E+03  0.15184874563E+03  0.00000000000E+00 0.  1.
         22    1    3    3    0    0  0.57025887099E+02  0.33048683428E+02  0.26841176624E+01  0.65964928283E+02  0.00000000000E+00 0.  1.
</event>
<event>
 7    1  0.6888820E-006  0.1280833E+03  0.7818608E-02  0.1354640E+00
          2   -1    0    0  502    0  0.00000000000E+00  0.00000000000E+00  0.17993158496E+04  0.17993158496E+04  0.00000000000E+00 0. -1.
          1   -1    0    0  501    0 -0.00000000000E+00 -0.00000000000E+00 -0.48742066989E+02  0.48742066989E+02  0.00000000000E+00 0. -1.
         25    2    1    2    0    0 -0.10007992915E+03 -0.34671031821E+02  0.25214802716E+03  0.30070152917E+03  0.12499883753E+03 0.  0.
          2    1    1    2  501    0 -0.30704024596E+02  0.25726931786E+02 -0.30457303314E+01  0.40173232615E+02  0.00000000000E+00 0. -1.
          1    1    1    2  502    0  0.13078395374E+03  0.89441000346E+01  0.15014714858E+04  0.15071831548E+04  0.00000000000E+00 0. -1.
         22    1    3    3    0    0  0.26800480706E+02  0.46829836563E+01  0.22096179881E+02  0.35049069422E+02  0.00000000000E+00 0. -1.
         22    1    3    3    0    0 -0.12688040985E+03 -0.39354015477E+02  0.23005184727E+03  0.26565245975E+03  0.00000000000E+00 0. -1.
</event>
<event>
 7    1  0.6888820E-006  0.6361307E+02  0.7818608E-02  0.1443240E+00
          2   -1    0    0  502    0  0.00000000000E+00  0.00000000000E+00  0.84960572688E+03  0.84960572688E+03  0.00000000000E+00 0. -1.
          1   -1    0    0  501    0 -0.00000000000E+00 -0.00000000000E+00 -0.26844772908E+03  0.26844772908E+03  0.00000000000E+00 0. -1.
         25    2    1    2    0    0 -0.20091884755E+01 -0.91949227033E+02  0.50197163756E+03  0.52541317262E+03  0.12499911941E+03 0.  0.
          2    1    1    2  501    0  0.17433552844E+02  0.35910276765E+02 -0.25263378786E+03  0.25576807368E+03  0.00000000000E+00 0. -1.
          1    1    1    2  502    0 -0.15424364369E+02  0.56038950268E+02  0.33182014809E+03  0.33687220966E+03  0.00000000000E+00 0. -1.
         22    1    3    3    0    0 -0.25377957047E+02 -0.50333322785E+02  0.65824272109E+02  0.86662096012E+02  0.00000000000E+00 0.  1.
         22    1    3    3    0    0  0.23368768572E+02 -0.41615904248E+02  0.43614736546E+03  0.43875107661E+03  0.00000000000E+00 0.  1.
</event>
<event>
 7    1  0.6888820E-006  0.1396751E+03  0.7818608E-02  0.1271364E+00
          2   -1    0    0  502    0  0.00000000000E+00  0.00000000000E+00  0.71402210946E+03  0.71402210946E+03  0.00000000000E+00 0. -1.
          1   -1    0    0  501    0 -0.00000000000E+00 -0.00000000000E+00 -0.87072001806E+03  0.87072001806E+03  0.00000000000E+00 0. -1.
         25    2    1    2    0    0 -0.12459503332E+03  0.46126799152E+02 -0.28607563083E+03  0.33928732785E+03  0.12500008144E+03 0.  0.
          2    1    1    2  501    0  0.40834195763E+02  0.66446095696E+02 -0.54808881240E+03  0.55360984587E+03  0.00000000000E+00 0. -1.
          1    1    1    2  502    0  0.83760837555E+02 -0.11257289485E+03  0.67746653462E+03  0.69184495380E+03  0.00000000000E+00 0. -1.
         22    1    3    3    0    0 -0.78824574721E+02 -0.29871307254E+02 -0.19350841884E+03  0.21107135462E+03  0.00000000000E+00 0.  1.
         22    1    3    3    0    0 -0.45770458597E+02  0.75998106406E+02 -0.92567211985E+02  0.12821597323E+03  0.00000000000E+00 0.  1.
</event>
<event>
 7    1  0.6888820E-006  0.6056061E+02  0.7818608E-02  0.1450816E+00
          2   -1    0    0  502    0  0.00000000000E+00  0.00000000000E+00  0.13168256221E+04  0.13168256221E+04  0.00000000000E+00 0. -1.
          1   -1    0    0  501    0 -0.00000000000E+00 -0.00000000000E+00 -0.29485418004E+03  0.29485418004E+03  0.00000000000E+00 0. -1.
         25    2    1    2    0    0 -0.58201325299E+02 -0.53714898838E+02  0.43687373071E+03  0.46125522620E+03  0.12500016996E+03 0.  0.
          2    1    1    2  501    0  0.13291099452E+00  0.39644539848E+02 -0.28023811978E+03  0.28302846321E+03  0.00000000000E+00 0. -1.
          1    1    1    2  502    0  0.58068414305E+02  0.14070358989E+02  0.86533583112E+03  0.86739611272E+03  0.00000000000E+00 0. -1.
         22    1    3    3    0    0  0.75495212125E+01  0.24718622764E+02  0.21922555808E+03  0.22074385812E+03  0.00000000000E+00 0.  1.
         22    1    3    3    0    0 -0.65750846512E+02 -0.78433521602E+02  0.21764817263E+03  0.24051136808E+03  0.00000000000E+00 0.  1.
</event>
<event>
 7    1  0.6888820E-006  0.2971426E+03  0.7818608E-02  0.1098712E+00
          2   -1    0    0  502    0  0.00000000000E+00  0.00000000000E+00  0.24085504495E+03  0.24085504495E+03  0.00000000000E+00 0. -1.
          1   -1    0    0  501    0 -0.00000000000E+00 -0.00000000000E+00 -0.11291968819E+04  0.11291968819E+04  0.00000000000E+00 0. -1.
         25    2    1    2    0    0  0.35988437358E+02 -0.10987355631E+03  0.47682878016E+02  0.17682077059E+03  0.12499824821E+03 0.  0.
          2    1    1    2  501    0 -0.22881024667E+03  0.27466400551E+03 -0.85537698132E+03  0.92707293406E+03  0.00000000000E+00 0. -1.
          1    1    1    2  502    0  0.19282180931E+03 -0.16479044920E+03 -0.80647733618E+02  0.26615822217E+03  0.00000000000E+00 0. -1.
         22    1    3    3    0    0  0.57805836963E+02 -0.18065332235E+00  0.23465563625E+02  0.62387339252E+02  0.00000000000E+00 0. -1.
         22    1    3    3    0    0 -0.21817399605E+02 -0.10969290299E+03  0.24217314391E+02  0.11443343134E+03  0.00000000000E+00 0. -1.
</event>
<event>
 7    1  0.6888820E-006  0.2421870E+03  0.7818608E-02  0.1298039E+00
          2   -1    0    0  502    0  0.00000000000E+00  0.00000000000E+00  0.79333099531E+03  0.79333099531E+03  0.00000000000E+00 0. -1.
          1   -1    0    0  501    0 -0.00000000000E+00 -0.00000000000E+00 -0.11439580949E+04  0.11439580949E+04  0.00000000000E+00 0. -1.
         25    2    1    2    0    0 -0.16998753131E+03  0.12799200349E+03  0.33844998001E+03  0.41886978081E+03  0.12500316213E+03 0.  0.
          2    1    1    2  501    0  0.20479593600E+03 -0.13125840741E+03 -0.10895753125E+04  0.11163980054E+04  0.00000000000E+00 0. -1.
          1    1    1    2  502    0 -0.34808404689E+02  0.32664039188E+01  0.40049823281E+03  0.40202130406E+03  0.00000000000E+00 0. -1.
         22    1    3    3    0    0 -0.87648912697E+02  0.11029557137E+03  0.12110787960E+03  0.18578095560E+03  0.00000000000E+00 0.  1.
         22    1    3    3    0    0 -0.82338618613E+02  0.17696432118E+02  0.21734210041E+03  0.23308882521E+03  0.00000000000E+00 0.  1.
</event>
<event>
 7    1  0.6888820E-006  0.1530405E+03  0.7818608E-02  0.1248314E+00
          2   -1    0    0  502    0  0.00000000000E+00  0.00000000000E+00  0.85112218545E+03  0.85112218545E+03  0.00000000000E+00 0. -1.
          1   -1    0    0  501    0 -0.00000000000E+00 -0.00000000000E+00 -0.17879559837E+04  0.17879559837E+04  0.00000000000E+00 0. -1.
         25    2    1    2    0    0 -0.16904455040E+03  0.16869885309E+03 -0.62548337601E+02  0.27671698804E+03  0.12499853550E+03 0.  0.
          2    1    1    2  501    0  0.11248747581E+03 -0.99615263759E+02 -0.16121388453E+04  0.16191257794E+04  0.00000000000E+00 0. -1.
          1    1    1    2  502    0  0.56557074595E+02 -0.69083589332E+02  0.73785338469E+03  0.74323540168E+03  0.00000000000E+00 0. -1.
         22    1    3    3    0    0 -0.36375114864E+02  0.19436883914E+02  0.35342631174E+02  0.54314298449E+02  0.00000000000E+00 0.  1.
         22    1    3    3    0    0 -0.13266943554E+03  0.14926196918E+03 -0.97890968775E+02  0.22240268959E+03  0.00000000000E+00 0.  1.
</event>
<event>
 7    1  0.6888820E-006  0.5225020E+02  0.7818608E-02  0.1442525E+00
          2   -1    0    0  502    0  0.00000000000E+00  0.00000000000E+00  0.18579721244E+04  0.18579721244E+04  0.00000000000E+00 0. -1.
          1   -1    0    0  501    0 -0.00000000000E+00 -0.00000000000E+00 -0.51529747862E+03  0.51529747862E+03  0.00000000000E+00 0. -1.
         25    2    1    2    0    0 -0.36057149375E+02 -0.93690272353E+02  0.99776482097E+02  0.18883360668E+03  0.12499919791E+03 0.  0.
          2    1    1    2  501    0  0.21105987900E+02  0.44064945861E+02 -0.46910798482E+03  0.47164550629E+03  0.00000000000E+00 0. -1.
          1    1    1    2  502    0  0.14951161475E+02  0.49625326492E+02  0.17120061485E+04  0.17127904900E+04  0.00000000000E+00 0. -1.
         22    1    3    3    0    0 -0.44149490418E+02 -0.90739312843E+02  0.12588688602E+03  0.16133911017E+03  0.00000000000E+00 0. -1.
         22    1    3    3    0    0  0.80923410435E+01 -0.29509595100E+01 -0.26110403921E+02  0.27494496513E+02  0.00000000000E+00 0. -1.
</event>
<event>
 7    1  0.6888820E-006  0.9154939E+02  0.7818608E-02  0.1311413E+00
          2   -1    0    0  502    0  0.00000000000E+00  0.00000000000E+00  0.78783305269E+03  0.78783305269E+03  0.00000000000E+00 0. -1.
          1   -1    0    0  501    0 -0.00000000000E+00 -0.00000000000E+00 -0.13311723736E+03  0.13311723736E+03  0.00000000000E+00 0. -1.
         25    2    1    2    0    0 -0.46011297600E+01 -0.14266897132E+03  0.45486136150E+03  0.49285008583E+03  0.12500697237E+03 0.  0.
          2    1    1    2  501    0  0.50489815997E+02  0.74910679367E+02 -0.89638346461E+02  0.12726297403E+03  0.00000000000E+00 0. -1.
          1    1    1    2  502    0 -0.45888686237E+02  0.67758291950E+02  0.28949280028E+03  0.30083723019E+03  0.00000000000E+00 0. -1.
         22    1    3    3    0    0  0.28396516281E+02 -0.14544268831E+03  0.41701340223E+03  0.44256086063E+03  0.00000000000E+00 0. -1.
         22    1    3    3    0    0 -0.32997646041E+02  0.27737169960E+01  0.37847959278E+02  0.50289225205E+02  0.00000000000E+00 0. -1.
</event>
<event>
 7    1  0.6888820E-006  0.9953767E+02  0.7818608E-02  0.1288367E+00
          2   -1    0    0  502    0  0.00000000000E+00  0.00000000000E+00  0.13180505872E+04  0.13180505872E+04  0.00000000000E+00 0. -1.
          1   -1    0    0  501    0 -0.00000000000E+00 -0.00000000000E+00 -0.25790331992E+04  0.25790331992E+04  0.00000000000E+00 0. -1.
         25    2    1    2    0    0 -0.33804838344E+01  0.70150940593E+02  0.36941791272E+03  0.39626745130E+03  0.12500286629E+03 0.  0.
          2    1    1    2  501    0 -0.92659616760E+02 -0.89062277391E+01 -0.25612914161E+04  0.25629824119E+04  0.00000000000E+00 0. -1.
          1    1    1    2  502    0  0.96040100594E+02 -0.61244712854E+02  0.93089089139E+03  0.93783392317E+03  0.00000000000E+00 0. -1.
         22    1    3    3    0    0  0.42549025008E+02 -0.15261075509E+02  0.14242922040E+03  0.14943026059E+03  0.00000000000E+00 0.  1.
         22    1    3    3    0    0 -0.45929508842E+02  0.85412016103E+02  0.22698869232E+03  0.24683719071E+03  0.00000000000E+00 0.  1.
</event>
<event>
 7    1  0.6888820E-006  0.6094483E+02  0.7818608E-02  0.1396072E+00
          2   -1    0    0  502    0  0.00000000000E+00  0.00000000000E+00  0.21617213417E+04  0.21617213417E+04  0.00000000000E+00 0. -1.
          1   -1    0    0  501    0 -0.00000000000E+00 -0.00000000000E+00 -0.15560158907E+04  0.15560158907E+04  0.00000000000E+00 0. -1.
         25    2    1    2    0    0  0.11864687078E+03 -0.17495065936E+02  0.18221046747E+03  0.25141354139E+03  0.12499982824E+03 0.  0.
          2    1    1    2  501    0 -0.58778634171E+02  0.15475301464E+02 -0.15203457161E+04  0.15215602220E+04  0.00000000000E+00 0. -1.
          1    1    1    2  502    0 -0.59868236610E+02  0.20197644721E+01  0.19438406995E+04  0.19447634690E+04  0.00000000000E+00 0. -1.
         22    1    3    3    0    0  0.10879636980E+03  0.36527488581E+02  0.98175700290E+02  0.15102773133E+03  0.00000000000E+00 0.  1.
         22    1    3    3    0    0  0.98505009799E+01 -0.54022554517E+02  0.84034767179E+02  0.10038581006E+03  0.00000000000E+00 0.  1.
</event>
<event>
 7    1  0.6888820E-006  0.5430834E+02  0.7818608E-02  0.1474605E+00
          2   -1    0    0  502    0  0.00000000000E+00  0.00000000000E+00  0.18284989053E+03  0.18284989053E+03  0.00000000000E+00 0. -1.
          1   -1    0    0  501    0 -0.00000000000E+00 -0.00000000000E+00 -0.12778386974E+04  0.12778386974E+04  0.00000000000E+00 0. -1.
         25    2    1    2    0    0 -0.42960273189E+02  0.78949714809E+02 -0.81783749843E+02  0.17433154143E+03  0.12499704820E+03 0.  0.
          2    1    1    2  501    0  0.14975032518E+02 -0.34071595188E+02 -0.11443469016E+04  0.11449519450E+04  0.00000000000E+00 0. -1.
          1    1    1    2  502    0  0.27985240671E+02 -0.44878119621E+02  0.13114184459E+03  0.14140510146E+03  0.00000000000E+00 0. -1.
         22    1    3    3    0    0 -0.61418641867E+02  0.33723639368E+02  0.95891073873E+01  0.70721173644E+02  0.00000000000E+00 0. -1.
         22    1    3    3    0    0  0.18458368678E+02  0.45226075441E+02 -0.91372857230E+02  0.10361036778E+03  0.00000000000E+00 0. -1.
</event>
<event>
 7    1  0.6888820E-006  0.7165234E+02  0.7818608E-02  0.1430466E+00
          2   -1    0    0  502    0  0.00000000000E+00  0.00000000000E+00  0.77848030400E+03  0.77848030400E+03  0.00000000000E+00 0. -1.
          1   -1    0    0  501    0 -0.00000000000E+00 -0.00000000000E+00 -0.52582758915E+02  0.52582758915E+02  0.00000000000E+00 0. -1.
         25    2    1    2    0    0 -0.70972855197E+02  0.26650022551E+02  0.61068233766E+02  0.15843376284E+03  0.12499823261E+03 0.  0.
          2    1    1    2  501    0  0.62063709032E+02  0.11325083542E+02  0.42027061719E+03  0.42497947382E+03  0.00000000000E+00 0. -1.
          1    1    1    2  502    0  0.89091461651E+01 -0.37975106093E+02  0.24455869413E+03  0.24764982626E+03  0.00000000000E+00 0. -1.
         22    1    3    3    0    0 -0.51657328655E+02 -0.44370033246E+02  0.48898379923E+02  0.83834545464E+02  0.00000000000E+00 0. -1.
         22    1    3    3    0    0 -0.19315526542E+02  0.71020055797E+02  0.12169853843E+02  0.74599217379E+02  0.00000000000E+00 0. -1.
</event>
<event>
 7    1  0.6888820E-006  0.1229310E+03  0.7818608E-02  0.1379344E+00
          2   -1    0    0  502    0  0.00000000000E+00  0.00000000000E+00  0.12019696298E+03  0.12019696298E+03  0.00000000000E+00 0. -1.
          1   -1    0    0  501    0 -0.00000000000E+00 -0.00000000000E+00 -0.14938264112E+04  0.14938264112E+04  0.00000000000E+00 0. -1.
         25    2    1    2    0    0 -0.42882125933E+02 -0.13621086649E+03 -0.99147386062E+02  0.21412245900E+03  0.12500378558E+03 0.  0.
          2    1    1    2  501    0  0.26885594124E+02  0.20788937880E+02 -0.12826403505E+04  0.12830905205E+04  0.00000000000E+00 0. -1.
          1    1    1    2  502    0  0.15996531809E+02  0.11542192861E+03  0.81582883329E+01  0.11681039467E+03  0.00000000000E+00 0. -1.
         22    1    3    3    0    0  0.31040440371E+02 -0.89725154156E+02 -0.21674019045E+02  0.97385190498E+02  0.00000000000E+00 0.  1.
         22    1    3    3    0    0 -0.73922566304E+02 -0.46485712337E+02 -0.77473367017E+02  0.11673726850E+03  0.00000000000E+00 0.  1.
</event>
<event>
 7    1  0.6888820E-006  0.6066372E+03  0.7818608E-02  0.1106456E+00
          2   -1    0    0  502    0  0.00000000000E+00  0.00000000000E+00  0.22193256533E+04  0.22193256533E+04  0.00000000000E+00 0. -1.
          1   -1    0    0  501    0 -0.00000000000E+00 -0.00000000000E+00 -0.27292756554E+04  0.27292756554E+04  0.00000000000E+00 0. -1.
         25    2    1    2    0    0  0.25348086955E+03 -0.44267973999E+03 -0.10839950330E+04  0.12045282450E+04  0.12500063200E+03 0.  0.
          2    1    1    2  501    0  0.96806494369E+02 -0.57154541785E+02 -0.15397875026E+04  0.15438859065E+04  0.00000000000E+00 0. -1.
          1    1    1    2  502    0 -0.35028736392E+03  0.49983428178E+03  0.21138325336E+04  0.22001871572E+04  0.00000000000E+00 0. -1.
         22    1    3    3    0    0  0.10733927030E+03 -0.30593021454E+03 -0.70308342360E+03  0.77423595606E+03  0.00000000000E+00 0.  1.
         22    1    3    3    0    0  0.14614159925E+03 -0.13674952545E+03 -0.38091160944E+03  0.43029228897E+03  0.00000000000E+00 0.  1.
</event>
<event>
 7    1  0.6888820E-006  0.1661947E+03  0.7818608E-02  0.1232122E+00
          2   -1    0    0  502    0  0.00000000000E+00  0.00000000000E+00  0.13576116716E+04  0.13576116716E+04  0.00000000000E+00 0. -1.
          1   -1    0    0  501    0 -0.00000000000E+00 -0.00000000000E+00 -0.80622879589E+03  0.80622879589E+03  0.00000000000E+00 0. -1.
         25    2    1    2    0    0 -0.13288069212E+02  0.24843543942E+03 -0.16776775271E+02  0.27893884304E+03  0.12501470962E+03 0.  0.
          2    1    1    2  501    0  0.39992993282E+02 -0.15528473421E+03 -0.64664911677E+03  0.66623409430E+03  0.00000000000E+00 0. -1.
          1    1    1    2  502    0 -0.26704924070E+02 -0.93150705214E+02  0.12148087678E+04  0.12186675302E+04  0.00000000000E+00 0. -1.
         22    1    3    3    0    0  0.30560989964E+02  0.22392833988E+02 -0.29966027073E+02  0.48305029760E+02  0.00000000000E+00 0. -1.
         22    1    3    3    0    0 -0.43849059176E+02  0.22604260544E+03  0.13189251803E+02  0.23063381328E+03  0.00000000000E+00 0. -1.
</event>
<event>
 7    1  0.6888820E-006  0.3917832E+02  0.7818608E-02  0.1526715E+00
          2   -1    0    0  502    0  0.00000000000E+00  0.00000000000E+00  0.96451150477E+03  0.96451150477E+03  0.00000000000E+00 0. -1.
          1   -1    0    0  501    0 -0.00000000000E+00 -0.00000000000E+00 -0.32498719884E+03  0.32498719884E+03  0.00000000000E+00 0. -1.
         25    2    1    2    0    0 -0.37837385215E+02 -0.19167674829E+01  0.37688293242E+02  0.13593857908E+03  0.12499419234E+03 0.  0.
          2    1    1    2  501    0  0.20650663308E+02  0.33629659764E+02 -0.27407756161E+03  0.27690415975E+03  0.00000000000E+00 0. -1.
          1    1    1    2  502    0  0.17186721907E+02 -0.31712892281E+02  0.87591357429E+03  0.87665596477E+03  0.00000000000E+00 0. -1.
         22    1    3    3    0    0  0.14704029681E+02  0.37103275750E+02  0.55268739449E+02  0.68172539343E+02  0.00000000000E+00 0. -1.
         22    1    3    3    0    0 -0.52541414896E+02 -0.39020043233E+02 -0.17580446207E+02  0.67766039740E+02  0.00000000000E+00 0. -1.
</event>
<event>
 7    1  0.6888820E-006  0.1439258E+03  0.7818608E-02  0.1255686E+00
          2   -1    0    0  502    0  0.00000000000E+00  0.00000000000E+00  0.23915088647E+04  0.23915088647E+04  0.00000000000E+00 0. -1.
          1   -1    0    0  501    0 -0.00000000000E+00 -0.00000000000E+00 -0.69746985791E+03  0.69746985791E+03  0.00000000000E+00 0. -1.
         25    2    1    2    0    0  0.10222731705E+03 -0.19825213089E+03  0.40102624833E+03  0.47560458230E+03  0.12499334022E+03 0.  0.
          2    1    1    2  501    0 -0.89610850160E+02  0.11094174784E+03 -0.65146721459E+03  0.66689407522E+03  0.00000000000E+00 0. -1.
          1    1    1    2  502    0 -0.12616466891E+02  0.87310383051E+02  0.19444799731E+04  0.19464800651E+04  0.00000000000E+00 0. -1.
         22    1    3    3    0    0  0.31468497199E+02  0.11923198743E+02  0.60580557955E+02  0.69299588645E+02  0.00000000000E+00 0. -1.
         22    1    3    3    0    0  0.70758819853E+02 -0.21017532963E+03  0.34044569037E+03  0.40630499365E+03  0.00000000000E+00 0. -1.
</event>
<event>
 7    1  0.6888820E-006  0.3607084E+03  0.7818608E-02  0.1203472E+00
          2   -1    0    0  502    0  0.00000000000E+00  0.00000000000E+00  0.14757335078E+04  0.14757335078E+04  0.00000000000E+00 0. -1.
          1   -1    0    0  501    0 -0.00000000000E+00 -0.00000000000E+00 -0.31742121140E+03  0.31742121140E+03  0.00000000000E+00 0. -1.
         25    2    1    2    0    0 -0.20646817891E+03 -0.23817993826E+03  0.56376618756E+03  0.65788773448E+03  0.12500066021E+03 0.  0.
          2    1    1    2  501    0  0.22178416384E+03  0.29659049328E+03 -0.14171661782E+03  0.39653213716E+03  0.00000000000E+00 0. -1.
          1    1    1    2  502    0 -0.15315984933E+02 -0.58410555023E+02  0.73626272665E+03  0.73873484756E+03  0.00000000000E+00 0. -1.
         22    1    3    3    0    0 -0.11201363894E+03 -0.20721441055E+03  0.34675102524E+03  0.41919105520E+03  0.00000000000E+00 0.  1.
         22    1    3    3    0    0 -0.94454539962E+02 -0.30965527708E+02  0.21701516232E+03  0.23869667928E+03  0.00000000000E+00 0.  1.
</event>
<event>
 7    1  0.6888820E-006  0.1201075E+03  0.7818608E-02  0.1357432E+00
          2   -1    0    0  502    0  0.00000000000E+00  0.00000000000E+00  0.11879067792E+04  0.11879067792E+04  0.00000000000E+00 0. -1.
          1   -1    0    0  501    0 -0.00000000000E+00 -0.00000000000E+00 -0.10599583684E+04  0.10599583684E+04  0.00000000000E+00 0. -1.
         25    2    1    2    0    0 -0.13607732816E+03 -0.70313780531E+02  0.40424789177E+03  0.45000309359E+03  0.12500143705E+03 0.  0.
          2    1    1    2  501    0  0.41105804630E+02  0.71396791886E+01 -0.10323816606E+04  0.10332243490E+04  0.00000000000E+00 0. -1.
          1    1    1    2  502    0  0.94971523534E+02  0.63174101343E+02  0.75608217972E+03  0.76463770497E+03  0.00000000000E+00 0. -1.
         22    1    3    3    0    0 -0.14745858604E+03 -0.23640072087E+02  0.31651164823E+03  0.34997501492E+03  0.00000000000E+00 0. -1.
         22    1    3    3    0    0  0.11381257877E+02 -0.46673708444E+02  0.87736243545E+02  0.10002807867E+03  0.00000000000E+00 0. -1.
</event>
<event>
 7    1  0.6888820E-006  0.1060636E+03  0.7818608E-02  0.1289705E+00
          2   -1    0    0  502    0  0.00000000000E+00  0.00000000000E+00  0.15226809999E+03  0.15226809999E+03  0.00000000000E+00 0. -1.
          1   -1    0    0  501    0 -0.00000000000E+00 -0.00000000000E+00 -0.54976930747E+03  0.54976930747E+03  0.00000000000E+00 0. -1.
         25    2    1    2    0    0  0.57781788407E+02  0.51740129657E+02 -0.22911619091E+03  0.27228070608E+03  0.12500711132E+03 0.  0.
          2    1    1    2  501    0 -0.98958523628E+02  0.46004267193E+02 -0.26480910979E+03  0.28641411736E+03  0.00000000000E+00 0. -1.
          1    1    1    2  502    0  0.41176735221E+02 -0.97744396850E+02  0.96424093211E+02  0.14334258401E+03  0.00000000000E+00 0. -1.
         22    1    3    3    0    0 -0.34848395248E+02  0.32743652092E+02 -0.46836515039E+02  0.66934419731E+02  0.00000000000E+00 0.  1.
         22    1    3    3    0    0  0.92630183655E+02  0.18996477565E+02 -0.18227967587E+03  0.20534628635E+03  0.00000000000E+00 0.  1.
</event>
<event>
 7    1  0.6888820E-006  0.8622514E+02  0.7818608E-02  0.1447771E+00
          2   -1    0    0  502    0  0.00000000000E+00  0.00000000000E+00  0.11664403612E+04  0.11664403612E+04  0.00000000000E+00 0. -1.
          1   -1    0    0  501    0 -0.00000000000E+00 -0.00000000000E+00 -0.37421162664E+03  0.37421162664E+03  0.00000000000E+00 0. -1.
         25    2    1    2    0    0  0.57204807623E+02 -0.12068156037E+02  0.21023227073E+03  0.25147175738E+03  0.12498962637E+03 0.  0.
          2    1    1    2  501    0 -0.84448386333E+02  0.20358358356E+02 -0.34803541507E+03  0.35871247937E+03  0.00000000000E+00 0. -1.
          1    1    1    2  502    0  0.27243578710E+02 -0.82902023182E+01  0.93003187889E+03  0.93046775107E+03  0.00000000000E+00 0. -1.
         22    1    3    3    0    0  0.48321310489E+02 -0.51360797492E+02  0.19672648209E+03  0.20898370588E+03  0.00000000000E+00 0. -1.
         22    1    3    3    0    0  0.88834971340E+01  0.39292641454E+02  0.13505788638E+02  0.42488051503E+02  0.00000000000E+00 0. -1.
</event>
<event>
 7    1  0.6888820E-006  0.7647878E+02  0.7818608E-02  0.1349771E+00
          2   -1    0    0  502    0  0.00000000000E+00  0.00000000000E+00  0.40074530199E+03  0.40074530199E+03  0.00000000000E+00 0. -1.
          1   -1    0    0  501    0 -0.00000000000E+00 -0.00000000000E+00 -0.46729055017E+03  0.46729055017E+03  0.00000000000E+00 0. -1.
         25    2    1    2    0    0  0.46524093555E+02 -0.10864387241E+03 -0.33689720877E+02  0.17528835427E+03  0.12499210998E+03 0.  0.
          2    1    1    2  501    0  0.17028536159E+02  0.67817007100E+02 -0.35502304099E+03  0.36184316648E+03  0.00000000000E+00 0. -1.
          1    1    1    2  502    0 -0.63552629714E+02  0.40826865310E+02  0.32216751368E+03  0.33090433141E+03  0.00000000000E+00 0. -1.
         22    1    3    3    0    0  0.17443451297E+02 -0.40383624579E+01 -0.60800619227E+02  0.63382155714E+02  0.00000000000E+00 0. -1.
         22    1    3    3    0    0  0.29080642258E+02 -0.10460550995E+03  0.27110898350E+02  0.11190619856E+03  0.00000000000E+00 0. -1.
</event>
<event>
 7    1  0.6888820E-006  0.4457622E+02  0.7818608E-02  0.1578195E+00
          2   -1    0    0  502    0  0.00000000000E+00  0.00000000000E+00  0.29609054837E+03  0.29609054837E+03  0.00000000000E+00 0. -1.
          1   -1    0    0  501    0 -0.00000000000E+00 -0.00000000000E+00 -0.64406140831E+03  0.64406140831E+03  0.00000000000E+00 0. -1.
         25    2    1    2    0    0 -0.30850247260E+02 -0.34856091572E+02 -0.15037317172E+03  0.20100530170E+03  0.12499742261E+03 0.  0.
          2    1    1    2  501    0  0.21083560916E+02 -0.86773067674E+01 -0.46625390268E+03  0.46681100454E+03  0.00000000000E+00 0. -1.
          1    1    1    2  502    0  0.97666863442E+01  0.43533398339E+02  0.26865621446E+03  0.27233565044E+03  0.00000000000E+00 0. -1.
         22    1    3    3    0    0  0.36331873799E+02 -0.12433212571E+02 -0.11617286488E+03  0.12235491148E+03  0.00000000000E+00 0. -1.
         22    1    3    3    0    0 -0.67182121059E+02 -0.22422879001E+02 -0.34200306840E+02  0.78650390212E+02  0.00000000000E+00 0. -1.
</event>
<event>
 7    1  0.6888820E-006  0.6947641E+02  0.7818608E-02  0.1462374E+00
          2   -1    0    0  502    0  0.00000000000E+00  0.00000000000E+00  0.18635209611E+03  0.18635209611E+03  0.00000000000E+00 0. -1.
          1   -1    0    0  501    0 -0.00000000000E+00 -0.00000000000E+00 -0.19897614393E+03  0.19897614393E+03  0.00000000000E+00 0. -1.
         25    2    1    2    0    0 -0.31444937324E+02  0.24493921180E+02  0.76489152727E+02  0.15186576146E+03  0.12499553097E+03 0.  0.
          2    1    1    2  501    0  0.55305075886E+02 -0.45457869136E+02 -0.14920637125E+03  0.16549202551E+03  0.00000000000E+00 0. -1.
          1    1    1    2  502    0 -0.23860138562E+02  0.20963947957E+02  0.60093170696E+02  0.67970453070E+02  0.00000000000E+00 0. -1.
         22    1    3    3    0    0 -0.41294507775E+01  0.74067559073E+02  0.49321062106E+02  0.89082112896E+02  0.00000000000E+00 0. -1.
         22    1    3    3    0    0 -0.27315486546E+02 -0.49573637893E+02  0.27168090621E+02  0.62783648566E+02  0.00000000000E+00 0. -1.
</event>
<event>
 7    1  0.6888820E-006  0.1354814E+03  0.7818608E-02  0.1254385E+00
          2   -1    0    0  502    0  0.00000000000E+00  0.00000000000E+00  0.91308204494E+03  0.91308204494E+03  0.00000000000E+00 0. -1.
          1   -1    0    0  501    0 -0.00000000000E+00 -0.00000000000E+00 -0.24655650306E+04  0.24655650306E+04  0.00000000000E+00 0. -1.
         25    2    1    2    0    0 -0.63943704603E+02  0.69943891913E+02 -0.13980316933E+03  0.21012129930E+03  0.12500035556E+03 0.  0.
          2    1    1    2  501    0 -0.73250281102E+02 -0.60386252534E+02 -0.22842249489E+04  0.22861967807E+04  0.00000000000E+00 0. -1.
          1    1    1    2  502    0  0.13719398570E+03 -0.95576393789E+01  0.87154513256E+03  0.88232899549E+03  0.00000000000E+00 0. -1.
         22    1    3    3    0    0  0.10021079920E+00 -0.34231829367E+02 -0.24995306658E+02  0.42386242331E+02  0.00000000000E+00 0. -1.
         22    1    3    3    0    0 -0.64043915402E+02  0.10417572128E+03 -0.11480786267E+03  0.16773505696E+03  0.00000000000E+00 0. -1.
</event>
<event>
 7    1  0.6888820E-006  0.4825950E+02  0.7818608E-02  0.1498812E+00
          2   -1    0    0  502    0  0.00000000000E+00  0.00000000000E+00  0.13559839858E+03  0.13559839858E+03  0.00000000000E+00 0. -1.
          1   -1    0    0  501    0 -0.00000000000E+00 -0.00000000000E+00 -0.35565066761E+03  0.35565066761E+03  0.00000000000E+00 0. -1.
         25    2    1    2    0    0 -0.72540980836E+02 -0.29113035936E+02 -0.20688898099E+03  0.25404280832E+03  0.12499974096E+03 0.  0.
          2    1    1    2  501    0  0.35348305115E+02 -0.68755514794E+00 -0.11739085227E+03  0.12259929691E+03  0.00000000000E+00 0. -1.
          1    1    1    2  502    0  0.37192675721E+02  0.29800591084E+02  0.10422756423E+03  0.11460696097E+03  0.00000000000E+00 0. -1.
         22    1    3    3    0    0 -0.63655244058E+02 -0.73818014655E+02 -0.11003110814E+03  0.14699637459E+03  0.00000000000E+00 0. -1.
         22    1    3    3    0    0 -0.88857367782E+01  0.44704978719E+02 -0.96857872853E+02  0.10704643373E+03  0.00000000000E+00 0. -1.
</event>
<event>
 7    1  0.6888820E-006  0.1143299E+03  0.7818608E-02  0.1311998E+00
          2   -1    0    0  502    0  0.00000000000E+00  0.00000000000E+00  0.56048523213E+02  0.56048523213E+02  0.00000000000E+00 0. -1.
          1   -1    0    0  501    0 -0.00000000000E+00 -0.00000000000E+00 -0.14604375727E+04  0.14604375727E+04  0.00000000000E+00 0. -1.
         25    2    1    2    0    0 -0.97023672398E+02  0.51301905512E+02 -0.18466338847E+03  0.24853877364E+03  0.12500190577E+03 0.  0.
          2    1    1    2  501    0  0.11568697904E+03  0.11151929165E+02 -0.11910982093E+04  0.11967551073E+04  0.00000000000E+00 0. -1.
          1    1    1    2  502    0 -0.18663306647E+02 -0.62453834677E+02 -0.28627451709E+02  0.71192214969E+02  0.00000000000E+00 0. -1.
         22    1    3    3    0    0  0.12920303812E+01  0.66667785255E+02 -0.79407593178E+02  0.10369102559E+03  0.00000000000E+00 0. -1.
         22    1    3    3    0    0 -0.98315702779E+02 -0.15365879743E+02 -0.10525579530E+03  0.14484774805E+03  0.00000000000E+00 0. -1.
</event>
<event>
 7    1  0.1127566E-005  0.7148070E+02  0.7818608E-02  0.1382748E+00
          2   -1    0    0  502    0  0.00000000000E+00  0.00000000000E+00  0.10841683203E+04  0.10841683203E+04  0.00000000000E+00 0. -1.
          1   -1    0    0  501    0 -0.00000000000E+00 -0.00000000000E+00 -0.15017601543E+04  0.15017601543E+04  0.00000000000E+00 0. -1.
         25    2    1    2    0    0  0.88112495528E+02  0.36965848440E+02 -0.23852681053E+03  0.28573927159E+03  0.12498642394E+03 0.  0.
          2    1    1    2  501    0 -0.51382597029E+02  0.24326181092E+02 -0.12377703834E+04  0.12390752424E+04  0.00000000000E+00 0. -1.
          1    1    1    2  502    0 -0.36729898499E+02 -0.61292029532E+02  0.10587053599E+04  0.10611139606E+04  0.00000000000E+00 0. -1.
         22    1    3    3    0    0  0.10201250210E+03 -0.72059571888E+01 -0.11540569139E+03  0.15419776266E+03  0.00000000000E+00 0. -1.
         22    1    3    3    0    0 -0.13900006567E+02  0.44171805629E+02 -0.12312111913E+03  0.13154150893E+03  0.00000000000E+00 0. -1.
</event>
<event>
 7    1  0.6888820E-006  0.3540911E+02  0.7818608E-02  0.1548951E+00
          2   -1    0    0  502    0  0.00000000000E+00  0.00000000000E+00  0.30652446446E+03  0.30652446446E+03  0.00000000000E+00 0. -1.
          1   -1    0    0  501    0 -0.00000000000E+00 -0.00000000000E+00 -0.38810544779E+03  0.38810544779E+03  0.00000000000E+00 0. -1.
         25    2    1    2    0    0 -0.70211888583E+01 -0.51273795341E+01  0.17751180729E+02  0.12654916006E+03  0.12499599346E+03 0.  0.
          2    1    1    2  501    0  0.28217959054E+02 -0.22115348473E+02 -0.33146366534E+03  0.33339691554E+03  0.00000000000E+00 0. -1.
          1    1    1    2  502    0 -0.21196770195E+02  0.27242728007E+02  0.23213150128E+03  0.23468383665E+03  0.00000000000E+00 0. -1.
         22    1    3    3    0    0 -0.46594654032E+02  0.18040041629E+02  0.49846030006E+02  0.70577132229E+02  0.00000000000E+00 0.  1.
         22    1    3    3    0    0  0.39573465173E+02 -0.23167421163E+02 -0.32094849278E+02  0.55972027829E+02  0.00000000000E+00 0.  1.
</event>
<event>
 7    1  0.6888820E-006  0.4238799E+02  0.7818608E-02  0.1503831E+00
          2   -1    0    0  502    0  0.00000000000E+00  0.00000000000E+00  0.17491042020E+03  0.17491042020E+03  0.00000000000E+00 0. -1.
          1   -1    0    0  501    0 -0.00000000000E+00 -0.00000000000E+00 -0.55974502377E+03  0.55974502377E+03  0.00000000000E+00 0. -1.
         25    2    1    2    0    0  0.29041799632E+02  0.19289934695E+02  0.27237454036E+01  0.12980895482E+03  0.12500967265E+03 0.  0.
          2    1    1    2  501    0  0.11141775056E+02 -0.37260029147E+02 -0.49094296788E+03  0.49248090992E+03  0.00000000000E+00 0. -1.
          1    1    1    2  502    0 -0.40183574688E+02  0.17970094452E+02  0.10338461890E+03  0.11236557923E+03  0.00000000000E+00 0. -1.
         22    1    3    3    0    0  0.67546695469E+02  0.36241175380E+02  0.26958175284E+02  0.81257135541E+02  0.00000000000E+00 0. -1.
         22    1    3    3    0    0 -0.38504895837E+02 -0.16951240685E+02 -0.24234429880E+02  0.48551819284E+02  0.00000000000E+00 0. -1.
</event>
<event>
 7    1  0.6888820E-006  0.9844512E+02  0.7818608E-02  0.1317457E+00
          2   -1    0    0  502    0  0.00000000000E+00  0.00000000000E+00  0.13156392336E+04  0.13156392336E+04  0.00000000000E+00 0. -1.
          1   -1    0    0  501    0 -0.00000000000E+00 -0.00000000000E+00 -0.33342710784E+03  0.33342710784E+03  0.00000000000E+00 0. -1.
         25    2    1    2    0    0 -0.10004080519E+03 -0.19522128096E+02  0.38586873167E+03  0.41822154582E+03  0.12500122846E+03 0.  0.
          2    1    1    2  501    0  0.38114177839E+02 -0.61164997900E+02 -0.31027702859E+03  0.31853678279E+03  0.00000000000E+00 0. -1.
          1    1    1    2  502    0  0.61926627350E+02  0.80687125996E+02  0.90662042270E+03  0.91230801286E+03  0.00000000000E+00 0. -1.
         22    1    3    3    0    0 -0.18723065264E+02  0.48197081847E+02  0.17200496401E+03  0.17960851738E+03  0.00000000000E+00 0. -1.
         22    1    3    3    0    0 -0.81317739925E+02 -0.67719209943E+02  0.21386376766E+03  0.23861302844E+03  0.00000000000E+00 0. -1.
</event>
<event>
 7    1  0.6888820E-006  0.3726190E+03  0.7818608E-02  0.1132720E+00
          2   -1    0    0  502    0  0.00000000000E+00  0.00000000000E+00  0.15545687351E+04  0.15545687351E+04  0.00000000000E+00 0. -1.
          1   -1    0    0  501    0 -0.00000000000E+00 -0.00000000000E+00 -0.38833696343E+03  0.38833696343E+03  0.00000000000E+00 0. -1.
         25    2    1    2    0    0  0.11486000231E+03 -0.29107092559E+03  0.32081367476E+02  0.33848208576E+03  0.12500321749E+03 0.  0.
          2    1    1    2  501    0 -0.12731971687E+03  0.42222851478E+03 -0.21266554375E+02  0.44151952996E+03  0.00000000000E+00 0. -1.
          1    1    1    2  502    0  0.12459714556E+02 -0.13115758919E+03  0.11554169585E+04  0.11629040828E+04  0.00000000000E+00 0. -1.
         22    1    3    3    0    0  0.57768089964E+02 -0.11409305117E+03 -0.47215714347E+02  0.13632204599E+03  0.00000000000E+00 0.  1.
         22    1    3    3    0    0  0.57091912350E+02 -0.17697787442E+03  0.79297081824E+02  0.20216003976E+03  0.00000000000E+00 0.  1.
</event>
<event>
 7    1  0.6888820E-006  0.1315427E+03  0.7818608E-02  0.1381829E+00
          2   -1    0    0  502    0  0.00000000000E+00  0.00000000000E+00  0.18314570686E+03  0.18314570686E+03  0.00000000000E+00 0. -1.
          1   -1    0    0  501    0 -0.00000000000E+00 -0.00000000000E+00 -0.90602009830E+03  0.90602009830E+03  0.00000000000E+00 0. -1.
         25    2    1    2    0    0 -0.12152729894E+03  0.31300303124E+02  0.50683796438E+02  0.18424085552E+03  0.12500900870E+03 0.  0.
          2    1    1    2  501    0  0.11648209446E+03 -0.62012558993E+02 -0.83002459755E+03  0.84044896831E+03  0.00000000000E+00 0. -1.
          1    1    1    2  502    0  0.50452044778E+01  0.30712255870E+02  0.56466409668E+02  0.64475981339E+02  0.00000000000E+00 0. -1.
         22    1    3    3    0    0 -0.10370704263E+03 -0.24031481541E+02  0.64527190026E+02  0.12448462174E+03  0.00000000000E+00 0. -1.
         22    1    3    3    0    0 -0.17820256308E+02  0.55331784665E+02 -0.13843393589E+02  0.59756233776E+02  0.00000000000E+00 0. -1.
</event>
<event>
 7    1  0.6888820E-006  0.7338724E+02  0.7818608E-02  0.1429130E+00
          2   -1    0    0  502    0  0.00000000000E+00  0.00000000000E+00  0.13595171832E+04  0.13595171832E+04  0.00000000000E+00 0. -1.
          1   -1    0    0  501    0 -0.00000000000E+00 -0.00000000000E+00 -0.28673905609E+03  0.28673905609E+03  0.00000000000E+00 0. -1.
         25    2    1    2    0    0  0.26743241985E+02  0.94276752569E+02 -0.14411716998E+02  0.15948495631E+03  0.12499778652E+03 0.  0.
          2    1    1    2  501    0  0.16074317310E+02 -0.34952654506E+02 -0.19688770523E+03  0.20061116670E+03  0.00000000000E+00 0. -1.
          1    1    1    2  502    0 -0.42817559295E+02 -0.59324098062E+02  0.12840775494E+04  0.12861601163E+04  0.00000000000E+00 0. -1.
         22    1    3    3    0    0  0.86254608957E+01 -0.61589727886E+01  0.41695904346E+02  0.43021854455E+02  0.00000000000E+00 0. -1.
         22    1    3    3    0    0  0.18117781090E+02  0.10043572536E+03 -0.56107621345E+02  0.11646310185E+03  0.00000000000E+00 0. -1.
</event>
<event>
 7    1  0.6888820E-006  0.4994064E+02  0.7818608E-02  0.1510134E+00
          2   -1    0    0  502    0  0.00000000000E+00  0.00000000000E+00  0.49455958264E+02  0.49455958264E+02  0.00000000000E+00 0. -1.
          1   -1    0    0  501    0 -0.00000000000E+00 -0.00000000000E+00 -0.68284380183E+03  0.68284380183E+03  0.00000000000E+00 0. -1.
         25    2    1    2    0    0  0.66043204495E+02 -0.39906882421E+01 -0.24437852193E+03  0.28235560938E+03  0.12500479077E+03 0.  0.
          2    1    1    2  501    0 -0.20956682408E+02  0.23681736396E+02 -0.39857200645E+03  0.39982452589E+03  0.00000000000E+00 0. -1.
          1    1    1    2  502    0 -0.45086522087E+02 -0.19691048154E+02  0.95626848150E+01  0.50119624821E+02  0.00000000000E+00 0. -1.
         22    1    3    3    0    0 -0.17295968915E+02  0.42546171709E+02 -0.83121657483E+02  0.94965979226E+02  0.00000000000E+00 0. -1.
         22    1    3    3    0    0  0.83339173410E+02 -0.46536859951E+02 -0.16125686444E+03  0.18738963015E+03  0.00000000000E+00 0. -1.
</event>
<event>
 7    1  0.6888820E-006  0.5969434E+03  0.7818608E-02  0.1198437E+00
          2   -1    0    0  502    0  0.00000000000E+00  0.00000000000E+00  0.30593699990E+04  0.30593699990E+04  0.00000000000E+00 0. -1.
          1   -1    0    0  501    0 -0.00000000000E+00 -0.00000000000E+00 -0.32956295823E+03  0.32956295823E+03  0.00000000000E+00 0. -1.
         25    2    1    2    0    0 -0.14483077268E+03 -0.54520410021E+03  0.22165893773E+03  0.61885446903E+03  0.12499882224E+03 0.  0.
          2    1    1    2  501    0 -0.10746746524E+02 -0.37006707371E+02 -0.92665318108E+02  0.10035860766E+03  0.00000000000E+00 0. -1.
          1    1    1    2  502    0  0.15557751920E+03  0.58221080758E+03  0.26008134211E+04  0.26697198805E+04  0.00000000000E+00 0. -1.
         22    1    3    3    0    0 -0.29344808463E+02 -0.97489600563E+02  0.95480939106E+02  0.13957775516E+03  0.00000000000E+00 0.  1.
         22    1    3    3    0    0 -0.11548596422E+03 -0.44771449965E+03  0.12617799863E+03  0.47927671388E+03  0.00000000000E+00 0.  1.
</event>
<event>
 7    1  0.6888820E-006  0.5823185E+02  0.7818608E-02  0.1520649E+00
          2   -1    0    0  502    0  0.00000000000E+00  0.00000000000E+00  0.66077317780E+03  0.66077317780E+03  0.00000000000E+00 0. -1.
          1   -1    0    0  501    0 -0.00000000000E+00 -0.00000000000E+00 -0.41914968930E+02  0.41914968930E+02  0.00000000000E+00 0. -1.
         25    2    1    2    0    0 -0.71114434982E+02  0.12105016808E+02  0.52193039450E+03  0.54151610640E+03  0.12499824996E+03 0.  0.
          2    1    1    2  501    0  0.19961678554E+02 -0.15491828009E+02 -0.20825134628E+02  0.32743725781E+02  0.00000000000E+00 0. -1.
          1    1    1    2  502    0  0.51152756429E+02  0.33868112004E+01  0.11775294899E+03  0.12842831454E+03  0.00000000000E+00 0. -1.
         22    1    3    3    0    0 -0.20447645613E+02 -0.52484062998E+02  0.29169746671E+03  0.29708600634E+03  0.00000000000E+00 0.  1.
         22    1    3    3    0    0 -0.50666789369E+02  0.64589079806E+02  0.23023292780E+03  0.24443010006E+03  0.00000000000E+00 0.  1.
</event>
<event>
 7    1  0.6888820E-006  0.1590055E+03  0.7818608E-02  0.1226293E+00
          2   -1    0    0  502    0  0.00000000000E+00  0.00000000000E+00  0.79890000262E+03  0.79890000262E+03  0.00000000000E+00 0. -1.
          1   -1    0    0  501    0 -0.00000000000E+00 -0.00000000000E+00 -0.33847845846E+04  0.33847845846E+04  0.00000000000E+00 0. -1.
         25    2    1    2    0    0  0.65795786010E+02  0.10234236814E+02  0.24872804843E+02  0.14379707133E+03  0.12500046497E+03 0.  0.
          2    1    1    2  501    0 -0.12835457797E+03 -0.97749572867E+02 -0.33193031787E+04  0.33232218506E+04  0.00000000000E+00 0. -1.
          1    1    1    2  502    0  0.62558791956E+02  0.87515336053E+02  0.70854579188E+03  0.71666566520E+03  0.00000000000E+00 0. -1.
         22    1    3    3    0    0  0.59021117630E+02  0.77700050427E+01 -0.44328156671E+02  0.74221632820E+02  0.00000000000E+00 0.  1.
         22    1    3    3    0    0  0.67746683797E+01  0.24642317709E+01  0.69200961513E+02  0.69575438513E+02  0.00000000000E+00 0.  1.
</event>
<event>
 7    1  0.6888820E-006  0.1201586E+03  0.7818608E-02  0.1340034E+00
          2   -1    0    0  502    0  0.00000000000E+00  0.00000000000E+00  0.40156260306E+03  0.40156260306E+03  0.00000000000E+00 0. -1.
          1   -1    0    0  501    0 -0.00000000000E+00 -0.00000000000E+00 -0.87315627046E+03  0.87315627046E+03  0.00000000000E+00 0. -1.
         25    2    1    2    0    0  0.39417413060E+02  0.68660105300E+02  0.45786927974E+01  0.14803474218E+03  0.12500151179E+03 0.  0.
          2    1    1    2  501    0  0.29317051086E+02  0.38498857732E+02 -0.78820026220E+03  0.78968430709E+03  0.00000000000E+00 0. -1.
          1    1    1    2  502    0 -0.68734464146E+02 -0.10715896303E+03  0.31202790200E+03  0.33699982426E+03  0.00000000000E+00 0. -1.
         22    1    3    3    0    0 -0.33501034255E+02  0.67134948034E+02  0.22573900274E+01  0.75063415546E+02  0.00000000000E+00 0. -1.
         22    1    3    3    0    0  0.72918447315E+02  0.15251572667E+01  0.23213027700E+01  0.72971326630E+02  0.00000000000E+00 0. -1.
</event>
<event>
 7    1  0.6888820E-006  0.1566484E+03  0.7818608E-02  0.1274730E+00
          2   -1    0    0  502    0  0.00000000000E+00  0.00000000000E+00  0.12084231285E+04  0.12084231285E+04  0.00000000000E+00 0. -1.
          1   -1    0    0  501    0 -0.00000000000E+00 -0.00000000000E+00 -0.94780645510E+03  0.94780645510E+03  0.00000000000E+00 0. -1.
         25    2    1    2    0    0  0.16783844342E+03  0.19760906673E+02  0.22258379527E+03  0.30615065187E+03  0.12499775679E+03 0.  0.
          2    1    1    2  501    0 -0.32472333899E+02  0.58974466947E+02 -0.89826054901E+03  0.90077991437E+03  0.00000000000E+00 0. -1.
          1    1    1    2  502    0 -0.13536610952E+03 -0.78735373619E+02  0.93629342717E+03  0.94929901739E+03  0.00000000000E+00 0. -1.
         22    1    3    3    0    0  0.55603409018E+02  0.67408978732E+02  0.10694594629E+03  0.13810555723E+03  0.00000000000E+00 0. -1.
         22    1    3    3    0    0  0.11223503440E+03 -0.47648072059E+02  0.11563784898E+03  0.16804509465E+03  0.00000000000E+00 0. -1.
</event>
<event>
 7    1  0.7618424E-006  0.5636175E+02  0.7818608E-02  0.1418544E+00
          2   -1    0    0  502    0  0.00000000000E+00  0.00000000000E+00  0.78522787560E+03  0.78522787560E+03  0.00000000000E+00 0. -1.
          1   -1    0    0  501    0 -0.00000000000E+00 -0.00000000000E+00 -0.83716969413E+03  0.83716969413E+03  0.00000000000E+00 0. -1.
         25    2    1    2    0    0  0.25887321880E+02  0.41074410893E+02 -0.15744270622E+03  0.20680976045E+03  0.12499924243E+03 0.  0.
          2    1    1    2  501    0  0.30535557552E+02 -0.44921673272E+02 -0.65286272978E+03  0.65511840223E+03  0.00000000000E+00 0. -1.
          1    1    1    2  502    0 -0.56422879432E+02  0.38472623782E+01  0.75836361747E+03  0.76046940705E+03  0.00000000000E+00 0. -1.
         22    1    3    3    0    0  0.74200535623E+02  0.27948420108E+02 -0.12187440624E+03  0.14539671444E+03  0.00000000000E+00 0. -1.
         22    1    3    3    0    0 -0.48313213743E+02  0.13125990785E+02 -0.35568299981E+02  0.61413046006E+02  0.00000000000E+00 0. -1.
</event>
<event>
 7    1  0.6888820E-006  0.7512999E+02  0.7818608E-02  0.1395703E+00
          2   -1    0    0  502    0  0.00000000000E+00  0.00000000000E+00  0.15030992685E+04  0.15030992685E+04  0.00000000000E+00 0. -1.
          1   -1    0    0  501    0 -0.00000000000E+00 -0.00000000000E+00 -0.24003070581E+04  0.24003070581E+04  0.00000000000E+00 0. -1.
         25    2    1    2    0    0  0.49276525181E+02 -0.22184757931E+01  0.62658079336E+03  0.64082938000E+03  0.12500282433E+03 0.  0.
          2    1    1    2  501    0  0.21206814947E+02 -0.43879584203E+02 -0.23908942352E+04  0.23913908904E+04  0.00000000000E+00 0. -1.
          1    1    1    2  502    0 -0.70483340129E+02  0.46098059996E+02  0.86710565222E+03  0.87118605618E+03  0.00000000000E+00 0. -1.
         22    1    3    3    0    0  0.72308933640E+02 -0.44240253911E+02  0.44688734247E+03  0.45485610781E+03  0.00000000000E+00 0. -1.
         22    1    3    3    0    0 -0.23032408459E+02  0.42021778118E+02  0.17969345089E+03  0.18597327219E+03  0.00000000000E+00 0. -1.
</event>
<event>
 7    1  0.6888820E-006  0.1565810E+03  0.7818608E-02  0.1283033E+00
          2   -1    0    0  502    0  0.00000000000E+00  0.00000000000E+00  0.10643534412E+04  0.10643534412E+04  0.00000000000E+00 0. -1.
          1   -1    0    0  501    0 -0.00000000000E+00 -0.00000000000E+00 -0.59958839446E+03  0.59958839446E+03  0.00000000000E+00 0. -1.
         25    2    1    2    0    0 -0.91408144606E+01 -0.12570099824E+03  0.40407530879E+03  0.44134811688E+03  0.12500803836E+03 0.  0.
          2    1    1    2  501    0  0.69325541426E+02  0.14151366520E+03 -0.56870337543E+03  0.59013191521E+03  0.00000000000E+00 0. -1.
          1    1    1    2  502    0 -0.60184726966E+02 -0.15812666955E+02  0.62939311337E+03  0.63246180356E+03  0.00000000000E+00 0. -1.
         22    1    3    3    0    0  0.26296148025E+02 -0.13760308548E+03  0.32267268735E+03  0.35177231230E+03  0.00000000000E+00 0. -1.
         22    1    3    3    0    0 -0.35436962486E+02  0.11902087235E+02  0.81402621438E+02  0.89575804589E+02  0.00000000000E+00 0. -1.
</event>
<event>
 7    1  0.6888820E-006  0.1651128E+03  0.7818608E-02  0.1220132E+00
          2   -1    0    0  502    0  0.00000000000E+00  0.00000000000E+00  0.51844642538E+03  0.51844642538E+03  0.00000000000E+00 0. -1.
          1   -1    0    0  501    0 -0.00000000000E+00 -0.00000000000E+00 -0.88349361744E+03  0.88349361744E+03  0.00000000000E+00 0. -1.
         25    2    1    2    0    0 -0.10544893040E+02 -0.10216909435E+03 -0.30402611266E+03  0.34439770763E+03  0.12501274028E+03 0.  0.
          2    1    1    2  501    0  0.10339481404E+03 -0.38930789734E+02 -0.53920287758E+03  0.55040515727E+03  0.00000000000E+00 0. -1.
          1    1    1    2  502    0 -0.92849921002E+02  0.14109988409E+03  0.47818179818E+03  0.50713717792E+03  0.00000000000E+00 0. -1.
         22    1    3    3    0    0 -0.56068708517E+02 -0.10029722716E+03 -0.23652328849E+03  0.26295722057E+03  0.00000000000E+00 0. -1.
         22    1    3    3    0    0  0.45523815477E+02 -0.18718671965E+01 -0.67502824169E+02  0.81440487064E+02  0.00000000000E+00 0. -1.
</event>
<event>
 7    1  0.6888820E-006  0.7783559E+02  0.7818608E-02  0.1344768E+00
          2   -1    0    0  502    0  0.00000000000E+00  0.00000000000E+00  0.16805240213E+03  0.16805240213E+03  0.00000000000E+00 0. -1.
          1   -1    0    0  501    0 -0.00000000000E+00 -0.00000000000E+00 -0.13928375503E+04  0.13928375503E+04  0.00000000000E+00 0. -1.
         25    2    1    2    0    0  0.10949016454E+03  0.19775809789E+02 -0.59154219119E+03  0.61475698024E+03  0.12499920803E+03 0.  0.
          2    1    1    2  501    0 -0.66086746762E+02  0.37309849651E+02 -0.77952931567E+03  0.78321480895E+03  0.00000000000E+00 0. -1.
          1    1    1    2  502    0 -0.43403417778E+02 -0.57085659440E+02  0.14628635867E+03  0.16291816326E+03  0.00000000000E+00 0. -1.
         22    1    3    3    0    0  0.79444184849E+01  0.17555551791E+02 -0.55859020399E+01  0.20062738730E+02  0.00000000000E+00 0. -1.
         22    1    3    3    0    0  0.10154574605E+03  0.22202579979E+01 -0.58595628915E+03  0.59469424151E+03  0.00000000000E+00 0. -1.
</event>
<event>
 7    1  0.6888820E-006  0.7240294E+02  0.7818608E-02  0.1420754E+00
          2   -1    0    0  502    0  0.00000000000E+00  0.00000000000E+00  0.73390914007E+02  0.73390914007E+02  0.00000000000E+00 0. -1.
          1   -1    0    0  501    0 -0.00000000000E+00 -0.00000000000E+00 -0.22921972418E+04  0.22921972418E+04  0.00000000000E+00 0. -1.
         25    2    1    2    0    0  0.59137465647E+01  0.10363315487E+03 -0.72814731633E+03  0.74605472822E+03  0.12499736012E+03 0.  0.
          2    1    1    2  501    0  0.19609942998E+02 -0.36654406070E+02 -0.15347947178E+04  0.15353575874E+04  0.00000000000E+00 0. -1.
          1    1    1    2  502    0 -0.25523689563E+02 -0.66978748796E+02  0.44135706262E+02  0.84175840277E+02  0.00000000000E+00 0. -1.
         22    1    3    3    0    0  0.62461954564E+01  0.66497681094E+02 -0.12465407529E+03  0.14141992446E+03  0.00000000000E+00 0.  1.
         22    1    3    3    0    0 -0.33244889163E+00  0.37135473771E+02 -0.60349324104E+03  0.60463480376E+03  0.00000000000E+00 0.  1.
</event>
<event>
 7    1  0.6888820E-006  0.7761058E+02  0.7818608E-02  0.1478554E+00
          2   -1    0    0  502    0  0.00000000000E+00  0.00000000000E+00  0.14999332670E+03  0.14999332670E+03  0.00000000000E+00 0. -1.
          1   -1    0    0  501    0 -0.00000000000E+00 -0.00000000000E+00 -0.43560952710E+03  0.43560952710E+03  0.00000000000E+00 0. -1.
         25    2    1    2    0    0 -0.92946802602E+02  0.35313412132E+02 -0.65587731909E+02  0.17266025094E+03  0.12499466584E+03 0.  0.
          2    1    1    2  501    0  0.25082512297E+02 -0.34825396058E+01 -0.30131091290E+03  0.30237315810E+03  0.00000000000E+00 0. -1.
          1    1    1    2  502    0  0.67864290305E+02 -0.31830872526E+02  0.81282444410E+02  0.11056944476E+03  0.00000000000E+00 0. -1.
         22    1    3    3    0    0  0.26086936154E+02 -0.10428332737E+02  0.23133174961E+01  0.28189178764E+02  0.00000000000E+00 0. -1.
         22    1    3    3    0    0 -0.11903373876E+03  0.45741744869E+02 -0.67901049405E+02  0.14447107218E+03  0.00000000000E+00 0. -1.
</event>
<event>
 7    1  0.6888820E-006  0.8312787E+02  0.7818608E-02  0.1425532E+00
          2   -1    0    0  502    0  0.00000000000E+00  0.00000000000E+00  0.21173198163E+03  0.21173198163E+03  0.00000000000E+00 0. -1.
          1   -1    0    0  501    0 -0.00000000000E+00 -0.00000000000E+00 -0.19229850365E+04  0.19229850365E+04  0.00000000000E+00 0. -1.
         25    2    1    2    0    0 -0.68208933303E+02  0.90509052983E+02 -0.67145764623E+03  0.69233280026E+03  0.12499995353E+03 0.  0.
          2    1    1    2  501    0  0.41938169787E+02 -0.67524244333E+02 -0.12382925956E+04  0.12408412009E+04  0.00000000000E+00 0. -1.
          1    1    1    2  502    0  0.26270763516E+02 -0.22984808650E+02  0.19849718695E+03  0.20154301692E+03  0.00000000000E+00 0. -1.
         22    1    3    3    0    0 -0.96080646201E+02  0.95661887819E+02 -0.47973052047E+03  0.49852187477E+03  0.00000000000E+00 0.  1.
         22    1    3    3    0    0  0.27871712898E+02 -0.51528348366E+01 -0.19172712576E+03  0.19381092549E+03  0.00000000000E+00 0.  1.
</event>
<event>
 7    1  0.6888820E-006  0.4932443E+02  0.7818608E-02  0.1480125E+00
          2   -1    0    0  502    0  0.00000000000E+00  0.00000000000E+00  0.66158972500E+03  0.66158972500E+03  0.00000000000E+00 0. -1.
          1   -1    0    0  501    0 -0.00000000000E+00 -0.00000000000E+00 -0.85780119485E+02  0.85780119485E+02  0.00000000000E+00 0. -1.
         25    2    1    2    0    0  0.48009046682E+01 -0.15636601292E+02  0.89535171612E+02  0.15463641990E+03  0.12501329296E+03 0.  0.
          2    1    1    2  501    0 -0.37396561375E+02  0.37779250249E+02 -0.39033313458E+02  0.65949784773E+02  0.00000000000E+00 0. -1.
          1    1    1    2  502    0  0.32595656707E+02 -0.22142648957E+02  0.52530774737E+03  0.52678363982E+03  0.00000000000E+00 0. -1.
         22    1    3    3    0    0  0.60887349860E+02  0.49172763945E+01  0.67324612260E+02  0.90906833606E+02  0.00000000000E+00 0. -1.
         22    1    3    3    0    0 -0.56086445192E+02 -0.20553877687E+02  0.22210559351E+02  0.63729586292E+02  0.00000000000E+00 0. -1.
</event>
<event>
 7    1  0.6888820E-006  0.9065113E+02  0.7818608E-02  0.1326716E+00
          2   -1    0    0  502    0  0.00000000000E+00  0.00000000000E+00  0.10902463606E+04  0.10902463606E+04  0.00000000000E+00 0. -1.
          1   -1    0    0  501    0 -0.00000000000E+00 -0.00000000000E+00 -0.54585692866E+03  0.54585692866E+03  0.00000000000E+00 0. -1.
         25    2    1    2    0    0 -0.10856222428E+03  0.70773097592E+02 -0.81742837868E+02  0.19774433498E+03  0.12500537026E+03 0.  0.
          2    1    1    2  501    0  0.37182354733E+02 -0.80726183844E+02 -0.39997150553E+03  0.40972728674E+03  0.00000000000E+00 0. -1.
          1    1    1    2  502    0  0.71379869544E+02  0.99530862524E+01  0.10261037754E+04  0.10286316676E+04  0.00000000000E+00 0. -1.
         22    1    3    3    0    0 -0.76448376500E+02  0.76702236104E+02  0.15217911825E+01  0.10830467737E+03  0.00000000000E+00 0.  1.
         22    1    3    3    0    0 -0.32113847777E+02 -0.59291385119E+01 -0.83264629050E+02  0.89439657610E+02  0.00000000000E+00 0.  1.
</event>
<event>
 7    1  0.6888820E-006  0.5972393E+02  0.7818608E-02  0.1403017E+00
          2   -1    0    0  502    0  0.00000000000E+00  0.00000000000E+00  0.42357488627E+03  0.42357488627E+03  0.00000000000E+00 0. -1.
          1   -1    0    0  501    0 -0.00000000000E+00 -0.00000000000E+00 -0.33723757318E+04  0.33723757318E+04  0.00000000000E+00 0. -1.
         25    2    1    2    0    0  0.38570355299E+01 -0.17053250899E+01 -0.36663115806E+03  0.38737702136E+03  0.12499906305E+03 0.  0.
          2    1    1    2  501    0  0.46547126898E+02  0.34358067501E+02 -0.29929083894E+04  0.29934675109E+04  0.00000000000E+00 0. -1.
          1    1    1    2  502    0 -0.50404162428E+02 -0.32652742411E+02  0.41073870192E+03  0.41510608576E+03  0.00000000000E+00 0. -1.
         22    1    3    3    0    0  0.29303215850E+02  0.55198581486E+02 -0.17152159125E+03  0.18255196006E+03  0.00000000000E+00 0. -1.
         22    1    3    3    0    0 -0.25446180320E+02 -0.56903906576E+02 -0.19510956681E+03  0.20482506130E+03  0.00000000000E+00 0. -1.
</event>
<event>
 7    1  0.6888820E-006  0.8104540E+02  0.7818608E-02  0.1421856E+00
          2   -1    0    0  502    0  0.00000000000E+00  0.00000000000E+00  0.20076645636E+04  0.20076645636E+04  0.00000000000E+00 0. -1.
          1   -1    0    0  501    0 -0.00000000000E+00 -0.00000000000E+00 -0.54099061918E+02  0.54099061918E+02  0.00000000000E+00 0. -1.
         25    2    1    2    0    0 -0.82993502979E+02  0.28726132280E+02  0.58494809545E+02  0.16354990608E+03  0.12495525928E+03 0.  0.
          2    1    1    2  501    0  0.47540927798E+02 -0.18768210205E+02  0.48959104594E+03  0.49225174230E+03  0.00000000000E+00 0. -1.
          1    1    1    2  502    0  0.35452575181E+02 -0.99579220751E+01  0.14054796462E+04  0.14059619771E+04  0.00000000000E+00 0. -1.
         22    1    3    3    0    0 -0.64507680198E+01  0.52933385750E+02 -0.14269560889E+02  0.55201232803E+02  0.00000000000E+00 0.  1.
         22    1    3    3    0    0 -0.76542734959E+02 -0.24207253470E+02  0.72764370434E+02  0.10834867327E+03  0.00000000000E+00 0.  1.
</event>
<event>
 7    1  0.6888820E-006  0.8776510E+02  0.7818608E-02  0.1454718E+00
          2   -1    0    0  502    0  0.00000000000E+00  0.00000000000E+00  0.40256616142E+03  0.40256616142E+03  0.00000000000E+00 0. -1.
          1   -1    0    0  501    0 -0.00000000000E+00 -0.00000000000E+00 -0.13383649185E+04  0.13383649185E+04  0.00000000000E+00 0. -1.
         25    2    1    2    0    0  0.25369579681E+02  0.10293840249E+03 -0.26063379186E+03  0.30788773410E+03  0.12499981228E+03 0.  0.
          2    1    1    2  501    0 -0.45541891955E+01 -0.86402887390E+02 -0.10518594436E+04  0.10554119994E+04  0.00000000000E+00 0. -1.
          1    1    1    2  502    0 -0.20815390486E+02 -0.16535515097E+02  0.37669447834E+03  0.37763134636E+03  0.00000000000E+00 0. -1.
         22    1    3    3    0    0 -0.35915687533E+02 -0.24606027209E+01 -0.29397546851E+02  0.46478026394E+02  0.00000000000E+00 0. -1.
         22    1    3    3    0    0  0.61285267214E+02  0.10539900521E+03 -0.23123624501E+03  0.26140970770E+03  0.00000000000E+00 0. -1.
</event>
<event>
 7    1  0.6888820E-006  0.3551249E+03  0.7818608E-02  0.1225928E+00
          2   -1    0    0  502    0  0.00000000000E+00  0.00000000000E+00  0.33321121732E+04  0.33321121732E+04  0.00000000000E+00 0. -1.
          1   -1    0    0  501    0 -0.00000000000E+00 -0.00000000000E+00 -0.13977940246E+04  0.13977940246E+04  0.00000000000E+00 0. -1.
         25    2    1    2    0    0 -0.34193570511E+03  0.21099392188E+03 -0.31357774840E+03  0.52478079315E+03  0.12500166029E+03 0.  0.
          2    1    1    2  501    0  0.44442369581E+02 -0.19041555793E+02 -0.96829740341E+03  0.96950377334E+03  0.00000000000E+00 0. -1.
          1    1    1    2  502    0  0.29749333553E+03 -0.19195236608E+03  0.32161933004E+04  0.32356216314E+04  0.00000000000E+00 0. -1.
         22    1    3    3    0    0 -0.15534615438E+03  0.71458333856E+02 -0.20721685177E+03  0.26865878883E+03  0.00000000000E+00 0.  1.
         22    1    3    3    0    0 -0.18658955073E+03  0.13953558802E+03 -0.10636089662E+03  0.25612200432E+03  0.00000000000E+00 0.  1.
</event>
<event>
 7    1  0.6888820E-006  0.4422684E+02  0.7818608E-02  0.1558230E+00
          2   -1    0    0  502    0  0.00000000000E+00  0.00000000000E+00  0.20438064605E+03  0.20438064605E+03  0.00000000000E+00 0. -1.
          1   -1    0    0  501    0 -0.00000000000E+00 -0.00000000000E+00 -0.32933502550E+03  0.32933502550E+03  0.00000000000E+00 0. -1.
         25    2    1    2    0    0 -0.20399674995E+02  0.63746043016E+02  0.49125504547E+02  0.15007943538E+03  0.12502326579E+03 0.  0.
          2    1    1    2  501    0  0.11459026761E+01 -0.26018927472E+02 -0.27393446325E+03  0.27516974368E+03  0.00000000000E+00 0. -1.
          1    1    1    2  502    0  0.19253772319E+02 -0.37727115544E+02  0.99854579253E+02  0.10846649249E+03  0.00000000000E+00 0. -1.
         22    1    3    3    0    0  0.12520758784E+02  0.92097564842E+02  0.52064995347E+02  0.10653400673E+03  0.00000000000E+00 0. -1.
         22    1    3    3    0    0 -0.32920433779E+02 -0.28351521826E+02 -0.29394908003E+01  0.43545428649E+02  0.00000000000E+00 0. -1.
</event>
<event>
 7    1  0.6888820E-006  0.1123802E+03  0.7818608E-02  0.1259930E+00
          2   -1    0    0  502    0  0.00000000000E+00  0.00000000000E+00  0.87781293637E+03  0.87781293637E+03  0.00000000000E+00 0. -1.
          1   -1    0    0  501    0 -0.00000000000E+00 -0.00000000000E+00 -0.73563632385E+03  0.73563632385E+03  0.00000000000E+00 0. -1.
         25    2    1    2    0    0 -0.14701642589E+03 -0.21214573284E+02 -0.68167760854E+02  0.20575647589E+03  0.12499998460E+03 0.  0.
          2    1    1    2  501    0  0.65148021918E+02  0.92187044429E+02 -0.58966845061E+03  0.60037621335E+03  0.00000000000E+00 0. -1.
          1    1    1    2  502    0  0.81868403973E+02 -0.70972471145E+02  0.80001282398E+03  0.80731657097E+03  0.00000000000E+00 0. -1.
         22    1    3    3    0    0 -0.45935474177E+02  0.51438318364E+02 -0.16063630547E+02  0.70809664667E+02  0.00000000000E+00 0. -1.
         22    1    3    3    0    0 -0.10108095171E+03 -0.72652891647E+02 -0.52104130308E+02  0.13494681122E+03  0.00000000000E+00 0. -1.
</event>
<event>
 7    1  0.6888820E-006  0.6352779E+02  0.7818608E-02  0.1389408E+00
          2   -1    0    0  502    0  0.00000000000E+00  0.00000000000E+00  0.24003713750E+03  0.24003713750E+03  0.00000000000E+00 0. -1.
          1   -1    0    0  501    0 -0.00000000000E+00 -0.00000000000E+00 -0.14381343236E+04  0.14381343236E+04  0.00000000000E+00 0. -1.
         25    2    1    2    0    0 -0.67910450970E+02 -0.24632996168E+02 -0.25570692782E+03  0.29364759608E+03  0.12499705555E+03 0.  0.
          2    1    1    2  501    0  0.19652862582E+02  0.61311935528E+02 -0.11583912274E+04  0.11601791346E+04  0.00000000000E+00 0. -1.
          1    1    1    2  502    0  0.48257588387E+02 -0.36678939360E+02  0.21600096914E+03  0.22434473049E+03  0.00000000000E+00 0. -1.
         22    1    3    3    0    0  0.24955467764E+02  0.20989573064E+02 -0.11144221255E+03  0.11611504764E+03  0.00000000000E+00 0.  1.
         22    1    3    3    0    0 -0.92865918734E+02 -0.45622569232E+02 -0.14426471527E+03  0.17753254844E+03  0.00000000000E+00 0.  1.
</event>
<event>
 7    1  0.6888820E-006  0.2805940E+03  0.7818608E-02  0.1291059E+00
          2   -1    0    0  502    0  0.00000000000E+00  0.00000000000E+00  0.24703071860E+04  0.24703071860E+04  0.00000000000E+00 0. -1.
          1   -1    0    0  501    0 -0.00000000000E+00 -0.00000000000E+00 -0.50859342673E+03  0.50859342673E+03  0.00000000000E+00 0. -1.
         25    2    1    2    0    0  0.21922434337E+03 -0.15315597334E+03  0.87918321140E+03  0.92741788011E+03  0.12499896103E+03 0.  0.
          2    1    1    2  501    0  0.30720757391E+02  0.96450774660E+01 -0.47066873482E+03  0.47176885271E+03  0.00000000000E+00 0. -1.
          1    1    1    2  502    0 -0.24994510076E+03  0.14351089588E+03  0.15531992827E+04  0.15797138799E+04  0.00000000000E+00 0. -1.
         22    1    3    3    0    0  0.23471735211E+03 -0.13691097785E+03  0.78891462137E+03  0.83439986281E+03  0.00000000000E+00 0.  1.
         22    1    3    3    0    0 -0.15493008746E+02 -0.16244995487E+02  0.90268590025E+02  0.93018017306E+02  0.00000000000E+00 0.  1.
</event>
<event>
 7    1  0.6888820E-006  0.8941200E+02  0.7818608E-02  0.1437590E+00
          2   -1    0    0  502    0  0.00000000000E+00  0.00000000000E+00  0.38908224523E+03  0.38908224523E+03  0.00000000000E+00 0. -1.
          1   -1    0    0  501    0 -0.00000000000E+00 -0.00000000000E+00 -0.54432039875E+03  0.54432039875E+03  0.00000000000E+00 0. -1.
         25    2    1    2    0    0 -0.94693288105E+02  0.48580692047E+02 -0.10440482152E+03  0.19455494817E+03  0.12499743457E+03 0.  0.
          2    1    1    2  501    0  0.85445410407E+02 -0.20436736657E+02 -0.38929835533E+03  0.39908869669E+03  0.00000000000E+00 0. -1.
          1    1    1    2  502    0  0.92478776979E+01 -0.28143955389E+02  0.33846502333E+03  0.33975899912E+03  0.00000000000E+00 0. -1.
         22    1    3    3    0    0 -0.88782967240E+02 -0.20083930474E+02 -0.80775362920E+02  0.12169814621E+03  0.00000000000E+00 0. -1.
         22    1    3    3    0    0 -0.59103208654E+01  0.68664622520E+02 -0.23629458605E+02  0.72856801965E+02  0.00000000000E+00 0. -1.
</event>
<event>
 7    1  0.6888820E-006  0.1335526E+03  0.7818608E-02  0.1410139E+00
          2   -1    0    0  502    0  0.00000000000E+00  0.00000000000E+00  0.11922524626E+04  0.11922524626E+04  0.00000000000E+00 0. -1.
          1   -1    0    0  501    0 -0.00000000000E+00 -0.00000000000E+00 -0.66810605519E+03  0.66810605519E+03  0.00000000000E+00 0. -1.
         25    2    1    2    0    0 -0.39917011750E+02  0.11418927482E+03 -0.85450712834E+02  0.19380399110E+03  0.12500241730E+03 0.  0.
          2    1    1    2  501    0  0.63707371815E+02 -0.11990218364E+03 -0.51962313867E+03  0.53706924051E+03  0.00000000000E+00 0. -1.
          1    1    1    2  502    0 -0.23790360065E+02  0.57129088233E+01  0.11292202589E+04  0.11294852861E+04  0.00000000000E+00 0. -1.
         22    1    3    3    0    0 -0.32348133634E+02  0.14170326113E+03 -0.73354841998E+02  0.16281016188E+03  0.00000000000E+00 0. -1.
         22    1    3    3    0    0 -0.75688781153E+01 -0.27513986313E+02 -0.12095870836E+02  0.30993829225E+02  0.00000000000E+00 0. -1.
</event>
<event>
 7    1  0.6888820E-006  0.7399379E+02  0.7818608E-02  0.1436279E+00
          2   -1    0    0  502    0  0.00000000000E+00  0.00000000000E+00  0.17754869783E+03  0.17754869783E+03  0.00000000000E+00 0. -1.
          1   -1    0    0  501    0 -0.00000000000E+00 -0.00000000000E+00 -0.50387187137E+03  0.50387187137E+03  0.00000000000E+00 0. -1.
         25    2    1    2    0    0  0.20033621683E+01 -0.72821394972E+02 -0.13483040082E+03  0.19776572451E+03  0.12500030312E+03 0.  0.
          2    1    1    2  501    0  0.35201347853E+02  0.82326166365E+01 -0.32700415576E+03  0.32899639626E+03  0.00000000000E+00 0. -1.
          1    1    1    2  502    0 -0.37204710021E+02  0.64588778336E+02  0.13551138304E+03  0.15465844842E+03  0.00000000000E+00 0. -1.
         22    1    3    3    0    0 -0.22175764335E+02 -0.27957732734E+02 -0.14189554465E+03  0.14631385763E+03  0.00000000000E+00 0.  1.
         22    1    3    3    0    0  0.24179126504E+02 -0.44863662238E+02  0.70651438332E+01  0.51451866879E+02  0.00000000000E+00 0.  1.
</event>
<event>
 7    1  0.6888820E-006  0.1786903E+03  0.7818608E-02  0.1283687E+00
          2   -1    0    0  502    0  0.00000000000E+00  0.00000000000E+00  0.24082157635E+04  0.24082157635E+04  0.00000000000E+00 0. -1.
          1   -1    0    0  501    0 -0.00000000000E+00 -0.00000000000E+00 -0.18894475081E+03  0.18894475081E+03  0.00000000000E+00 0. -1.
         25    2    1    2    0    0 -0.10037140069E+03  0.84530180949E+02  0.14709189909E+03  0.23341112473E+03  0.12499982721E+03 0.  0.
          2    1    1    2  501    0 -0.51134463349E+02  0.17943944024E+02 -0.13683533584E+03  0.14717549933E+03  0.00000000000E+00 0. -1.
          1    1    1    2  502    0  0.15150586404E+03 -0.10247412497E+03  0.22090144495E+04  0.22165738903E+04  0.00000000000E+00 0. -1.
         22    1    3    3    0    0 -0.11046665908E+03  0.29998536013E+02  0.57635304753E+02  0.12815858646E+03  0.00000000000E+00 0.  1.
         22    1    3    3    0    0  0.10095258388E+02  0.54531644936E+02  0.89456594340E+02  0.10525253827E+03  0.00000000000E+00 0.  1.
</event>
<event>
 7    1  0.6888820E-006  0.4211691E+02  0.7818608E-02  0.1503230E+00
          2   -1    0    0  502    0  0.00000000000E+00  0.00000000000E+00  0.85126564545E+03  0.85126564545E+03  0.00000000000E+00 0. -1.
          1   -1    0    0  501    0 -0.00000000000E+00 -0.00000000000E+00 -0.15378876127E+04  0.15378876127E+04  0.00000000000E+00 0. -1.
         25    2    1    2    0    0 -0.58625398816E+02  0.44149633001E+02  0.33023273815E+03  0.36064575418E+03  0.12500228471E+03 0.  0.
          2    1    1    2  501    0  0.38287295686E+02 -0.88728512158E+01 -0.15216074553E+04  0.15221149406E+04  0.00000000000E+00 0. -1.
          1    1    1    2  502    0  0.20338103130E+02 -0.35276781785E+02  0.50475274984E+03  0.50639256338E+03  0.00000000000E+00 0. -1.
         22    1    3    3    0    0 -0.27810262157E+01  0.17768052610E+02  0.28123169183E+03  0.28180614310E+03  0.00000000000E+00 0. -1.
         22    1    3    3    0    0 -0.55844372600E+02  0.26381580391E+02  0.49001046322E+02  0.78839611083E+02  0.00000000000E+00 0. -1.
</event>
<event>
 7    1  0.6888820E-006  0.9863403E+02  0.7818608E-02  0.1378751E+00
          2   -1    0    0  502    0  0.00000000000E+00  0.00000000000E+00  0.85565604957E+03  0.85565604957E+03  0.00000000000E+00 0. -1.
          1   -1    0    0  501    0 -0.00000000000E+00 -0.00000000000E+00 -0.62594893528E+03  0.62594893528E+03  0.00000000000E+00 0. -1.
         25    2    1    2    0    0 -0.11360354498E+02 -0.65786154098E+02 -0.10670590470E+03  0.17739138688E+03  0.12499871326E+03 0.  0.
          2    1    1    2  501    0  0.42360281255E+02  0.94951276213E+02 -0.47775307152E+03  0.48893571728E+03  0.00000000000E+00 0. -1.
          1    1    1    2  502    0 -0.30999926757E+02 -0.29165122115E+02  0.81416609051E+03  0.81527788070E+03  0.00000000000E+00 0. -1.
         22    1    3    3    0    0 -0.60395074985E+02 -0.66380166993E+02 -0.51181753925E+02  0.10331245611E+03  0.00000000000E+00 0. -1.
         22    1    3    3    0    0  0.49034720487E+02  0.59401289549E+00 -0.55524150776E+02  0.74078930770E+02  0.00000000000E+00 0. -1.
</event>
<event>
 7    1  0.6888820E-006  0.6489957E+02  0.7818608E-02  0.1486959E+00
          2   -1    0    0  502    0  0.00000000000E+00  0.00000000000E+00  0.10022633887E+04  0.10022633887E+04  0.00000000000E+00 0. -1.
          1   -1    0    0  501    0 -0.00000000000E+00 -0.00000000000E+00 -0.21908789160E+04  0.21908789160E+04  0.00000000000E+00 0. -1.
         25    2    1    2    0    0 -0.28689579192E+02  0.23636048864E+02  0.18201526123E+03  0.22391127576E+03  0.12499979734E+03 0.  0.
          2    1    1    2  501    0  0.55152629743E+02 -0.34334681835E+02 -0.21691895937E+04  0.21701622466E+04  0.00000000000E+00 0. -1.
          1    1    1    2  502    0 -0.26463050551E+02  0.10698632970E+02  0.79855880510E+03  0.79906878239E+03  0.00000000000E+00 0. -1.
         22    1    3    3    0    0 -0.47296705613E+02  0.48415898958E+01  0.83840907818E+01  0.48277451598E+02  0.00000000000E+00 0.  1.
         22    1    3    3    0    0  0.18607126421E+02  0.18794458969E+02  0.17363117044E+03  0.17563382417E+03  0.00000000000E+00 0.  1.
</event>
<event>
 7    1  0.6888820E-006  0.3708561E+03  0.7818608E-02  0.1185774E+00
          2   -1    0    0  502    0  0.00000000000E+00  0.00000000000E+00  0.51270737552E+03  0.51270737552E+03  0.00000000000E+00 0. -1.
          1   -1    0    0  501    0 -0.00000000000E+00 -0.00000000000E+00 -0.15804324657E+04  0.15804324657E+04  0.00000000000E+00 0. -1.
         25    2    1    2    0    0 -0.14133553183E+03  0.32684246666E+03 -0.85730458663E+03  0.93669595272E+03  0.12500569192E+03 0.  0.
          2    1    1    2  501    0  0.97226120540E+02 -0.38286777716E+03 -0.62303790293E+03  0.73771056777E+03  0.00000000000E+00 0. -1.
          1    1    1    2  502    0  0.44109411292E+02  0.56025310498E+02  0.41261739941E+03  0.41873332071E+03  0.00000000000E+00 0. -1.
         22    1    3    3    0    0 -0.28569160689E+02  0.32907400569E+01 -0.31628369908E+02  0.42747861884E+02  0.00000000000E+00 0.  1.
         22    1    3    3    0    0 -0.11276637114E+03  0.32355172660E+03 -0.82567621672E+03  0.89394809083E+03  0.00000000000E+00 0.  1.
</event>
<event>
 7    1  0.6888820E-006  0.8451768E+02  0.7818608E-02  0.1495974E+00
          2   -1    0    0  502    0  0.00000000000E+00  0.00000000000E+00  0.11326719917E+03  0.11326719917E+03  0.00000000000E+00 0. -1.
          1   -1    0    0  501    0 -0.00000000000E+00 -0.00000000000E+00 -0.65979909687E+03  0.65979909687E+03  0.00000000000E+00 0. -1.
         25    2    1    2    0    0  0.54214370315E+02  0.80656753272E+02 -0.14645661291E+03  0.21568661904E+03  0.12500587334E+03 0.  0.
          2    1    1    2  501    0 -0.34163389972E+02 -0.75991093736E+02 -0.47367923847E+03  0.48095093772E+03  0.00000000000E+00 0. -1.
          1    1    1    2  502    0 -0.20050980344E+02 -0.46656595356E+01  0.73603953672E+02  0.76428739279E+02  0.00000000000E+00 0. -1.
         22    1    3    3    0    0  0.22008378307E+02  0.11120422158E+03 -0.96644214666E+02  0.14896594188E+03  0.00000000000E+00 0.  1.
         22    1    3    3    0    0  0.32205992009E+02 -0.30547468308E+02 -0.49812398241E+02  0.66720677153E+02  0.00000000000E+00 0.  1.
</event>
<event>
 7    1  0.1531986E-005  0.6511474E+02  0.7818608E-02  0.1382360E+00
          2   -1    0    0  502    0  0.00000000000E+00  0.00000000000E+00  0.23572621336E+04  0.23572621336E+04  0.00000000000E+00 0. -1.
          1   -1    0    0  501    0 -0.00000000000E+00 -0.00000000000E+00 -0.19187427132E+04  0.19187427132E+04  0.00000000000E+00 0. -1.
         25    2    1    2    0    0  0.14361647795E+02 -0.58647930295E-01 -0.25705193466E+03  0.28619246858E+03  0.12499668632E+03 0.  0.
          2    1    1    2  501    0 -0.77809526123E+01  0.64840006310E+02 -0.16460204383E+04  0.16473154079E+04  0.00000000000E+00 0. -1.
          1    1    1    2  502    0 -0.65806951828E+01 -0.64781358380E+02  0.23415917933E+04  0.23424969704E+04  0.00000000000E+00 0. -1.
         22    1    3    3    0    0 -0.18944336062E+02 -0.56421139094E+02 -0.10605013894E+03  0.12160947650E+03  0.00000000000E+00 0.  1.
         22    1    3    3    0    0  0.33305983857E+02  0.56362491163E+02 -0.15100179572E+03  0.16458299208E+03  0.00000000000E+00 0.  1.
</event>
<event>
 7    1  0.6888820E-006  0.3854257E+02  0.7818608E-02  0.1595549E+00
          2   -1    0    0  502    0  0.00000000000E+00  0.00000000000E+00  0.14270965518E+03  0.14270965518E+03  0.00000000000E+00 0. -1.
          1   -1    0    0  501    0 -0.00000000000E+00 -0.00000000000E+00 -0.59507402162E+03  0.59507402162E+03  0.00000000000E+00 0. -1.
         25    2    1    2    0    0  0.12111170999E+02 -0.29951644473E+02 -0.71431363737E+02  0.14755076425E+03  0.12500002734E+03 0.  0.
          2    1    1    2  501    0 -0.22455741545E+02 -0.76152456383E+01 -0.48165411606E+03  0.48223743095E+03  0.00000000000E+00 0. -1.
          1    1    1    2  502    0  0.10344570545E+02  0.37566890111E+02  0.10072111335E+03  0.10799548161E+03  0.00000000000E+00 0. -1.
         22    1    3    3    0    0  0.31897407603E+02 -0.32309073576E+02 -0.10166446497E+03  0.11134174547E+03  0.00000000000E+00 0. -1.
         22    1    3    3    0    0 -0.19786236603E+02  0.23574291032E+01  0.30233101229E+02  0.36209018777E+02  0.00000000000E+00 0. -1.
</event>
<event>
 7    1  0.6888820E-006  0.1194917E+03  0.7818608E-02  0.1372954E+00
          2   -1    0    0  502    0  0.00000000000E+00  0.00000000000E+00  0.83214828837E+03  0.83214828837E+03  0.00000000000E+00 0. -1.
          1   -1    0    0  501    0 -0.00000000000E+00 -0.00000000000E+00 -0.55445186865E+03  0.55445186865E+03  0.00000000000E+00 0. -1.
         25    2    1    2    0    0 -0.51516011596E+02  0.11945425209E+03 -0.25612439794E+02  0.18218851421E+03  0.12495375081E+03 0.  0.
          2    1    1    2  501    0  0.14700069678E+02 -0.11798575645E+03 -0.44224439048E+03  0.45794850331E+03  0.00000000000E+00 0. -1.
          1    1    1    2  502    0  0.36815941919E+02 -0.14684956406E+01  0.74555324999E+03  0.74646313950E+03  0.00000000000E+00 0. -1.
         22    1    3    3    0    0 -0.54755335341E+01  0.21907765005E+02 -0.63865769871E+02  0.67740447269E+02  0.00000000000E+00 0.  1.
         22    1    3    3    0    0 -0.46040478062E+02  0.97546487090E+02  0.38253330077E+02  0.11444806694E+03  0.00000000000E+00 0.  1.
</event>
<event>
 7    1  0.6888820E-006  0.5198416E+02  0.7818608E-02  0.1447652E+00
          2   -1    0    0  502    0  0.00000000000E+00  0.00000000000E+00  0.31306422380E+04  0.31306422380E+04  0.00000000000E+00 0. -1.
          1   -1    0    0  501    0 -0.00000000000E+00 -0.00000000000E+00 -0.10947015846E+04  0.10947015846E+04  0.00000000000E+00 0. -1.
         25    2    1    2    0    0 -0.40325608374E+02  0.47452156190E+01  0.82416723489E+02  0.15514005196E+03  0.12500899028E+03 0.  0.
          2    1    1    2  501    0  0.89319761002E+01 -0.46424361152E+02 -0.10575858192E+04  0.10586419445E+04  0.00000000000E+00 0. -1.
          1    1    1    2  502    0  0.31393632274E+02  0.41679145533E+02  0.30111097492E+04  0.30115618262E+04  0.00000000000E+00 0. -1.
         22    1    3    3    0    0  0.17106312307E+02 -0.24394266835E+01  0.94454417692E+02  0.96021944079E+02  0.00000000000E+00 0.  1.
         22    1    3    3    0    0 -0.57431920681E+02  0.71846423025E+01 -0.12037694203E+02  0.59118107885E+02  0.00000000000E+00 0.  1.
</event>
<event>
 7    1  0.6888820E-006  0.6151210E+02  0.7818608E-02  0.1445885E+00
          2   -1    0    0  502    0  0.00000000000E+00  0.00000000000E+00  0.11919642544E+04  0.11919642544E+04  0.00000000000E+00 0. -1.
          1   -1    0    0  501    0 -0.00000000000E+00 -0.00000000000E+00 -0.33748176102E+03  0.33748176102E+03  0.00000000000E+00 0. -1.
         25    2    1    2    0    0  0.57468224219E+02  0.18883643088E+02 -0.27408524714E+03  0.30725897362E+03  0.12500466152E+03 0.  0.
          2    1    1    2  501    0 -0.67738641968E+02  0.20270835545E+02 -0.19547097931E+02  0.73358840141E+02  0.00000000000E+00 0. -1.
          1    1    1    2  502    0  0.10270417748E+02 -0.39154478633E+02  0.11481148384E+04  0.11488282017E+04  0.00000000000E+00 0. -1.
         22    1    3    3    0    0  0.37284679853E+01 -0.14765014209E+01  0.13451077217E+02  0.14036132241E+02  0.00000000000E+00 0.  1.
         22    1    3    3    0    0  0.53739756234E+02  0.20360144509E+02 -0.28753632435E+03  0.29322284138E+03  0.00000000000E+00 0.  1.
</event>
<event>
 7    1  0.6888820E-006  0.8634946E+02  0.7818608E-02  0.1412732E+00
          2   -1    0    0  502    0  0.00000000000E+00  0.00000000000E+00  0.86147428360E+03  0.86147428360E+03  0.00000000000E+00 0. -1.
          1   -1    0    0  501    0 -0.00000000000E+00 -0.00000000000E+00 -0.41841537071E+03  0.41841537071E+03  0.00000000000E+00 0. -1.
         25    2    1    2    0    0  0.23243323333E+02  0.67734979867E+02  0.16937040071E+03  0.22234975628E+03  0.12499920761E+03 0.  0.
          2    1    1    2  501    0 -0.60001403978E+02 -0.62820274070E+02 -0.38658520190E+03  0.39622553381E+03  0.00000000000E+00 0. -1.
          1    1    1    2  502    0  0.36758080645E+02 -0.49147057971E+01  0.66027371408E+03  0.66131436423E+03  0.00000000000E+00 0. -1.
         22    1    3    3    0    0  0.41688550979E+02  0.23079095525E+02  0.16733960280E+03  0.17399173140E+03  0.00000000000E+00 0.  1.
         22    1    3    3    0    0 -0.18445227646E+02  0.44655884343E+02  0.20307979112E+01  0.48358024872E+02  0.00000000000E+00 0.  1.
</event>
<event>
 7    1  0.6888820E-006  0.1189775E+03  0.7818608E-02  0.1319174E+00
          2   -1    0    0  502    0  0.00000000000E+00  0.00000000000E+00  0.12035126637E+03  0.12035126637E+03  0.00000000000E+00 0. -1.
          1   -1    0    0  501    0 -0.00000000000E+00 -0.00000000000E+00 -0.22998237226E+04  0.22998237226E+04  0.00000000000E+00 0. -1.
         25    2    1    2    0    0 -0.44903945383E+02  0.15510504313E+03 -0.73334185573E+02  0.21697569259E+03  0.12500643858E+03 0.  0.
          2    1    1    2  501    0  0.13196773083E+02 -0.57218980758E+02 -0.20992549144E+04  0.21000760372E+04  0.00000000000E+00 0. -1.
          1    1    1    2  502    0  0.31707172300E+02 -0.97886062370E+02 -0.68833562616E+01  0.10312325914E+03  0.00000000000E+00 0. -1.
         22    1    3    3    0    0 -0.15672867969E+02 -0.86357528983E+01 -0.44766755941E+02  0.48210760790E+02  0.00000000000E+00 0.  1.
         22    1    3    3    0    0 -0.29231077413E+02  0.16374079603E+03 -0.28567429632E+02  0.16876493180E+03  0.00000000000E+00 0.  1.
</event>
<event>
 7    1  0.6888820E-006  0.5614319E+02  0.7818608E-02  0.1532906E+00
          2   -1    0    0  502    0  0.00000000000E+00  0.00000000000E+00  0.47776821497E+03  0.47776821497E+03  0.00000000000E+00 0. -1.
          1   -1    0    0  501    0 -0.00000000000E+00 -0.00000000000E+00 -0.10664495747E+04  0.10664495747E+04  0.00000000000E+00 0. -1.
         25    2    1    2    0    0 -0.72874858950E+01  0.31551680712E+02  0.25595603739E+02  0.13163816265E+03  0.12499941972E+03 0.  0.
          2    1    1    2  501    0  0.90394766519E+01 -0.55651615272E+02 -0.10122774194E+04  0.10138463337E+04  0.00000000000E+00 0. -1.
          1    1    1    2  502    0 -0.17519907569E+01  0.24099934560E+02  0.39800045594E+03  0.39873329337E+03  0.00000000000E+00 0. -1.
         22    1    3    3    0    0 -0.24923492675E+02  0.18486607447E+02  0.73042428153E+02  0.79360767716E+02  0.00000000000E+00 0. -1.
         22    1    3    3    0    0  0.17636006780E+02  0.13065073265E+02 -0.47446824414E+02  0.52277394938E+02  0.00000000000E+00 0. -1.
</event>
<event>
 7    1  0.6888820E-006  0.2729699E+03  0.7818608E-02  0.1137885E+00
          2   -1    0    0  502    0  0.00000000000E+00  0.00000000000E+00  0.17606870510E+03  0.17606870510E+03  0.00000000000E+00 0. -1.
          1   -1    0    0  501    0 -0.00000000000E+00 -0.00000000000E+00 -0.98155703333E+03  0.98155703333E+03  0.00000000000E+00 0. -1.
         25    2    1    2    0    0  0.23060625621E+02  0.15693413056E+03 -0.52638702501E+02  0.20870165820E+03  0.12500174138E+03 0.  0.
          2    1    1    2  501    0 -0.17684966277E+02 -0.32574246566E+03 -0.69945831674E+03  0.77179197250E+03  0.00000000000E+00 0. -1.
          1    1    1    2  502    0 -0.53756593441E+01  0.16880833510E+03 -0.53391308985E+02  0.17713210773E+03  0.00000000000E+00 0. -1.
         22    1    3    3    0    0 -0.41442942104E+02  0.91894504917E+02 -0.59131412723E+02  0.11687019062E+03  0.00000000000E+00 0.  1.
         22    1    3    3    0    0  0.64503567725E+02  0.65039625639E+02  0.64927102213E+01  0.91831467583E+02  0.00000000000E+00 0.  1.
</event>
<event>
 7    1  0.6888820E-006  0.1250645E+03  0.7818608E-02  0.1356824E+00
          2   -1    0    0  502    0  0.00000000000E+00  0.00000000000E+00  0.16298550722E+04  0.16298550722E+04  0.00000000000E+00 0. -1.
          1   -1    0    0  501    0 -0.00000000000E+00 -0.00000000000E+00 -0.14126358468E+03  0.14126358468E+03  0.00000000000E+00 0. -1.
         25    2    1    2    0    0 -0.82866931101E+02 -0.10184506713E+03  0.37922218213E+02  0.18520386241E+03  0.12499211995E+03 0.  0.
          2    1    1    2  501    0  0.37496921593E+02 -0.14695062205E+02 -0.58802089155E+02  0.71271661066E+02  0.00000000000E+00 0. -1.
          1    1    1    2  502    0  0.45370009508E+02  0.11654012933E+03  0.15094713585E+04  0.15146431334E+04  0.00000000000E+00 0. -1.
         22    1    3    3    0    0 -0.34724351666E+01 -0.90391316725E+02  0.51128650448E+02  0.10390758799E+03  0.00000000000E+00 0.  1.
         22    1    3    3    0    0 -0.79394495934E+02 -0.11453750404E+02 -0.13206432235E+02  0.81296274425E+02  0.00000000000E+00 0.  1.
</event>
<event>
 7    1  0.6888820E-006  0.4402555E+02  0.7818608E-02  0.1481288E+00
          2   -1    0    0  502    0  0.00000000000E+00  0.00000000000E+00  0.87692574640E+03  0.87692574640E+03  0.00000000000E+00 0. -1.
          1   -1    0    0  501    0 -0.00000000000E+00 -0.00000000000E+00 -0.28262351069E+03  0.28262351069E+03  0.00000000000E+00 0. -1.
         25    2    1    2    0    0  0.60320326931E+01  0.29680977794E+01 -0.14233619994E+02  0.12597778594E+03  0.12499044599E+03 0.  0.
          2    1    1    2  501    0 -0.21668595939E+02  0.38323891118E+02 -0.20963603771E+03  0.21420904973E+03  0.00000000000E+00 0. -1.
          1    1    1    2  502    0  0.15636563246E+02 -0.41291988897E+02  0.81817189341E+03  0.81936242142E+03  0.00000000000E+00 0. -1.
         22    1    3    3    0    0  0.87970426829E+01  0.42593197043E+02 -0.54292092644E+02  0.69564356663E+02  0.00000000000E+00 0. -1.
         22    1    3    3    0    0 -0.27650099898E+01 -0.39625099263E+02  0.40058472649E+02  0.56413429278E+02  0.00000000000E+00 0. -1.
</event>
<event>
 7    1  0.6888820E-006  0.9584423E+02  0.7818608E-02  0.1346663E+00
          2   -1    0    0  502    0  0.00000000000E+00  0.00000000000E+00  0.24556377394E+03  0.24556377394E+03  0.00000000000E+00 0. -1.
          1   -1    0    0  501    0 -0.00000000000E+00 -0.00000000000E+00 -0.14010250510E+03  0.14010250510E+03  0.00000000000E+00 0. -1.
         25    2    1    2    0    0  0.78401789250E+02 -0.92035325258E+02  0.41950141832E+02  0.17889211466E+03  0.12500093053E+03 0.  0.
          2    1    1    2  501    0 -0.21197838161E+02  0.88756653962E+02 -0.30894691406E+02  0.96340925480E+02  0.00000000000E+00 0. -1.
          1    1    1    2  502    0 -0.57203951089E+02  0.32786712952E+01  0.94405818412E+02  0.11043323891E+03  0.00000000000E+00 0. -1.
         22    1    3    3    0    0  0.86903758835E+02 -0.58660361873E+01  0.16593620897E+02  0.88668043481E+02  0.00000000000E+00 0.  1.
         22    1    3    3    0    0 -0.85019695849E+01 -0.86169289070E+02  0.25356520934E+02  0.90224071176E+02  0.00000000000E+00 0.  1.
</event>
<event>
 7    1  0.6888820E-006  0.6789186E+02  0.7818608E-02  0.1405407E+00
          2   -1    0    0  502    0  0.00000000000E+00  0.00000000000E+00  0.19196019634E+03  0.19196019634E+03  0.00000000000E+00 0. -1.
          1   -1    0    0  501    0 -0.00000000000E+00 -0.00000000000E+00 -0.44074825753E+03  0.44074825753E+03  0.00000000000E+00 0. -1.
         25    2    1    2    0    0  0.19984085904E+02  0.25037952424E+02  0.74698439931E+02  0.14910717554E+03  0.12500732026E+03 0.  0.
          2    1    1    2  501    0  0.37720434220E+01 -0.68972003511E+02 -0.39243257050E+03  0.39846541627E+03  0.00000000000E+00 0. -1.
          1    1    1    2  502    0 -0.23756129326E+02  0.43934051087E+02  0.68946069372E+02  0.85135862052E+02  0.00000000000E+00 0. -1.
         22    1    3    3    0    0 -0.25262096524E+02  0.62119681463E+02  0.56935254952E+02  0.87969606128E+02  0.00000000000E+00 0. -1.
         22    1    3    3    0    0  0.45246182428E+02 -0.37081729039E+02  0.17763184979E+02  0.61137569411E+02  0.00000000000E+00 0. -1.
</event>
<event>
 7    1  0.6888820E-006  0.5665661E+02  0.7818608E-02  0.1450256E+00
          2   -1    0    0  502    0  0.00000000000E+00  0.00000000000E+00  0.63830797410E+03  0.63830797410E+03  0.00000000000E+00 0. -1.
          1   -1    0    0  501    0 -0.00000000000E+00 -0.00000000000E+00 -0.15481588693E+03  0.15481588693E+03  0.00000000000E+00 0. -1.
         25    2    1    2    0    0  0.53561814347E+02 -0.77959149368E+02  0.11211168104E+03  0.19271799849E+03  0.12499880395E+03 0.  0.
          2    1    1    2  501    0 -0.33225837952E+02  0.26583621706E+02 -0.10892046860E+03  0.11693722132E+03  0.00000000000E+00 0. -1.
          1    1    1    2  502    0 -0.20335976395E+02  0.51375527662E+02  0.48030087473E+03  0.48346864122E+03  0.00000000000E+00 0. -1.
         22    1    3    3    0    0  0.37569233300E+02 -0.11213290247E+03  0.92855713072E+02  0.15035763551E+03  0.00000000000E+00 0.  1.
         22    1    3    3    0    0  0.15992581047E+02  0.34173753097E+02  0.19255967971E+02  0.42360362980E+02  0.00000000000E+00 0.  1.
</event>
<event>
 7    1  0.6888820E-006  0.2807605E+03  0.7818608E-02  0.1267627E+00
          2   -1    0    0  502    0  0.00000000000E+00  0.00000000000E+00  0.91122561481E+03  0.91122561481E+03  0.00000000000E+00 0. -1.
          1   -1    0    0  501    0 -0.00000000000E+00 -0.00000000000E+00 -0.56522213213E+03  0.56522213213E+03  0.00000000000E+00 0. -1.
         25    2    1    2    0    0  0.26442750015E+03 -0.29190311424E+02 -0.41705064167E+02  0.29687850290E+03  0.12499422382E+03 0.  0.
          2    1    1    2  501    0 -0.28736322804E+03 -0.38589686088E+01 -0.34315333450E+03  0.44760108070E+03  0.00000000000E+00 0. -1.
          1    1    1    2  502    0  0.22935727888E+02  0.33049280033E+02  0.73086188135E+03  0.73196816333E+03  0.00000000000E+00 0. -1.
         22    1    3    3    0    0  0.13514794506E+03 -0.77073778445E+02 -0.30673110913E+02  0.15857545242E+03  0.00000000000E+00 0.  1.
         22    1    3    3    0    0  0.12927955509E+03  0.47883467021E+02 -0.11031953254E+02  0.13830305048E+03  0.00000000000E+00 0.  1.
</event>
<event>
 7    1  0.6888820E-006  0.1172094E+03  0.7818608E-02  0.1325508E+00
          2   -1    0    0  502    0  0.00000000000E+00  0.00000000000E+00  0.22640880829E+04  0.22640880829E+04  0.00000000000E+00 0. -1.
          1   -1    0    0  501    0 -0.00000000000E+00 -0.00000000000E+00 -0.11074837876E+04  0.11074837876E+04  0.00000000000E+00 0. -1.
         25    2    1    2    0    0 -0.28770091241E+02 -0.14653639627E+03 -0.19748910763E+03  0.27735807940E+03  0.12499969197E+03 0.  0.
          2    1    1    2  501    0 -0.16961644289E+02  0.11363182518E+03 -0.86590844023E+03  0.87349717569E+03  0.00000000000E+00 0. -1.
          1    1    1    2  502    0  0.45731735530E+02  0.32904571091E+02  0.22200018432E+04  0.22207166155E+04  0.00000000000E+00 0. -1.
         22    1    3    3    0    0 -0.12704260312E+02 -0.66912163054E+02 -0.18245146434E+03  0.19474899906E+03  0.00000000000E+00 0.  1.
         22    1    3    3    0    0 -0.16065830929E+02 -0.79624233220E+02 -0.15037643295E+02  0.82609080344E+02  0.00000000000E+00 0.  1.
</event>
<event>
 7    1  0.6888820E-006  0.1031835E+03  0.7818608E-02  0.1407295E+00
          2   -1    0    0  502    0  0.00000000000E+00  0.00000000000E+00  0.61535834424E+03  0.61535834424E+03  0.00000000000E+00 0. -1.
          1   -1    0    0  501    0 -0.00000000000E+00 -0.00000000000E+00 -0.64788008861E+02  0.64788008861E+02  0.00000000000E+00 0. -1.
         25    2    1    2    0    0  0.58767209406E+02 -0.59650316886E+02  0.28888913861E+03  0.32572073041E+03  0.12500125842E+03 0.  0.
          2    1    1    2  501    0  0.28839880272E+02 -0.14721061971E+02 -0.27984598734E+02  0.42797034078E+02  0.00000000000E+00 0. -1.
          1    1    1    2  502    0 -0.87607089677E+02  0.74371378856E+02  0.28966579551E+03  0.31162858862E+03  0.00000000000E+00 0. -1.
         22    1    3    3    0    0  0.16607247371E+02  0.22472769921E+02  0.18351464064E+03  0.18562987201E+03  0.00000000000E+00 0. -1.
         22    1    3    3    0    0  0.42159962035E+02 -0.82123086806E+02  0.10537449797E+03  0.14009085840E+03  0.00000000000E+00 0. -1.
</event>
<event>
 7    1  0.6888820E-006  0.1627062E+03  0.7818608E-02  0.1242021E+00
          2   -1    0    0  502    0  0.00000000000E+00  0.00000000000E+00  0.13944028017E+03  0.13944028017E+03  0.00000000000E+00 0. -1.
          1   -1    0    0  501    0 -0.00000000000E+00 -0.00000000000E+00 -0.21564925715E+04  0.21564925715E+04  0.00000000000E+00 0. -1.
         25    2    1    2    0    0 -0.21228775688E+02 -0.14912341653E+03 -0.45152904485E+03  0.49212982771E+03  0.12499933884E+03 0.  0.
          2    1    1    2  501    0  0.10861322533E+03  0.12991249321E+03 -0.16629368887E+04  0.16715361750E+04  0.00000000000E+00 0. -1.
          1    1    1    2  502    0 -0.87384449646E+02  0.19210923326E+02  0.97413642263E+02  0.13226684889E+03  0.00000000000E+00 0. -1.
         22    1    3    3    0    0 -0.15315094721E+02  0.20211574469E+02 -0.44069561641E+02  0.50844725705E+02  0.00000000000E+00 0.  1.
         22    1    3    3    0    0 -0.59136809671E+01 -0.16933499100E+03 -0.40745948321E+03  0.44128510201E+03  0.00000000000E+00 0.  1.
</event>
<event>
 7    1  0.6888820E-006  0.1109716E+03  0.7818608E-02  0.1265219E+00
          2   -1    0    0  502    0  0.00000000000E+00  0.00000000000E+00  0.23721498715E+04  0.23721498715E+04  0.00000000000E+00 0. -1.
          1   -1    0    0  501    0 -0.00000000000E+00 -0.00000000000E+00 -0.43130868068E+03  0.43130868068E+03  0.00000000000E+00 0. -1.
         25    2    1    2    0    0  0.33642999040E+02  0.83725831286E+02  0.67510496973E+03  0.69248496568E+03  0.12500736507E+03 0.  0.
          2    1    1    2  501    0  0.70505704476E+02 -0.86632643790E+02 -0.41359556785E+03  0.42841284187E+03  0.00000000000E+00 0. -1.
          1    1    1    2  502    0 -0.10414870352E+03  0.29068125046E+01  0.16793317889E+04  0.16825607446E+04  0.00000000000E+00 0. -1.
         22    1    3    3    0    0  0.24351098440E+01  0.21324797698E+02  0.54001895037E+03  0.54044531964E+03  0.00000000000E+00 0. -1.
         22    1    3    3    0    0  0.31207889196E+02  0.62401033588E+02  0.13508601936E+03  0.15203964604E+03  0.00000000000E+00 0. -1.
</event>
<event>
 7    1  0.6888820E-006  0.4811916E+02  0.7818608E-02  0.1469467E+00
          2   -1    0    0  502    0  0.00000000000E+00  0.00000000000E+00  0.32526827826E+04  0.32526827826E+04  0.00000000000E+00 0. -1.
          1   -1    0    0  501    0 -0.00000000000E+00 -0.00000000000E+00 -0.17077342396E+04  0.17077342396E+04  0.00000000000E+00 0. -1.
         25    2    1    2    0    0  0.96386058150E+01 -0.25081108063E+02 -0.63565899059E+02  0.14278009108E+03  0.12499426460E+03 0.  0.
          2    1    1    2  501    0  0.32581385818E+02  0.35860826691E+02 -0.16040476981E+04  0.16047792881E+04  0.00000000000E+00 0. -1.
          1    1    1    2  502    0 -0.42219991633E+02 -0.10779718628E+02  0.32125621401E+04  0.32128576430E+04  0.00000000000E+00 0. -1.
         22    1    3    3    0    0 -0.29628024837E+02 -0.24873064340E+01 -0.86882472290E+02  0.91829028854E+02  0.00000000000E+00 0.  1.
         22    1    3    3    0    0  0.39266630652E+02 -0.22593801629E+02  0.23316573231E+02  0.50951062227E+02  0.00000000000E+00 0.  1.
</event>
<event>
 7    1  0.6888820E-006  0.9978716E+02  0.7818608E-02  0.1348514E+00
          2   -1    0    0  502    0  0.00000000000E+00  0.00000000000E+00  0.81699410170E+02  0.81699410170E+02  0.00000000000E+00 0. -1.
          1   -1    0    0  501    0 -0.00000000000E+00 -0.00000000000E+00 -0.54777137700E+03  0.54777137700E+03  0.00000000000E+00 0. -1.
         25    2    1    2    0    0 -0.82557490188E+02 -0.40859529948E+02 -0.20269010963E+03  0.25533013797E+03  0.12499983376E+03 0.  0.
          2    1    1    2  501    0 -0.21098184522E+02  0.49890380711E+02 -0.26459750748E+03  0.27008521700E+03  0.00000000000E+00 0. -1.
          1    1    1    2  502    0  0.10365567471E+03 -0.90308507634E+01  0.12156502780E+01  0.10405543220E+03  0.00000000000E+00 0. -1.
         22    1    3    3    0    0  0.16121289188E+02  0.11384934149E+02 -0.10540774410E+03  0.10723947597E+03  0.00000000000E+00 0.  1.
         22    1    3    3    0    0 -0.98678779376E+02 -0.52244464097E+02 -0.97282365532E+02  0.14809066200E+03  0.00000000000E+00 0.  1.
</event>
<event>
 7    1  0.6888820E-006  0.5987709E+02  0.7818608E-02  0.1546624E+00
          2   -1    0    0  502    0  0.00000000000E+00  0.00000000000E+00  0.10739126532E+04  0.10739126532E+04  0.00000000000E+00 0. -1.
          1   -1    0    0  501    0 -0.00000000000E+00 -0.00000000000E+00 -0.79462302520E+02  0.79462302520E+02  0.00000000000E+00 0. -1.
         25    2    1    2    0    0  0.27810372510E+02  0.73966507693E+02  0.62634457413E+02  0.16059822529E+03  0.12499701449E+03 0.  0.
          2    1    1    2  501    0 -0.12827167318E+01 -0.20681074085E+02 -0.25924836188E+02  0.33188090016E+02  0.00000000000E+00 0. -1.
          1    1    1    2  502    0 -0.26527655778E+02 -0.53285433608E+02  0.95774072948E+03  0.95958864044E+03  0.00000000000E+00 0. -1.
         22    1    3    3    0    0 -0.14904863323E+02  0.16102421821E+02 -0.33799576215E+02  0.40297075470E+02  0.00000000000E+00 0. -1.
         22    1    3    3    0    0  0.42715235833E+02  0.57864085872E+02  0.96434033628E+02  0.12030114982E+03  0.00000000000E+00 0. -1.
</event>
<event>
 7    1  0.6888820E-006  0.3688784E+03  0.7818608E-02  0.1289301E+00
          2   -1    0    0  502    0  0.00000000000E+00  0.00000000000E+00  0.51298436155E+03  0.51298436155E+03  0.00000000000E+00 0. -1.
          1   -1    0    0  501    0 -0.00000000000E+00 -0.00000000000E+00 -0.45235637971E+03  0.45235637971E+03  0.00000000000E+00 0. -1.
         25    2    1    2    0    0  0.23402353317E+03  0.30569161548E+03 -0.53975778337E+01  0.40480554744E+03  0.12499607808E+03 0.  0.
          2    1    1    2  501    0 -0.19034602087E+02 -0.16051780073E+02 -0.14198122786E+03  0.14414799612E+03  0.00000000000E+00 0. -1.
          1    1    1    2  502    0 -0.21498893109E+03 -0.28963983541E+03  0.20800678754E+03  0.41638719770E+03  0.00000000000E+00 0. -1.
         22    1    3    3    0    0  0.32467340899E+02  0.13901877584E+03 -0.11197819868E+02  0.14319825219E+03  0.00000000000E+00 0. -1.
         22    1    3    3    0    0  0.20155619227E+03  0.16667283964E+03  0.58002420347E+01  0.26160729524E+03  0.00000000000E+00 0. -1.
</event>
<event>
 7    1  0.6888820E-006  0.8850741E+02  0.7818608E-02  0.1459534E+00
          2   -1    0    0  502    0  0.00000000000E+00  0.00000000000E+00  0.17552569600E+04  0.17552569600E+04  0.00000000000E+00 0. -1.
          1   -1    0    0  501    0 -0.00000000000E+00 -0.00000000000E+00 -0.21065991993E+03  0.21065991993E+03  0.00000000000E+00 0. -1.
         25    2    1    2    0    0  0.95939135133E+02 -0.55653638815E+02  0.24779878420E+03  0.29888082491E+03  0.12499545945E+03 0.  0.
          2    1    1    2  501    0 -0.25043346185E+02  0.45371008805E+01 -0.18294849376E+03  0.18471032955E+03  0.00000000000E+00 0. -1.
          1    1    1    2  502    0 -0.70895788948E+02  0.51116537934E+02  0.14797467496E+04  0.14823257255E+04  0.00000000000E+00 0. -1.
         22    1    3    3    0    0  0.67499396080E+02 -0.32004717162E+02  0.34298206871E+02  0.82199984102E+02  0.00000000000E+00 0.  1.
         22    1    3    3    0    0  0.28439739053E+02 -0.23648921653E+02  0.21350057733E+03  0.21668084081E+03  0.00000000000E+00 0.  1.
</event>
<event>
 7    1  0.6888820E-006  0.1300975E+03  0.7818608E-02  0.1319177E+00
          2   -1    0    0  502    0  0.00000000000E+00  0.00000000000E+00  0.22239839010E+04  0.22239839010E+04  0.00000000000E+00 0. -1.
          1   -1    0    0  501    0 -0.00000000000E+00 -0.00000000000E+00 -0.10911497070E+03  0.10911497070E+03  0.00000000000E+00 0. -1.
         25    2    1    2    0    0 -0.29898402030E+02 -0.16010668580E+03  0.24082017768E+03  0.31645926076E+03  0.12499616179E+03 0.  0.
          2    1    1    2  501    0  0.54122653829E+02  0.11218026963E+03 -0.16222336592E+02  0.12560588663E+03  0.00000000000E+00 0. -1.
          1    1    1    2  502    0 -0.24224251800E+02  0.47926416169E+02  0.18902710892E+04  0.18910337243E+04  0.00000000000E+00 0. -1.
         22    1    3    3    0    0 -0.48573264490E+02 -0.17316555122E+03  0.19493392272E+03  0.26522613819E+03  0.00000000000E+00 0.  1.
         22    1    3    3    0    0  0.18674862461E+02  0.13058865419E+02  0.45886254965E+02  0.51233122573E+02  0.00000000000E+00 0.  1.
</event>
<event>
 7    1  0.6888820E-006  0.1810912E+03  0.7818608E-02  0.1279256E+00
          2   -1    0    0  502    0  0.00000000000E+00  0.00000000000E+00  0.32494346715E+04  0.32494346715E+04  0.00000000000E+00 0. -1.
          1   -1    0    0  501    0 -0.00000000000E+00 -0.00000000000E+00 -0.35273362257E+02  0.35273362257E+02  0.00000000000E+00 0. -1.
         25    2    1    2    0    0  0.14392792991E+03  0.67886821547E+02  0.10940479268E+04  0.11126005482E+04  0.12496097117E+03 0.  0.
          2    1    1    2  501    0  0.48139783960E+01  0.55561905043E+02  0.14478379273E+02  0.57618774253E+02  0.00000000000E+00 0. -1.
          1    1    1    2  502    0 -0.14874190831E+03 -0.12344872659E+03  0.21056350032E+04  0.21144887113E+04  0.00000000000E+00 0. -1.
         22    1    3    3    0    0  0.20583381066E+01  0.60028715955E+02  0.34710044211E+03  0.35225899621E+03  0.00000000000E+00 0.  1.
         22    1    3    3    0    0  0.14186959180E+03  0.78581055916E+01  0.74694748467E+03  0.76034155204E+03  0.00000000000E+00 0.  1.
</event>
<event>
 7    1  0.6888820E-006  0.8178350E+02  0.7818608E-02  0.1412419E+00
          2   -1    0    0  502    0  0.00000000000E+00  0.00000000000E+00  0.13371238751E+04  0.13371238751E+04  0.00000000000E+00 0. -1.
          1   -1    0    0  501    0 -0.00000000000E+00 -0.00000000000E+00 -0.36288136746E+02  0.36288136746E+02  0.00000000000E+00 0. -1.
         25    2    1    2    0    0  0.12657025595E+02 -0.54028213623E+02  0.24552769197E+03  0.28105320535E+03  0.12501123370E+03 0.  0.
          2    1    1    2  501    0  0.36224016862E+02 -0.15114682112E+02  0.60794592017E+01  0.39718922910E+02  0.00000000000E+00 0. -1.
          1    1    1    2  502    0 -0.48881042457E+02  0.69142895734E+02  0.10492285872E+04  0.10526398836E+04  0.00000000000E+00 0. -1.
         22    1    3    3    0    0  0.24381916472E+02 -0.14001248058E+02  0.23677162332E+03  0.23843513669E+03  0.00000000000E+00 0. -1.
         22    1    3    3    0    0 -0.11724890877E+02 -0.40026965564E+02  0.87560686444E+01  0.42618068662E+02  0.00000000000E+00 0. -1.
</event>
<event>
 7    1  0.6888820E-006  0.5379266E+02  0.7818608E-02  0.1456143E+00
          2   -1    0    0  502    0  0.00000000000E+00  0.00000000000E+00  0.25323933129E+04  0.25323933129E+04  0.00000000000E+00 0. -1.
          1   -1    0    0  501    0 -0.00000000000E+00 -0.00000000000E+00 -0.12733897156E+04  0.12733897156E+04  0.00000000000E+00 0. -1.
         25    2    1    2    0    0 -0.10189229130E+02  0.59591922644E+01  0.12483024907E+04  0.12546016594E+04  0.12500753180E+03 0.  0.
          2    1    1    2  501    0  0.34253678702E+02 -0.41502158165E+02 -0.12693103099E+04  0.12704504738E+04  0.00000000000E+00 0. -1.
          1    1    1    2  502    0 -0.24064449572E+02  0.35542965901E+02  0.12800114165E+04  0.12807308954E+04  0.00000000000E+00 0. -1.
         22    1    3    3    0    0  0.78327652753E+01  0.64123480093E+02  0.62146520281E+03  0.62481370921E+03  0.00000000000E+00 0. -1.
         22    1    3    3    0    0 -0.18021994405E+02 -0.58164287828E+02  0.62683728790E+03  0.62978795016E+03  0.00000000000E+00 0. -1.
</event>
<event>
 7    1  0.6888820E-006  0.7947863E+02  0.7818608E-02  0.1413787E+00
          2   -1    0    0  502    0  0.00000000000E+00  0.00000000000E+00  0.36222468950E+03  0.36222468950E+03  0.00000000000E+00 0. -1.
          1   -1    0    0  501    0 -0.00000000000E+00 -0.00000000000E+00 -0.23608468853E+04  0.23608468853E+04  0.00000000000E+00 0. -1.
         25    2    1    2    0    0 -0.44742595112E+02 -0.30578357035E+02 -0.65187618206E+03  0.66596108139E+03  0.12499867782E+03 0.  0.
          2    1    1    2  501    0  0.66317436729E+01 -0.39408267598E+02 -0.16972201539E+04  0.16976905614E+04  0.00000000000E+00 0. -1.
          1    1    1    2  502    0  0.38110851439E+02  0.69986624633E+02  0.35047414013E+03  0.35941993201E+03  0.00000000000E+00 0. -1.
         22    1    3    3    0    0 -0.13506653786E+02 -0.20840064106E+01 -0.59466624780E+03  0.59482326707E+03  0.00000000000E+00 0. -1.
         22    1    3    3    0    0 -0.31235941326E+02 -0.28494350624E+02 -0.57209934258E+02  0.71137814317E+02  0.00000000000E+00 0. -1.
</event>
<event>
 7    1  0.6888820E-006  0.6429266E+02  0.7818608E-02  0.1514994E+00
          2   -1    0    0  502    0  0.00000000000E+00  0.00000000000E+00  0.13491142348E+04  0.13491142348E+04  0.00000000000E+00 0. -1.
          1   -1    0    0  501    0 -0.00000000000E+00 -0.00000000000E+00 -0.52029137564E+02  0.52029137564E+02  0.00000000000E+00 0. -1.
         25    2    1    2    0    0  0.14847841385E+02 -0.54677747865E+02  0.27697674968E+03  0.30911390258E+03  0.12500068159E+03 0.  0.
          2    1    1    2  501    0 -0.38548548258E+02  0.52857746746E+02 -0.59542287915E+01  0.65691588536E+02  0.00000000000E+00 0. -1.
          1    1    1    2  502    0  0.23700706873E+02  0.18200011182E+01  0.10260625764E+04  0.10263378813E+04  0.00000000000E+00 0. -1.
         22    1    3    3    0    0 -0.42841122583E+02 -0.45602801133E+02  0.69231091672E+02  0.93316243546E+02  0.00000000000E+00 0. -1.
         22    1    3    3    0    0  0.57688963968E+02 -0.90749467315E+01  0.20774565801E+03  0.21579765903E+03  0.00000000000E+00 0. -1.
</event>
<event>
 7    1  0.6888820E-006  0.7484607E+02  0.7818608E-02  0.1367607E+00
          2   -1    0    0  502    0  0.00000000000E+00  0.00000000000E+00  0.84868464165E+02  0.84868464165E+02  0.00000000000E+00 0. -1.
          1   -1    0    0  501    0 -0.00000000000E+00 -0.00000000000E+00 -0.12308749577E+04  0.12308749577E+04  0.00000000000E+00 0. -1.
         25    2    1    2    0    0  0.12593982586E+02 -0.56636149037E+02 -0.95554831499E+02  0.16771394557E+03  0.12502391748E+03 0.  0.
          2    1    1    2  501    0 -0.69089863798E+02  0.32377140634E+02 -0.10779708969E+04  0.10806678227E+04  0.00000000000E+00 0. -1.
          1    1    1    2  502    0  0.56495881212E+02  0.24259008403E+02  0.27519234868E+02  0.67361653560E+02  0.00000000000E+00 0. -1.
         22    1    3    3    0    0  0.68557243184E+02 -0.32390528026E+02 -0.62990988945E+02  0.98575385300E+02  0.00000000000E+00 0. -1.
         22    1    3    3    0    0 -0.55963260598E+02 -0.24245621010E+02 -0.32563842554E+02  0.69138560274E+02  0.00000000000E+00 0. -1.
</event>
<event>
 7    1  0.1023430E-005  0.1144983E+03  0.7818608E-02  0.1331893E+00
          2   -1    0    0  502    0  0.00000000000E+00  0.00000000000E+00  0.28117807639E+04  0.28117807639E+04  0.00000000000E+00 0. -1.
          1   -1    0    0  501    0 -0.00000000000E+00 -0.00000000000E+00 -0.10251993768E+04  0.10251993768E+04  0.00000000000E+00 0. -1.
         25    2    1    2    0    0  0.82415433750E+02  0.74328710056E+02 -0.21601876360E+03  0.27312759644E+03  0.12497006382E+03 0.  0.
          2    1    1    2  501    0  0.28694403980E+02 -0.46354549148E+02 -0.77849331356E+03  0.78039986693E+03  0.00000000000E+00 0. -1.
          1    1    1    2  502    0 -0.11110983773E+03 -0.27974160908E+02  0.27810934643E+04  0.27834526773E+04  0.00000000000E+00 0. -1.
         22    1    3    3    0    0  0.95195133295E+02  0.10023987740E+03 -0.17951816381E+03  0.22657651591E+03  0.00000000000E+00 0. -1.
         22    1    3    3    0    0 -0.12779699545E+02 -0.25911167341E+02 -0.36500599796E+02  0.46551080535E+02  0.00000000000E+00 0. -1.
</event>
<event>
 7    1  0.6888820E-006  0.4049136E+02  0.7818608E-02  0.1522699E+00
          2   -1    0    0  502    0  0.00000000000E+00  0.00000000000E+00  0.18215893390E+04  0.18215893390E+04  0.00000000000E+00 0. -1.
          1   -1    0    0  501    0 -0.00000000000E+00 -0.00000000000E+00 -0.76674658248E+02  0.76674658248E+02  0.00000000000E+00 0. -1.
         25    2    1    2    0    0  0.18736366444E+02  0.90291951358E+01  0.61630768958E+03  0.62920023822E+03  0.12500077498E+03 0.  0.
          2    1    1    2  501    0 -0.14203542561E+02  0.32910575797E+02 -0.65257661918E+02  0.74454073493E+02  0.00000000000E+00 0. -1.
          1    1    1    2  502    0 -0.45328238827E+01 -0.41939770933E+02  0.11938646531E+04  0.11946096855E+04  0.00000000000E+00 0. -1.
         22    1    3    3    0    0 -0.45470303155E+02  0.34786677427E+02  0.25810963157E+03  0.26438275910E+03  0.00000000000E+00 0. -1.
         22    1    3    3    0    0  0.64206669599E+02 -0.25757482291E+02  0.35819805800E+03  0.36481747912E+03  0.00000000000E+00 0. -1.
</event>
<event>
 7    1  0.6888820E-006  0.3068129E+02  0.7818608E-02  0.1591745E+00
          2   -1    0    0  502    0  0.00000000000E+00  0.00000000000E+00  0.16010283782E+04  0.16010283782E+04  0.00000000000E+00 0. -1.
          1   -1    0    0  501    0 -0.00000000000E+00 -0.00000000000E+00 -0.49394560177E+03  0.49394560177E+03  0.00000000000E+00 0. -1.
         25    2    1    2    0    0  0.57180435575E+02  0.21335181088E+02 -0.23988286489E+03  0.27729692264E+03  0.12500000910E+03 0.  0.
          2    1    1    2  501    0 -0.27848564079E+02 -0.12395570619E+02 -0.23421942307E+03  0.23619468842E+03  0.00000000000E+00 0. -1.
          1    1    1    2  502    0 -0.29331871496E+02 -0.89396104693E+01  0.15811850644E+04  0.15814823689E+04  0.00000000000E+00 0. -1.
         22    1    3    3    0    0 -0.17862538013E+02  0.49953115989E+02 -0.13605008490E+03  0.14602742777E+03  0.00000000000E+00 0.  1.
         22    1    3    3    0    0  0.75042973588E+02 -0.28617934901E+02 -0.10383277999E+03  0.13126949487E+03  0.00000000000E+00 0.  1.
</event>
<event>
 7    1  0.6888820E-006  0.6536883E+03  0.7818608E-02  0.1243202E+00
          2   -1    0    0  502    0  0.00000000000E+00  0.00000000000E+00  0.53644951243E+03  0.53644951243E+03  0.00000000000E+00 0. -1.
          1   -1    0    0  501    0 -0.00000000000E+00 -0.00000000000E+00 -0.21647093326E+04  0.21647093326E+04  0.00000000000E+00 0. -1.
         25    2    1    2    0    0  0.46230424439E+03 -0.45943695686E+03 -0.63373133990E+02  0.66667327756E+03  0.12501829146E+03 0.  0.
          2    1    1    2  501    0  0.18185832245E+02  0.12390401186E+02 -0.13408138532E+04  0.13409944204E+04  0.00000000000E+00 0. -1.
          1    1    1    2  502    0 -0.48049007663E+03  0.44704655567E+03 -0.22407283303E+03  0.69349114715E+03  0.00000000000E+00 0. -1.
         22    1    3    3    0    0  0.86416078238E+01  0.40118291820E+01  0.10227500394E+02  0.13977622240E+02  0.00000000000E+00 0. -1.
         22    1    3    3    0    0  0.45366263656E+03 -0.46344878604E+03 -0.73600634384E+02  0.65269565532E+03  0.00000000000E+00 0. -1.
</event>
<event>
 7    1  0.6888820E-006  0.4540444E+02  0.7818608E-02  0.1506013E+00
          2   -1    0    0  502    0  0.00000000000E+00  0.00000000000E+00  0.42268575947E+03  0.42268575947E+03  0.00000000000E+00 0. -1.
          1   -1    0    0  501    0 -0.00000000000E+00 -0.00000000000E+00 -0.35937187852E+03  0.35937187852E+03  0.00000000000E+00 0. -1.
         25    2    1    2    0    0  0.32018770003E+02  0.24972508261E+02 -0.11305829567E+03  0.17336690792E+03  0.12500031496E+03 0.  0.
          2    1    1    2  501    0 -0.46198807613E+02  0.78667226417E+01 -0.21278933569E+03  0.21788877101E+03  0.00000000000E+00 0. -1.
          1    1    1    2  502    0  0.14180037610E+02 -0.32839230903E+02  0.38916151230E+03  0.39080195906E+03  0.00000000000E+00 0. -1.
         22    1    3    3    0    0  0.22524855087E+02  0.48965540724E+02  0.34761560348E+01  0.54009970707E+02  0.00000000000E+00 0. -1.
         22    1    3    3    0    0  0.94939149165E+01 -0.23993032462E+02 -0.11653445170E+03  0.11935693721E+03  0.00000000000E+00 0. -1.
</event>
<event>
 7    1  0.6888820E-006  0.3849650E+02  0.7818608E-02  0.1546159E+00
          2   -1    0    0  502    0  0.00000000000E+00  0.00000000000E+00  0.12534816181E+03  0.12534816181E+03  0.00000000000E+00 0. -1.
          1   -1    0    0  501    0 -0.00000000000E+00 -0.00000000000E+00 -0.17257038016E+03  0.17257038016E+03  0.00000000000E+00 0. -1.
         25    2    1    2    0    0  0.63398743571E+00  0.81621825646E+01  0.80844336943E+01  0.12553123010E+03  0.12500283396E+03 0.  0.
          2    1    1    2  501    0  0.69654412266E+01 -0.39581921235E+02 -0.10538134575E+03  0.11278507833E+03  0.00000000000E+00 0. -1.
          1    1    1    2  502    0 -0.75994286623E+01  0.31419738671E+02  0.50074693706E+02  0.59602233548E+02  0.00000000000E+00 0. -1.
         22    1    3    3    0    0 -0.44124056840E+02 -0.32963158845E+02 -0.19970539887E+02  0.58586045236E+02  0.00000000000E+00 0.  1.
         22    1    3    3    0    0  0.44758044276E+02  0.41125341409E+02  0.28054973581E+02  0.66945184861E+02  0.00000000000E+00 0.  1.
</event>
<event>
 7    1  0.6888820E-006  0.5889515E+02  0.7818608E-02  0.1492707E+00
          2   -1    0    0  502    0  0.00000000000E+00  0.00000000000E+00  0.63141458482E+03  0.63141458482E+03  0.00000000000E+00 0. -1.
          1   -1    0    0  501    0 -0.00000000000E+00 -0.00000000000E+00 -0.44409268065E+03  0.44409268065E+03  0.00000000000E+00 0. -1.
         25    2    1    2    0    0 -0.16194836981E+02 -0.50133992215E+02  0.50790999889E+02  0.14484547703E+03  0.12499918650E+03 0.  0.
          2    1    1    2  501    0  0.44364499768E+02  0.39194939634E+02 -0.39442695537E+03  0.39884467561E+03  0.00000000000E+00 0. -1.
          1    1    1    2  502    0 -0.28169662787E+02  0.10939052581E+02  0.53095785966E+03  0.53181711284E+03  0.00000000000E+00 0. -1.
         22    1    3    3    0    0 -0.35626153668E+02  0.29301685626E+02 -0.41675121099E+01  0.46316085358E+02  0.00000000000E+00 0. -1.
         22    1    3    3    0    0  0.19431316687E+02 -0.79435677841E+02  0.54958511998E+02  0.98529391673E+02  0.00000000000E+00 0. -1.
</event>
<event>
 7    1  0.6888820E-006  0.9656644E+02  0.7818608E-02  0.1314185E+00
          2   -1    0    0  502    0  0.00000000000E+00  0.00000000000E+00  0.20411251924E+04  0.20411251924E+04  0.00000000000E+00 0. -1.
          1   -1    0    0  501    0 -0.00000000000E+00 -0.00000000000E+00 -0.80825082465E+02  0.80825082465E+02  0.00000000000E+00 0. -1.
         25    2    1    2    0    0  0.12700496735E+02 -0.24205849248E+02  0.46963519911E+03  0.48675402049E+03  0.12500012189E+03 0.  0.
          2    1    1    2  501    0 -0.24078301770E+02  0.99009901662E+02 -0.34937340314E+02  0.10771881447E+03  0.00000000000E+00 0. -1.
          1    1    1    2  502    0  0.11377805035E+02 -0.74804052415E+02  0.15256022512E+04  0.15274774399E+04  0.00000000000E+00 0. -1.
         22    1    3    3    0    0  0.53991363399E+02 -0.12921022527E+02  0.40772271823E+03  0.41148491480E+03  0.00000000000E+00 0.  1.
         22    1    3    3    0    0 -0.41290866664E+02 -0.11284826721E+02  0.61912480872E+02  0.75269105692E+02  0.00000000000E+00 0.  1.
</event>
<event>
 7    1  0.6888820E-006  0.4685608E+02  0.7818608E-02  0.1470788E+00
          2   -1    0    0  502    0  0.00000000000E+00  0.00000000000E+00  0.15875946960E+04  0.15875946960E+04  0.00000000000E+00 0. -1.
          1   -1    0    0  501    0 -0.00000000000E+00 -0.00000000000E+00 -0.18803108617E+03  0.18803108617E+03  0.00000000000E+00 0. -1.
         25    2    1    2    0    0  0.28868966812E+02  0.70403231936E+02 -0.24824502017E+02  0.14843187780E+03  0.12500293650E+03 0.  0.
          2    1    1    2  501    0 -0.36530029266E+02 -0.26742633222E+02 -0.96010581729E+02  0.10614915578E+03  0.00000000000E+00 0. -1.
          1    1    1    2  502    0  0.76610624535E+01 -0.43660598714E+02  0.15203986935E+04  0.15210447486E+04  0.00000000000E+00 0. -1.
         22    1    3    3    0    0 -0.33504408618E+02  0.76509691284E+02 -0.10903455038E+02  0.84232794024E+02  0.00000000000E+00 0.  1.
         22    1    3    3    0    0  0.62373375431E+02 -0.61064593484E+01 -0.13921046978E+02  0.64199083774E+02  0.00000000000E+00 0.  1.
</event>
<event>
 7    1  0.6888820E-006  0.2616699E+03  0.7818608E-02  0.1151647E+00
          2   -1    0    0  502    0  0.00000000000E+00  0.00000000000E+00  0.98181949182E+03  0.98181949182E+03  0.00000000000E+00 0. -1.
          1   -1    0    0  501    0 -0.00000000000E+00 -0.00000000000E+00 -0.20571959291E+04  0.20571959291E+04  0.00000000000E+00 0. -1.
         25    2    1    2    0    0 -0.28574547870E+03  0.14498616259E+03  0.14585474246E+03  0.37358990112E+03  0.12499736949E+03 0.  0.
          2    1    1    2  501    0  0.30088738326E+02 -0.14639147203E+03 -0.19177001370E+04  0.19235149104E+04  0.00000000000E+00 0. -1.
          1    1    1    2  502    0  0.25565674038E+03  0.14053094310E+01  0.69646895727E+03  0.74191060933E+03  0.00000000000E+00 0. -1.
         22    1    3    3    0    0 -0.13923648110E+03  0.70674596017E+01  0.85395402882E+02  0.16349043240E+03  0.00000000000E+00 0. -1.
         22    1    3    3    0    0 -0.14650899761E+03  0.13791870299E+03  0.60459339577E+02  0.21009946872E+03  0.00000000000E+00 0. -1.
</event>
<event>
 7    1  0.6888820E-006  0.1132454E+03  0.7818608E-02  0.1288112E+00
          2   -1    0    0  502    0  0.00000000000E+00  0.00000000000E+00  0.18896979465E+03  0.18896979465E+03  0.00000000000E+00 0. -1.
          1   -1    0    0  501    0 -0.00000000000E+00 -0.00000000000E+00 -0.94872227821E+03  0.94872227821E+03  0.00000000000E+00 0. -1.
         25    2    1    2    0    0 -0.12773389432E+02  0.58658635613E+02 -0.20525290770E+02  0.14018112485E+03  0.12500186076E+03 0.  0.
          2    1    1    2  501    0  0.16082426241E+02  0.80422889845E+02 -0.82827905536E+03  0.83232966978E+03  0.00000000000E+00 0. -1.
          1    1    1    2  502    0 -0.33090368094E+01 -0.13908152546E+03  0.89051862570E+02  0.16518127822E+03  0.00000000000E+00 0. -1.
         22    1    3    3    0    0  0.36344227851E+01 -0.29668848881E+01  0.47039557295E+02  0.47272945597E+02  0.00000000000E+00 0.  1.
         22    1    3    3    0    0 -0.16407812217E+02  0.61625520501E+02 -0.67564848064E+02  0.92908179256E+02  0.00000000000E+00 0.  1.
</event>
<event>
 7    1  0.6888820E-006  0.5190883E+02  0.7818608E-02  0.1443081E+00
          2   -1    0    0  502    0  0.00000000000E+00  0.00000000000E+00  0.91131246540E+03  0.91131246540E+03  0.00000000000E+00 0. -1.
          1   -1    0    0  501    0 -0.00000000000E+00 -0.00000000000E+00 -0.16955507894E+04  0.16955507894E+04  0.00000000000E+00 0. -1.
         25    2    1    2    0    0  0.81796171897E+02 -0.20856849042E+02 -0.79187517607E+02  0.17035893841E+03  0.12500353220E+03 0.  0.
          2    1    1    2  501    0 -0.46067024370E+02 -0.16629721781E+02 -0.15696208183E+04  0.15703847400E+04  0.00000000000E+00 0. -1.
          1    1    1    2  502    0 -0.35729147527E+02  0.37486570824E+02  0.86457001195E+03  0.86611957635E+03  0.00000000000E+00 0. -1.
         22    1    3    3    0    0  0.74337907426E+02  0.34266934808E+02 -0.11362207597E+02  0.82640468677E+02  0.00000000000E+00 0.  1.
         22    1    3    3    0    0  0.74582644704E+01 -0.55123783850E+02 -0.67825310010E+02  0.87718469736E+02  0.00000000000E+00 0.  1.
</event>
<event>
 7    1  0.6888820E-006  0.7257614E+02  0.7818608E-02  0.1415461E+00
          2   -1    0    0  502    0  0.00000000000E+00  0.00000000000E+00  0.60543873960E+03  0.60543873960E+03  0.00000000000E+00 0. -1.
          1   -1    0    0  501    0 -0.00000000000E+00 -0.00000000000E+00 -0.90064040640E+03  0.90064040640E+03  0.00000000000E+00 0. -1.
         25    2    1    2    0    0  0.46495412978E+02  0.54395618748E+02 -0.11323732857E+03  0.18320997723E+03  0.12498998522E+03 0.  0.
          2    1    1    2  501    0 -0.39254828426E+02  0.18033542810E+02 -0.74947022458E+03  0.75071417180E+03  0.00000000000E+00 0. -1.
          1    1    1    2  502    0 -0.72405845517E+01 -0.72429161558E+02  0.56750588635E+03  0.57215499696E+03  0.00000000000E+00 0. -1.
         22    1    3    3    0    0  0.87134647516E+02  0.37294371901E+02 -0.53100151885E+02  0.10864135080E+03  0.00000000000E+00 0.  1.
         22    1    3    3    0    0 -0.40639234538E+02  0.17101246847E+02 -0.60137176686E+02  0.74568626428E+02  0.00000000000E+00 0.  1.
</event>
<event>
 7    1  0.6888820E-006  0.1042262E+03  0.7818608E-02  0.1332825E+00
          2   -1    0    0  502    0  0.00000000000E+00  0.00000000000E+00  0.18276452321E+03  0.18276452321E+03  0.00000000000E+00 0. -1.
          1   -1    0    0  501    0 -0.00000000000E+00 -0.00000000000E+00 -0.32948475600E+03  0.32948475600E+03  0.00000000000E+00 0. -1.
         25    2    1    2    0    0 -0.75360230544E+02  0.13600657519E+03  0.61821244475E+02  0.20883374339E+03  0.12495084341E+03 0.  0.
          2    1    1    2  501    0  0.32497973856E+02 -0.94878243523E+02 -0.22102599131E+03  0.24271482903E+03  0.00000000000E+00 0. -1.
          1    1    1    2  502    0  0.42862256688E+02 -0.41128331668E+02  0.12484514040E+02  0.60700706791E+02  0.00000000000E+00 0. -1.
         22    1    3    3    0    0 -0.75108655727E+02  0.20785544511E+02  0.50932129985E+02  0.93099038075E+02  0.00000000000E+00 0.  1.
         22    1    3    3    0    0 -0.25157481723E+00  0.11522103068E+03  0.10889114490E+02  0.11573470532E+03  0.00000000000E+00 0.  1.
</event>
<event>
 7    1  0.6888820E-006  0.9455918E+02  0.7818608E-02  0.1370170E+00
          2   -1    0    0  502    0  0.00000000000E+00  0.00000000000E+00  0.51237530317E+03  0.51237530317E+03  0.00000000000E+00 0. -1.
          1   -1    0    0  501    0 -0.00000000000E+00 -0.00000000000E+00 -0.89126697259E+03  0.89126697259E+03  0.00000000000E+00 0. -1.
         25    2    1    2    0    0 -0.12759001929E+03  0.15520349878E+01  0.21019935075E+03  0.27584465990E+03  0.12499955003E+03 0.  0.
          2    1    1    2  501    0  0.89371075498E+02 -0.29997681984E+02 -0.85372251927E+03  0.85891163106E+03  0.00000000000E+00 0. -1.
          1    1    1    2  502    0  0.38218943789E+02  0.28445646996E+02  0.26463149911E+03  0.26888598480E+03  0.00000000000E+00 0. -1.
         22    1    3    3    0    0 -0.10871395130E+03 -0.39293369603E+01  0.22587313176E+03  0.25070467596E+03  0.00000000000E+00 0.  1.
         22    1    3    3    0    0 -0.18876067990E+02  0.54813719481E+01 -0.15673781017E+02  0.25139983941E+02  0.00000000000E+00 0.  1.
</event>
<event>
 7    1  0.6888820E-006  0.4876725E+02  0.7818608E-02  0.1569438E+00
          2   -1    0    0  502    0  0.00000000000E+00  0.00000000000E+00  0.16387621126E+03  0.16387621126E+03  0.00000000000E+00 0. -1.
          1   -1    0    0  501    0 -0.00000000000E+00 -0.00000000000E+00 -0.79771985772E+03  0.79771985772E+03  0.00000000000E+00 0. -1.
         25    2    1    2    0    0  0.33901520914E+02 -0.20279624187E+02 -0.66861745311E+00  0.13109605573E+03  0.12500061000E+03 0.  0.
          2    1    1    2  501    0 -0.48765976624E+02  0.40506441616E+01 -0.72978062926E+03  0.73141937016E+03  0.00000000000E+00 0. -1.
          1    1    1    2  502    0  0.14864455710E+02  0.16228980025E+02  0.96605600253E+02  0.99080643097E+02  0.00000000000E+00 0. -1.
         22    1    3    3    0    0  0.78910707924E+02 -0.10028351686E+02 -0.18400273744E+02  0.81645806606E+02  0.00000000000E+00 0. -1.
         22    1    3    3    0    0 -0.45009187010E+02 -0.10251272501E+02  0.17731656291E+02  0.49450249120E+02  0.00000000000E+00 0. -1.
</event>
<event>
 7    1  0.6888820E-006  0.5935350E+02  0.7818608E-02  0.1407980E+00
          2   -1    0    0  502    0  0.00000000000E+00  0.00000000000E+00  0.14661264298E+04  0.14661264298E+04  0.00000000000E+00 0. -1.
          1   -1    0    0  501    0 -0.00000000000E+00 -0.00000000000E+00 -0.12236250498E+04  0.12236250498E+04  0.00000000000E+00 0. -1.
         25    2    1    2    0    0 -0.17125364495E+02 -0.16329042447E+02 -0.73433803884E+01  0.12743145594E+03  0.12499973997E+03 0.  0.
          2    1    1    2  501    0  0.40353608493E+02 -0.38812932084E+02 -0.11549225828E+04  0.11562789584E+04  0.00000000000E+00 0. -1.
          1    1    1    2  502    0 -0.23228243998E+02  0.55141974531E+02  0.14047673432E+04  0.14060410653E+04  0.00000000000E+00 0. -1.
         22    1    3    3    0    0 -0.42208294066E+02  0.31854961605E+02 -0.37942962965E+02  0.65084154026E+02  0.00000000000E+00 0.  1.
         22    1    3    3    0    0  0.25082929571E+02 -0.48184004052E+02  0.30599582576E+02  0.62347301916E+02  0.00000000000E+00 0.  1.
</event>
<event>
 7    1  0.6888820E-006  0.4009656E+02  0.7818608E-02  0.1557382E+00
          2   -1    0    0  502    0  0.00000000000E+00  0.00000000000E+00  0.73155589317E+03  0.73155589317E+03  0.00000000000E+00 0. -1.
          1   -1    0    0  501    0 -0.00000000000E+00 -0.00000000000E+00 -0.21999251388E+03  0.21999251388E+03  0.00000000000E+00 0. -1.
         25    2    1    2    0    0 -0.19014980595E+02  0.33437474493E+02 -0.84440719108E+02  0.15567666276E+03  0.12500141638E+03 0.  0.
          2    1    1    2  501    0 -0.19315474933E+02 -0.21473061949E+02 -0.97253829263E+02  0.10145189632E+03  0.00000000000E+00 0. -1.
          1    1    1    2  502    0  0.38330455528E+02 -0.11964412543E+02  0.69325792766E+03  0.69441984797E+03  0.00000000000E+00 0. -1.
         22    1    3    3    0    0 -0.32763569917E+02 -0.39134016932E+02 -0.57916707781E+02  0.77196294180E+02  0.00000000000E+00 0.  1.
         22    1    3    3    0    0  0.13748589322E+02  0.72571491425E+02 -0.26524011328E+02  0.78480368582E+02  0.00000000000E+00 0.  1.
</event>
<event>
 7    1  0.6888820E-006  0.6873496E+02  0.7818608E-02  0.1384646E+00
          2   -1    0    0  502    0  0.00000000000E+00  0.00000000000E+00  0.21476912490E+03  0.21476912490E+03  0.00000000000E+00 0. -1.
          1   -1    0    0  501    0 -0.00000000000E+00 -0.00000000000E+00 -0.25723252846E+03  0.25723252846E+03  0.00000000000E+00 0. -1.
         25    2    1    2    0    0  0.28589899192E+02  0.28548861428E+02  0.96377469557E+02  0.16292351816E+03  0.12499214499E+03 0.  0.
          2    1    1    2  501    0  0.46739749271E+02 -0.50397321516E+02 -0.19880259147E+03  0.21034962456E+03  0.00000000000E+00 0. -1.
          1    1    1    2  502    0 -0.75329648464E+02  0.21848460088E+02  0.59961718351E+02  0.98728510641E+02  0.00000000000E+00 0. -1.
         22    1    3    3    0    0  0.37170905551E+02  0.26325974314E+02  0.12495749263E+03  0.13300040642E+03  0.00000000000E+00 0.  1.
         22    1    3    3    0    0 -0.85810063583E+01  0.22228871138E+01 -0.28580023077E+02  0.29923111742E+02  0.00000000000E+00 0.  1.
</event>
<event>
 7    1  0.6888820E-006  0.9487195E+02  0.7818608E-02  0.1338210E+00
          2   -1    0    0  502    0  0.00000000000E+00  0.00000000000E+00  0.91321970110E+03  0.91321970110E+03  0.00000000000E+00 0. -1.
          1   -1    0    0  501    0 -0.00000000000E+00 -0.00000000000E+00 -0.55073465758E+03  0.55073465758E+03  0.00000000000E+00 0. -1.
         25    2    1    2    0    0 -0.93615104749E+02 -0.11047126740E+01  0.13471458973E+03  0.20624465623E+03  0.12499531715E+03 0.  0.
          2    1    1    2  501    0  0.74026535410E+02  0.60208894709E+02 -0.50922534123E+03  0.51808830048E+03  0.00000000000E+00 0. -1.
          1    1    1    2  502    0  0.19588569339E+02 -0.59104182035E+02  0.73699579502E+03  0.73962140198E+03  0.00000000000E+00 0. -1.
         22    1    3    3    0    0 -0.81683028581E+02 -0.25789204263E+02  0.19548230272E+02  0.87859737772E+02  0.00000000000E+00 0. -1.
         22    1    3    3    0    0 -0.11932076169E+02  0.24684491589E+02  0.11516635946E+03  0.11838491846E+03  0.00000000000E+00 0. -1.
</event>
<event>
 7    1  0.6888820E-006  0.1721417E+03  0.7818608E-02  0.1257639E+00
          2   -1    0    0  502    0  0.00000000000E+00  0.00000000000E+00  0.58408701494E+02  0.58408701494E+02  0.00000000000E+00 0. -1.
          1   -1    0    0  501    0 -0.00000000000E+00 -0.00000000000E+00 -0.18073651080E+04  0.18073651080E+04  0.00000000000E+00 0. -1.
         25    2    1    2    0    0  0.11014705680E+02  0.14826951038E+03 -0.50862568617E+03  0.54445306900E+03  0.12499553696E+03 0.  0.
          2    1    1    2  501    0 -0.81320602664E+02 -0.16533870886E+03 -0.12351168242E+04  0.12487848087E+04  0.00000000000E+00 0. -1.
          1    1    1    2  502    0  0.70305896984E+02  0.17069198481E+02 -0.52138961476E+01  0.72535931789E+02  0.00000000000E+00 0. -1.
         22    1    3    3    0    0 -0.29059406449E+02  0.75591387612E+02 -0.10618204371E+03  0.13354075554E+03  0.00000000000E+00 0.  1.
         22    1    3    3    0    0  0.40074112128E+02  0.72678122768E+02 -0.40244364246E+03  0.41091231346E+03  0.00000000000E+00 0.  1.
</event>
<event>
 7    1  0.6888820E-006  0.1374787E+03  0.7818608E-02  0.1291627E+00
          2   -1    0    0  502    0  0.00000000000E+00  0.00000000000E+00  0.11583611534E+04  0.11583611534E+04  0.00000000000E+00 0. -1.
          1   -1    0    0  501    0 -0.00000000000E+00 -0.00000000000E+00 -0.44441476848E+03  0.44441476848E+03  0.00000000000E+00 0. -1.
         25    2    1    2    0    0 -0.55196080316E+02 -0.66057562145E+02  0.41810538667E+02  0.15743781012E+03  0.12501333574E+03 0.  0.
          2    1    1    2  501    0  0.12900139894E+01 -0.65357903117E+02 -0.37902640658E+03  0.38462232972E+03  0.00000000000E+00 0. -1.
          1    1    1    2  502    0  0.53906066326E+02  0.13141546526E+03  0.10511622528E+04  0.10607157820E+04  0.00000000000E+00 0. -1.
         22    1    3    3    0    0 -0.90003315547E+02 -0.62383829317E+02  0.96986176369E+01  0.10993817423E+03  0.00000000000E+00 0.  1.
         22    1    3    3    0    0  0.34807235231E+02 -0.36737328280E+01  0.32111921030E+02  0.47499635888E+02  0.00000000000E+00 0.  1.
</event>
<event>
 7    1  0.6888820E-006  0.4115622E+02  0.7818608E-02  0.1551631E+00
          2   -1    0    0  502    0  0.00000000000E+00  0.00000000000E+00  0.26869354356E+03  0.26869354356E+03  0.00000000000E+00 0. -1.
          1   -1    0    0  501    0 -0.00000000000E+00 -0.00000000000E+00 -0.77061509187E+02  0.77061509187E+02  0.00000000000E+00 0. -1.
         25    2    1    2    0    0 -0.29766104756E+02 -0.46469215846E+02  0.35353552953E+02  0.14113864584E+03  0.12499933852E+03 0.  0.
          2    1    1    2  501    0  0.35383813127E+02  0.17823938402E+02 -0.57010372809E+01  0.40027600948E+02  0.00000000000E+00 0. -1.
          1    1    1    2  502    0 -0.56177083718E+01  0.28645277444E+02  0.16197951870E+03  0.16458880595E+03  0.00000000000E+00 0. -1.
         22    1    3    3    0    0  0.20401950785E+02 -0.61143922090E+02 -0.17512847554E+02  0.66794600334E+02  0.00000000000E+00 0. -1.
         22    1    3    3    0    0 -0.50168055541E+02  0.14674706244E+02  0.52866400507E+02  0.74344045509E+02  0.00000000000E+00 0. -1.
</event>
<event>
 7    1  0.6888820E-006  0.5049278E+02  0.7818608E-02  0.1460433E+00
          2   -1    0    0  502    0  0.00000000000E+00  0.00000000000E+00  0.13405270780E+04  0.13405270780E+04  0.00000000000E+00 0. -1.
          1   -1    0    0  501    0 -0.00000000000E+00 -0.00000000000E+00 -0.13252737287E+03  0.13252737287E+03  0.00000000000E+00 0. -1.
         25    2    1    2    0    0  0.73061374791E+01 -0.15593129506E+02  0.32521293152E+02  0.13032819245E+03  0.12502510911E+03 0.  0.
          2    1    1    2  501    0 -0.51541594075E+02  0.18361951919E+02 -0.74238943028E+02  0.92223195889E+02  0.00000000000E+00 0. -1.
          1    1    1    2  502    0  0.44235456596E+02 -0.27688224122E+01  0.12497173550E+04  0.12505030625E+04  0.00000000000E+00 0. -1.
         22    1    3    3    0    0  0.61503514766E+02 -0.13240683565E+02  0.41464044253E+02  0.75347627671E+02  0.00000000000E+00 0. -1.
         22    1    3    3    0    0 -0.54197377287E+02 -0.23524459416E+01 -0.89427511007E+01  0.54980564784E+02  0.00000000000E+00 0. -1.
</event>
<event>
 7    1  0.6888820E-006  0.3586426E+02  0.7818608E-02  0.1575476E+00
          2   -1    0    0  502    0  0.00000000000E+00  0.00000000000E+00  0.49293416556E+02  0.49293416556E+02  0.00000000000E+00 0. -1.
          1   -1    0    0  501    0 -0.00000000000E+00 -0.00000000000E+00 -0.70386230760E+03  0.70386230760E+03  0.00000000000E+00 0. -1.
         25    2    1    2    0    0  0.46499685476E+02  0.42634470344E+02 -0.14184740142E+03  0.19931268469E+03  0.12499976871E+03 0.  0.
          2    1    1    2  501    0 -0.21801297083E+02 -0.27783638487E+02 -0.52228548482E+03  0.52347813209E+03  0.00000000000E+00 0. -1.
          1    1    1    2  502    0 -0.24698388393E+02 -0.14850831857E+02  0.95639951952E+01  0.30364907380E+02  0.00000000000E+00 0. -1.
         22    1    3    3    0    0  0.70228490741E+02 -0.18622931718E+02 -0.89730789402E+02  0.11545765052E+03  0.00000000000E+00 0.  1.
         22    1    3    3    0    0 -0.23728805265E+02  0.61257402062E+02 -0.52116612020E+02  0.83855034166E+02  0.00000000000E+00 0.  1.
</event>
<event>
 7    1  0.6888820E-006  0.4683039E+02  0.7818608E-02  0.1560392E+00
          2   -1    0    0  502    0  0.00000000000E+00  0.00000000000E+00  0.36127490811E+03  0.36127490811E+03  0.00000000000E+00 0. -1.
          1   -1    0    0  501    0 -0.00000000000E+00 -0.00000000000E+00 -0.12984430732E+04  0.12984430732E+04  0.00000000000E+00 0. -1.
         25    2    1    2    0    0 -0.32352675020E+02  0.10098546682E+02 -0.24359745114E+03  0.27588505930E+03  0.12499668602E+03 0.  0.
          2    1    1    2  501    0 -0.13492771995E+02 -0.20163124759E+02 -0.10369634314E+04  0.10372472052E+04  0.00000000000E+00 0. -1.
          1    1    1    2  502    0  0.45845447016E+02  0.10064578076E+02  0.34339271745E+03  0.34658571688E+03  0.00000000000E+00 0. -1.
         22    1    3    3    0    0  0.17141831155E+02  0.16182350545E+02  0.34769551598E+01  0.23828555594E+02  0.00000000000E+00 0.  1.
         22    1    3    3    0    0 -0.49494506175E+02 -0.60838038627E+01 -0.24707440630E+03  0.25205650370E+03  0.00000000000E+00 0.  1.
</event>
<event>
 7    1  0.6888820E-006  0.8484071E+02  0.7818608E-02  0.1459781E+00
          2   -1    0    0  502    0  0.00000000000E+00  0.00000000000E+00  0.13893313420E+04  0.13893313420E+04  0.00000000000E+00 0. -1.
          1   -1    0    0  501    0 -0.00000000000E+00 -0.00000000000E+00 -0.17983310828E+04  0.17983310828E+04  0.00000000000E+00 0. -1.
         25    2    1    2    0    0 -0.96735883963E+02  0.50349383390E+02  0.60638433785E+03  0.62866510674E+03  0.12499983835E+03 0.  0.
          2    1    1    2  501    0  0.70413173415E+02 -0.47259117925E+02 -0.17859567740E+04  0.17879689700E+04  0.00000000000E+00 0. -1.
          1    1    1    2  502    0  0.26322710548E+02 -0.30902654645E+01  0.77057269532E+03  0.77102834812E+03  0.00000000000E+00 0. -1.
         22    1    3    3    0    0 -0.11561112973E+03  0.47791511481E+02  0.35201060755E+03  0.37357921478E+03  0.00000000000E+00 0.  1.
         22    1    3    3    0    0  0.18875245764E+02  0.25578719093E+01  0.25437373030E+03  0.25508589196E+03  0.00000000000E+00 0.  1.
</event>
<event>
 7    1  0.6888820E-006  0.1166719E+03  0.7818608E-02  0.1285188E+00
          2   -1    0    0  502    0  0.00000000000E+00  0.00000000000E+00  0.13557322136E+04  0.13557322136E+04  0.00000000000E+00 0. -1.
          1   -1    0    0  501    0 -0.00000000000E+00 -0.00000000000E+00 -0.86353415280E+03  0.86353415280E+03  0.00000000000E+00 0. -1.
         25    2    1    2    0    0  0.14365371245E+03  0.12898116966E+03  0.27382851682E+03  0.35760183545E+03  0.12499793946E+03 0.  0.
          2    1    1    2  501    0 -0.60422418792E+02 -0.55182539251E+02 -0.81662245780E+03  0.82071202009E+03  0.00000000000E+00 0. -1.
          1    1    1    2  502    0 -0.83231293662E+02 -0.73798630407E+02  0.10349920018E+04  0.10409525109E+04  0.00000000000E+00 0. -1.
         22    1    3    3    0    0  0.28207449540E+02  0.30633869126E+02 -0.32131657741E+01  0.41766237339E+02  0.00000000000E+00 0.  1.
         22    1    3    3    0    0  0.11544626291E+03  0.98347300532E+02  0.27704168259E+03  0.31583559812E+03  0.00000000000E+00 0.  1.
</event>
<event>
 7    1  0.6888820E-006  0.3811658E+02  0.7818608E-02  0.1581065E+00
          2   -1    0    0  502    0  0.00000000000E+00  0.00000000000E+00  0.42306047007E+03  0.42306047007E+03  0.00000000000E+00 0. -1.
          1   -1    0    0  501    0 -0.00000000000E+00 -0.00000000000E+00 -0.38277377686E+02  0.38277377686E+02  0.00000000000E+00 0. -1.
         25    2    1    2    0    0  0.27052506452E+01 -0.13463052266E+02  0.13514385936E+03  0.18459702080E+03  0.12499450071E+03 0.  0.
          2    1    1    2  501    0 -0.85626865281E+00 -0.26180688241E+02  0.23641123771E+01  0.26301153209E+02  0.00000000000E+00 0. -1.
          1    1    1    2  502    0 -0.18489819924E+01  0.39643740507E+02  0.24727512064E+03  0.25043967374E+03  0.00000000000E+00 0. -1.
         22    1    3    3    0    0  0.35943678631E+02  0.44758170479E+02  0.49241795963E+02  0.75630657328E+02  0.00000000000E+00 0.  1.
         22    1    3    3    0    0 -0.33238427986E+02 -0.58221222744E+02  0.85902063400E+02  0.10896636348E+03  0.00000000000E+00 0.  1.
</event>
<event>
 7    1  0.6888820E-006  0.9107552E+02  0.7818608E-02  0.1390650E+00
          2   -1    0    0  502    0  0.00000000000E+00  0.00000000000E+00  0.44799375921E+03  0.44799375921E+03  0.00000000000E+00 0. -1.
          1   -1    0    0  501    0 -0.00000000000E+00 -0.00000000000E+00 -0.82968997855E+03  0.82968997855E+03  0.00000000000E+00 0. -1.
         25    2    1    2    0    0 -0.65721759262E+02  0.72636003653E+02 -0.16693881980E+02  0.15968335690E+03  0.12499900043E+03 0.  0.
          2    1    1    2  501    0  0.26485917105E+02 -0.87226026707E+02 -0.73752291422E+03  0.74313520475E+03  0.00000000000E+00 0. -1.
          1    1    1    2  502    0  0.39235842157E+02  0.14590023054E+02  0.37252057686E+03  0.37486517611E+03  0.00000000000E+00 0. -1.
         22    1    3    3    0    0  0.33310647759E+01  0.57963495205E+02  0.38849236511E+02  0.69857898239E+02  0.00000000000E+00 0.  1.
         22    1    3    3    0    0 -0.69052824038E+02  0.14672508448E+02 -0.55543118491E+02  0.89825458660E+02  0.00000000000E+00 0.  1.
</event>
<event>
 7    1  0.6888820E-006  0.7753552E+02  0.7818608E-02  0.1377169E+00
          2   -1    0    0  502    0  0.00000000000E+00  0.00000000000E+00  0.13010751931E+04  0.13010751931E+04  0.00000000000E+00 0. -1.
          1   -1    0    0  501    0 -0.00000000000E+00 -0.00000000000E+00 -0.21623972201E+03  0.21623972201E+03  0.00000000000E+00 0. -1.
         25    2    1    2    0    0 -0.27024406179E+02  0.10215068754E+03  0.90096976356E+03  0.91571565654E+03  0.12499426904E+03 0.  0.
          2    1    1    2  501    0  0.54699508612E+02 -0.54794421844E+02 -0.19967302630E+03  0.21415831140E+03  0.00000000000E+00 0. -1.
          1    1    1    2  502    0 -0.27675102432E+02 -0.47356265694E+02  0.38353873385E+03  0.38744094719E+03  0.00000000000E+00 0. -1.
         22    1    3    3    0    0 -0.16739330539E+02  0.12318638255E+03  0.85633415156E+03  0.86531108230E+03  0.00000000000E+00 0. -1.
         22    1    3    3    0    0 -0.10285075640E+02 -0.21035695009E+02  0.44635612003E+02  0.50404574240E+02  0.00000000000E+00 0. -1.
</event>
<event>
 7    1  0.6888820E-006  0.3169905E+03  0.7818608E-02  0.1091499E+00
          2   -1    0    0  502    0  0.00000000000E+00  0.00000000000E+00  0.73535205580E+03  0.73535205580E+03  0.00000000000E+00 0. -1.
          1   -1    0    0  501    0 -0.00000000000E+00 -0.00000000000E+00 -0.14104845328E+04  0.14104845328E+04  0.00000000000E+00 0. -1.
         25    2    1    2    0    0 -0.34018960381E+03  0.18742257350E+03  0.14676879230E+03  0.43361499777E+03  0.12499880118E+03 0.  0.
          2    1    1    2  501    0  0.23656920355E+03  0.11099166522E+03 -0.11950675074E+04  0.12233031043E+04  0.00000000000E+00 0. -1.
          1    1    1    2  502    0  0.10362040026E+03 -0.29841423872E+03  0.37316623808E+03  0.48891848652E+03  0.00000000000E+00 0. -1.
         22    1    3    3    0    0 -0.20950437292E+03  0.16583874484E+03  0.55889581444E+02  0.27298024998E+03  0.00000000000E+00 0.  1.
         22    1    3    3    0    0 -0.13068523089E+03  0.21583828664E+02  0.90879210859E+02  0.16063474780E+03  0.00000000000E+00 0.  1.
</event>
<event>
 7    1  0.6888820E-006  0.1672250E+03  0.7818608E-02  0.1208294E+00
          2   -1    0    0  502    0  0.00000000000E+00  0.00000000000E+00  0.91588146069E+03  0.91588146069E+03  0.00000000000E+00 0. -1.
          1   -1    0    0  501    0 -0.00000000000E+00 -0.00000000000E+00 -0.92263225199E+03  0.92263225199E+03  0.00000000000E+00 0. -1.
         25    2    1    2    0    0 -0.32603336861E+02  0.39817503921E+02 -0.25147825757E+03  0.28550851015E+03  0.12500153656E+03 0.  0.
          2    1    1    2  501    0 -0.11406814509E+03  0.47783198253E+02 -0.64004816800E+03  0.65188682539E+03  0.00000000000E+00 0. -1.
          1    1    1    2  502    0  0.14667148195E+03 -0.87600702174E+02  0.88477563427E+03  0.90111837715E+03  0.00000000000E+00 0. -1.
         22    1    3    3    0    0  0.16695030725E+02  0.53569492482E+02 -0.21616203719E+03  0.22332586259E+03  0.00000000000E+00 0. -1.
         22    1    3    3    0    0 -0.49298367587E+02 -0.13751988561E+02 -0.35316220375E+02  0.62182647561E+02  0.00000000000E+00 0. -1.
</event>
<event>
 7    1  0.6888820E-006  0.4119704E+02  0.7818608E-02  0.1528385E+00
          2   -1    0    0  502    0  0.00000000000E+00  0.00000000000E+00  0.17764091746E+04  0.17764091746E+04  0.00000000000E+00 0. -1.
          1   -1    0    0  501    0 -0.00000000000E+00 -0.00000000000E+00 -0.14776366297E+02  0.14776366297E+02  0.00000000000E+00 0. -1.
         25    2    1    2    0    0 -0.65255589795E+02 -0.28279036056E+02  0.10365069279E+04  0.10464363283E+04  0.12499752664E+03 0.  0.
          2    1    1    2  501    0  0.32990091379E+02  0.79143944046E+01  0.21663438921E+02  0.40252805540E+02  0.00000000000E+00 0. -1.
          1    1    1    2  502    0  0.32265498417E+02  0.20364641651E+02  0.70346244145E+03  0.70449640705E+03  0.00000000000E+00 0. -1.
         22    1    3    3    0    0 -0.42089334260E+02 -0.24359369273E+02  0.11798667341E+03  0.12761561830E+03  0.00000000000E+00 0.  1.
         22    1    3    3    0    0 -0.23166255535E+02 -0.39196667827E+01  0.91852025448E+03  0.91882070997E+03  0.00000000000E+00 0.  1.
</event>
<event>
 7    1  0.8584604E-006  0.1228604E+03  0.7818608E-02  0.1349405E+00
          2   -1    0    0  502    0  0.00000000000E+00  0.00000000000E+00  0.17536506167E+04  0.17536506167E+04  0.00000000000E+00 0. -1.
          1   -1    0    0  501    0 -0.00000000000E+00 -0.00000000000E+00 -0.11706601804E+04  0.11706601804E+04  0.00000000000E+00 0. -1.
         25    2    1    2    0    0  0.28334014007E+02  0.11962409264E+03 -0.14795342717E+03  0.22940840690E+03  0.12500104261E+03 0.  0.
          2    1    1    2  501    0  0.40030097061E+02 -0.17433789876E+02 -0.97928596643E+03  0.98025881774E+03  0.00000000000E+00 0. -1.
          1    1    1    2  502    0 -0.68364111068E+02 -0.10219030277E+03  0.17102298298E+04  0.17146435725E+04  0.00000000000E+00 0. -1.
         22    1    3    3    0    0  0.18340415594E+02  0.84509094637E+02 -0.10408491491E+02  0.87100485737E+02  0.00000000000E+00 0.  1.
         22    1    3    3    0    0  0.99935984130E+01  0.35114998007E+02 -0.13754493568E+03  0.14230792117E+03  0.00000000000E+00 0.  1.
</event>
<event>
 7    1  0.6888820E-006  0.3140146E+02  0.7818608E-02  0.1644594E+00
          2   -1    0    0  502    0  0.00000000000E+00  0.00000000000E+00  0.27538905505E+03  0.27538905505E+03  0.00000000000E+00 0. -1.
          1   -1    0    0  501    0 -0.00000000000E+00 -0.00000000000E+00 -0.14786607745E+03  0.14786607745E+03  0.00000000000E+00 0. -1.
         25    2    1    2    0    0 -0.57729239033E+01  0.13335507596E+02  0.16294423423E+03  0.20588369245E+03  0.12500443565E+03 0.  0.
          2    1    1    2  501    0  0.66551185596E+01  0.20789460479E+02 -0.12219248552E+03  0.12412693418E+03  0.00000000000E+00 0. -1.
          1    1    1    2  502    0 -0.88219465630E+00 -0.34124968075E+02  0.86771228891E+02  0.93244505880E+02  0.00000000000E+00 0. -1.
         22    1    3    3    0    0 -0.57061702000E+02  0.32776189887E+02  0.11742316535E+03  0.13460503787E+03  0.00000000000E+00 0. -1.
         22    1    3    3    0    0  0.51288778097E+02 -0.19440682291E+02  0.45521068883E+02  0.71278654581E+02  0.00000000000E+00 0. -1.
</event>
<event>
 7    1  0.6888820E-006  0.6686599E+02  0.7818608E-02  0.1374746E+00
          2   -1    0    0  502    0  0.00000000000E+00  0.00000000000E+00  0.14613671580E+04  0.14613671580E+04  0.00000000000E+00 0. -1.
          1   -1    0    0  501    0 -0.00000000000E+00 -0.00000000000E+00 -0.23104535533E+04  0.23104535533E+04  0.00000000000E+00 0. -1.
         25    2    1    2    0    0  0.11513425702E+03  0.24542650509E+02  0.17745326701E+03  0.24692681999E+03  0.12499981450E+03 0.  0.
          2    1    1    2  501    0 -0.52460339428E+02 -0.41315776111E+02 -0.22743839841E+04  0.22753640561E+04  0.00000000000E+00 0. -1.
          1    1    1    2  502    0 -0.62673917588E+02  0.16773125603E+02  0.12478443217E+04  0.12495298352E+04  0.00000000000E+00 0. -1.
         22    1    3    3    0    0  0.16436711963E+02  0.40964816451E+02  0.10829742081E+01  0.44152627557E+02  0.00000000000E+00 0. -1.
         22    1    3    3    0    0  0.98697545053E+02 -0.16422165942E+02  0.17637029280E+03  0.20277419243E+03  0.00000000000E+00 0. -1.
</event>
<event>
 7    1  0.6888820E-006  0.9211578E+02  0.7818608E-02  0.1320585E+00
          2   -1    0    0  502    0  0.00000000000E+00  0.00000000000E+00  0.75288934240E+02  0.75288934240E+02  0.00000000000E+00 0. -1.
          1   -1    0    0  501    0 -0.00000000000E+00 -0.00000000000E+00 -0.16062719781E+04  0.16062719781E+04  0.00000000000E+00 0. -1.
         25    2    1    2    0    0 -0.75951493896E+02 -0.11623146007E+03 -0.34151992575E+03  0.38928149450E+03  0.12500336212E+03 0.  0.
          2    1    1    2  501    0  0.79875298435E+02  0.41439987478E+02 -0.12110088992E+04  0.12143475161E+04  0.00000000000E+00 0. -1.
          1    1    1    2  502    0 -0.39238045397E+01  0.74791472595E+02  0.21545781161E+02  0.77931901689E+02  0.00000000000E+00 0. -1.
         22    1    3    3    0    0  0.19982491801E+02 -0.81403475986E+02 -0.13470223848E+03  0.15865219486E+03  0.00000000000E+00 0. -1.
         22    1    3    3    0    0 -0.95933985697E+02 -0.34827984087E+02 -0.20681768726E+03  0.23062929964E+03  0.00000000000E+00 0. -1.
</event>
<event>
 7    1  0.6888820E-006  0.1697411E+03  0.7818608E-02  0.1357823E+00
          2   -1    0    0  502    0  0.00000000000E+00  0.00000000000E+00  0.84671754818E+03  0.84671754818E+03  0.00000000000E+00 0. -1.
          1   -1    0    0  501    0 -0.00000000000E+00 -0.00000000000E+00 -0.20859495837E+03  0.20859495837E+03  0.00000000000E+00 0. -1.
         25    2    1    2    0    0  0.62999718816E+02 -0.14776665348E+03 -0.42203432443E+02  0.20787063618E+03  0.12500049290E+03 0.  0.
          2    1    1    2  501    0  0.29125682648E+02  0.41822280832E+01 -0.71071313279E+02  0.76921570399E+02  0.00000000000E+00 0. -1.
          1    1    1    2  502    0 -0.92125401464E+02  0.14358442540E+03  0.75139733553E+03  0.77052029997E+03  0.00000000000E+00 0. -1.
         22    1    3    3    0    0  0.12500111630E+02 -0.40600373496E+02  0.44150942076E+02  0.61269476944E+02  0.00000000000E+00 0.  1.
         22    1    3    3    0    0  0.50499607187E+02 -0.10716627998E+03 -0.86354374519E+02  0.14660115924E+03  0.00000000000E+00 0.  1.
</event>
<event>
 7    1  0.6888820E-006  0.3396747E+02  0.7818608E-02  0.1600272E+00
          2   -1    0    0  502    0  0.00000000000E+00  0.00000000000E+00  0.13551495862E+04  0.13551495862E+04  0.00000000000E+00 0. -1.
          1   -1    0    0  501    0 -0.00000000000E+00 -0.00000000000E+00 -0.81000530365E+03  0.81000530365E+03  0.00000000000E+00 0. -1.
         25    2    1    2    0    0  0.12346922812E+01  0.10744308954E+02  0.81016964933E+03  0.81982709172E+03  0.12499853988E+03 0.  0.
          2    1    1    2  501    0  0.17168623288E+02 -0.29322079992E+02 -0.80450126245E+03  0.80521849661E+03  0.00000000000E+00 0. -1.
          1    1    1    2  502    0 -0.18403315569E+02  0.18577771038E+02  0.53947589566E+03  0.54010930153E+03  0.00000000000E+00 0. -1.
         22    1    3    3    0    0 -0.47023359142E+02  0.45797285159E+02  0.40245714065E+03  0.40777486153E+03  0.00000000000E+00 0. -1.
         22    1    3    3    0    0  0.48258051423E+02 -0.35052976205E+02  0.40771250868E+03  0.41205223019E+03  0.00000000000E+00 0. -1.
</event>
<event>
 7    1  0.6888820E-006  0.5469654E+02  0.7818608E-02  0.1545205E+00
          2   -1    0    0  502    0  0.00000000000E+00  0.00000000000E+00  0.24122362921E+03  0.24122362921E+03  0.00000000000E+00 0. -1.
          1   -1    0    0  501    0 -0.00000000000E+00 -0.00000000000E+00 -0.11468245289E+04  0.11468245289E+04  0.00000000000E+00 0. -1.
         25    2    1    2    0    0  0.22918101753E+02  0.66464342207E+02 -0.23031974124E+03  0.27132103623E+03  0.12500069329E+03 0.  0.
          2    1    1    2  501    0 -0.36912326347E+01 -0.54039459872E+02 -0.89458922003E+03  0.89622751633E+03  0.00000000000E+00 0. -1.
          1    1    1    2  502    0 -0.19226869118E+02 -0.12424882334E+02  0.21930806156E+03  0.22049960558E+03  0.00000000000E+00 0. -1.
         22    1    3    3    0    0  0.14558977933E+02 -0.74558492838E+01  0.10390080706E+02  0.19378010839E+02  0.00000000000E+00 0.  1.
         22    1    3    3    0    0  0.83591238199E+01  0.73920191490E+02 -0.24070982195E+03  0.25194302539E+03  0.00000000000E+00 0.  1.
</event>
<event>
 7    1  0.6888820E-006  0.1568319E+03  0.7818608E-02  0.1327129E+00
          2   -1    0    0  502    0  0.00000000000E+00  0.00000000000E+00  0.14020094800E+04  0.14020094800E+04  0.00000000000E+00 0. -1.
          1   -1    0    0  501    0 -0.00000000000E+00 -0.00000000000E+00 -0.27067069943E+03  0.27067069943E+03  0.00000000000E+00 0. -1.
         25    2    1    2    0    0 -0.11811833817E+03 -0.14342922667E+03  0.24740388663E+03  0.33370385808E+03  0.12500278757E+03 0.  0.
          2    1    1    2  501    0  0.11594094215E+03  0.10198027197E+03 -0.20088014484E+03  0.25336754040E+03  0.00000000000E+00 0. -1.
          1    1    1    2  502    0  0.21773960189E+01  0.41448954696E+02  0.10848150388E+04  0.10856087809E+04  0.00000000000E+00 0. -1.
         22    1    3    3    0    0 -0.11867425416E+03 -0.70918848718E+02  0.10396866377E+03  0.17298134220E+03  0.00000000000E+00 0.  1.
         22    1    3    3    0    0  0.55591598730E+00 -0.72510377950E+02  0.14343522286E+03  0.16072251587E+03  0.00000000000E+00 0.  1.
</event>
<event>
 7    1  0.6888820E-006  0.6536621E+02  0.7818608E-02  0.1468475E+00
          2   -1    0    0  502    0  0.00000000000E+00  0.00000000000E+00  0.17197006436E+03  0.17197006436E+03  0.00000000000E+00 0. -1.
          1   -1    0    0  501    0 -0.00000000000E+00 -0.00000000000E+00 -0.82298078211E+03  0.82298078211E+03  0.00000000000E+00 0. -1.
         25    2    1    2    0    0  0.13722502491E+02  0.94985002302E+02 -0.30195545851E+02  0.16045855483E+03  0.12499887637E+03 0.  0.
          2    1    1    2  501    0 -0.26216701645E+01 -0.64645872353E+02 -0.72373499629E+03  0.72662115770E+03  0.00000000000E+00 0. -1.
          1    1    1    2  502    0 -0.11100832327E+02 -0.30339129949E+02  0.10291982439E+03  0.10787113393E+03  0.00000000000E+00 0. -1.
         22    1    3    3    0    0  0.32068181219E+01  0.74774233434E+02  0.41257409908E+02  0.85461357001E+02  0.00000000000E+00 0.  1.
         22    1    3    3    0    0  0.10515684370E+02  0.20210768868E+02 -0.71452955759E+02  0.74997197832E+02  0.00000000000E+00 0.  1.
</event>
<event>
 7    1  0.6888820E-006  0.1182743E+03  0.7818608E-02  0.1324603E+00
          2   -1    0    0  502    0  0.00000000000E+00  0.00000000000E+00  0.25154838464E+03  0.25154838464E+03  0.00000000000E+00 0. -1.
          1   -1    0    0  501    0 -0.00000000000E+00 -0.00000000000E+00 -0.21172337317E+04  0.21172337317E+04  0.00000000000E+00 0. -1.
         25    2    1    2    0    0  0.13028033980E+03  0.49272234441E+02 -0.66762212593E+02  0.19870048273E+03  0.12499587507E+03 0.  0.
          2    1    1    2  501    0 -0.13678301749E+02 -0.54594203159E+02 -0.19657058562E+04  0.19665114126E+04  0.00000000000E+00 0. -1.
          1    1    1    2  502    0 -0.11660203805E+03  0.53219687185E+01  0.16678272168E+03  0.20357022100E+03  0.00000000000E+00 0. -1.
         22    1    3    3    0    0  0.14159251084E+03  0.85878752177E+01 -0.66026684120E+02  0.15646633421E+03  0.00000000000E+00 0. -1.
         22    1    3    3    0    0 -0.11312171043E+02  0.40684359223E+02 -0.73552847267E+00  0.42234148520E+02  0.00000000000E+00 0. -1.
</event>
<event>
 7    1  0.6888820E-006  0.1568146E+03  0.7818608E-02  0.1345195E+00
          2   -1    0    0  502    0  0.00000000000E+00  0.00000000000E+00  0.95363482872E+03  0.95363482872E+03  0.00000000000E+00 0. -1.
          1   -1    0    0  501    0 -0.00000000000E+00 -0.00000000000E+00 -0.10575018514E+03  0.10575018514E+03  0.00000000000E+00 0. -1.
         25    2    1    2    0    0  0.11573632339E+03 -0.66728138846E+02  0.22328852302E+03  0.28866949190E+03  0.12499907991E+03 0.  0.
          2    1    1    2  501    0 -0.13419585280E+03  0.97009262097E+02  0.21960937694E+02  0.16703774012E+03  0.00000000000E+00 0. -1.
          1    1    1    2  502    0  0.18459529414E+02 -0.30281123252E+02  0.60263518287E+03  0.60367778184E+03  0.00000000000E+00 0. -1.
         22    1    3    3    0    0  0.44801631869E+02 -0.35721067474E+02  0.55371284712E+01  0.57565967996E+02  0.00000000000E+00 0. -1.
         22    1    3    3    0    0  0.70934691519E+02 -0.31007071372E+02  0.21775139454E+03  0.23110352391E+03  0.00000000000E+00 0. -1.
</event>
<event>
 7    1  0.6888820E-006  0.1301189E+03  0.7818608E-02  0.1236350E+00
          2   -1    0    0  502    0  0.00000000000E+00  0.00000000000E+00  0.35025896528E+03  0.35025896528E+03  0.00000000000E+00 0. -1.
          1   -1    0    0  501    0 -0.00000000000E+00 -0.00000000000E+00 -0.11753526897E+04  0.11753526897E+04  0.00000000000E+00 0. -1.
         25    2    1    2    0    0  0.21102117411E+03 -0.36652359533E+02 -0.93349110994E+02  0.26497583531E+03  0.12499922156E+03 0.  0.
          2    1    1    2  501    0 -0.10012834607E+03  0.78483447860E+02 -0.97858288215E+03  0.98681801489E+03  0.00000000000E+00 0. -1.
          1    1    1    2  502    0 -0.11089282804E+03 -0.41831088328E+02  0.24683826877E+03  0.27381780474E+03  0.00000000000E+00 0. -1.
         22    1    3    3    0    0  0.22529811036E+03 -0.25836901568E+02 -0.97079618314E+02  0.24668043357E+03  0.00000000000E+00 0.  1.
         22    1    3    3    0    0 -0.14276936253E+02 -0.10815457964E+02  0.37305073202E+01  0.18295401734E+02  0.00000000000E+00 0.  1.
</event>
<event>
 7    1  0.6888820E-006  0.1001152E+03  0.7818608E-02  0.1326680E+00
          2   -1    0    0  502    0  0.00000000000E+00  0.00000000000E+00  0.77581132625E+03  0.77581132625E+03  0.00000000000E+00 0. -1.
          1   -1    0    0  501    0 -0.00000000000E+00 -0.00000000000E+00 -0.18941354162E+04  0.18941354162E+04  0.00000000000E+00 0. -1.
         25    2    1    2    0    0  0.27082379097E+02  0.16007261579E+03 -0.20660822569E+03  0.29097521866E+03  0.12499168519E+03 0.  0.
          2    1    1    2  501    0 -0.24606098648E+02 -0.94841039051E+02 -0.16424286729E+04  0.16453486647E+04  0.00000000000E+00 0. -1.
          1    1    1    2  502    0 -0.24762804491E+01 -0.65231576741E+02  0.73071280869E+03  0.73362285907E+03  0.00000000000E+00 0. -1.
         22    1    3    3    0    0  0.52014635611E+02  0.22797322664E+02 -0.25230846652E+02  0.62143671128E+02  0.00000000000E+00 0.  1.
         22    1    3    3    0    0 -0.24932256514E+02  0.13727529313E+03 -0.18137737904E+03  0.22883154753E+03  0.00000000000E+00 0.  1.
</event>
<event>
 7    1  0.6888820E-006  0.2053002E+03  0.7818608E-02  0.1205838E+00
          2   -1    0    0  502    0  0.00000000000E+00  0.00000000000E+00  0.14290500398E+04  0.14290500398E+04  0.00000000000E+00 0. -1.
          1   -1    0    0  501    0 -0.00000000000E+00 -0.00000000000E+00 -0.17813955866E+04  0.17813955866E+04  0.00000000000E+00 0. -1.
         25    2    1    2    0    0 -0.20615319857E+03  0.26785551894E+02  0.13142439876E+03  0.27588762678E+03  0.12500001181E+03 0.  0.
          2    1    1    2  501    0  0.38500201266E+02  0.95991846530E+02 -0.16987701423E+04  0.17019155961E+04  0.00000000000E+00 0. -1.
          1    1    1    2  502    0  0.16765299730E+03 -0.12277739842E+03  0.12150001967E+04  0.12326424035E+04  0.00000000000E+00 0. -1.
         22    1    3    3    0    0 -0.80434503241E+02  0.33432544330E+02 -0.86712239783E+01  0.87536475011E+02  0.00000000000E+00 0. -1.
         22    1    3    3    0    0 -0.12571869533E+03 -0.66469924357E+01  0.14009562274E+03  0.18835115177E+03  0.00000000000E+00 0. -1.
</event>
<event>
 7    1  0.6888820E-006  0.3846773E+02  0.7818608E-02  0.1600213E+00
          2   -1    0    0  502    0  0.00000000000E+00  0.00000000000E+00  0.12527776293E+04  0.12527776293E+04  0.00000000000E+00 0. -1.
          1   -1    0    0  501    0 -0.00000000000E+00 -0.00000000000E+00 -0.92776681749E+02  0.92776681749E+02  0.00000000000E+00 0. -1.
         25    2    1    2    0    0  0.41417623432E+01  0.16163688592E+02  0.25020521317E+03  0.28018933586E+03  0.12499998482E+03 0.  0.
          2    1    1    2  501    0  0.13860070565E+02  0.18478497475E+02 -0.75674701923E+02  0.79121532696E+02  0.00000000000E+00 0. -1.
          1    1    1    2  502    0 -0.18001832908E+02 -0.34642186067E+02  0.98547043625E+03  0.98624344245E+03  0.00000000000E+00 0. -1.
         22    1    3    3    0    0  0.38470415582E+02 -0.26015495858E+02  0.34821114714E+02  0.58045576315E+02  0.00000000000E+00 0.  1.
         22    1    3    3    0    0 -0.34328653239E+02  0.42179184450E+02  0.21538409846E+03  0.22214375954E+03  0.00000000000E+00 0.  1.
</event>
<event>
 7    1  0.6888820E-006  0.2665879E+03  0.7818608E-02  0.1223068E+00
          2   -1    0    0  502    0  0.00000000000E+00  0.00000000000E+00  0.16694834016E+04  0.16694834016E+04  0.00000000000E+00 0. -1.
          1   -1    0    0  501    0 -0.00000000000E+00 -0.00000000000E+00 -0.25647572364E+03  0.25647572364E+03  0.00000000000E+00 0. -1.
         25    2    1    2    0    0  0.23713766829E+03 -0.14691466678E+03  0.34733575484E+03  0.46269363749E+03  0.12500033018E+03 0.  0.
          2    1    1    2  501    0 -0.25220600076E+03  0.82292716060E+02 -0.10893411225E+03  0.28678667812E+03  0.00000000000E+00 0. -1.
          1    1    1    2  502    0  0.15068332464E+02  0.64621950721E+02  0.11746060354E+04  0.11764788096E+04  0.00000000000E+00 0. -1.
         22    1    3    3    0    0 -0.51053987887E+01  0.33558484047E+01 -0.60932294013E+01  0.86286881879E+01  0.00000000000E+00 0.  1.
         22    1    3    3    0    0  0.24224306708E+03 -0.15027051519E+03  0.35342898424E+03  0.45406494930E+03  0.00000000000E+00 0.  1.
</event>
<event>
 7    1  0.6888820E-006  0.9119956E+02  0.7818608E-02  0.1409583E+00
          2   -1    0    0  502    0  0.00000000000E+00  0.00000000000E+00  0.86313174560E+03  0.86313174560E+03  0.00000000000E+00 0. -1.
          1   -1    0    0  501    0 -0.00000000000E+00 -0.00000000000E+00 -0.76981990816E+03  0.76981990816E+03  0.00000000000E+00 0. -1.
         25    2    1    2    0    0 -0.65507907189E+02 -0.36221149462E+02 -0.26257918149E+02  0.14804379781E+03  0.12499692088E+03 0.  0.
          2    1    1    2  501    0 -0.25683483584E+02  0.25204585931E+02 -0.67956216734E+03  0.68051425537E+03  0.00000000000E+00 0. -1.
          1    1    1    2  502    0  0.91191390773E+02  0.11016563531E+02  0.79913192293E+03  0.80439360059E+03  0.00000000000E+00 0. -1.
         22    1    3    3    0    0 -0.85687808669E+02 -0.86025122523E+01 -0.55992598759E+02  0.10272085907E+03  0.00000000000E+00 0.  1.
         22    1    3    3    0    0  0.20179901480E+02 -0.27618637209E+02  0.29734680610E+02  0.45322938739E+02  0.00000000000E+00 0.  1.
</event>
<event>
 7    1  0.6888820E-006  0.6012110E+02  0.7818608E-02  0.1444976E+00
          2   -1    0    0  502    0  0.00000000000E+00  0.00000000000E+00  0.17585223333E+04  0.17585223333E+04  0.00000000000E+00 0. -1.
          1   -1    0    0  501    0 -0.00000000000E+00 -0.00000000000E+00 -0.65097600138E+02  0.65097600138E+02  0.00000000000E+00 0. -1.
         25    2    1    2    0    0 -0.66279201022E+02 -0.33857642100E+02  0.57528608785E+03  0.59339462669E+03  0.12499531071E+03 0.  0.
          2    1    1    2  501    0  0.59621691765E+02 -0.73032226910E+01 -0.39464410597E+02  0.71871572227E+02  0.00000000000E+00 0. -1.
          1    1    1    2  502    0  0.66575092566E+01  0.41160864791E+02  0.11576030559E+04  0.11583537345E+04  0.00000000000E+00 0. -1.
         22    1    3    3    0    0 -0.79642406457E+02 -0.42854660442E+02  0.22164215139E+03  0.23938395539E+03  0.00000000000E+00 0.  1.
         22    1    3    3    0    0  0.13363205435E+02  0.89970183415E+01  0.35364393646E+03  0.35401067129E+03  0.00000000000E+00 0.  1.
</event>
<event>
 7    1  0.6888820E-006  0.4283238E+02  0.7818608E-02  0.1503312E+00
          2   -1    0    0  502    0  0.00000000000E+00  0.00000000000E+00  0.18333992347E+04  0.18333992347E+04  0.00000000000E+00 0. -1.
          1   -1    0    0  501    0 -0.00000000000E+00 -0.00000000000E+00 -0.94748779786E+01  0.94748779786E+01  0.00000000000E+00 0. -1.
         25    2    1    2    0    0  0.15193651092E+02 -0.26306997796E+02  0.11312694218E+04  0.11385602892E+04  0.12500448922E+03 0.  0.
          2    1    1    2  501    0  0.20961413835E+02  0.39893912602E+02  0.92263739939E+02  0.10268156037E+03  0.00000000000E+00 0. -1.
          1    1    1    2  502    0 -0.36155064928E+02 -0.13586914805E+02  0.60039119502E+03  0.60163226312E+03  0.00000000000E+00 0. -1.
         22    1    3    3    0    0  0.26027192744E+01  0.14186978852E+02  0.12791240170E+02  0.19278494279E+02  0.00000000000E+00 0.  1.
         22    1    3    3    0    0  0.12590931818E+02 -0.40493976648E+02  0.11184781816E+04  0.11192817950E+04  0.00000000000E+00 0.  1.
</event>
<event>
 7    1  0.6888820E-006  0.5307831E+02  0.7818608E-02  0.1530468E+00
          2   -1    0    0  502    0  0.00000000000E+00  0.00000000000E+00  0.49634677622E+03  0.49634677622E+03  0.00000000000E+00 0. -1.
          1   -1    0    0  501    0 -0.00000000000E+00 -0.00000000000E+00 -0.15080394481E+04  0.15080394481E+04  0.00000000000E+00 0. -1.
         25    2    1    2    0    0 -0.31110730614E+02  0.52671364151E+01  0.17858345789E+03  0.22025654032E+03  0.12500108734E+03 0.  0.
          2    1    1    2  501    0 -0.24704358969E+02 -0.80161052731E+01 -0.14844589691E+04  0.14846861602E+04  0.00000000000E+00 0. -1.
          1    1    1    2  502    0  0.55815089584E+02  0.27489688580E+01  0.29418283928E+03  0.29944352386E+03  0.00000000000E+00 0. -1.
         22    1    3    3    0    0 -0.28533072823E+02  0.41593824991E+02  0.17673476660E+03  0.18379162181E+03  0.00000000000E+00 0.  1.
         22    1    3    3    0    0 -0.25776577912E+01 -0.36326688576E+02  0.18486912906E+01  0.36464918512E+02  0.00000000000E+00 0.  1.
</event>
<event>
 7    1  0.6888820E-006  0.2157162E+03  0.7818608E-02  0.1195380E+00
          2   -1    0    0  502    0  0.00000000000E+00  0.00000000000E+00  0.20260277053E+03  0.20260277053E+03  0.00000000000E+00 0. -1.
          1   -1    0    0  501    0 -0.00000000000E+00 -0.00000000000E+00 -0.30478041725E+04  0.30478041725E+04  0.00000000000E+00 0. -1.
         25    2    1    2    0    0  0.17864979405E+03  0.54258560939E+02 -0.58740995680E+03  0.62891511260E+03  0.12499608456E+03 0.  0.
          2    1    1    2  501    0  0.37235092905E+02 -0.10377866013E+03 -0.23704380327E+04  0.23730008280E+04  0.00000000000E+00 0. -1.
          1    1    1    2  502    0 -0.21588488696E+03  0.49520099194E+02  0.11264658753E+03  0.24849100250E+03  0.00000000000E+00 0. -1.
         22    1    3    3    0    0  0.18599980797E+03  0.57508374013E+02 -0.43835745491E+03  0.47964611947E+03  0.00000000000E+00 0.  1.
         22    1    3    3    0    0 -0.73500139199E+01 -0.32498130732E+01 -0.14905250189E+03  0.14926899313E+03  0.00000000000E+00 0.  1.
</event>
<event>
 7    1  0.6888820E-006  0.3206259E+03  0.7818608E-02  0.1201792E+00
          2   -1    0    0  502    0  0.00000000000E+00  0.00000000000E+00  0.18257158801E+04  0.18257158801E+04  0.00000000000E+00 0. -1.
          1   -1    0    0  501    0 -0.00000000000E+00 -0.00000000000E+00 -0.11242252906E+04  0.11242252906E+04  0.00000000000E+00 0. -1.
         25    2    1    2    0    0  0.48956473736E+02 -0.27798113112E+03  0.10652308206E+03  0.32656060924E+03  0.12499767563E+03 0.  0.
          2    1    1    2  501    0 -0.11230450949E+03  0.30577918202E+03 -0.98727451562E+03  0.10396269428E+04  0.00000000000E+00 0. -1.
          1    1    1    2  502    0  0.63348035758E+02 -0.27798050900E+02  0.15822420230E+04  0.15837536187E+04  0.00000000000E+00 0. -1.
         22    1    3    3    0    0 -0.23134432472E+02 -0.64538816163E+02  0.70626741511E+02  0.98430672932E+02  0.00000000000E+00 0. -1.
         22    1    3    3    0    0  0.72090906208E+02 -0.21344231496E+03  0.35896340550E+02  0.22812993630E+03  0.00000000000E+00 0. -1.
</event>
<event>
 7    1  0.6888820E-006  0.1072159E+03  0.7818608E-02  0.1417475E+00
          2   -1    0    0  502    0  0.00000000000E+00  0.00000000000E+00  0.40112000932E+03  0.40112000932E+03  0.00000000000E+00 0. -1.
          1   -1    0    0  501    0 -0.00000000000E+00 -0.00000000000E+00 -0.20100467482E+04  0.20100467482E+04  0.00000000000E+00 0. -1.
         25    2    1    2    0    0  0.97573169239E+02 -0.26747650949E+02  0.12298698800E+03  0.20245148733E+03  0.12499938127E+03 0.  0.
          2    1    1    2  501    0 -0.25653924409E+01 -0.28675665485E+02 -0.19575161582E+04  0.19577278628E+04  0.00000000000E+00 0. -1.
          1    1    1    2  502    0 -0.95007776798E+02  0.55423316434E+02  0.22560243134E+03  0.25098740742E+03  0.00000000000E+00 0. -1.
         22    1    3    3    0    0  0.41842654597E+02 -0.70436084239E+02  0.97122301535E+02  0.12706215472E+03  0.00000000000E+00 0. -1.
         22    1    3    3    0    0  0.55730514642E+02  0.43688433290E+02  0.25864686463E+02  0.75389332610E+02  0.00000000000E+00 0. -1.
</event>
<event>
 7    1  0.6888820E-006  0.5297369E+02  0.7818608E-02  0.1479165E+00
          2   -1    0    0  502    0  0.00000000000E+00  0.00000000000E+00  0.51476363566E+03  0.51476363566E+03  0.00000000000E+00 0. -1.
          1   -1    0    0  501    0 -0.00000000000E+00 -0.00000000000E+00 -0.20236554160E+03  0.20236554160E+03  0.00000000000E+00 0. -1.
         25    2    1    2    0    0 -0.21723166579E+02 -0.36536908947E+02  0.23684011028E+03  0.27115700821E+03  0.12500417427E+03 0.  0.
          2    1    1    2  501    0 -0.31885460679E+02  0.18652386361E+02 -0.18024986770E+03  0.18399621987E+03  0.00000000000E+00 0. -1.
          1    1    1    2  502    0  0.53608627257E+02  0.17884522586E+02  0.25580785149E+03  0.26197594918E+03  0.00000000000E+00 0. -1.
         22    1    3    3    0    0  0.28914818174E+02 -0.66251516553E+02  0.11364889861E+03  0.13469002306E+03  0.00000000000E+00 0.  1.
         22    1    3    3    0    0 -0.50637984753E+02  0.29714607606E+02  0.12319121167E+03  0.13646698516E+03  0.00000000000E+00 0.  1.
</event>
<event>
 7    1  0.6888820E-006  0.6812594E+02  0.7818608E-02  0.1440480E+00
          2   -1    0    0  502    0  0.00000000000E+00  0.00000000000E+00  0.30087387174E+04  0.30087387174E+04  0.00000000000E+00 0. -1.
          1   -1    0    0  501    0 -0.00000000000E+00 -0.00000000000E+00 -0.25228751820E+02  0.25228751820E+02  0.00000000000E+00 0. -1.
         25    2    1    2    0    0 -0.38265939529E+02  0.15888380424E+02  0.19358855070E+04  0.19403589915E+04  0.12499438784E+03 0.  0.
          2    1    1    2  501    0  0.68621722953E+02  0.70515023820E+01  0.29918707198E+02  0.75191712225E+02  0.00000000000E+00 0. -1.
          1    1    1    2  502    0 -0.30355783424E+02 -0.22939882806E+02  0.10177057513E+04  0.10184167654E+04  0.00000000000E+00 0. -1.
         22    1    3    3    0    0 -0.70987690397E+02 -0.21692709123E+02  0.81720300483E+03  0.82056722876E+03  0.00000000000E+00 0.  1.
         22    1    3    3    0    0  0.32721750868E+02  0.37581089546E+02  0.11186825022E+04  0.11197917628E+04  0.00000000000E+00 0.  1.
</event>
<event>
 7    1  0.6888820E-006  0.8422715E+02  0.7818608E-02  0.1370671E+00
          2   -1    0    0  502    0  0.00000000000E+00  0.00000000000E+00  0.13683683523E+04  0.13683683523E+04  0.00000000000E+00 0. -1.
          1   -1    0    0  501    0 -0.00000000000E+00 -0.00000000000E+00 -0.14156847454E+03  0.14156847454E+03  0.00000000000E+00 0. -1.
         25    2    1    2    0    0 -0.55613725627E+02 -0.11198053717E+03  0.33190327277E+02  0.17988415452E+03  0.12499673613E+03 0.  0.
          2    1    1    2  501    0  0.48328166795E+02  0.59215101948E+02 -0.46060318685E+02  0.89238965491E+02  0.00000000000E+00 0. -1.
          1    1    1    2  502    0  0.72855588325E+01  0.52765435218E+02  0.12396698691E+04  0.12408137068E+04  0.00000000000E+00 0. -1.
         22    1    3    3    0    0  0.30911628061E+02 -0.22847590682E+02 -0.21625629833E+02  0.44104523748E+02  0.00000000000E+00 0.  1.
         22    1    3    3    0    0 -0.86525353688E+02 -0.89132946483E+02  0.54815957110E+02  0.13577963078E+03  0.00000000000E+00 0.  1.
</event>
<event>
 7    1  0.6888820E-006  0.9063687E+02  0.7818608E-02  0.1347350E+00
          2   -1    0    0  502    0  0.00000000000E+00  0.00000000000E+00  0.46053758775E+03  0.46053758775E+03  0.00000000000E+00 0. -1.
          1   -1    0    0  501    0 -0.00000000000E+00 -0.00000000000E+00 -0.17322584527E+04  0.17322584527E+04  0.00000000000E+00 0. -1.
         25    2    1    2    0    0  0.84040238280E+02 -0.10520057387E+03 -0.46324153476E+03  0.49834466581E+03  0.12499905610E+03 0.  0.
          2    1    1    2  501    0 -0.58971218068E+01  0.59944726261E+02 -0.12461283509E+04  0.12475832691E+04  0.00000000000E+00 0. -1.
          1    1    1    2  502    0 -0.78143116473E+02  0.45255847613E+02  0.43764902076E+03  0.44686810556E+03  0.00000000000E+00 0. -1.
         22    1    3    3    0    0 -0.27306598228E+02 -0.42905222010E+02 -0.19154381233E+03  0.19818057529E+03  0.00000000000E+00 0.  1.
         22    1    3    3    0    0  0.11134683651E+03 -0.62295351863E+02 -0.27169772243E+03  0.30016409052E+03  0.00000000000E+00 0.  1.
</event>
<event>
 7    1  0.6888820E-006  0.9291277E+02  0.7818608E-02  0.1420040E+00
          2   -1    0    0  502    0  0.00000000000E+00  0.00000000000E+00  0.16040697285E+04  0.16040697285E+04  0.00000000000E+00 0. -1.
          1   -1    0    0  501    0 -0.00000000000E+00 -0.00000000000E+00 -0.43282546759E+02  0.43282546759E+02  0.00000000000E+00 0. -1.
         25    2    1    2    0    0 -0.11210867345E+03 -0.47768009630E+02  0.44824042792E+03  0.48103582757E+03  0.12500339510E+03 0.  0.
          2    1    1    2  501    0  0.27743270078E+02  0.17066046020E+02 -0.14532648781E+02  0.35667027378E+02  0.00000000000E+00 0. -1.
          1    1    1    2  502    0  0.84365403370E+02  0.30701963610E+02  0.11270794026E+04  0.11306494203E+04  0.00000000000E+00 0. -1.
         22    1    3    3    0    0  0.22374763703E+02  0.86919078556E+01  0.11167380952E+03  0.11422442403E+03  0.00000000000E+00 0.  1.
         22    1    3    3    0    0 -0.13448343715E+03 -0.56459917486E+02  0.33656661840E+03  0.36681140355E+03  0.00000000000E+00 0.  1.
</event>
<event>
 7    1  0.6888820E-006  0.1002980E+03  0.7818608E-02  0.1314049E+00
          2   -1    0    0  502    0  0.00000000000E+00  0.00000000000E+00  0.15998080957E+03  0.15998080957E+03  0.00000000000E+00 0. -1.
          1   -1    0    0  501    0 -0.00000000000E+00 -0.00000000000E+00 -0.66053869527E+03  0.66053869527E+03  0.00000000000E+00 0. -1.
         25    2    1    2    0    0  0.11041788613E+03 -0.77901072614E+01  0.34449991668E+02  0.17048089576E+03  0.12499655412E+03 0.  0.
          2    1    1    2  501    0 -0.81702540184E+02 -0.59258498160E+02 -0.56295333783E+03  0.57192948451E+03  0.00000000000E+00 0. -1.
          1    1    1    2  502    0 -0.28715345947E+02  0.67048605422E+02  0.27945460462E+02  0.78109124578E+02  0.00000000000E+00 0. -1.
         22    1    3    3    0    0  0.40791093467E+02 -0.51003755397E+02 -0.24264039140E+02  0.69670940615E+02  0.00000000000E+00 0. -1.
         22    1    3    3    0    0  0.69626792664E+02  0.43213648135E+02  0.58714030808E+02  0.10080995514E+03  0.00000000000E+00 0. -1.
</event>
<event>
 7    1  0.6888820E-006  0.1563903E+03  0.7818608E-02  0.1259255E+00
          2   -1    0    0  502    0  0.00000000000E+00  0.00000000000E+00  0.39196243145E+03  0.39196243145E+03  0.00000000000E+00 0. -1.
          1   -1    0    0  501    0 -0.00000000000E+00 -0.00000000000E+00 -0.66080383410E+03  0.66080383410E+03  0.00000000000E+00 0. -1.
         25    2    1    2    0    0  0.51808133536E+02 -0.13463808966E+03  0.21020425972E+03  0.28393935195E+03  0.12499690753E+03 0.  0.
          2    1    1    2  501    0 -0.12201964416E+03  0.99804927183E+02 -0.60239698401E+03  0.62268125344E+03  0.00000000000E+00 0. -1.
          1    1    1    2  502    0  0.70211510628E+02  0.34833162481E+02  0.12335132163E+03  0.14614566015E+03  0.00000000000E+00 0. -1.
         22    1    3    3    0    0 -0.27907762779E+02 -0.96044303784E+02  0.89408416903E+02  0.13415370485E+03  0.00000000000E+00 0.  1.
         22    1    3    3    0    0  0.79715896315E+02 -0.38593785880E+02  0.12079584282E+03  0.14978564709E+03  0.00000000000E+00 0.  1.
</event>
<event>
 7    1  0.6888820E-006  0.1269219E+03  0.7818608E-02  0.1389649E+00
          2   -1    0    0  502    0  0.00000000000E+00  0.00000000000E+00  0.12461302398E+03  0.12461302398E+03  0.00000000000E+00 0. -1.
          1   -1    0    0  501    0 -0.00000000000E+00 -0.00000000000E+00 -0.22364751286E+04  0.22364751286E+04  0.00000000000E+00 0. -1.
         25    2    1    2    0    0 -0.13906465319E+03 -0.48498952162E+02 -0.72207550035E+02  0.20624235183E+03  0.12502340293E+03 0.  0.
          2    1    1    2  501    0  0.30155551019E+02  0.27483090355E+01 -0.20364488194E+04  0.20366739318E+04  0.00000000000E+00 0. -1.
          1    1    1    2  502    0  0.10890910217E+03  0.45750643127E+02 -0.32057352355E+01  0.11817186899E+03  0.00000000000E+00 0. -1.
         22    1    3    3    0    0 -0.44638097977E+02 -0.81443595104E+02 -0.28973461788E+02  0.97288645084E+02  0.00000000000E+00 0. -1.
         22    1    3    3    0    0 -0.94426555214E+02  0.32944642941E+02 -0.43234088247E+02  0.10895370675E+03  0.00000000000E+00 0. -1.
</event>
<event>
 7    1  0.6888820E-006  0.1918662E+03  0.7818608E-02  0.1270366E+00
          2   -1    0    0  502    0  0.00000000000E+00  0.00000000000E+00  0.13549087361E+04  0.13549087361E+04  0.00000000000E+00 0. -1.
          1   -1    0    0  501    0 -0.00000000000E+00 -0.00000000000E+00 -0.10025872498E+04  0.10025872498E+04  0.00000000000E+00 0. -1.
         25    2    1    2    0    0  0.87101007014E+02 -0.12961401546E+03 -0.41465863912E+02  0.20428002114E+03  0.12499812295E+03 0.  0.
          2    1    1    2  501    0 -0.21331840961E+02 -0.53208553122E+02 -0.87135639522E+03  0.87324003863E+03  0.00000000000E+00 0. -1.
          1    1    1    2  502    0 -0.65769166052E+02  0.18282256858E+03  0.12651437454E+04  0.12799759261E+04  0.00000000000E+00 0. -1.
         22    1    3    3    0    0  0.10414557893E+03 -0.59235783574E+02 -0.52897022367E+02  0.13097051058E+03  0.00000000000E+00 0.  1.
         22    1    3    3    0    0 -0.17044571914E+02 -0.70378231889E+02  0.11431158456E+02  0.73309510565E+02  0.00000000000E+00 0.  1.
</event>
<event>
 7    1  0.6888820E-006  0.9866494E+02  0.7818608E-02  0.1321833E+00
          2   -1    0    0  502    0  0.00000000000E+00  0.00000000000E+00  0.95232713606E+02  0.95232713606E+02  0.00000000000E+00 0. -1.
          1   -1    0    0  501    0 -0.00000000000E+00 -0.00000000000E+00 -0.28628029633E+04  0.28628029633E+04  0.00000000000E+00 0. -1.
         25    2    1    2    0    0  0.11316738972E+03 -0.95057436744E+02 -0.10196478547E+03  0.21878344847E+03  0.12500642173E+03 0.  0.
          2    1    1    2  501    0 -0.36969596167E+02  0.58436814324E+02 -0.26528539380E+04  0.26537550054E+04  0.00000000000E+00 0. -1.
          1    1    1    2  502    0 -0.76197793548E+02  0.36620622420E+02 -0.12751526240E+02  0.85497223052E+02  0.00000000000E+00 0. -1.
         22    1    3    3    0    0 -0.23270341825E+02 -0.40257024092E+02 -0.22620040896E+02  0.51708829493E+02  0.00000000000E+00 0. -1.
         22    1    3    3    0    0  0.13643773154E+03 -0.54800412652E+02 -0.79344744569E+02  0.16707461897E+03  0.00000000000E+00 0. -1.
</event>
<event>
 7    1  0.6888820E-006  0.6914598E+02  0.7818608E-02  0.1378285E+00
          2   -1    0    0  502    0  0.00000000000E+00  0.00000000000E+00  0.32023383972E+03  0.32023383972E+03  0.00000000000E+00 0. -1.
          1   -1    0    0  501    0 -0.00000000000E+00 -0.00000000000E+00 -0.17476498521E+04  0.17476498521E+04  0.00000000000E+00 0. -1.
         25    2    1    2    0    0  0.35719645602E+02 -0.16055358866E+02 -0.87884112486E+03  0.88854925464E+03  0.12499755019E+03 0.  0.
          2    1    1    2  501    0 -0.37627982590E+02  0.76971481053E+02 -0.85885882442E+03  0.86312163352E+03  0.00000000000E+00 0. -1.
          1    1    1    2  502    0  0.19083369874E+01 -0.60916122187E+02  0.31028393691E+03  0.31621280366E+03  0.00000000000E+00 0. -1.
         22    1    3    3    0    0 -0.72298662644E+01 -0.57652947859E+02 -0.62792314768E+03  0.63060575065E+03  0.00000000000E+00 0.  1.
         22    1    3    3    0    0  0.42949511867E+02  0.41597588993E+02 -0.25091797718E+03  0.25794350399E+03  0.00000000000E+00 0.  1.
</event>
<event>
 7    1  0.6888820E-006  0.1402290E+03  0.7818608E-02  0.1299647E+00
          2   -1    0    0  502    0  0.00000000000E+00  0.00000000000E+00  0.81565894836E+03  0.81565894836E+03  0.00000000000E+00 0. -1.
          1   -1    0    0  501    0 -0.00000000000E+00 -0.00000000000E+00 -0.87434509760E+03  0.87434509760E+03  0.00000000000E+00 0. -1.
         25    2    1    2    0    0  0.76783335715E+02 -0.12108665187E+03 -0.29258272331E+02  0.19245632425E+03  0.12500292932E+03 0.  0.
          2    1    1    2  501    0  0.40631502548E+02  0.43454018532E+02 -0.75556003134E+03  0.75789849695E+03  0.00000000000E+00 0. -1.
          1    1    1    2  502    0 -0.11741483826E+03  0.77632633337E+02  0.72613215442E+03  0.73964922476E+03  0.00000000000E+00 0. -1.
         22    1    3    3    0    0  0.10841746020E+03 -0.93405964278E+02 -0.40907612827E+02  0.14883700019E+03  0.00000000000E+00 0. -1.
         22    1    3    3    0    0 -0.31634124481E+02 -0.27680687591E+02  0.11649340497E+02  0.43619324057E+02  0.00000000000E+00 0. -1.
</event>
<event>
 7    1  0.6888820E-006  0.9087959E+02  0.7818608E-02  0.1314413E+00
          2   -1    0    0  502    0  0.00000000000E+00  0.00000000000E+00  0.76868634458E+03  0.76868634458E+03  0.00000000000E+00 0. -1.
          1   -1    0    0  501    0 -0.00000000000E+00 -0.00000000000E+00 -0.77610934708E+03  0.77610934708E+03  0.00000000000E+00 0. -1.
         25    2    1    2    0    0  0.80739956919E+02 -0.23930335639E+02 -0.10007334637E+03  0.18090380147E+03  0.12497963484E+03 0.  0.
          2    1    1    2  501    0 -0.80192570621E+01  0.79832064971E+02 -0.63017898402E+03  0.63526610092E+03  0.00000000000E+00 0. -1.
          1    1    1    2  502    0 -0.72720699856E+02 -0.55901729332E+02  0.72282932789E+03  0.72862578927E+03  0.00000000000E+00 0. -1.
         22    1    3    3    0    0  0.60722535105E+02 -0.13713752127E+02 -0.12961267184E+03  0.14378712727E+03  0.00000000000E+00 0.  1.
         22    1    3    3    0    0  0.20017421813E+02 -0.10216583512E+02  0.29539325465E+02  0.37116674199E+02  0.00000000000E+00 0.  1.
</event>
<event>
 7    1  0.6888820E-006  0.3831311E+02  0.7818608E-02  0.1596135E+00
          2   -1    0    0  502    0  0.00000000000E+00  0.00000000000E+00  0.40612657133E+03  0.40612657133E+03  0.00000000000E+00 0. -1.
          1   -1    0    0  501    0 -0.00000000000E+00 -0.00000000000E+00 -0.33753082498E+03  0.33753082498E+03  0.00000000000E+00 0. -1.
         25    2    1    2    0    0 -0.57378335905E+02 -0.22256076558E+02  0.27623824387E+03  0.30938337809E+03  0.12499160326E+03 0.  0.
          2    1    1    2  501    0  0.34166561305E+02  0.17137254918E+02 -0.31855655845E+03  0.32084158139E+03  0.00000000000E+00 0. -1.
          1    1    1    2  502    0  0.23211774600E+02  0.51188216401E+01  0.11091406092E+03  0.11343243683E+03  0.00000000000E+00 0. -1.
         22    1    3    3    0    0 -0.16266757684E+02  0.51975433032E+02  0.10677777556E+03  0.11986470038E+03  0.00000000000E+00 0.  1.
         22    1    3    3    0    0 -0.41111578221E+02 -0.74231509589E+02  0.16946046831E+03  0.18951867771E+03  0.00000000000E+00 0.  1.
</event>
<event>
 7    1  0.6888820E-006  0.1294838E+03  0.7818608E-02  0.1368917E+00
          2   -1    0    0  502    0  0.00000000000E+00  0.00000000000E+00  0.11128739701E+04  0.11128739701E+04  0.00000000000E+00 0. -1.
          1   -1    0    0  501    0 -0.00000000000E+00 -0.00000000000E+00 -0.16152930249E+03  0.16152930249E+03  0.00000000000E+00 0. -1.
         25    2    1    2    0    0 -0.31129636903E+02 -0.96709781664E+02  0.11611695574E+03  0.19856700755E+03  0.12499549158E+03 0.  0.
          2    1    1    2  501    0  0.47421468218E+02  0.12786251152E+03 -0.81211634924E+02  0.15872286271E+03  0.00000000000E+00 0. -1.
          1    1    1    2  502    0 -0.16291831314E+02 -0.31152729859E+02  0.91643934676E+03  0.91711340228E+03  0.00000000000E+00 0. -1.
         22    1    3    3    0    0 -0.45126924775E+02  0.13711172880E+02  0.51636685835E+02  0.69934132764E+02  0.00000000000E+00 0. -1.
         22    1    3    3    0    0  0.13997287872E+02 -0.11042095454E+03  0.64480269902E+02  0.12863287479E+03  0.00000000000E+00 0. -1.
</event>
<event>
 7    1  0.6888820E-006  0.9376470E+02  0.7818608E-02  0.1469295E+00
          2   -1    0    0  502    0  0.00000000000E+00  0.00000000000E+00  0.14683138768E+03  0.14683138768E+03  0.00000000000E+00 0. -1.
          1   -1    0    0  501    0 -0.00000000000E+00 -0.00000000000E+00 -0.13987639049E+03  0.13987639049E+03  0.00000000000E+00 0. -1.
         25    2    1    2    0    0  0.83370037909E+02  0.60716547168E+01 -0.29249530531E+02  0.15319605194E+03  0.12500426825E+03 0.  0.
          2    1    1    2  501    0 -0.10442260194E+03  0.15493434836E+01  0.21213211851E+02  0.10656678947E+03  0.00000000000E+00 0. -1.
          1    1    1    2  502    0  0.21052564026E+02 -0.76209982004E+01  0.14991315866E+02  0.26944936761E+02  0.00000000000E+00 0. -1.
         22    1    3    3    0    0  0.74419785030E+02  0.59817881361E+02 -0.24046969304E+02  0.98461871134E+02  0.00000000000E+00 0.  1.
         22    1    3    3    0    0  0.89502528783E+01 -0.53746226644E+02 -0.52025612268E+01  0.54734180805E+02  0.00000000000E+00 0.  1.
</event>
<event>
 7    1  0.6888820E-006  0.7492050E+02  0.7818608E-02  0.1472048E+00
          2   -1    0    0  502    0  0.00000000000E+00  0.00000000000E+00  0.24847012535E+03  0.24847012535E+03  0.00000000000E+00 0. -1.
          1   -1    0    0  501    0 -0.00000000000E+00 -0.00000000000E+00 -0.14469554706E+04  0.14469554706E+04  0.00000000000E+00 0. -1.
         25    2    1    2    0    0  0.83232987989E+02  0.57219696204E+02 -0.31208488637E+03  0.35103242859E+03  0.12499986279E+03 0.  0.
          2    1    1    2  501    0 -0.25511790958E+02 -0.10197634728E+02 -0.11091710040E+04  0.11095112255E+04  0.00000000000E+00 0. -1.
          1    1    1    2  502    0 -0.57721197031E+02 -0.47022061476E+02  0.22277054514E+03  0.23488194191E+03  0.00000000000E+00 0. -1.
         22    1    3    3    0    0  0.12120135870E+02 -0.34614774964E+02 -0.12985196841E+03  0.13493188667E+03  0.00000000000E+00 0. -1.
         22    1    3    3    0    0  0.71112852119E+02  0.91834471168E+02 -0.18223291796E+03  0.21610054192E+03  0.00000000000E+00 0. -1.
</event>
<event>
 7    1  0.6888820E-006  0.5182292E+02  0.7818608E-02  0.1522127E+00
          2   -1    0    0  502    0  0.00000000000E+00  0.00000000000E+00  0.51363528947E+03  0.51363528947E+03  0.00000000000E+00 0. -1.
          1   -1    0    0  501    0 -0.00000000000E+00 -0.00000000000E+00 -0.27846662258E+03  0.27846662258E+03  0.00000000000E+00 0. -1.
         25    2    1    2    0    0  0.62537950709E+02  0.34523616438E+02 -0.36615876556E+02  0.14855405171E+03  0.12499883397E+03 0.  0.
          2    1    1    2  501    0 -0.27874253741E+02  0.36635645592E+01 -0.18335388576E+03  0.18549674701E+03  0.00000000000E+00 0. -1.
          1    1    1    2  502    0 -0.34663696968E+02 -0.38187180997E+02  0.45513842921E+03  0.45805111333E+03  0.00000000000E+00 0. -1.
         22    1    3    3    0    0  0.48191419409E+02  0.36262161719E+00  0.40531289897E+02  0.62970865166E+02  0.00000000000E+00 0. -1.
         22    1    3    3    0    0  0.14346531300E+02  0.34160994821E+02 -0.77147166453E+02  0.85583186545E+02  0.00000000000E+00 0. -1.
</event>
<event>
 7    1  0.6888820E-006  0.1446361E+03  0.7818608E-02  0.1372914E+00
          2   -1    0    0  502    0  0.00000000000E+00  0.00000000000E+00  0.82400814851E+03  0.82400814851E+03  0.00000000000E+00 0. -1.
          1   -1    0    0  501    0 -0.00000000000E+00 -0.00000000000E+00 -0.99894796408E+03  0.99894796408E+03  0.00000000000E+00 0. -1.
         25    2    1    2    0    0 -0.16016037484E+03  0.11804079105E+02 -0.38476291915E+03  0.43526807020E+03  0.12500042812E+03 0.  0.
          2    1    1    2  501    0  0.16407798514E+02 -0.25650964586E+02 -0.58200339022E+03  0.58279939436E+03  0.00000000000E+00 0. -1.
          1    1    1    2  502    0  0.14375257633E+03  0.13846885481E+02  0.79182649380E+03  0.80488864803E+03  0.00000000000E+00 0. -1.
         22    1    3    3    0    0 -0.91949270304E+02  0.67029926700E+02 -0.18689018003E+03  0.21880497886E+03  0.00000000000E+00 0.  1.
         22    1    3    3    0    0 -0.68211104536E+02 -0.55225847595E+02 -0.19787273912E+03  0.21646309134E+03  0.00000000000E+00 0.  1.
</event>
<event>
 7    1  0.6888820E-006  0.1247783E+03  0.7818608E-02  0.1393777E+00
          2   -1    0    0  502    0  0.00000000000E+00  0.00000000000E+00  0.54527954602E+03  0.54527954602E+03  0.00000000000E+00 0. -1.
          1   -1    0    0  501    0 -0.00000000000E+00 -0.00000000000E+00 -0.24126384191E+03  0.24126384191E+03  0.00000000000E+00 0. -1.
         25    2    1    2    0    0  0.37799588680E+02  0.12077861940E+03 -0.50747236468E+02  0.18499284910E+03  0.12502315146E+03 0.  0.
          2    1    1    2  501    0  0.26463927277E+02 -0.13696998925E+02 -0.11327957210E+03  0.11713329451E+03  0.00000000000E+00 0. -1.
          1    1    1    2  502    0 -0.64263515957E+02 -0.10708162048E+03  0.46804251268E+03  0.48441724432E+03  0.00000000000E+00 0. -1.
         22    1    3    3    0    0  0.61164645036E+01  0.57006450389E+02 -0.87691352958E+02  0.10477079702E+03  0.00000000000E+00 0. -1.
         22    1    3    3    0    0  0.31683124176E+02  0.63772169011E+02  0.36944116489E+02  0.80222052088E+02  0.00000000000E+00 0. -1.
</event>
<event>
 7    1  0.6888820E-006  0.1346359E+03  0.7818608E-02  0.1253758E+00
          2   -1    0    0  502    0  0.00000000000E+00  0.00000000000E+00  0.21726970033E+04  0.21726970033E+04  0.00000000000E+00 0. -1.
          1   -1    0    0  501    0 -0.00000000000E+00 -0.00000000000E+00 -0.48645822980E+03  0.48645822980E+03  0.00000000000E+00 0. -1.
         25    2    1    2    0    0 -0.15133006331E+03  0.14759154121E+03  0.10803477247E+03  0.26829234877E+03  0.12500088500E+03 0.  0.
          2    1    1    2  501    0  0.31223115773E+02 -0.90911732399E+02 -0.39838477063E+03  0.40981733921E+03  0.00000000000E+00 0. -1.
          1    1    1    2  502    0  0.12010694753E+03 -0.56679808811E+02  0.19765887716E+04  0.19810455451E+04  0.00000000000E+00 0. -1.
         22    1    3    3    0    0 -0.14547725614E+03  0.59460867459E+02  0.72729683161E+02  0.17317284321E+03  0.00000000000E+00 0. -1.
         22    1    3    3    0    0 -0.58528071671E+01  0.88130673751E+02  0.35305089307E+02  0.95119505562E+02  0.00000000000E+00 0. -1.
</event>
<event>
 7    1  0.6888820E-006  0.1222842E+03  0.7818608E-02  0.1307690E+00
          2   -1    0    0  502    0  0.00000000000E+00  0.00000000000E+00  0.15993912790E+04  0.15993912790E+04  0.00000000000E+00 0. -1.
          1   -1    0    0  501    0 -0.00000000000E+00 -0.00000000000E+00 -0.99165313959E+02  0.99165313959E+02  0.00000000000E+00 0. -1.
         25    2    1    2    0    0 -0.22613372607E+01 -0.83461156553E+02  0.43888814828E+03  0.46391640890E+03  0.12499899777E+03 0.  0.
          2    1    1    2  501    0  0.43115078775E+02 -0.46445983114E+02 -0.70409495013E+02  0.94729279281E+02  0.00000000000E+00 0. -1.
          1    1    1    2  502    0 -0.40853741514E+02  0.12990713967E+03  0.11317473118E+04  0.11399109048E+04  0.00000000000E+00 0. -1.
         22    1    3    3    0    0  0.41221120681E+01  0.33163245215E+02  0.90727848975E+02  0.96686789277E+02  0.00000000000E+00 0. -1.
         22    1    3    3    0    0 -0.63834493288E+01 -0.11662440177E+03  0.34816029931E+03  0.36722961962E+03  0.00000000000E+00 0. -1.
</event>
<event>
 7    1  0.6888820E-006  0.2139600E+03  0.7818608E-02  0.1262509E+00
          2   -1    0    0  502    0  0.00000000000E+00  0.00000000000E+00  0.49883822492E+03  0.49883822492E+03  0.00000000000E+00 0. -1.
          1   -1    0    0  501    0 -0.00000000000E+00 -0.00000000000E+00 -0.11302404156E+04  0.11302404156E+04  0.00000000000E+00 0. -1.
         25    2    1    2    0    0  0.19009673931E+03 -0.16125523199E+03 -0.57375232338E+03  0.63793209318E+03  0.12500242716E+03 0.  0.
          2    1    1    2  501    0 -0.15158971705E+03  0.12130429005E+03 -0.50465366195E+03  0.54071202282E+03  0.00000000000E+00 0. -1.
          1    1    1    2  502    0 -0.38507022256E+02  0.39950941939E+02  0.44700379461E+03  0.45043452457E+03  0.00000000000E+00 0. -1.
         22    1    3    3    0    0  0.10224527640E+03 -0.10080833781E+03 -0.46054406257E+03  0.48240776433E+03  0.00000000000E+00 0.  1.
         22    1    3    3    0    0  0.87851462903E+02 -0.60446894179E+02 -0.11320826081E+03  0.15552432885E+03  0.00000000000E+00 0.  1.
</event>
<event>
 7    1  0.6888820E-006  0.6664966E+02  0.7818608E-02  0.1413160E+00
          2   -1    0    0  502    0  0.00000000000E+00  0.00000000000E+00  0.25061695956E+03  0.25061695956E+03  0.00000000000E+00 0. -1.
          1   -1    0    0  501    0 -0.00000000000E+00 -0.00000000000E+00 -0.26746906518E+03  0.26746906518E+03  0.00000000000E+00 0. -1.
         25    2    1    2    0    0 -0.79165608609E+02  0.18092942864E+02 -0.16389174405E+03  0.22153685942E+03  0.12499411245E+03 0.  0.
          2    1    1    2  501    0  0.42181508882E+02 -0.48512344562E+02 -0.57639644612E+02  0.86342665568E+02  0.00000000000E+00 0. -1.
          1    1    1    2  502    0  0.36984099727E+02  0.30419401698E+02  0.20467928304E+03  0.21020649975E+03  0.00000000000E+00 0. -1.
         22    1    3    3    0    0  0.18938351876E+02  0.25590248255E+02 -0.98201429806E+02  0.10323295401E+03  0.00000000000E+00 0.  1.
         22    1    3    3    0    0 -0.98103960485E+02 -0.74973053905E+01 -0.65690314241E+02  0.11830390541E+03  0.00000000000E+00 0.  1.
</event>
<event>
 7    1  0.6888820E-006  0.2671863E+02  0.7818608E-02  0.1670319E+00
          2   -1    0    0  502    0  0.00000000000E+00  0.00000000000E+00  0.12911519484E+04  0.12911519484E+04  0.00000000000E+00 0. -1.
          1   -1    0    0  501    0 -0.00000000000E+00 -0.00000000000E+00 -0.39245433165E+03  0.39245433165E+03  0.00000000000E+00 0. -1.
         25    2    1    2    0    0  0.25016372908E+02  0.39746845636E+02  0.72075770037E+02  0.15173972605E+03  0.12499758871E+03 0.  0.
          2    1    1    2  501    0 -0.80694603021E+01 -0.25382501712E+02 -0.35201459353E+03  0.35302076659E+03  0.00000000000E+00 0. -1.
          1    1    1    2  502    0 -0.16946912606E+02 -0.14364343924E+02  0.11786364402E+04  0.11788457874E+04  0.00000000000E+00 0. -1.
         22    1    3    3    0    0  0.22667572014E+02 -0.27882312706E+02 -0.17100201162E+02  0.39795214066E+02  0.00000000000E+00 0. -1.
         22    1    3    3    0    0  0.23488008947E+01  0.67629158342E+02  0.89175971199E+02  0.11194451198E+03  0.00000000000E+00 0. -1.
</event>
<event>
 7    1  0.6888820E-006  0.6081757E+02  0.7818608E-02  0.1471619E+00
          2   -1    0    0  502    0  0.00000000000E+00  0.00000000000E+00  0.13874464990E+04  0.13874464990E+04  0.00000000000E+00 0. -1.
          1   -1    0    0  501    0 -0.00000000000E+00 -0.00000000000E+00 -0.84100360660E+03  0.84100360660E+03  0.00000000000E+00 0. -1.
         25    2    1    2    0    0 -0.38490820160E+02  0.77508541125E+01  0.62254095580E+03  0.63618016710E+03  0.12500537742E+03 0.  0.
          2    1    1    2  501    0 -0.15471894905E+02  0.30218613299E+02 -0.83240159962E+03  0.83309361249E+03  0.00000000000E+00 0. -1.
          1    1    1    2  502    0  0.53962715065E+02 -0.37969467412E+02  0.75630353620E+03  0.75917632599E+03  0.00000000000E+00 0. -1.
         22    1    3    3    0    0  0.43519522975E+02  0.12245162195E+02  0.29787912906E+03  0.30129033906E+03  0.00000000000E+00 0. -1.
         22    1    3    3    0    0 -0.82010343134E+02 -0.44943080821E+01  0.32466182674E+03  0.33488982804E+03  0.00000000000E+00 0. -1.
</event>
<event>
 7    1  0.6888820E-006  0.3421987E+02  0.7818608E-02  0.1586232E+00
          2   -1    0    0  502    0  0.00000000000E+00  0.00000000000E+00  0.35227317652E+02  0.35227317652E+02  0.00000000000E+00 0. -1.
          1   -1    0    0  501    0 -0.00000000000E+00 -0.00000000000E+00 -0.11404461889E+04  0.11404461889E+04  0.00000000000E+00 0. -1.
         25    2    1    2    0    0  0.18495424035E+01 -0.61397808260E+02 -0.34630682089E+03  0.37326392883E+03  0.12499773879E+03 0.  0.
          2    1    1    2  501    0  0.21861631142E+01  0.33421731281E+02 -0.77095724461E+03  0.77168443320E+03  0.00000000000E+00 0. -1.
          1    1    1    2  502    0 -0.40357055178E+01  0.27976076980E+02  0.12045194241E+02  0.30725144532E+02  0.00000000000E+00 0. -1.
         22    1    3    3    0    0 -0.16071914453E+02 -0.35451273008E+02 -0.17040308016E+02  0.42490837711E+02  0.00000000000E+00 0. -1.
         22    1    3    3    0    0  0.17921456857E+02 -0.25946535252E+02 -0.32926651288E+03  0.33077309112E+03  0.00000000000E+00 0. -1.
</event>
<event>
 7    1  0.6888820E-006  0.3258613E+02  0.7818608E-02  0.1583932E+00
          2   -1    0    0  502    0  0.00000000000E+00  0.00000000000E+00  0.10765059547E+04  0.10765059547E+04  0.00000000000E+00 0. -1.
          1   -1    0    0  501    0 -0.00000000000E+00 -0.00000000000E+00 -0.23683735909E+03  0.23683735909E+03  0.00000000000E+00 0. -1.
         25    2    1    2    0    0  0.27402562757E+02  0.35879756178E+02 -0.12251687181E+03  0.18076000941E+03  0.12500215909E+03 0.  0.
          2    1    1    2  501    0  0.24806058175E+01 -0.32235972109E+02 -0.81906863861E+02  0.88057059061E+02  0.00000000000E+00 0. -1.
          1    1    1    2  502    0 -0.29883168574E+02 -0.36437840690E+01  0.10440923312E+04  0.10445262453E+04  0.00000000000E+00 0. -1.
         22    1    3    3    0    0  0.57402366695E+02 -0.26849546056E+02 -0.58364240243E+02  0.86152854652E+02  0.00000000000E+00 0.  1.
         22    1    3    3    0    0 -0.29999803938E+02  0.62729302233E+02 -0.64152631564E+02  0.94607154759E+02  0.00000000000E+00 0.  1.
</event>
<event>
 7    1  0.6888820E-006  0.1053319E+03  0.7818608E-02  0.1419666E+00
          2   -1    0    0  502    0  0.00000000000E+00  0.00000000000E+00  0.13877378483E+04  0.13877378483E+04  0.00000000000E+00 0. -1.
          1   -1    0    0  501    0 -0.00000000000E+00 -0.00000000000E+00 -0.12154802509E+03  0.12154802509E+03  0.00000000000E+00 0. -1.
         25    2    1    2    0    0 -0.11811532941E+01  0.11385931842E+03  0.25608689959E+03  0.30687201390E+03  0.12499837302E+03 0.  0.
          2    1    1    2  501    0  0.27081462609E+02 -0.10123190446E+03 -0.67354639580E+02  0.12457107036E+03  0.00000000000E+00 0. -1.
          1    1    1    2  502    0 -0.25900309315E+02 -0.12627413962E+02  0.10774575632E+04  0.10778427891E+04  0.00000000000E+00 0. -1.
         22    1    3    3    0    0  0.44493719470E+02  0.31294562891E+02  0.30540122245E+02  0.62383810444E+02  0.00000000000E+00 0.  1.
         22    1    3    3    0    0 -0.45674872764E+02  0.82564755526E+02  0.22554677735E+03  0.24448820346E+03  0.00000000000E+00 0.  1.
</event>
<event>
 7    1  0.6888820E-006  0.1412660E+03  0.7818608E-02  0.1355792E+00
          2   -1    0    0  502    0  0.00000000000E+00  0.00000000000E+00  0.38352396845E+04  0.38352396845E+04  0.00000000000E+00 0. -1.
          1   -1    0    0  501    0 -0.00000000000E+00 -0.00000000000E+00 -0.78079363893E+02  0.78079363893E+02  0.00000000000E+00 0. -1.
         25    2    1    2    0    0  0.70326776754E+02  0.12191196071E+03  0.65971999866E+03  0.68604997473E+03  0.12500283797E+03 0.  0.
          2    1    1    2  501    0  0.29251283997E+02 -0.20928036140E+02 -0.58214395282E+02  0.68429059106E+02  0.00000000000E+00 0. -1.
          1    1    1    2  502    0 -0.99578060751E+02 -0.10098392457E+03  0.31556547172E+04  0.31588400146E+04  0.00000000000E+00 0. -1.
         22    1    3    3    0    0 -0.13427781122E+02  0.89988999440E+02  0.42875614890E+03  0.43830373092E+03  0.00000000000E+00 0.  1.
         22    1    3    3    0    0  0.83754557876E+02  0.31922961274E+02  0.23096384977E+03  0.24774624381E+03  0.00000000000E+00 0.  1.
</event>
<event>
 7    1  0.6888820E-006  0.4643163E+02  0.7818608E-02  0.1467598E+00
          2   -1    0    0  502    0  0.00000000000E+00  0.00000000000E+00  0.12755248239E+04  0.12755248239E+04  0.00000000000E+00 0. -1.
          1   -1    0    0  501    0 -0.00000000000E+00 -0.00000000000E+00 -0.30429874706E+02  0.30429874706E+02  0.00000000000E+00 0. -1.
         25    2    1    2    0    0  0.98325595400E+01  0.27118041610E+02  0.71681545231E+03  0.72820398729E+03  0.12499834812E+03 0.  0.
          2    1    1    2  501    0 -0.44693706581E+02  0.12584469891E+02 -0.40425252717E+00  0.46433390039E+02  0.00000000000E+00 0. -1.
          1    1    1    2  502    0  0.34861147041E+02 -0.39702511501E+02  0.52868374942E+03  0.53131732128E+03  0.00000000000E+00 0. -1.
         22    1    3    3    0    0  0.16985317072E+02  0.48872962677E+00  0.78766236047E+01  0.18729149796E+02  0.00000000000E+00 0.  1.
         22    1    3    3    0    0 -0.71527575320E+01  0.26629311983E+02  0.70893882871E+03  0.70947483750E+03  0.00000000000E+00 0.  1.
</event>
<event>
 7    1  0.6888820E-006  0.6570347E+02  0.7818608E-02  0.1492582E+00
          2   -1    0    0  502    0  0.00000000000E+00  0.00000000000E+00  0.31900337179E+04  0.31900337179E+04  0.00000000000E+00 0. -1.
          1   -1    0    0  501    0 -0.00000000000E+00 -0.00000000000E+00 -0.10508507381E+03  0.10508507381E+03  0.00000000000E+00 0. -1.
         25    2    1    2    0    0 -0.77255933702E+02  0.43829328648E+02  0.14894476713E+04  0.14973206809E+04  0.12500146646E+03 0.  0.
          2    1    1    2  501    0  0.20732987145E+02 -0.17468609952E+02 -0.98747781328E+02  0.10240182326E+03  0.00000000000E+00 0. -1.
          1    1    1    2  502    0  0.56522946557E+02 -0.26360718696E+02  0.16942487541E+04  0.16953962875E+04  0.00000000000E+00 0. -1.
         22    1    3    3    0    0 -0.32243563954E+02 -0.43799028122E+02  0.58562423893E+03  0.58814432881E+03  0.00000000000E+00 0.  1.
         22    1    3    3    0    0 -0.45012369748E+02  0.87628356770E+02  0.90382343235E+03  0.90917635210E+03  0.00000000000E+00 0.  1.
</event>
<event>
 7    1  0.6888820E-006  0.1140757E+03  0.7818608E-02  0.1357675E+00
          2   -1    0    0  502    0  0.00000000000E+00  0.00000000000E+00  0.89142492275E+03  0.89142492275E+03  0.00000000000E+00 0. -1.
          1   -1    0    0  501    0 -0.00000000000E+00 -0.00000000000E+00 -0.75250897023E+03  0.75250897023E+03  0.00000000000E+00 0. -1.
         25    2    1    2    0    0  0.57389467116E+02  0.99117792675E+02  0.78558288653E+02  0.18685429447E+03  0.12500093954E+03 0.  0.
          2    1    1    2  501    0 -0.90296203237E+02 -0.70154771369E+02 -0.69303891304E+03  0.70240873517E+03  0.00000000000E+00 0. -1.
          1    1    1    2  502    0  0.32906736121E+02 -0.28963021306E+02  0.75339657691E+03  0.75467086334E+03  0.00000000000E+00 0. -1.
         22    1    3    3    0    0 -0.13222195626E+02  0.96857732440E+02  0.34868224139E+02  0.10378843792E+03  0.00000000000E+00 0. -1.
         22    1    3    3    0    0  0.70611662742E+02  0.22600602349E+01  0.43690064513E+02  0.83065856552E+02  0.00000000000E+00 0. -1.
</event>
<event>
 7    1  0.6888820E-006  0.7538241E+02  0.7818608E-02  0.1383942E+00
          2   -1    0    0  502    0  0.00000000000E+00  0.00000000000E+00  0.52210965262E+03  0.52210965262E+03  0.00000000000E+00 0. -1.
          1   -1    0    0  501    0 -0.00000000000E+00 -0.00000000000E+00 -0.87990101396E+02  0.87990101396E+02  0.00000000000E+00 0. -1.
         25    2    1    2    0    0  0.51187314948E+02  0.20600628780E+02  0.17876442995E+03  0.22500178871E+03  0.12499822555E+03 0.  0.
          2    1    1    2  501    0 -0.11438451624E+02  0.52147834982E+02 -0.47280277850E+02  0.71313810320E+02  0.00000000000E+00 0. -1.
          1    1    1    2  502    0 -0.39748863325E+02 -0.72748463762E+02  0.30263539912E+03  0.31378415498E+03  0.00000000000E+00 0. -1.
         22    1    3    3    0    0  0.59331523102E+02 -0.30811046905E+02  0.42717326318E+02  0.79336751967E+02  0.00000000000E+00 0. -1.
         22    1    3    3    0    0 -0.81442081537E+01  0.51411675685E+02  0.13604710363E+03  0.14566503674E+03  0.00000000000E+00 0. -1.
</event>
<event>
 7    1  0.6888820E-006  0.2377540E+03  0.7818608E-02  0.1334018E+00
          2   -1    0    0  502    0  0.00000000000E+00  0.00000000000E+00  0.87157587749E+03  0.87157587749E+03  0.00000000000E+00 0. -1.
          1   -1    0    0  501    0 -0.00000000000E+00 -0.00000000000E+00 -0.16802096920E+04  0.16802096920E+04  0.00000000000E+00 0. -1.
         25    2    1    2    0    0  0.19887164147E+02 -0.23567065545E+03  0.74062709173E+03  0.78745732166E+03  0.12499754914E+03 0.  0.
          2    1    1    2  501    0 -0.45555601342E+02  0.23337864000E+03 -0.16465770726E+04  0.16636577048E+04  0.00000000000E+00 0. -1.
          1    1    1    2  502    0  0.25668437195E+02  0.22920154563E+01  0.97316166397E+02  0.10067054309E+03  0.00000000000E+00 0. -1.
         22    1    3    3    0    0 -0.25918455032E+02 -0.61936632180E+02  0.36435206163E+03  0.37048662260E+03  0.00000000000E+00 0.  1.
         22    1    3    3    0    0  0.45805619179E+02 -0.17373402327E+03  0.37627503010E+03  0.41697069906E+03  0.00000000000E+00 0.  1.
</event>
<event>
 7    1  0.6888820E-006  0.6169858E+02  0.7818608E-02  0.1488828E+00
          2   -1    0    0  502    0  0.00000000000E+00  0.00000000000E+00  0.14253842090E+04  0.14253842090E+04  0.00000000000E+00 0. -1.
          1   -1    0    0  501    0 -0.00000000000E+00 -0.00000000000E+00 -0.49000574075E+02  0.49000574075E+02  0.00000000000E+00 0. -1.
         25    2    1    2    0    0  0.32694871501E+02  0.19262945207E+02  0.19374507344E+03  0.23366974056E+03  0.12499751394E+03 0.  0.
          2    1    1    2  501    0  0.79546881361E+01  0.28547612705E+02 -0.20440222327E+02  0.36000638096E+02  0.00000000000E+00 0. -1.
          1    1    1    2  502    0 -0.40649559637E+02 -0.47810557912E+02  0.12030787838E+04  0.12047144045E+04  0.00000000000E+00 0. -1.
         22    1    3    3    0    0 -0.89050002254E+01  0.43955610251E+01 -0.16268558360E+02  0.19060062352E+02  0.00000000000E+00 0.  1.
         22    1    3    3    0    0  0.41599871726E+02  0.14867384182E+02  0.21001363180E+03  0.21460967821E+03  0.00000000000E+00 0.  1.
</event>
<event>
 7    1  0.6888820E-006  0.1370446E+03  0.7818608E-02  0.1252863E+00
          2   -1    0    0  502    0  0.00000000000E+00  0.00000000000E+00  0.13399570136E+04  0.13399570136E+04  0.00000000000E+00 0. -1.
          1   -1    0    0  501    0 -0.00000000000E+00 -0.00000000000E+00 -0.12844218048E+04  0.12844218048E+04  0.00000000000E+00 0. -1.
         25    2    1    2    0    0  0.71975222128E+02  0.68270953418E+02  0.66954179515E+02  0.17305566875E+03  0.12499618655E+03 0.  0.
          2    1    1    2  501    0  0.69874393137E+02 -0.64772311443E+02 -0.12253896569E+04  0.12290881556E+04  0.00000000000E+00 0. -1.
          1    1    1    2  502    0 -0.14184961527E+03 -0.34986419755E+01  0.12139706861E+04  0.12222349940E+04  0.00000000000E+00 0. -1.
         22    1    3    3    0    0  0.21385644796E+02  0.98385674789E+02  0.43610045401E+02  0.10972202544E+03  0.00000000000E+00 0. -1.
         22    1    3    3    0    0  0.50589577331E+02 -0.30114721371E+02  0.23344134114E+02  0.63333643313E+02  0.00000000000E+00 0. -1.
</event>
<event>
 7    1  0.6888820E-006  0.7695193E+02  0.7818608E-02  0.1393413E+00
          2   -1    0    0  502    0  0.00000000000E+00  0.00000000000E+00  0.13011106825E+04  0.13011106825E+04  0.00000000000E+00 0. -1.
          1   -1    0    0  501    0 -0.00000000000E+00 -0.00000000000E+00 -0.75885690642E+02  0.75885690642E+02  0.00000000000E+00 0. -1.
         25    2    1    2    0    0  0.46441749284E+02  0.10690825395E+03  0.24133815901E+03  0.29572696279E+03  0.12499647470E+03 0.  0.
          2    1    1    2  501    0 -0.43865709518E+02 -0.58517729873E+02 -0.20312079267E+02  0.75901948230E+02  0.00000000000E+00 0. -1.
          1    1    1    2  502    0 -0.25760397664E+01 -0.48390524080E+02  0.10041989121E+04  0.10053674621E+04  0.00000000000E+00 0. -1.
         22    1    3    3    0    0  0.24690373673E+02  0.12896088996E+03  0.22548941033E+03  0.26093294131E+03  0.00000000000E+00 0.  1.
         22    1    3    3    0    0  0.21751375612E+02 -0.22052636007E+02  0.15848748684E+02  0.34794021479E+02  0.00000000000E+00 0.  1.
</event>
<event>
 7    1  0.6888820E-006  0.8181805E+02  0.7818608E-02  0.1475979E+00
          2   -1    0    0  502    0  0.00000000000E+00  0.00000000000E+00  0.94593891016E+02  0.94593891016E+02  0.00000000000E+00 0. -1.
          1   -1    0    0  501    0 -0.00000000000E+00 -0.00000000000E+00 -0.30744784447E+04  0.30744784447E+04  0.00000000000E+00 0. -1.
         25    2    1    2    0    0 -0.99310946779E+02 -0.12709759317E+02 -0.49707365903E+00  0.16015404069E+03  0.12499947014E+03 0.  0.
          2    1    1    2  501    0  0.77917321985E+02  0.24574717095E+02 -0.29830617621E+04  0.29841803737E+04  0.00000000000E+00 0. -1.
          1    1    1    2  502    0  0.21393624794E+02 -0.11864957778E+02  0.36742821087E+01  0.24737921374E+02  0.00000000000E+00 0. -1.
         22    1    3    3    0    0 -0.46270281446E+02  0.53830951831E+02  0.17652921722E+02  0.73145990768E+02  0.00000000000E+00 0. -1.
         22    1    3    3    0    0 -0.53040665333E+02 -0.66540711148E+02 -0.18149995381E+02  0.87008049923E+02  0.00000000000E+00 0. -1.
</event>
<event>
 7    1  0.6888820E-006  0.7372876E+02  0.7818608E-02  0.1491133E+00
          2   -1    0    0  502    0  0.00000000000E+00  0.00000000000E+00  0.14615147935E+04  0.14615147935E+04  0.00000000000E+00 0. -1.
          1   -1    0    0  501    0 -0.00000000000E+00 -0.00000000000E+00 -0.18412802291E+03  0.18412802291E+03  0.00000000000E+00 0. -1.
         25    2    1    2    0    0  0.35082964934E+02  0.35448232250E+02  0.33751088863E+03  0.36335294669E+03  0.12499748926E+03 0.  0.
          2    1    1    2  501    0 -0.52414926593E+02 -0.52629258031E+02 -0.16300937114E+03  0.17913463766E+03  0.00000000000E+00 0. -1.
          1    1    1    2  502    0  0.17331961659E+02  0.17181025781E+02  0.11028852531E+04  0.11031552321E+04  0.00000000000E+00 0. -1.
         22    1    3    3    0    0  0.69063296029E+02 -0.17878272037E+02  0.18082065765E+03  0.19438488033E+03  0.00000000000E+00 0.  1.
         22    1    3    3    0    0 -0.33980331095E+02  0.53326504287E+02  0.15669023098E+03  0.16896806635E+03  0.00000000000E+00 0.  1.
</event>
<event>
 7    1  0.6888820E-006  0.6445335E+02  0.7818608E-02  0.1382799E+00
          2   -1    0    0  502    0  0.00000000000E+00  0.00000000000E+00  0.17836239387E+04  0.17836239387E+04  0.00000000000E+00 0. -1.
          1   -1    0    0  501    0 -0.00000000000E+00 -0.00000000000E+00 -0.93826294036E+03  0.93826294036E+03  0.00000000000E+00 0. -1.
         25    2    1    2    0    0  0.26475207817E+01  0.36959142388E+02  0.58114035777E+03  0.59558570401E+03  0.12500091128E+03 0.  0.
          2    1    1    2  501    0 -0.63016953869E+02  0.82618539166E+00 -0.92891070267E+03  0.93104613881E+03  0.00000000000E+00 0. -1.
          1    1    1    2  502    0  0.60369433087E+02 -0.37785327780E+02  0.11931313432E+04  0.11952550362E+04  0.00000000000E+00 0. -1.
         22    1    3    3    0    0  0.72437156718E+01 -0.36778707443E+02  0.36997080947E+03  0.37186495478E+03  0.00000000000E+00 0. -1.
         22    1    3    3    0    0 -0.45961948900E+01  0.73737849831E+02  0.21116954830E+03  0.22372074923E+03  0.00000000000E+00 0. -1.
</event>
<event>
 7    1  0.6888820E-006  0.4801185E+02  0.7818608E-02  0.1463340E+00
          2   -1    0    0  502    0  0.00000000000E+00  0.00000000000E+00  0.55645125772E+03  0.55645125772E+03  0.00000000000E+00 0. -1.
          1   -1    0    0  501    0 -0.00000000000E+00 -0.00000000000E+00 -0.17953883060E+03  0.17953883060E+03  0.00000000000E+00 0. -1.
         25    2    1    2    0    0  0.16736471047E+02 -0.41764999866E+02  0.50774721813E+03  0.52483945331E+03  0.12499915822E+03 0.  0.
          2    1    1    2  501    0 -0.36687298511E+02 -0.27150328053E+02 -0.13171672840E+03  0.13940012455E+03  0.00000000000E+00 0. -1.
          1    1    1    2  502    0  0.19950827464E+02  0.68915327919E+02  0.88193738986E+00  0.71750510466E+02  0.00000000000E+00 0. -1.
         22    1    3    3    0    0  0.48088459115E+02  0.84857773490E+01  0.38989393672E+03  0.39293993206E+03  0.00000000000E+00 0. -1.
         22    1    3    3    0    0 -0.31351988068E+02 -0.50250777215E+02  0.11785328141E+03  0.13189952125E+03  0.00000000000E+00 0. -1.
</event>
<event>
 7    1  0.6888820E-006  0.1881283E+03  0.7818608E-02  0.1289009E+00
          2   -1    0    0  502    0  0.00000000000E+00  0.00000000000E+00  0.11586196381E+04  0.11586196381E+04  0.00000000000E+00 0. -1.
          1   -1    0    0  501    0 -0.00000000000E+00 -0.00000000000E+00 -0.11788624132E+03  0.11788624132E+03  0.00000000000E+00 0. -1.
         25    2    1    2    0    0 -0.14753585932E+03 -0.25220929698E+02  0.19508443781E+03  0.27583571278E+03  0.12499790994E+03 0.  0.
          2    1    1    2  501    0 -0.48880932530E+02 -0.27062609749E+01 -0.57770345417E+02  0.75723722987E+02  0.00000000000E+00 0. -1.
          1    1    1    2  502    0  0.19641679185E+03  0.27927190673E+02  0.90341930436E+03  0.92494644363E+03  0.00000000000E+00 0. -1.
         22    1    3    3    0    0 -0.64852310123E+01 -0.51177258502E+02  0.51299203254E+02  0.72751482896E+02  0.00000000000E+00 0. -1.
         22    1    3    3    0    0 -0.14105062831E+03  0.25956328804E+02  0.14378523456E+03  0.20308422988E+03  0.00000000000E+00 0. -1.
</event>
<event>
 7    1  0.6888820E-006  0.3932005E+03  0.7818608E-02  0.1162726E+00
          2   -1    0    0  502    0  0.00000000000E+00  0.00000000000E+00  0.16876334382E+04  0.16876334382E+04  0.00000000000E+00 0. -1.
          1   -1    0    0  501    0 -0.00000000000E+00 -0.00000000000E+00 -0.70515051130E+03  0.70515051130E+03  0.00000000000E+00 0. -1.
         25    2    1    2    0    0 -0.32980754861E+03 -0.87991767777E+02 -0.89895571168E+02  0.37446203072E+03  0.12500011369E+03 0.  0.
          2    1    1    2  501    0  0.41452808615E+03  0.10934015879E+03 -0.37423651105E+03  0.56907097161E+03  0.00000000000E+00 0. -1.
          1    1    1    2  502    0 -0.84720537541E+02 -0.21348391016E+02  0.14466150092E+04  0.14492509472E+04  0.00000000000E+00 0. -1.
         22    1    3    3    0    0 -0.17871076894E+03 -0.51901078621E+02 -0.11253307991E+03  0.21747403286E+03  0.00000000000E+00 0. -1.
         22    1    3    3    0    0 -0.15109677967E+03 -0.36090689156E+02  0.22637508738E+02  0.15698799786E+03  0.00000000000E+00 0. -1.
</event>
<event>
 7    1  0.6888820E-006  0.1371435E+03  0.7818608E-02  0.1311221E+00
          2   -1    0    0  502    0  0.00000000000E+00  0.00000000000E+00  0.12760561954E+04  0.12760561954E+04  0.00000000000E+00 0. -1.
          1   -1    0    0  501    0 -0.00000000000E+00 -0.00000000000E+00 -0.12174824720E+04  0.12174824720E+04  0.00000000000E+00 0. -1.
         25    2    1    2    0    0  0.70709996286E+02  0.14975383643E+03  0.11574904180E+03  0.23758854186E+03  0.12499743775E+03 0.  0.
          2    1    1    2  501    0  0.21571693971E+02 -0.50292510440E+02 -0.11517244983E+04  0.11530238482E+04  0.00000000000E+00 0. -1.
          1    1    1    2  502    0 -0.92281690257E+02 -0.99461325991E+02  0.10945491800E+04  0.11029262773E+04  0.00000000000E+00 0. -1.
         22    1    3    3    0    0  0.10119062354E+03  0.10567824362E+03  0.11126397011E+03  0.18381268866E+03  0.00000000000E+00 0. -1.
         22    1    3    3    0    0 -0.30480627251E+02  0.44075592813E+02  0.44850716850E+01  0.53775853201E+02  0.00000000000E+00 0. -1.
</event>
<event>
 7    1  0.6888820E-006  0.1567307E+03  0.7818608E-02  0.1263549E+00
          2   -1    0    0  502    0  0.00000000000E+00  0.00000000000E+00  0.30877465776E+04  0.30877465776E+04  0.00000000000E+00 0. -1.
          1   -1    0    0  501    0 -0.00000000000E+00 -0.00000000000E+00 -0.17246143077E+03  0.17246143077E+03  0.00000000000E+00 0. -1.
         25    2    1    2    0    0 -0.19473796217E+03  0.95994900741E+02  0.56036228211E+03  0.61381446317E+03  0.12499765238E+03 0.  0.
          2    1    1    2  501    0  0.47773576818E+02 -0.57793032965E+02 -0.13362066284E+03  0.15322150906E+03  0.00000000000E+00 0. -1.
          1    1    1    2  502    0  0.14696438535E+03 -0.38201867776E+02  0.24885435275E+04  0.24931720361E+04  0.00000000000E+00 0. -1.
         22    1    3    3    0    0 -0.31829400529E+02 -0.30624883991E+02  0.10213051300E+03  0.11127279966E+03  0.00000000000E+00 0. -1.
         22    1    3    3    0    0 -0.16290856164E+03  0.12661978473E+03  0.45823176911E+03  0.50254166351E+03  0.00000000000E+00 0. -1.
</event>
<event>
 7    1  0.6888820E-006  0.3308023E+03  0.7818608E-02  0.1199877E+00
          2   -1    0    0  502    0  0.00000000000E+00  0.00000000000E+00  0.60093300208E+03  0.60093300208E+03  0.00000000000E+00 0. -1.
          1   -1    0    0  501    0 -0.00000000000E+00 -0.00000000000E+00 -0.10016239072E+04  0.10016239072E+04  0.00000000000E+00 0. -1.
         25    2    1    2    0    0  0.19491812341E+03  0.26809081347E+03  0.25363467194E+03  0.43568488684E+03  0.12500005886E+03 0.  0.
          2    1    1    2  501    0 -0.57980568913E+02  0.36396613194E+02 -0.79977656809E+03  0.80270107679E+03  0.00000000000E+00 0. -1.
          1    1    1    2  502    0 -0.13693755449E+03 -0.30448742666E+03  0.14545099107E+03  0.36417094561E+03  0.00000000000E+00 0. -1.
         22    1    3    3    0    0 -0.11219207020E+00  0.61933409300E+02  0.86330683885E+02  0.10624851413E+03  0.00000000000E+00 0. -1.
         22    1    3    3    0    0  0.19503031548E+03  0.20615740417E+03  0.16730398805E+03  0.32943637271E+03  0.00000000000E+00 0. -1.
</event>
<event>
 7    1  0.6888820E-006  0.3955850E+02  0.7818608E-02  0.1539700E+00
          2   -1    0    0  502    0  0.00000000000E+00  0.00000000000E+00  0.17591539267E+04  0.17591539267E+04  0.00000000000E+00 0. -1.
          1   -1    0    0  501    0 -0.00000000000E+00 -0.00000000000E+00 -0.27547943828E+03  0.27547943828E+03  0.00000000000E+00 0. -1.
         25    2    1    2    0    0  0.27084671557E+02 -0.62737801586E+02  0.74295838669E+03  0.75649388781E+03  0.12500490691E+03 0.  0.
          2    1    1    2  501    0 -0.37391564511E+01  0.32589539474E+02 -0.26734876901E+03  0.26935371478E+03  0.00000000000E+00 0. -1.
          1    1    1    2  502    0 -0.23345515106E+02  0.30148262112E+02  0.10080648707E+04  0.10087857624E+04  0.00000000000E+00 0. -1.
         22    1    3    3    0    0  0.67255340671E+02 -0.13976949444E+02  0.52782018215E+03  0.53227134119E+03  0.00000000000E+00 0.  1.
         22    1    3    3    0    0 -0.40170669113E+02 -0.48760852142E+02  0.21513820454E+03  0.22422254661E+03  0.00000000000E+00 0.  1.
</event>
<event>
 7    1  0.6888820E-006  0.9282353E+02  0.7818608E-02  0.1366924E+00
          2   -1    0    0  502    0  0.00000000000E+00  0.00000000000E+00  0.33420982831E+04  0.33420982831E+04  0.00000000000E+00 0. -1.
          1   -1    0    0  501    0 -0.00000000000E+00 -0.00000000000E+00 -0.75335645170E+03  0.75335645170E+03  0.00000000000E+00 0. -1.
         25    2    1    2    0    0  0.17949079604E+02  0.10355575388E+03  0.16984787609E+03  0.23562453946E+03  0.12499863586E+03 0.  0.
          2    1    1    2  501    0 -0.47381230179E+02 -0.15521287000E+02 -0.71891836080E+03  0.72064519760E+03  0.00000000000E+00 0. -1.
          1    1    1    2  502    0  0.29432150575E+02 -0.88034466879E+02  0.31378123161E+04  0.31391849977E+04  0.00000000000E+00 0. -1.
         22    1    3    3    0    0 -0.34223690883E+02  0.69711503117E+02  0.31244218491E+02  0.83708756254E+02  0.00000000000E+00 0. -1.
         22    1    3    3    0    0  0.52172770487E+02  0.33844250762E+02  0.13860365759E+03  0.15191578321E+03  0.00000000000E+00 0. -1.
</event>
<event>
 7    1  0.6888820E-006  0.4794713E+02  0.7818608E-02  0.1585061E+00
          2   -1    0    0  502    0  0.00000000000E+00  0.00000000000E+00  0.65992289124E+03  0.65992289124E+03  0.00000000000E+00 0. -1.
          1   -1    0    0  501    0 -0.00000000000E+00 -0.00000000000E+00 -0.21103695312E+02  0.21103695312E+02  0.00000000000E+00 0. -1.
         25    2    1    2    0    0  0.15855861478E+02  0.36162282599E+02  0.30077474918E+03  0.32809830289E+03  0.12499571029E+03 0.  0.
          2    1    1    2  501    0 -0.20404640282E+01 -0.51061229583E+02  0.85788033798E+02  0.99854891732E+02  0.00000000000E+00 0. -1.
          1    1    1    2  502    0 -0.13815397450E+02  0.14898946984E+02  0.25225641295E+03  0.25307339192E+03  0.00000000000E+00 0. -1.
         22    1    3    3    0    0 -0.15835105227E+02  0.77349075824E+02  0.17330936145E+03  0.19044622563E+03  0.00000000000E+00 0. -1.
         22    1    3    3    0    0  0.31690966705E+02 -0.41186793225E+02  0.12746538773E+03  0.13765207727E+03  0.00000000000E+00 0. -1.
</event>
<event>
 7    1  0.6888820E-006  0.8822358E+02  0.7818608E-02  0.1318952E+00
          2   -1    0    0  502    0  0.00000000000E+00  0.00000000000E+00  0.13797985523E+04  0.13797985523E+04  0.00000000000E+00 0. -1.
          1   -1    0    0  501    0 -0.00000000000E+00 -0.00000000000E+00 -0.26564667443E+03  0.26564667443E+03  0.00000000000E+00 0. -1.
         25    2    1    2    0    0 -0.10802219357E+03 -0.38573779630E+02  0.27450954424E+03  0.32270396107E+03  0.12500250329E+03 0.  0.
          2    1    1    2  501    0  0.80705647461E+02 -0.35924554698E+02 -0.23195625060E+03  0.24820893891E+03  0.00000000000E+00 0. -1.
          1    1    1    2  502    0  0.27316546113E+02  0.74498334329E+02  0.10715985843E+04  0.10745323268E+04  0.00000000000E+00 0. -1.
         22    1    3    3    0    0 -0.13469343764E+03 -0.18671837120E+02  0.22889830009E+03  0.26624310588E+03  0.00000000000E+00 0. -1.
         22    1    3    3    0    0  0.26671244062E+02 -0.19901942510E+02  0.45611244148E+02  0.56460855185E+02  0.00000000000E+00 0. -1.
</event>
<event>
 7    1  0.6888820E-006  0.6195658E+02  0.7818608E-02  0.1446570E+00
          2   -1    0    0  502    0  0.00000000000E+00  0.00000000000E+00  0.22883956487E+04  0.22883956487E+04  0.00000000000E+00 0. -1.
          1   -1    0    0  501    0 -0.00000000000E+00 -0.00000000000E+00 -0.37188403614E+03  0.37188403614E+03  0.00000000000E+00 0. -1.
         25    2    1    2    0    0 -0.23712602866E+02 -0.16685762908E+02 -0.11818920541E+03  0.17443864165E+03  0.12497779486E+03 0.  0.
          2    1    1    2  501    0 -0.38168345356E+02  0.11916202241E+02 -0.22336839159E+03  0.22691905346E+03  0.00000000000E+00 0. -1.
          1    1    1    2  502    0  0.61880948223E+02  0.47695606673E+01  0.22580692096E+04  0.22589219897E+04  0.00000000000E+00 0. -1.
         22    1    3    3    0    0 -0.29870088913E+02 -0.49486510547E+02 -0.12732994051E+03  0.13983579902E+03  0.00000000000E+00 0. -1.
         22    1    3    3    0    0  0.61574860464E+01  0.32800747639E+02  0.91407350979E+01  0.34602842632E+02  0.00000000000E+00 0. -1.
</event>
<event>
 7    1  0.6888820E-006  0.9609436E+02  0.7818608E-02  0.1407094E+00
          2   -1    0    0  502    0  0.00000000000E+00  0.00000000000E+00  0.76094158205E+03  0.76094158205E+03  0.00000000000E+00 0. -1.
          1   -1    0    0  501    0 -0.00000000000E+00 -0.00000000000E+00 -0.57190818375E+03  0.57190818375E+03  0.00000000000E+00 0. -1.
         25    2    1    2    0    0 -0.33394042347E+02 -0.12181889636E+03 -0.16670147220E+03  0.24365774571E+03  0.12499884253E+03 0.  0.
          2    1    1    2  501    0  0.21915630927E+02  0.88941867200E+02 -0.36057885564E+03  0.37203233966E+03  0.00000000000E+00 0. -1.
          1    1    1    2  502    0  0.11478411420E+02  0.32877029158E+02  0.71631372614E+03  0.71715968043E+03  0.00000000000E+00 0. -1.
         22    1    3    3    0    0 -0.25646534079E+02  0.89930558635E+01 -0.84986173287E+02  0.89225945856E+02  0.00000000000E+00 0. -1.
         22    1    3    3    0    0 -0.77475082683E+01 -0.13081195222E+03 -0.81715298915E+02  0.15443179985E+03  0.00000000000E+00 0. -1.
</event>
<event>
 7    1  0.6888820E-006  0.4050005E+02  0.7818608E-02  0.1544171E+00
          2   -1    0    0  502    0  0.00000000000E+00  0.00000000000E+00  0.18556213443E+04  0.18556213443E+04  0.00000000000E+00 0. -1.
          1   -1    0    0  501    0 -0.00000000000E+00 -0.00000000000E+00 -0.69387872460E+01  0.69387872460E+01  0.00000000000E+00 0. -1.
         25    2    1    2    0    0  0.21061303223E+02 -0.30127963210E+02  0.11679029915E+04  0.11751479718E+04  0.12499634130E+03 0.  0.
          2    1    1    2  501    0 -0.28467129512E+02 -0.12582937147E+02  0.93690816468E+02  0.98725259485E+02  0.00000000000E+00 0. -1.
          1    1    1    2  502    0  0.74058262890E+01  0.42710900357E+02  0.58708874910E+03  0.58868690031E+03  0.00000000000E+00 0. -1.
         22    1    3    3    0    0 -0.10637220170E+02  0.44050137813E+02  0.28655493883E+03  0.29011600793E+03  0.00000000000E+00 0. -1.
         22    1    3    3    0    0  0.31698523393E+02 -0.74178101023E+02  0.88134805267E+03  0.88503196383E+03  0.00000000000E+00 0. -1.
</event>
<event>
 7    1  0.6888820E-006  0.8788832E+02  0.7818608E-02  0.1369195E+00
          2   -1    0    0  502    0  0.00000000000E+00  0.00000000000E+00  0.18456061003E+04  0.18456061003E+04  0.00000000000E+00 0. -1.
          1   -1    0    0  501    0 -0.00000000000E+00 -0.00000000000E+00 -0.13928513704E+02  0.13928513704E+02  0.00000000000E+00 0. -1.
         25    2    1    2    0    0  0.53051090864E+02  0.13249508208E+02  0.79252779692E+03  0.80418561299E+03  0.12499689412E+03 0.  0.
          2    1    1    2  501    0 -0.10407850648E+03 -0.50944363073E+01  0.37549672992E+03  0.38968716039E+03  0.00000000000E+00 0. -1.
          1    1    1    2  502    0  0.51027415611E+02 -0.81550719012E+01  0.66365305973E+03  0.66566184060E+03  0.00000000000E+00 0. -1.
         22    1    3    3    0    0  0.88879648585E+01  0.44516175460E+02  0.65233415264E+03  0.65391171614E+03  0.00000000000E+00 0.  1.
         22    1    3    3    0    0  0.44163126006E+02 -0.31266667251E+02  0.14019364428E+03  0.15027389686E+03  0.00000000000E+00 0.  1.
</event>
<event>
 7    1  0.6888820E-006  0.1013427E+03  0.7818608E-02  0.1354241E+00
          2   -1    0    0  502    0  0.00000000000E+00  0.00000000000E+00  0.13622943074E+04  0.13622943074E+04  0.00000000000E+00 0. -1.
          1   -1    0    0  501    0 -0.00000000000E+00 -0.00000000000E+00 -0.28521149728E+03  0.28521149728E+03  0.00000000000E+00 0. -1.
         25    2    1    2    0    0  0.22594770930E+02  0.47192390222E+02  0.92331962864E+03  0.93320914108E+03  0.12499007563E+03 0.  0.
          2    1    1    2  501    0 -0.29225836337E+02 -0.97556520924E+02 -0.26944601979E+03  0.28804961701E+03  0.00000000000E+00 0. -1.
          1    1    1    2  502    0  0.66310654070E+01  0.50364130702E+02  0.42320920128E+03  0.42624704660E+03  0.00000000000E+00 0. -1.
         22    1    3    3    0    0  0.70237010697E+02  0.20391127437E+02  0.67462218554E+03  0.67857507247E+03  0.00000000000E+00 0.  1.
         22    1    3    3    0    0 -0.47642239767E+02  0.26801262785E+02  0.24869744309E+03  0.25463406861E+03  0.00000000000E+00 0.  1.
</event>
<event>
 7    1  0.6888820E-006  0.9971268E+02  0.7818608E-02  0.1414117E+00
          2   -1    0    0  502    0  0.00000000000E+00  0.00000000000E+00  0.18485168013E+04  0.18485168013E+04  0.00000000000E+00 0. -1.
          1   -1    0    0  501    0 -0.00000000000E+00 -0.00000000000E+00 -0.44649153724E+03  0.44649153724E+03  0.00000000000E+00 0. -1.
         25    2    1    2    0    0 -0.61583818214E+02 -0.91699990870E+02 -0.57870335403E+02  0.17656749672E+03  0.12500260073E+03 0.  0.
          2    1    1    2  501    0  0.29912529984E+02  0.94220796245E+02 -0.32170816871E+03  0.33655380507E+03  0.00000000000E+00 0. -1.
          1    1    1    2  502    0  0.31671288231E+02 -0.25208053751E+01  0.17816037682E+04  0.17818870367E+04  0.00000000000E+00 0. -1.
         22    1    3    3    0    0  0.38186254332E+02 -0.17137746867E+02 -0.92835113169E+01  0.42872788222E+02  0.00000000000E+00 0.  1.
         22    1    3    3    0    0 -0.99770072546E+02 -0.74562244003E+02 -0.48586824086E+02  0.13369470850E+03  0.00000000000E+00 0.  1.
</event>
<event>
 7    1  0.6888820E-006  0.5415674E+02  0.7818608E-02  0.1475399E+00
          2   -1    0    0  502    0  0.00000000000E+00  0.00000000000E+00  0.34350756599E+04  0.34350756599E+04  0.00000000000E+00 0. -1.
          1   -1    0    0  501    0 -0.00000000000E+00 -0.00000000000E+00 -0.52240999364E+02  0.52240999364E+02  0.00000000000E+00 0. -1.
         25    2    1    2    0    0 -0.32136882975E+02 -0.73914898292E+02  0.55421006144E+03  0.57382063503E+03  0.12500055019E+03 0.  0.
          2    1    1    2  501    0  0.31069212880E+02  0.20296438350E+02 -0.34022562554E+02  0.50346560571E+02  0.00000000000E+00 0. -1.
          1    1    1    2  502    0  0.10676700953E+01  0.53618459943E+02  0.28626471616E+04  0.28631494636E+04  0.00000000000E+00 0. -1.
         22    1    3    3    0    0  0.33257109971E+02 -0.10377508653E+02  0.47130512559E+02  0.58608986202E+02  0.00000000000E+00 0.  1.
         22    1    3    3    0    0 -0.65393992946E+02 -0.63537389639E+02  0.50707954888E+03  0.51521164883E+03  0.00000000000E+00 0.  1.
</event>
<event>
 7    1  0.6888820E-006  0.4201433E+02  0.7818608E-02  0.1563098E+00
          2   -1    0    0  502    0  0.00000000000E+00  0.00000000000E+00  0.12055463028E+04  0.12055463028E+04  0.00000000000E+00 0. -1.
          1   -1    0    0  501    0 -0.00000000000E+00 -0.00000000000E+00 -0.15589166825E+03  0.15589166825E+03  0.00000000000E+00 0. -1.
         25    2    1    2    0    0 -0.19902765349E+02 -0.62047654645E+02  0.60335537802E+03  0.61960470275E+03  0.12500497577E+03 0.  0.
          2    1    1    2  501    0  0.22178780473E+02  0.35561905896E+02 -0.14449027594E+03  0.15044596138E+03  0.00000000000E+00 0. -1.
          1    1    1    2  502    0 -0.22760151231E+01  0.26485748748E+02  0.59078953251E+03  0.59138730698E+03  0.00000000000E+00 0. -1.
         22    1    3    3    0    0  0.53123934590E+02 -0.21669272346E+02  0.25994212919E+03  0.26619846040E+03  0.00000000000E+00 0.  1.
         22    1    3    3    0    0 -0.73026699939E+02 -0.40378382298E+02  0.34341324882E+03  0.35340624235E+03  0.00000000000E+00 0.  1.
</event>
<event>
 7    1  0.6888820E-006  0.1457761E+03  0.7818608E-02  0.1293304E+00
          2   -1    0    0  502    0  0.00000000000E+00  0.00000000000E+00  0.24766052700E+03  0.24766052700E+03  0.00000000000E+00 0. -1.
          1   -1    0    0  501    0 -0.00000000000E+00 -0.00000000000E+00 -0.19103434485E+04  0.19103434485E+04  0.00000000000E+00 0. -1.
         25    2    1    2    0    0  0.39238456707E+02  0.16724418868E+03 -0.17503078232E+03  0.27526536240E+03  0.12499987939E+03 0.  0.
          2    1    1    2  501    0 -0.55573976633E+02 -0.24395298712E+02 -0.16584043556E+04  0.16595145688E+04  0.00000000000E+00 0. -1.
          1    1    1    2  502    0  0.16335519926E+02 -0.14284888997E+03  0.17075221635E+03  0.22322404433E+03  0.00000000000E+00 0. -1.
         22    1    3    3    0    0  0.38423903864E+02  0.13701330908E+03 -0.19322778993E+03  0.23997087751E+03  0.00000000000E+00 0. -1.
         22    1    3    3    0    0  0.81455284267E+00  0.30230879605E+02  0.18197007610E+02  0.35294484895E+02  0.00000000000E+00 0. -1.
</event>
<event>
 7    1  0.6888820E-006  0.3971915E+02  0.7818608E-02  0.1533739E+00
          2   -1    0    0  502    0  0.00000000000E+00  0.00000000000E+00  0.13788830324E+03  0.13788830324E+03  0.00000000000E+00 0. -1.
          1   -1    0    0  501    0 -0.00000000000E+00 -0.00000000000E+00 -0.13568957158E+04  0.13568957158E+04  0.00000000000E+00 0. -1.
         25    2    1    2    0    0  0.38149808136E+02  0.12012287130E+02 -0.16701669531E+02  0.13231952146E+03  0.12501922689E+03 0.  0.
          2    1    1    2  501    0 -0.14991264485E+02 -0.36863276206E+02 -0.12784592053E+04  0.12790784099E+04  0.00000000000E+00 0. -1.
          1    1    1    2  502    0 -0.23158543651E+02  0.24850989076E+02  0.76153462256E+02  0.83386087663E+02  0.00000000000E+00 0. -1.
         22    1    3    3    0    0 -0.22063907583E+02  0.19632344444E+02 -0.53665599984E+02  0.61255543323E+02  0.00000000000E+00 0.  1.
         22    1    3    3    0    0  0.60213715720E+02 -0.76200573139E+01  0.36963930453E+02  0.71063978138E+02  0.00000000000E+00 0.  1.
</event>
<event>
 7    1  0.6888820E-006  0.5288750E+02  0.7818608E-02  0.1546183E+00
          2   -1    0    0  502    0  0.00000000000E+00  0.00000000000E+00  0.67430159006E+03  0.67430159006E+03  0.00000000000E+00 0. -1.
          1   -1    0    0  501    0 -0.00000000000E+00 -0.00000000000E+00 -0.15333164379E+03  0.15333164379E+03  0.00000000000E+00 0. -1.
         25    2    1    2    0    0  0.38358307156E+01  0.74157840222E+02  0.21385214775E+02  0.14696313690E+03  0.12500694914E+03 0.  0.
          2    1    1    2  501    0 -0.59093246724E+01 -0.50723349551E+02 -0.83085967681E+02  0.97524644748E+02  0.00000000000E+00 0. -1.
          1    1    1    2  502    0  0.20734939568E+01 -0.23434490671E+02  0.58267069918E+03  0.58314545219E+03  0.00000000000E+00 0. -1.
         22    1    3    3    0    0  0.18249683744E+02  0.10740633666E+03  0.12574271387E+02  0.10966897653E+03  0.00000000000E+00 0.  1.
         22    1    3    3    0    0 -0.14413853029E+02 -0.33248496441E+02  0.88109433886E+01  0.37294160376E+02  0.00000000000E+00 0.  1.
</event>
<event>
 7    1  0.6888820E-006  0.2254881E+03  0.7818608E-02  0.1170325E+00
          2   -1    0    0  502    0  0.00000000000E+00  0.00000000000E+00  0.11581366817E+04  0.11581366817E+04  0.00000000000E+00 0. -1.
          1   -1    0    0  501    0 -0.00000000000E+00 -0.00000000000E+00 -0.56687755006E+03  0.56687755006E+03  0.00000000000E+00 0. -1.
         25    2    1    2    0    0  0.19108175043E+03 -0.26647263185E+03  0.23025129995E+03  0.41971593140E+03  0.12500361221E+03 0.  0.
          2    1    1    2  501    0 -0.17757998658E+03  0.12753102750E+03 -0.44047523910E+03  0.49174917475E+03  0.00000000000E+00 0. -1.
          1    1    1    2  502    0 -0.13501763854E+02  0.13894160435E+03  0.80148307083E+03  0.81354912566E+03  0.00000000000E+00 0. -1.
         22    1    3    3    0    0  0.16627963313E+03 -0.26774754317E+03  0.23657565695E+03  0.39408844785E+03  0.00000000000E+00 0. -1.
         22    1    3    3    0    0  0.24802117297E+02  0.12749113268E+01 -0.63243569946E+01  0.25627483542E+02  0.00000000000E+00 0. -1.
</event>
<event>
 7    1  0.6888820E-006  0.5305075E+02  0.7818608E-02  0.1439966E+00
          2   -1    0    0  502    0  0.00000000000E+00  0.00000000000E+00  0.24142286745E+04  0.24142286745E+04  0.00000000000E+00 0. -1.
          1   -1    0    0  501    0 -0.00000000000E+00 -0.00000000000E+00 -0.49310378702E+02  0.49310378702E+02  0.00000000000E+00 0. -1.
         25    2    1    2    0    0  0.80527439011E+02  0.49317146955E+02  0.34624630707E+03  0.38003734451E+03  0.12500011457E+03 0.  0.
          2    1    1    2  501    0 -0.32513701557E+02 -0.39294421788E+02 -0.11871995332E+02  0.52365414595E+02  0.00000000000E+00 0. -1.
          1    1    1    2  502    0 -0.48013737454E+02 -0.10022725167E+02  0.20305439841E+04  0.20311362941E+04  0.00000000000E+00 0. -1.
         22    1    3    3    0    0  0.98385971394E+02  0.63539991641E+02  0.19801983882E+03  0.23006300544E+03  0.00000000000E+00 0. -1.
         22    1    3    3    0    0 -0.17858532383E+02 -0.14222844686E+02  0.14822646824E+03  0.14997433906E+03  0.00000000000E+00 0. -1.
</event>
<event>
 7    1  0.6888820E-006  0.1461948E+03  0.7818608E-02  0.1393878E+00
          2   -1    0    0  502    0  0.00000000000E+00  0.00000000000E+00  0.33162506682E+03  0.33162506682E+03  0.00000000000E+00 0. -1.
          1   -1    0    0  501    0 -0.00000000000E+00 -0.00000000000E+00 -0.67806789531E+03  0.67806789531E+03  0.00000000000E+00 0. -1.
         25    2    1    2    0    0  0.92291967608E+02  0.84793705376E+02 -0.26600187448E+02  0.17899622991E+03  0.12499720234E+03 0.  0.
          2    1    1    2  501    0  0.17767529109E+02  0.18169166504E+02 -0.55272046578E+03  0.55330436199E+03  0.00000000000E+00 0. -1.
          1    1    1    2  502    0 -0.11005949672E+03 -0.10296287188E+03  0.23287782475E+03  0.27739237023E+03  0.00000000000E+00 0. -1.
         22    1    3    3    0    0  0.16294998366E+02 -0.52010083211E+01 -0.55194988163E+02  0.57784636173E+02  0.00000000000E+00 0. -1.
         22    1    3    3    0    0  0.75996969242E+02  0.89994713697E+02  0.28594800715E+02  0.12121159373E+03  0.00000000000E+00 0. -1.
</event>
<event>
 7    1  0.6888820E-006  0.6788198E+02  0.7818608E-02  0.1455528E+00
          2   -1    0    0  502    0  0.00000000000E+00  0.00000000000E+00  0.52734224013E+02  0.52734224013E+02  0.00000000000E+00 0. -1.
          1   -1    0    0  501    0 -0.00000000000E+00 -0.00000000000E+00 -0.15112162322E+04  0.15112162322E+04  0.00000000000E+00 0. -1.
         25    2    1    2    0    0  0.44959100952E+02  0.87715193679E+02 -0.28434696304E+03  0.32587391956E+03  0.12500136040E+03 0.  0.
          2    1    1    2  501    0 -0.18095887086E+02 -0.28981874426E+02 -0.11729836563E+04  0.11734811750E+04  0.00000000000E+00 0. -1.
          1    1    1    2  502    0 -0.26863213866E+02 -0.58733319253E+02 -0.11513888630E+01  0.64595361645E+02  0.00000000000E+00 0. -1.
         22    1    3    3    0    0  0.28217950509E+02  0.67510079144E+02 -0.28995248932E+03  0.29904232072E+03  0.00000000000E+00 0. -1.
         22    1    3    3    0    0  0.16741150444E+02  0.20205114535E+02  0.56055262854E+01  0.26831598843E+02  0.00000000000E+00 0. -1.
</event>
<event>
 7    1  0.6888820E-006  0.7885508E+02  0.7818608E-02  0.1367082E+00
          2   -1    0    0  502    0  0.00000000000E+00  0.00000000000E+00  0.12539550105E+03  0.12539550105E+03  0.00000000000E+00 0. -1.
          1   -1    0    0  501    0 -0.00000000000E+00 -0.00000000000E+00 -0.11687628884E+04  0.11687628884E+04  0.00000000000E+00 0. -1.
         25    2    1    2    0    0  0.13380876127E+03  0.15802542156E+02 -0.17115022553E+03  0.25114107432E+03  0.12499973832E+03 0.  0.
          2    1    1    2  501    0 -0.75199342620E+02 -0.15107098434E+02 -0.94582131472E+03  0.94892630111E+03  0.00000000000E+00 0. -1.
          1    1    1    2  502    0 -0.58609418653E+02 -0.69544372207E+00  0.73604152894E+02  0.94091014024E+02  0.00000000000E+00 0. -1.
         22    1    3    3    0    0  0.10002526144E+03 -0.34837869069E+02 -0.53474047407E+02  0.11865160679E+03  0.00000000000E+00 0.  1.
         22    1    3    3    0    0  0.33783499836E+02  0.50640411225E+02 -0.11767617812E+03  0.13248946753E+03  0.00000000000E+00 0.  1.
</event>
<event>
 7    1  0.6888820E-006  0.5271451E+02  0.7818608E-02  0.1466261E+00
          2   -1    0    0  502    0  0.00000000000E+00  0.00000000000E+00  0.59033062967E+03  0.59033062967E+03  0.00000000000E+00 0. -1.
          1   -1    0    0  501    0 -0.00000000000E+00 -0.00000000000E+00 -0.39166370708E+03  0.39166370708E+03  0.00000000000E+00 0. -1.
         25    2    1    2    0    0 -0.73621601428E+01  0.46059738548E+02 -0.47420170725E+02  0.14159531459E+03  0.12499943842E+03 0.  0.
          2    1    1    2  501    0 -0.36975812595E+02 -0.17014045010E+02 -0.29445979705E+03  0.29725958441E+03  0.00000000000E+00 0. -1.
          1    1    1    2  502    0  0.44337972738E+02 -0.29045693539E+02  0.54054689037E+03  0.54313943774E+03  0.00000000000E+00 0. -1.
         22    1    3    3    0    0 -0.26623476538E+02  0.57720117626E+02  0.23050781301E+02  0.67614791283E+02  0.00000000000E+00 0. -1.
         22    1    3    3    0    0  0.19261316396E+02 -0.11660379077E+02 -0.70470952026E+02  0.73980523309E+02  0.00000000000E+00 0. -1.
</event>
<event>
 7    1  0.6888820E-006  0.2492088E+03  0.7818608E-02  0.1128553E+00
          2   -1    0    0  502    0  0.00000000000E+00  0.00000000000E+00  0.27575641438E+04  0.27575641438E+04  0.00000000000E+00 0. -1.
          1   -1    0    0  501    0 -0.00000000000E+00 -0.00000000000E+00 -0.19487333657E+03  0.19487333657E+03  0.00000000000E+00 0. -1.
         25    2    1    2    0    0  0.13342131373E+03 -0.33376567287E+02  0.33072025754E+03  0.37936168999E+03  0.12499664349E+03 0.  0.
          2    1    1    2  501    0 -0.12033588168E+03 -0.21822992046E+03 -0.68816072142E+02  0.25853563466E+03  0.00000000000E+00 0. -1.
          1    1    1    2  502    0 -0.13085432051E+02  0.25160648775E+03  0.23007866219E+04  0.23145401557E+04  0.00000000000E+00 0. -1.
         22    1    3    3    0    0  0.17721471243E+02 -0.54071907020E+02  0.52865237296E+02  0.77669524179E+02  0.00000000000E+00 0.  1.
         22    1    3    3    0    0  0.11569984249E+03  0.20695339733E+02  0.27785502024E+03  0.30169216581E+03  0.00000000000E+00 0.  1.
</event>
<event>
 7    1  0.6888820E-006  0.1294522E+03  0.7818608E-02  0.1429924E+00
          2   -1    0    0  502    0  0.00000000000E+00  0.00000000000E+00  0.44261471682E+03  0.44261471682E+03  0.00000000000E+00 0. -1.
          1   -1    0    0  501    0 -0.00000000000E+00 -0.00000000000E+00 -0.18040209262E+04  0.18040209262E+04  0.00000000000E+00 0. -1.
         25    2    1    2    0    0  0.11217820383E+02  0.15003266429E+03 -0.45954210972E+03  0.49943892786E+03  0.12499860881E+03 0.  0.
          2    1    1    2  501    0  0.14261899890E+01 -0.21631962459E+02 -0.13145927643E+04  0.13147715055E+04  0.00000000000E+00 0. -1.
          1    1    1    2  502    0 -0.12644010372E+02 -0.12840070183E+03  0.41272866469E+03  0.43242520959E+03  0.00000000000E+00 0. -1.
         22    1    3    3    0    0  0.45599139608E+02  0.19019802759E+02 -0.60940717355E+02  0.78452568229E+02  0.00000000000E+00 0. -1.
         22    1    3    3    0    0 -0.34381319225E+02  0.13101286153E+03 -0.39860139236E+03  0.42098635963E+03  0.00000000000E+00 0. -1.
</event>
<event>
 7    1  0.6888820E-006  0.5837130E+02  0.7818608E-02  0.1448311E+00
          2   -1    0    0  502    0  0.00000000000E+00  0.00000000000E+00  0.20994170402E+03  0.20994170402E+03  0.00000000000E+00 0. -1.
          1   -1    0    0  501    0 -0.00000000000E+00 -0.00000000000E+00 -0.22556664562E+04  0.22556664562E+04  0.00000000000E+00 0. -1.
         25    2    1    2    0    0  0.33961546242E+01  0.26430148782E+02 -0.20867617448E+03  0.24470451300E+03  0.12499786500E+03 0.  0.
          2    1    1    2  501    0  0.39331019878E+02  0.14440973770E+02 -0.20242002954E+04  0.20246338698E+04  0.00000000000E+00 0. -1.
          1    1    1    2  502    0 -0.42727174503E+02 -0.40871122552E+02  0.18715171769E+03  0.19626977744E+03  0.00000000000E+00 0. -1.
         22    1    3    3    0    0  0.15376827674E+02 -0.42834219967E+02 -0.13679123910E+03  0.14416331130E+03  0.00000000000E+00 0. -1.
         22    1    3    3    0    0 -0.11980673050E+02  0.69264368749E+02 -0.71884935382E+02  0.10054120170E+03  0.00000000000E+00 0. -1.
</event>
<event>
 7    1  0.6888820E-006  0.7662067E+02  0.7818608E-02  0.1371367E+00
          2   -1    0    0  502    0  0.00000000000E+00  0.00000000000E+00  0.90481941818E+03  0.90481941818E+03  0.00000000000E+00 0. -1.
          1   -1    0    0  501    0 -0.00000000000E+00 -0.00000000000E+00 -0.18368198208E+03  0.18368198208E+03  0.00000000000E+00 0. -1.
         25    2    1    2    0    0  0.43961004496E+02 -0.12284235181E+03  0.21232411150E+03  0.27880014750E+03  0.12500072242E+03 0.  0.
          2    1    1    2  501    0 -0.27284845412E+02  0.51428514713E+02 -0.14267637609E+03  0.15409705776E+03  0.00000000000E+00 0. -1.
          1    1    1    2  502    0 -0.16676159084E+02  0.71413837095E+02  0.65148970068E+03  0.65560419500E+03  0.00000000000E+00 0. -1.
         22    1    3    3    0    0  0.43974685004E+02 -0.33437392153E+02  0.80617900573E+01  0.55828528318E+02  0.00000000000E+00 0. -1.
         22    1    3    3    0    0 -0.13680508347E-01 -0.89404959655E+02  0.20426232145E+03  0.22297161918E+03  0.00000000000E+00 0. -1.
</event>
<event>
 7    1  0.6888820E-006  0.2056351E+03  0.7818608E-02  0.1280455E+00
          2   -1    0    0  502    0  0.00000000000E+00  0.00000000000E+00  0.23266848098E+03  0.23266848098E+03  0.00000000000E+00 0. -1.
          1   -1    0    0  501    0 -0.00000000000E+00 -0.00000000000E+00 -0.26629767934E+04  0.26629767934E+04  0.00000000000E+00 0. -1.
         25    2    1    2    0    0 -0.20031747528E+03 -0.94611094792E+02 -0.77152451548E+03  0.81237512977E+03  0.12499969328E+03 0.  0.
          2    1    1    2  501    0  0.37893525229E+02 -0.30361366894E+02 -0.18211566771E+04  0.18218038792E+04  0.00000000000E+00 0. -1.
          1    1    1    2  502    0  0.16242395005E+03  0.12497246169E+03  0.16237288014E+03  0.26146626539E+03  0.00000000000E+00 0. -1.
         22    1    3    3    0    0 -0.17781942998E+03 -0.10761639828E+03 -0.75108455222E+03  0.77931318700E+03  0.00000000000E+00 0.  1.
         22    1    3    3    0    0 -0.22498045303E+02  0.13005303486E+02 -0.20439963258E+02  0.33061942762E+02  0.00000000000E+00 0.  1.
</event>
<event>
 7    1  0.6888820E-006  0.2622674E+03  0.7818608E-02  0.1279244E+00
          2   -1    0    0  502    0  0.00000000000E+00  0.00000000000E+00  0.73970611003E+03  0.73970611003E+03  0.00000000000E+00 0. -1.
          1   -1    0    0  501    0 -0.00000000000E+00 -0.00000000000E+00 -0.28625784121E+03  0.28625784121E+03  0.00000000000E+00 0. -1.
         25    2    1    2    0    0 -0.13404196020E+03  0.21336851186E+03  0.18650921019E+03  0.33749470909E+03  0.12499449681E+03 0.  0.
          2    1    1    2  501    0  0.17132441460E+03 -0.20371125356E+03 -0.12540515354E+03  0.29423932843E+03  0.00000000000E+00 0. -1.
          1    1    1    2  502    0 -0.37282454401E+02 -0.96572583054E+01  0.39234421217E+03  0.39422991371E+03  0.00000000000E+00 0. -1.
         22    1    3    3    0    0 -0.65893005524E+02  0.19980575346E+03  0.12517730433E+03  0.24481336731E+03  0.00000000000E+00 0.  1.
         22    1    3    3    0    0 -0.68148954674E+02  0.13562758400E+02  0.61331905857E+02  0.92681341783E+02  0.00000000000E+00 0.  1.
</event>
<event>
 7    1  0.6888820E-006  0.4280684E+02  0.7818608E-02  0.1490401E+00
          2   -1    0    0  502    0  0.00000000000E+00  0.00000000000E+00  0.19340684822E+03  0.19340684822E+03  0.00000000000E+00 0. -1.
          1   -1    0    0  501    0 -0.00000000000E+00 -0.00000000000E+00 -0.55138715271E+03  0.55138715271E+03  0.00000000000E+00 0. -1.
         25    2    1    2    0    0 -0.10240214615E+02  0.48364356915E+02  0.10624307495E+03  0.17133972424E+03  0.12500294842E+03 0.  0.
          2    1    1    2  501    0  0.39141247701E+02 -0.17547953622E+02 -0.50963037060E+03  0.51143238320E+03  0.00000000000E+00 0. -1.
          1    1    1    2  502    0 -0.28901033087E+02 -0.30816403294E+02  0.45406991168E+02  0.62021893493E+02  0.00000000000E+00 0. -1.
         22    1    3    3    0    0 -0.29197711392E+02 -0.17010158382E+02  0.96913444152E+02  0.10263560540E+03  0.00000000000E+00 0. -1.
         22    1    3    3    0    0  0.18957496778E+02  0.65374515297E+02  0.93296307958E+01  0.68704118838E+02  0.00000000000E+00 0. -1.
</event>
<event>
 7    1  0.6888820E-006  0.6055981E+02  0.7818608E-02  0.1451356E+00
          2   -1    0    0  502    0  0.00000000000E+00  0.00000000000E+00  0.14126813676E+03  0.14126813676E+03  0.00000000000E+00 0. -1.
          1   -1    0    0  501    0 -0.00000000000E+00 -0.00000000000E+00 -0.17941337501E+04  0.17941337501E+04  0.00000000000E+00 0. -1.
         25    2    1    2    0    0 -0.75649660720E+02 -0.20235245107E+01 -0.11047913340E+03  0.18318994261E+03  0.12500380129E+03 0.  0.
          2    1    1    2  501    0  0.23294520749E+02  0.31885453630E+02 -0.16383849291E+04  0.16388607302E+04  0.00000000000E+00 0. -1.
          1    1    1    2  502    0  0.52355139971E+02 -0.29861929119E+02  0.95998449186E+02  0.11335121410E+03  0.00000000000E+00 0. -1.
         22    1    3    3    0    0 -0.65214310930E+02  0.45254340259E+02 -0.22065415637E+02  0.82387767475E+02  0.00000000000E+00 0.  1.
         22    1    3    3    0    0 -0.10435349791E+02 -0.47277864770E+02 -0.88413717766E+02  0.10080217513E+03  0.00000000000E+00 0.  1.
</event>
<event>
 7    1  0.6888820E-006  0.3925735E+02  0.7818608E-02  0.1521201E+00
          2   -1    0    0  502    0  0.00000000000E+00  0.00000000000E+00  0.19474706835E+04  0.19474706835E+04  0.00000000000E+00 0. -1.
          1   -1    0    0  501    0 -0.00000000000E+00 -0.00000000000E+00 -0.62696178549E+02  0.62696178549E+02  0.00000000000E+00 0. -1.
         25    2    1    2    0    0 -0.23358137422E+02 -0.37698274652E+02  0.24078911115E+03  0.27490388539E+03  0.12500395057E+03 0.  0.
          2    1    1    2  501    0  0.39447806409E+02  0.39996969820E+01 -0.36780297394E+02  0.54082504406E+02  0.00000000000E+00 0. -1.
          1    1    1    2  502    0 -0.16089668988E+02  0.33698577670E+02  0.16807656912E+04  0.16811804723E+04  0.00000000000E+00 0. -1.
         22    1    3    3    0    0 -0.49837918220E+02  0.27020026458E+02  0.68189754753E+02  0.88677745662E+02  0.00000000000E+00 0. -1.
         22    1    3    3    0    0  0.26479780799E+02 -0.64718301110E+02  0.17259935640E+03  0.18622613973E+03  0.00000000000E+00 0. -1.
</event>
<event>
 7    1  0.6888820E-006  0.5080670E+02  0.7818608E-02  0.1494196E+00
          2   -1    0    0  502    0  0.00000000000E+00  0.00000000000E+00  0.23054247187E+04  0.23054247187E+04  0.00000000000E+00 0. -1.
          1   -1    0    0  501    0 -0.00000000000E+00 -0.00000000000E+00 -0.79557328234E+02  0.79557328234E+02  0.00000000000E+00 0. -1.
         25    2    1    2    0    0 -0.80155968036E+02 -0.10383719368E+02  0.38064961151E+03  0.40872085208E+03  0.12500322933E+03 0.  0.
          2    1    1    2  501    0  0.46505742991E+02  0.18731430333E+02 -0.55749539656E+02  0.74977741932E+02  0.00000000000E+00 0. -1.
          1    1    1    2  502    0  0.33650225044E+02 -0.83477109653E+01  0.19009673186E+04  0.19012834529E+04  0.00000000000E+00 0. -1.
         22    1    3    3    0    0 -0.26230924867E+02  0.24205975769E+02  0.31491354194E+03  0.31692984962E+03  0.00000000000E+00 0.  1.
         22    1    3    3    0    0 -0.53925043168E+02 -0.34589695137E+02  0.65736069572E+02  0.91791002463E+02  0.00000000000E+00 0.  1.
</event>
<event>
 7    1  0.6888820E-006  0.8438688E+02  0.7818608E-02  0.1344818E+00
          2   -1    0    0  502    0  0.00000000000E+00  0.00000000000E+00  0.57089526315E+03  0.57089526315E+03  0.00000000000E+00 0. -1.
          1   -1    0    0  501    0 -0.00000000000E+00 -0.00000000000E+00 -0.99705707869E+03  0.99705707869E+03  0.00000000000E+00 0. -1.
         25    2    1    2    0    0 -0.11886173450E+03 -0.83671731632E+02  0.49018756290E+02  0.19788177479E+03  0.12500115088E+03 0.  0.
          2    1    1    2  501    0  0.60314421218E+02  0.27084455036E+02 -0.91772209602E+03  0.92010066984E+03  0.00000000000E+00 0. -1.
          1    1    1    2  502    0  0.58547313284E+02  0.56587276597E+02  0.44254152420E+03  0.44996989722E+03  0.00000000000E+00 0. -1.
         22    1    3    3    0    0 -0.12366657229E+03 -0.85684964325E+02  0.18862767087E+01  0.15046226189E+03  0.00000000000E+00 0.  1.
         22    1    3    3    0    0  0.48048377855E+01  0.20132326927E+01  0.47132479581E+02  0.47419512898E+02  0.00000000000E+00 0.  1.
</event>
<event>
 7    1  0.6888820E-006  0.6183003E+02  0.7818608E-02  0.1461857E+00
          2   -1    0    0  502    0  0.00000000000E+00  0.00000000000E+00  0.23968754929E+02  0.23968754929E+02  0.00000000000E+00 0. -1.
          1   -1    0    0  501    0 -0.00000000000E+00 -0.00000000000E+00 -0.30417077213E+04  0.30417077213E+04  0.00000000000E+00 0. -1.
         25    2    1    2    0    0 -0.18496198076E+02  0.26910788635E+02 -0.13103824830E+04  0.13167357780E+04  0.12499822890E+03 0.  0.
          2    1    1    2  501    0  0.44598093677E+02 -0.51446633317E+02 -0.17115221619E+04  0.17128759023E+04  0.00000000000E+00 0. -1.
          1    1    1    2  502    0 -0.26101895601E+02  0.24535844683E+02  0.41656785798E+01  0.36064795941E+02  0.00000000000E+00 0. -1.
         22    1    3    3    0    0  0.32352680260E+01  0.72879057042E+02 -0.94812055815E+03  0.95092292889E+03  0.00000000000E+00 0. -1.
         22    1    3    3    0    0 -0.21731466102E+02 -0.45968268407E+02 -0.36226192490E+03  0.36581284908E+03  0.00000000000E+00 0. -1.
</event>
<event>
 7    1  0.6888820E-006  0.1011074E+03  0.7818608E-02  0.1366175E+00
          2   -1    0    0  502    0  0.00000000000E+00  0.00000000000E+00  0.18140838615E+03  0.18140838615E+03  0.00000000000E+00 0. -1.
          1   -1    0    0  501    0 -0.00000000000E+00 -0.00000000000E+00 -0.15852620594E+03  0.15852620594E+03  0.00000000000E+00 0. -1.
         25    2    1    2    0    0  0.21668698935E+02  0.60978250479E+02  0.78560335306E+02  0.16119554394E+03  0.12499759021E+03 0.  0.
          2    1    1    2  501    0 -0.44301343464E+02 -0.10109377305E+03 -0.69763583114E+02  0.13057380101E+03  0.00000000000E+00 0. -1.
          1    1    1    2  502    0  0.22632644528E+02  0.40115522569E+02  0.14085428016E+02  0.48165247136E+02  0.00000000000E+00 0. -1.
         22    1    3    3    0    0  0.12331937770E+02  0.97427670022E+02  0.74670000446E+02  0.12336870163E+03  0.00000000000E+00 0.  1.
         22    1    3    3    0    0  0.93367611652E+01 -0.36449419542E+02  0.38903348598E+01  0.37826842313E+02  0.00000000000E+00 0.  1.
</event>
<event>
 7    1  0.6888820E-006  0.1220285E+03  0.7818608E-02  0.1366609E+00
          2   -1    0    0  502    0  0.00000000000E+00  0.00000000000E+00  0.20030743287E+04  0.20030743287E+04  0.00000000000E+00 0. -1.
          1   -1    0    0  501    0 -0.00000000000E+00 -0.00000000000E+00 -0.65736543968E+02  0.65736543968E+02  0.00000000000E+00 0. -1.
         25    2    1    2    0    0  0.13193304006E+03 -0.75704225244E+02  0.39918543176E+03  0.44509664938E+03  0.12499824633E+03 0.  0.
          2    1    1    2  501    0 -0.10627147175E+03  0.47643075157E+02  0.37169799319E+02  0.12225008098E+03  0.00000000000E+00 0. -1.
          1    1    1    2  502    0 -0.25661568309E+02  0.28061150087E+02  0.15009825537E+04  0.15014641423E+04  0.00000000000E+00 0. -1.
         22    1    3    3    0    0  0.37598460998E+02 -0.22850482879E+02  0.15791414733E+02  0.46745669495E+02  0.00000000000E+00 0.  1.
         22    1    3    3    0    0  0.94334579064E+02 -0.52853742365E+02  0.38339401702E+03  0.39835097989E+03  0.00000000000E+00 0.  1.
</event>
<event>
 7    1  0.6888820E-006  0.8571904E+02  0.7818608E-02  0.1332211E+00
          2   -1    0    0  502    0  0.00000000000E+00  0.00000000000E+00  0.39867067122E+03  0.39867067122E+03  0.00000000000E+00 0. -1.
          1   -1    0    0  501    0 -0.00000000000E+00 -0.00000000000E+00 -0.60623299431E+03  0.60623299431E+03  0.00000000000E+00 0. -1.
         25    2    1    2    0    0  0.50445503941E+01 -0.88535286639E+02 -0.29786434086E+03  0.33498647684E+03  0.12501531760E+03 0.  0.
          2    1    1    2  501    0  0.64377717251E+02  0.67231015972E+02 -0.27870209884E+03  0.29383560010E+03  0.00000000000E+00 0. -1.
          1    1    1    2  502    0 -0.69422267645E+02  0.21304270668E+02  0.36900411662E+03  0.37608158859E+03  0.00000000000E+00 0. -1.
         22    1    3    3    0    0 -0.25040649631E+02 -0.70190915897E+02 -0.28927166004E+03  0.29871707703E+03  0.00000000000E+00 0. -1.
         22    1    3    3    0    0  0.30085200025E+02 -0.18344370742E+02 -0.85926808276E+01  0.36269399806E+02  0.00000000000E+00 0. -1.
</event>
<event>
 7    1  0.6888820E-006  0.7421665E+02  0.7818608E-02  0.1482848E+00
          2   -1    0    0  502    0  0.00000000000E+00  0.00000000000E+00  0.12249791758E+04  0.12249791758E+04  0.00000000000E+00 0. -1.
          1   -1    0    0  501    0 -0.00000000000E+00 -0.00000000000E+00 -0.23250618918E+02  0.23250618918E+02  0.00000000000E+00 0. -1.
         25    2    1    2    0    0  0.53667635196E+02 -0.67883563447E+02  0.69391824534E+03  0.71037758187E+03  0.12500153738E+03 0.  0.
          2    1    1    2  501    0 -0.25568138274E+02  0.25085197625E+01  0.62398380261E+00  0.25698477036E+02  0.00000000000E+00 0. -1.
          1    1    1    2  502    0 -0.28099496922E+02  0.65375043684E+02  0.50718632769E+03  0.51215373577E+03  0.00000000000E+00 0. -1.
         22    1    3    3    0    0 -0.88286630399E+01 -0.77460320307E+02  0.24706784054E+03  0.25907636778E+03  0.00000000000E+00 0. -1.
         22    1    3    3    0    0  0.62496298236E+02  0.95767568599E+01  0.44685040480E+03  0.45130121409E+03  0.00000000000E+00 0. -1.
</event>
<event>
 7    1  0.6888820E-006  0.6020036E+02  0.7818608E-02  0.1430886E+00
          2   -1    0    0  502    0  0.00000000000E+00  0.00000000000E+00  0.14146514779E+04  0.14146514779E+04  0.00000000000E+00 0. -1.
          1   -1    0    0  501    0 -0.00000000000E+00 -0.00000000000E+00 -0.42316801842E+03  0.42316801842E+03  0.00000000000E+00 0. -1.
         25    2    1    2    0    0 -0.88351192270E+02 -0.40722555878E+02  0.34035214743E+03  0.37540445087E+03  0.12499863096E+03 0.  0.
          2    1    1    2  501    0  0.59857563631E+02  0.42554272756E+01 -0.40291200354E+03  0.40735625586E+03  0.00000000000E+00 0. -1.
          1    1    1    2  502    0  0.28493628639E+02  0.36467128602E+02  0.10540433156E+04  0.10550587896E+04  0.00000000000E+00 0. -1.
         22    1    3    3    0    0 -0.50764907475E+02  0.33594122568E+02  0.71266581675E+02  0.93726018617E+02  0.00000000000E+00 0. -1.
         22    1    3    3    0    0 -0.37586284794E+02 -0.74316678446E+02  0.26908556576E+03  0.28167843226E+03  0.00000000000E+00 0. -1.
</event>
<event>
 7    1  0.6888820E-006  0.1266503E+03  0.7818608E-02  0.1235207E+00
          2   -1    0    0  502    0  0.00000000000E+00  0.00000000000E+00  0.63814531207E+03  0.63814531207E+03  0.00000000000E+00 0. -1.
          1   -1    0    0  501    0 -0.00000000000E+00 -0.00000000000E+00 -0.19748251341E+03  0.19748251341E+03  0.00000000000E+00 0. -1.
         25    2    1    2    0    0  0.39002995470E+02  0.18867831154E+02 -0.31273921973E+02  0.13594181764E+03  0.12499956352E+03 0.  0.
          2    1    1    2  501    0  0.55024572381E+02 -0.11407273578E+03 -0.67767679001E+02  0.14364104890E+03  0.00000000000E+00 0. -1.
          1    1    1    2  502    0 -0.94027567851E+02  0.95204904622E+02  0.53970439963E+03  0.55604495894E+03  0.00000000000E+00 0. -1.
         22    1    3    3    0    0  0.62144557397E+02 -0.51741670643E+01  0.27658040122E+02  0.68217924347E+02  0.00000000000E+00 0.  1.
         22    1    3    3    0    0 -0.23141561927E+02  0.24041998218E+02 -0.58931962095E+02  0.67723893295E+02  0.00000000000E+00 0.  1.
</event>
<event>
 7    1  0.6888820E-006  0.2521717E+03  0.7818608E-02  0.1225107E+00
          2   -1    0    0  502    0  0.00000000000E+00  0.00000000000E+00  0.94549716151E+03  0.94549716151E+03  0.00000000000E+00 0. -1.
          1   -1    0    0  501    0 -0.00000000000E+00 -0.00000000000E+00 -0.16513200622E+04  0.16513200622E+04  0.00000000000E+00 0. -1.
         25    2    1    2    0    0 -0.21051827935E+03  0.29366344825E+02 -0.75276404948E+03  0.79211555877E+03  0.12495205524E+03 0.  0.
          2    1    1    2  501    0 -0.24820231841E+02  0.64031061721E+02 -0.86017523019E+03  0.86291218986E+03  0.00000000000E+00 0. -1.
          1    1    1    2  502    0  0.23533851119E+03 -0.93397406547E+02  0.90711637897E+03  0.94178947509E+03  0.00000000000E+00 0. -1.
         22    1    3    3    0    0  0.14526089216E+02  0.71864152368E+01 -0.99686720485E+02  0.10099551511E+03  0.00000000000E+00 0.  1.
         22    1    3    3    0    0 -0.22504436857E+03  0.22179929589E+02 -0.65307732899E+03  0.69112004366E+03  0.00000000000E+00 0.  1.
</event>
<event>
 7    1  0.6888820E-006  0.1751807E+03  0.7818608E-02  0.1217259E+00
          2   -1    0    0  502    0  0.00000000000E+00  0.00000000000E+00  0.17567837584E+04  0.17567837584E+04  0.00000000000E+00 0. -1.
          1   -1    0    0  501    0 -0.00000000000E+00 -0.00000000000E+00 -0.72516123381E+02  0.72516123381E+02  0.00000000000E+00 0. -1.
         25    2    1    2    0    0 -0.10204315273E+03  0.29444971160E+01  0.52818843219E+03  0.55229499968E+03  0.12500108676E+03 0.  0.
          2    1    1    2  501    0  0.18862256566E+03 -0.66372659185E+02  0.11552962472E+03  0.23093483139E+03  0.00000000000E+00 0. -1.
          1    1    1    2  502    0 -0.86579412931E+02  0.63428162069E+02  0.10405495781E+04  0.10460700507E+04  0.00000000000E+00 0. -1.
         22    1    3    3    0    0  0.94613176316E+01 -0.40532615605E+02  0.14436383439E+03  0.15024422164E+03  0.00000000000E+00 0. -1.
         22    1    3    3    0    0 -0.11150447036E+03  0.43477112720E+02  0.38382459780E+03  0.40205077803E+03  0.00000000000E+00 0. -1.
</event>
<event>
 7    1  0.6888820E-006  0.7178673E+02  0.7818608E-02  0.1491090E+00
          2   -1    0    0  502    0  0.00000000000E+00  0.00000000000E+00  0.16745077676E+04  0.16745077676E+04  0.00000000000E+00 0. -1.
          1   -1    0    0  501    0 -0.00000000000E+00 -0.00000000000E+00 -0.93613975231E+03  0.93613975231E+03  0.00000000000E+00 0. -1.
         25    2    1    2    0    0 -0.46687735335E+02 -0.57989435250E+01  0.50028520742E+03  0.51780707479E+03  0.12500202223E+03 0.  0.
          2    1    1    2  501    0  0.71720439370E+02  0.43894160640E+01 -0.92585176062E+03  0.92863586569E+03  0.00000000000E+00 0. -1.
          1    1    1    2  502    0 -0.25032704035E+02  0.14095274610E+01  0.11639345685E+04  0.11642045795E+04  0.00000000000E+00 0. -1.
         22    1    3    3    0    0  0.25228626010E+02 -0.42291900388E+02  0.13435273057E+03  0.14309348210E+03  0.00000000000E+00 0.  1.
         22    1    3    3    0    0 -0.71916361345E+02  0.36492956863E+02  0.36593247685E+03  0.37471359269E+03  0.00000000000E+00 0.  1.
</event>
<event>
 7    1  0.6888820E-006  0.1119411E+03  0.7818608E-02  0.1415480E+00
          2   -1    0    0  502    0  0.00000000000E+00  0.00000000000E+00  0.12562772123E+04  0.12562772123E+04  0.00000000000E+00 0. -1.
          1   -1    0    0  501    0 -0.00000000000E+00 -0.00000000000E+00 -0.49659414615E+02  0.49659414615E+02  0.00000000000E+00 0. -1.
         25    2    1    2    0    0 -0.90077948613E+02 -0.94680262259E+02  0.20543178055E+03  0.27368832333E+03  0.12499877191E+03 0.  0.
          2    1    1    2  501    0  0.21425321951E+01  0.27921423530E+02  0.32134953291E+01  0.28187282387E+02  0.00000000000E+00 0. -1.
          1    1    1    2  502    0  0.87935416418E+02  0.66758838729E+02  0.99797252178E+03  0.10040610212E+04  0.00000000000E+00 0. -1.
         22    1    3    3    0    0 -0.10114397680E+03 -0.82255009659E+02  0.93265957527E+02  0.16029513246E+03  0.00000000000E+00 0. -1.
         22    1    3    3    0    0  0.11066028182E+02 -0.12425252600E+02  0.11216582302E+03  0.11339319087E+03  0.00000000000E+00 0. -1.
</event>
<event>
 7    1  0.6888820E-006  0.8871712E+02  0.7818608E-02  0.1324847E+00
          2   -1    0    0  502    0  0.00000000000E+00  0.00000000000E+00  0.46571584287E+03  0.46571584287E+03  0.00000000000E+00 0. -1.
          1   -1    0    0  501    0 -0.00000000000E+00 -0.00000000000E+00 -0.81556573940E+02  0.81556573940E+02  0.00000000000E+00 0. -1.
         25    2    1    2    0    0 -0.26388739567E+02 -0.45184451321E+02  0.33436338246E+03  0.36077968849E+03  0.12500044753E+03 0.  0.
          2    1    1    2  501    0 -0.33442732321E+02  0.90192691075E+02 -0.68198764999E+00  0.96195649463E+02  0.00000000000E+00 0. -1.
          1    1    1    2  502    0  0.59831471888E+02 -0.45008239754E+02  0.50477874121E+02  0.90297078855E+02  0.00000000000E+00 0. -1.
         22    1    3    3    0    0 -0.28744394893E+02 -0.62508019617E+02  0.78756936583E+02  0.10457603843E+03  0.00000000000E+00 0.  1.
         22    1    3    3    0    0  0.23556553265E+01  0.17323568296E+02  0.25560644587E+03  0.25620365006E+03  0.00000000000E+00 0.  1.
</event>
<event>
 7    1  0.6888820E-006  0.1615610E+03  0.7818608E-02  0.1265811E+00
          2   -1    0    0  502    0  0.00000000000E+00  0.00000000000E+00  0.56468639654E+03  0.56468639654E+03  0.00000000000E+00 0. -1.
          1   -1    0    0  501    0 -0.00000000000E+00 -0.00000000000E+00 -0.63036646842E+03  0.63036646842E+03  0.00000000000E+00 0. -1.
         25    2    1    2    0    0  0.80572887695E+02  0.15560426470E+03  0.26099023223E+03  0.33830134764E+03  0.12500889197E+03 0.  0.
          2    1    1    2  501    0 -0.96483535045E+01 -0.16130474599E+03 -0.57559989625E+03  0.59785245034E+03  0.00000000000E+00 0. -1.
          1    1    1    2  502    0 -0.70924534190E+02  0.57004812963E+01  0.24892959214E+03  0.25889906698E+03  0.00000000000E+00 0. -1.
         22    1    3    3    0    0  0.23660317266E+02 -0.19038049144E+02  0.50575162559E+02  0.58992414734E+02  0.00000000000E+00 0. -1.
         22    1    3    3    0    0  0.56912570429E+02  0.17464231384E+03  0.21041506967E+03  0.27930893291E+03  0.00000000000E+00 0. -1.
</event>
<event>
 7    1  0.6888820E-006  0.4648731E+02  0.7818608E-02  0.1507072E+00
          2   -1    0    0  502    0  0.00000000000E+00  0.00000000000E+00  0.49418288076E+02  0.49418288076E+02  0.00000000000E+00 0. -1.
          1   -1    0    0  501    0 -0.00000000000E+00 -0.00000000000E+00 -0.57462964691E+03  0.57462964691E+03  0.00000000000E+00 0. -1.
         25    2    1    2    0    0 -0.70507506519E+01 -0.49295682986E+02 -0.13926118480E+03  0.19363892926E+03  0.12499031918E+03 0.  0.
          2    1    1    2  501    0 -0.29357880933E+02  0.18472093431E+02 -0.38085764086E+03  0.38243384527E+03  0.00000000000E+00 0. -1.
          1    1    1    2  502    0  0.36408631585E+02  0.30823589555E+02 -0.50925331851E+01  0.47975160460E+02  0.00000000000E+00 0. -1.
         22    1    3    3    0    0 -0.29198283755E+00 -0.63688689294E+02 -0.11288334134E+02  0.64681998157E+02  0.00000000000E+00 0.  1.
         22    1    3    3    0    0 -0.67587678144E+01  0.14393006308E+02 -0.12797285066E+03  0.12895693110E+03  0.00000000000E+00 0.  1.
</event>
<event>
 7    1  0.6888820E-006  0.6110211E+02  0.7818608E-02  0.1523566E+00
          2   -1    0    0  502    0  0.00000000000E+00  0.00000000000E+00  0.56825336476E+03  0.56825336476E+03  0.00000000000E+00 0. -1.
          1   -1    0    0  501    0 -0.00000000000E+00 -0.00000000000E+00 -0.49058670900E+03  0.49058670900E+03  0.00000000000E+00 0. -1.
         25    2    1    2    0    0  0.42314109719E+02  0.14010226038E+02 -0.11088463085E+03  0.17294178894E+03  0.12500676258E+03 0.  0.
          2    1    1    2  501    0  0.19019662820E+02 -0.14000494204E+02 -0.34651966665E+03  0.34732353906E+03  0.00000000000E+00 0. -1.
          1    1    1    2  502    0 -0.61333772538E+02 -0.97318342395E-02  0.53507095326E+03  0.53857474576E+03  0.00000000000E+00 0. -1.
         22    1    3    3    0    0  0.51165617666E+02 -0.46850032939E+02 -0.73011662195E+02  0.10071518671E+03  0.00000000000E+00 0. -1.
         22    1    3    3    0    0 -0.88515079479E+01  0.60860258977E+02 -0.37872968651E+02  0.72226602233E+02  0.00000000000E+00 0. -1.
</event>
<event>
 7    1  0.6888820E-006  0.1112329E+03  0.7818608E-02  0.1282709E+00
          2   -1    0    0  502    0  0.00000000000E+00  0.00000000000E+00  0.11466672169E+04  0.11466672169E+04  0.00000000000E+00 0. -1.
          1   -1    0    0  501    0 -0.00000000000E+00 -0.00000000000E+00 -0.61866214203E+03  0.61866214203E+03  0.00000000000E+00 0. -1.
         25    2    1    2    0    0  0.39261816413E+02 -0.18314813252E+03 -0.17938411238E+03  0.28790360382E+03  0.12500038658E+03 0.  0.
          2    1    1    2  501    0 -0.48698107937E+02  0.73135645186E+02 -0.37716548066E+03  0.38726493272E+03  0.00000000000E+00 0. -1.
          1    1    1    2  502    0  0.94362915243E+01  0.11001248734E+03  0.10845546679E+04  0.10901608224E+04  0.00000000000E+00 0. -1.
         22    1    3    3    0    0 -0.35635183369E+01  0.18447548557E+02 -0.19351738040E+02  0.26972216740E+02  0.00000000000E+00 0.  1.
         22    1    3    3    0    0  0.42825334750E+02 -0.20159568108E+03 -0.16003237434E+03  0.26093138708E+03  0.00000000000E+00 0.  1.
</event>
<event>
 7    1  0.6888820E-006  0.6998026E+02  0.7818608E-02  0.1361943E+00
          2   -1    0    0  502    0  0.00000000000E+00  0.00000000000E+00  0.37076127747E+03  0.37076127747E+03  0.00000000000E+00 0. -1.
          1   -1    0    0  501    0 -0.00000000000E+00 -0.00000000000E+00 -0.13203477008E+03  0.13203477008E+03  0.00000000000E+00 0. -1.
         25    2    1    2    0    0  0.63502895260E+02  0.52664994280E+02  0.26168906821E+02  0.15204540368E+03  0.12500709487E+03 0.  0.
          2    1    1    2  501    0  0.23380656954E+01 -0.73106770511E+02 -0.43819774770E+02  0.85265697127E+02  0.00000000000E+00 0. -1.
          1    1    1    2  502    0 -0.65840960955E+02  0.20441776231E+02  0.25637737534E+03  0.26548494674E+03  0.00000000000E+00 0. -1.
         22    1    3    3    0    0 -0.17420249825E+02  0.64211565218E+02  0.10883497338E+01  0.66541526258E+02  0.00000000000E+00 0. -1.
         22    1    3    3    0    0  0.80923145085E+02 -0.11546570938E+02  0.25080557087E+02  0.85503877425E+02  0.00000000000E+00 0. -1.
</event>
<event>
 7    1  0.6888820E-006  0.1190456E+03  0.7818608E-02  0.1439017E+00
          2   -1    0    0  502    0  0.00000000000E+00  0.00000000000E+00  0.12199048959E+04  0.12199048959E+04  0.00000000000E+00 0. -1.
          1   -1    0    0  501    0 -0.00000000000E+00 -0.00000000000E+00 -0.59968282079E+03  0.59968282079E+03  0.00000000000E+00 0. -1.
         25    2    1    2    0    0  0.13336363454E+03  0.24761782699E+02 -0.28012170415E+03  0.33539208294E+03  0.12498269985E+03 0.  0.
          2    1    1    2  501    0 -0.19644732957E+02  0.99336637231E+01 -0.28854158485E+03  0.28938009503E+03  0.00000000000E+00 0. -1.
          1    1    1    2  502    0 -0.11371890159E+03 -0.34695446422E+02  0.11888853641E+04  0.11948155387E+04  0.00000000000E+00 0. -1.
         22    1    3    3    0    0  0.12251120660E+02  0.43717315232E+00  0.12656524982E+02  0.17620122088E+02  0.00000000000E+00 0.  1.
         22    1    3    3    0    0  0.12111251388E+03  0.24324609547E+02 -0.29277822913E+03  0.31777196085E+03  0.00000000000E+00 0.  1.
</event>
<event>
 7    1  0.6888820E-006  0.1392833E+03  0.7818608E-02  0.1225952E+00
          2   -1    0    0  502    0  0.00000000000E+00  0.00000000000E+00  0.38572316607E+03  0.38572316607E+03  0.00000000000E+00 0. -1.
          1   -1    0    0  501    0 -0.00000000000E+00 -0.00000000000E+00 -0.22685638479E+04  0.22685638479E+04  0.00000000000E+00 0. -1.
         25    2    1    2    0    0  0.89737475912E+02 -0.92941330021E+02 -0.56255945739E+03  0.59058425918E+03  0.12500287467E+03 0.  0.
          2    1    1    2  501    0 -0.11449684391E+03 -0.45604212857E+02 -0.16763260917E+04  0.16808505101E+04  0.00000000000E+00 0. -1.
          1    1    1    2  502    0  0.24759367999E+02  0.13854554288E+03  0.35604486729E+03  0.38285224470E+03  0.00000000000E+00 0. -1.
         22    1    3    3    0    0  0.66021604315E+02 -0.54422986845E+02 -0.52460460745E+03  0.53153617741E+03  0.00000000000E+00 0.  1.
         22    1    3    3    0    0  0.23715871597E+02 -0.38518343176E+02 -0.37954849940E+02  0.59048081769E+02  0.00000000000E+00 0.  1.
</event>
<event>
 7    1  0.6888820E-006  0.3650265E+02  0.7818608E-02  0.1610308E+00
          2   -1    0    0  502    0  0.00000000000E+00  0.00000000000E+00  0.10523656716E+04  0.10523656716E+04  0.00000000000E+00 0. -1.
          1   -1    0    0  501    0 -0.00000000000E+00 -0.00000000000E+00 -0.49971232779E+02  0.49971232779E+02  0.00000000000E+00 0. -1.
         25    2    1    2    0    0  0.26666572030E+01  0.46832210489E+02  0.54350040245E+03  0.55965870305E+03  0.12499923775E+03 0.  0.
          2    1    1    2  501    0 -0.18004663790E+02 -0.14178462178E+02 -0.38054263542E+02  0.44422108028E+02  0.00000000000E+00 0. -1.
          1    1    1    2  502    0  0.15338006587E+02 -0.32653748311E+02  0.49694829994E+03  0.49825609333E+03  0.00000000000E+00 0. -1.
         22    1    3    3    0    0  0.44021582677E+02  0.70456317356E+02  0.28737386102E+03  0.29914165273E+03  0.00000000000E+00 0.  1.
         22    1    3    3    0    0 -0.41354925474E+02 -0.23624106868E+02  0.25612654143E+03  0.26051705032E+03  0.00000000000E+00 0.  1.
</event>
<event>
 7    1  0.6888820E-006  0.6623911E+02  0.7818608E-02  0.1487236E+00
          2   -1    0    0  502    0  0.00000000000E+00  0.00000000000E+00  0.87674050749E+03  0.87674050749E+03  0.00000000000E+00 0. -1.
          1   -1    0    0  501    0 -0.00000000000E+00 -0.00000000000E+00 -0.20840141603E+03  0.20840141603E+03  0.00000000000E+00 0. -1.
         25    2    1    2    0    0  0.86382030062E+01  0.93166603540E+02  0.25731592551E+03  0.30098240822E+03  0.12499715986E+03 0.  0.
          2    1    1    2  501    0 -0.52106873158E+01 -0.65465477573E+02 -0.18044961163E+03  0.19202849360E+03  0.00000000000E+00 0. -1.
          1    1    1    2  502    0 -0.34275156903E+01 -0.27701125967E+02  0.59147277758E+03  0.59213102171E+03  0.00000000000E+00 0. -1.
         22    1    3    3    0    0  0.18171066973E+02  0.11011501608E+03  0.12635440629E+03  0.16858511331E+03  0.00000000000E+00 0. -1.
         22    1    3    3    0    0 -0.95328639669E+01 -0.16948412542E+02  0.13096151922E+03  0.13239729491E+03  0.00000000000E+00 0. -1.
</event>
<event>
 7    1  0.6888820E-006  0.1136664E+03  0.7818608E-02  0.1284966E+00
          2   -1    0    0  502    0  0.00000000000E+00  0.00000000000E+00  0.13972737300E+04  0.13972737300E+04  0.00000000000E+00 0. -1.
          1   -1    0    0  501    0 -0.00000000000E+00 -0.00000000000E+00 -0.20898134492E+04  0.20898134492E+04  0.00000000000E+00 0. -1.
         25    2    1    2    0    0 -0.11095174821E+03 -0.75235443103E+02 -0.22818813220E+03  0.29268700971E+03  0.12500079859E+03 0.  0.
          2    1    1    2  501    0  0.11372267009E+03 -0.88871934736E+01 -0.18262972754E+04  0.18298561599E+04  0.00000000000E+00 0. -1.
          1    1    1    2  502    0 -0.27709218856E+01  0.84122636576E+02  0.13619456884E+04  0.13645440096E+04  0.00000000000E+00 0. -1.
         22    1    3    3    0    0 -0.12795758706E+03 -0.29740411631E+02 -0.18955300793E+03  0.23062519157E+03  0.00000000000E+00 0.  1.
         22    1    3    3    0    0  0.17005838855E+02 -0.45495031472E+02 -0.38635124277E+02  0.62061818147E+02  0.00000000000E+00 0.  1.
</event>
<event>
 7    1  0.6888820E-006  0.5551244E+03  0.7818608E-02  0.1139049E+00
          2   -1    0    0  502    0  0.00000000000E+00  0.00000000000E+00  0.16850168274E+04  0.16850168274E+04  0.00000000000E+00 0. -1.
          1   -1    0    0  501    0 -0.00000000000E+00 -0.00000000000E+00 -0.12099535739E+04  0.12099535739E+04  0.00000000000E+00 0. -1.
         25    2    1    2    0    0  0.17417938392E+03 -0.48622978989E+03 -0.17042145695E+03  0.55805545785E+03  0.12499821874E+03 0.  0.
          2    1    1    2  501    0 -0.24927930500E+03  0.51887638837E+03 -0.74641572778E+03  0.94260772169E+03  0.00000000000E+00 0. -1.
          1    1    1    2  502    0  0.75099921085E+02 -0.32646598484E+02  0.13919004382E+04  0.13943072217E+04  0.00000000000E+00 0. -1.
         22    1    3    3    0    0  0.13132840027E+02 -0.15710566638E+03 -0.94668707404E+02  0.18389351826E+03  0.00000000000E+00 0. -1.
         22    1    3    3    0    0  0.16104654389E+03 -0.32912412351E+03 -0.75752749550E+02  0.37416193959E+03  0.00000000000E+00 0. -1.
</event>
<event>
 7    1  0.6888820E-006  0.5328480E+03  0.7818608E-02  0.1127747E+00
          2   -1    0    0  502    0  0.00000000000E+00  0.00000000000E+00  0.16070265627E+04  0.16070265627E+04  0.00000000000E+00 0. -1.
          1   -1    0    0  501    0 -0.00000000000E+00 -0.00000000000E+00 -0.87530551687E+03  0.87530551687E+03  0.00000000000E+00 0. -1.
         25    2    1    2    0    0 -0.51317548413E+03  0.16455893469E+03  0.78653069071E+03  0.96160517763E+03  0.12500107888E+03 0.  0.
          2    1    1    2  501    0 -0.13344201479E+02 -0.97017499710E+02 -0.68773035821E+03  0.69466791243E+03  0.00000000000E+00 0. -1.
          1    1    1    2  502    0  0.52651968561E+03 -0.67541434980E+02  0.63292071332E+03  0.82605898949E+03  0.00000000000E+00 0. -1.
         22    1    3    3    0    0 -0.32178412242E+03  0.98892682219E+02  0.38112517489E+03  0.50850878357E+03  0.00000000000E+00 0.  1.
         22    1    3    3    0    0 -0.19139136171E+03  0.65666252471E+02  0.40540551582E+03  0.45309639406E+03  0.00000000000E+00 0.  1.
</event>
<event>
 7    1  0.6888820E-006  0.4973963E+02  0.7818608E-02  0.1543348E+00
          2   -1    0    0  502    0  0.00000000000E+00  0.00000000000E+00  0.37837813055E+03  0.37837813055E+03  0.00000000000E+00 0. -1.
          1   -1    0    0  501    0 -0.00000000000E+00 -0.00000000000E+00 -0.25823383258E+03  0.25823383258E+03  0.00000000000E+00 0. -1.
         25    2    1    2    0    0  0.27887412081E+02  0.59156908384E+02 -0.60949029722E+02  0.15367534572E+03  0.12499632033E+03 0.  0.
          2    1    1    2  501    0 -0.23512133032E+02 -0.98136155036E+01 -0.14797918630E+03  0.15015647514E+03  0.00000000000E+00 0. -1.
          1    1    1    2  502    0 -0.43752790484E+01 -0.49343292880E+02  0.32907251399E+03  0.33278014226E+03  0.00000000000E+00 0. -1.
         22    1    3    3    0    0 -0.33338156991E+02 -0.18817049824E+02 -0.33337545867E+02  0.50763235122E+02  0.00000000000E+00 0.  1.
         22    1    3    3    0    0  0.61225569072E+02  0.77973958207E+02 -0.27611483855E+02  0.10291211060E+03  0.00000000000E+00 0.  1.
</event>
<event>
 7    1  0.6888820E-006  0.6852401E+02  0.7818608E-02  0.1401807E+00
          2   -1    0    0  502    0  0.00000000000E+00  0.00000000000E+00  0.28466414461E+02  0.28466414461E+02  0.00000000000E+00 0. -1.
          1   -1    0    0  501    0 -0.00000000000E+00 -0.00000000000E+00 -0.20531592148E+04  0.20531592148E+04  0.00000000000E+00 0. -1.
         25    2    1    2    0    0  0.76328901065E+01 -0.74118658754E+02 -0.31732599695E+03  0.34910250780E+03  0.12499974410E+03 0.  0.
          2    1    1    2  501    0  0.44089898824E+02  0.25450132726E+02 -0.16159936224E+04  0.16167952920E+04  0.00000000000E+00 0. -1.
          1    1    1    2  502    0 -0.51722788931E+02  0.48668526028E+02 -0.91373181017E+02  0.11572782954E+03  0.00000000000E+00 0. -1.
         22    1    3    3    0    0  0.63789903000E+02 -0.20365543922E+02 -0.16547588638E+03  0.17851099708E+03  0.00000000000E+00 0.  1.
         22    1    3    3    0    0 -0.56157012893E+02 -0.53753114833E+02 -0.15185011056E+03  0.17059151072E+03  0.00000000000E+00 0.  1.
</event>
<event>
 7    1  0.6888820E-006  0.5704424E+02  0.7818608E-02  0.1425857E+00
          2   -1    0    0  502    0  0.00000000000E+00  0.00000000000E+00  0.86997138860E+03  0.86997138860E+03  0.00000000000E+00 0. -1.
          1   -1    0    0  501    0 -0.00000000000E+00 -0.00000000000E+00 -0.62233221948E+03  0.62233221948E+03  0.00000000000E+00 0. -1.
         25    2    1    2    0    0 -0.91031973602E+02  0.51221768442E+02  0.10418736319E+02  0.16322717530E+03  0.12499628359E+03 0.  0.
          2    1    1    2  501    0  0.53706903344E+02 -0.16848062543E+02 -0.54365149675E+03  0.54655762605E+03  0.00000000000E+00 0. -1.
          1    1    1    2  502    0  0.37325070258E+02 -0.34373705899E+02  0.78087192955E+03  0.78251880673E+03  0.00000000000E+00 0. -1.
         22    1    3    3    0    0 -0.49202592840E+01 -0.37585255062E+02  0.11192590131E+02  0.39523846262E+02  0.00000000000E+00 0.  1.
         22    1    3    3    0    0 -0.86111714318E+02  0.88807023504E+02 -0.77385381174E+00  0.12370332904E+03  0.00000000000E+00 0.  1.
</event>
<event>
 7    1  0.6888820E-006  0.1272571E+03  0.7818608E-02  0.1378651E+00
          2   -1    0    0  502    0  0.00000000000E+00  0.00000000000E+00  0.30219999516E+03  0.30219999516E+03  0.00000000000E+00 0. -1.
          1   -1    0    0  501    0 -0.00000000000E+00 -0.00000000000E+00 -0.11760752215E+04  0.11760752215E+04  0.00000000000E+00 0. -1.
         25    2    1    2    0    0  0.11734260665E+02  0.11694953007E+03 -0.14381129535E+03  0.22387848544E+03  0.12500000844E+03 0.  0.
          2    1    1    2  501    0  0.32835261173E+02  0.34561578428E+01 -0.97621549751E+03  0.97677366723E+03  0.00000000000E+00 0. -1.
          1    1    1    2  502    0 -0.44569521838E+02 -0.12040568792E+03  0.24615156653E+03  0.27762306400E+03  0.00000000000E+00 0. -1.
         22    1    3    3    0    0 -0.22060610728E+02  0.46320699284E+02  0.90814743840E+01  0.52103271537E+02  0.00000000000E+00 0. -1.
         22    1    3    3    0    0  0.33794871393E+02  0.70628830790E+02 -0.15289276974E+03  0.17177521390E+03  0.00000000000E+00 0. -1.
</event>
<event>
 7    1  0.6888820E-006  0.9517976E+02  0.7818608E-02  0.1354604E+00
          2   -1    0    0  502    0  0.00000000000E+00  0.00000000000E+00  0.62304134019E+03  0.62304134019E+03  0.00000000000E+00 0. -1.
          1   -1    0    0  501    0 -0.00000000000E+00 -0.00000000000E+00 -0.82965955892E+03  0.82965955892E+03  0.00000000000E+00 0. -1.
         25    2    1    2    0    0 -0.75888483616E+02  0.11748531811E+03 -0.25016110485E+02  0.18924200432E+03  0.12499947399E+03 0.  0.
          2    1    1    2  501    0  0.76422508942E+01 -0.53377560883E+02 -0.71745919461E+03  0.71948263629E+03  0.00000000000E+00 0. -1.
          1    1    1    2  502    0  0.68246232722E+02 -0.64107757225E+02  0.53585708636E+03  0.54397625851E+03  0.00000000000E+00 0. -1.
         22    1    3    3    0    0  0.34494129011E+02  0.31579571101E+02  0.18947271698E+01  0.46804959547E+02  0.00000000000E+00 0.  1.
         22    1    3    3    0    0 -0.11038261263E+03  0.85905747007E+02 -0.26910837655E+02  0.14243704477E+03  0.00000000000E+00 0.  1.
</event>
