<event>
 7    1  0.5194496E-006  0.6893926E+02  0.7818608E-02  0.1449886E+00
          2   -1    0    0  502    0  0.00000000000E+00  0.00000000000E+00  0.25934349344E+04  0.25934349344E+04  0.00000000000E+00 0. -1.
          1   -1    0    0  501    0 -0.00000000000E+00 -0.00000000000E+00 -0.10820888491E+04  0.10820888491E+04  0.00000000000E+00 0. -1.
         25    2    1    2    0    0 -0.25910341566E+02  0.23283833952E+02  0.54422932435E+03  0.55948528785E+03  0.12499898845E+03 0.  0.
          2    1    1    2  501    0  0.43297917060E+02 -0.53735304556E+02 -0.10732020156E+04  0.10754184111E+04  0.00000000000E+00 0. -1.
          1    1    1    2  502    0 -0.17387575495E+02  0.30451470605E+02  0.20403187765E+04  0.20406200846E+04  0.00000000000E+00 0. -1.
         22    1    3    3    0    0  0.23113314683E+02  0.62643912069E+02  0.26821216683E+03  0.27639871829E+03  0.00000000000E+00 0.  1.
         22    1    3    3    0    0 -0.49023656249E+02 -0.39360078117E+02  0.27601715752E+03  0.28308656956E+03  0.00000000000E+00 0.  1.
</event>
<event>
 7    1  0.5194496E-006  0.1285193E+03  0.7818608E-02  0.1240570E+00
          2   -1    0    0  502    0  0.00000000000E+00  0.00000000000E+00  0.23178158186E+04  0.23178158186E+04  0.00000000000E+00 0. -1.
          1   -1    0    0  501    0 -0.00000000000E+00 -0.00000000000E+00 -0.30187575276E+03  0.30187575276E+03  0.00000000000E+00 0. -1.
         25    2    1    2    0    0  0.78259724015E+02 -0.68732958207E+02 -0.16375441533E+03  0.23084639377E+03  0.12500298009E+03 0.  0.
          2    1    1    2  501    0 -0.15940243841E+01  0.17188127494E+03 -0.30792708238E+02  0.17462503964E+03  0.00000000000E+00 0. -1.
          1    1    1    2  502    0 -0.76665699631E+02 -0.10314831673E+03  0.22104871894E+04  0.22142201379E+04  0.00000000000E+00 0. -1.
         22    1    3    3    0    0 -0.20997251728E+02 -0.38144908799E+01 -0.86990257323E+02  0.89569748185E+02  0.00000000000E+00 0. -1.
         22    1    3    3    0    0  0.99256975743E+02 -0.64918467327E+02 -0.76764158002E+02  0.14127664558E+03  0.00000000000E+00 0. -1.
</event>
<event>
 7    1  0.5194496E-006  0.1753807E+03  0.7818608E-02  0.1259698E+00
          2   -1    0    0  502    0  0.00000000000E+00  0.00000000000E+00  0.76947466467E+03  0.76947466467E+03  0.00000000000E+00 0. -1.
          1   -1    0    0  501    0 -0.00000000000E+00 -0.00000000000E+00 -0.11696128042E+03  0.11696128042E+03  0.00000000000E+00 0. -1.
         25    2    1    2    0    0 -0.15999067861E+03  0.10313696285E+03  0.63791804351E+03  0.67734688792E+03  0.12500050399E+03 0.  0.
          2    1    1    2  501    0  0.29676468217E+02 -0.62941172101E+02 -0.10657849796E+02  0.70397966402E+02  0.00000000000E+00 0. -1.
          1    1    1    2  502    0  0.13031421040E+03 -0.40195790752E+02  0.25253190532E+02  0.13869109076E+03  0.00000000000E+00 0. -1.
         22    1    3    3    0    0 -0.54611146785E+02  0.83486086867E+02  0.45072717024E+03  0.46163544713E+03  0.00000000000E+00 0. -1.
         22    1    3    3    0    0 -0.10537953183E+03  0.19650875986E+02  0.18719087327E+03  0.21571144080E+03  0.00000000000E+00 0. -1.
</event>
<event>
 7    1  0.5194496E-006  0.5872317E+02  0.7818608E-02  0.1416004E+00
          2   -1    0    0  502    0  0.00000000000E+00  0.00000000000E+00  0.61892971903E+03  0.61892971903E+03  0.00000000000E+00 0. -1.
          1   -1    0    0  501    0 -0.00000000000E+00 -0.00000000000E+00 -0.45497920555E+03  0.45497920555E+03  0.00000000000E+00 0. -1.
         25    2    1    2    0    0 -0.12421041152E+02  0.11827391372E+02  0.70924027050E+02  0.14473472535E+03  0.12499501454E+03 0.  0.
          2    1    1    2  501    0  0.57373950620E+02  0.16559523165E+02 -0.41454595215E+03  0.41882494489E+03  0.00000000000E+00 0. -1.
          1    1    1    2  502    0 -0.44952909468E+02 -0.28386914537E+02  0.50757243859E+03  0.51034925433E+03  0.00000000000E+00 0. -1.
         22    1    3    3    0    0 -0.39923971542E+02  0.58594281054E+02  0.31050366259E+02  0.77403737124E+02  0.00000000000E+00 0. -1.
         22    1    3    3    0    0  0.27502930390E+02 -0.46766889683E+02  0.39873660791E+02  0.67330988226E+02  0.00000000000E+00 0. -1.
</event>
<event>
 7    1  0.5194496E-006  0.7548479E+02  0.7818608E-02  0.1352153E+00
          2   -1    0    0  502    0  0.00000000000E+00  0.00000000000E+00  0.13503690116E+04  0.13503690116E+04  0.00000000000E+00 0. -1.
          1   -1    0    0  501    0 -0.00000000000E+00 -0.00000000000E+00 -0.23812090139E+03  0.23812090139E+03  0.00000000000E+00 0. -1.
         25    2    1    2    0    0  0.88985274968E+01 -0.11689462137E+03  0.12650697232E+03  0.21300557843E+03  0.12499530432E+03 0.  0.
          2    1    1    2  501    0 -0.46287917977E+02  0.58403934339E+02 -0.18668248246E+03  0.20100731369E+03  0.00000000000E+00 0. -1.
          1    1    1    2  502    0  0.37389390480E+02  0.58490687026E+02  0.11724236204E+04  0.11744770209E+04  0.00000000000E+00 0. -1.
         22    1    3    3    0    0  0.51400291748E+02 -0.77366569153E+02  0.25188336042E+02  0.96239432079E+02  0.00000000000E+00 0. -1.
         22    1    3    3    0    0 -0.42501764252E+02 -0.39528052212E+02  0.10131863628E+03  0.11676614635E+03  0.00000000000E+00 0. -1.
</event>
<event>
 7    1  0.5194496E-006  0.1134425E+03  0.7818608E-02  0.1273988E+00
          2   -1    0    0  502    0  0.00000000000E+00  0.00000000000E+00  0.12652191382E+04  0.12652191382E+04  0.00000000000E+00 0. -1.
          1   -1    0    0  501    0 -0.00000000000E+00 -0.00000000000E+00 -0.23425321046E+04  0.23425321046E+04  0.00000000000E+00 0. -1.
         25    2    1    2    0    0  0.60838202008E+02  0.17118732530E+03 -0.10867493727E+03  0.24585072725E+03  0.12500380366E+03 0.  0.
          2    1    1    2  501    0 -0.79463430079E+02 -0.79429445769E+02 -0.21619768305E+04  0.21648942906E+04  0.00000000000E+00 0. -1.
          1    1    1    2  502    0  0.18625228071E+02 -0.91757879536E+02  0.11933388015E+04  0.11970062250E+04  0.00000000000E+00 0. -1.
         22    1    3    3    0    0  0.28868069561E+01  0.16170373425E+03 -0.82556404655E+02  0.18158191340E+03  0.00000000000E+00 0. -1.
         22    1    3    3    0    0  0.57951395052E+02  0.94835910553E+01 -0.26118532620E+02  0.64268813852E+02  0.00000000000E+00 0. -1.
</event>
<event>
 7    1  0.5194496E-006  0.7518946E+02  0.7818608E-02  0.1494204E+00
          2   -1    0    0  502    0  0.00000000000E+00  0.00000000000E+00  0.20670567382E+03  0.20670567382E+03  0.00000000000E+00 0. -1.
          1   -1    0    0  501    0 -0.00000000000E+00 -0.00000000000E+00 -0.54962339794E+03  0.54962339794E+03  0.00000000000E+00 0. -1.
         25    2    1    2    0    0 -0.38288829344E+02  0.50150336254E+02  0.13640660657E+03  0.19548422303E+03  0.12500491374E+03 0.  0.
          2    1    1    2  501    0  0.60993836475E+02 -0.44383826278E+02 -0.51372049210E+03  0.51922915570E+03  0.00000000000E+00 0. -1.
          1    1    1    2  502    0 -0.22705007131E+02 -0.57665099760E+01  0.34396161419E+02  0.41615693032E+02  0.00000000000E+00 0. -1.
         22    1    3    3    0    0 -0.46800522909E+02  0.59569012608E+02  0.15525986179E+03  0.17275526299E+03  0.00000000000E+00 0.  1.
         22    1    3    3    0    0  0.85116935654E+01 -0.94186763537E+01 -0.18853255229E+02  0.22728960036E+02  0.00000000000E+00 0.  1.
</event>
<event>
 7    1  0.5194496E-006  0.5393349E+02  0.7818608E-02  0.1474415E+00
          2   -1    0    0  502    0  0.00000000000E+00  0.00000000000E+00  0.28900149931E+04  0.28900149931E+04  0.00000000000E+00 0. -1.
          1   -1    0    0  501    0 -0.00000000000E+00 -0.00000000000E+00 -0.15523687022E+03  0.15523687022E+03  0.00000000000E+00 0. -1.
         25    2    1    2    0    0 -0.80788241385E+02 -0.21258681621E+02  0.70249747120E+02  0.16595208361E+03  0.12500558225E+03 0.  0.
          2    1    1    2  501    0  0.52429695975E+02 -0.33184002213E+01 -0.10082560256E+03  0.11369119109E+03  0.00000000000E+00 0. -1.
          1    1    1    2  502    0  0.28358545410E+02  0.24577081842E+02  0.27653539783E+04  0.27656085886E+04  0.00000000000E+00 0. -1.
         22    1    3    3    0    0 -0.32141781247E+02  0.29313282550E+02  0.83861523299E+02  0.94472841206E+02  0.00000000000E+00 0. -1.
         22    1    3    3    0    0 -0.48646460138E+02 -0.50571964171E+02 -0.13611776179E+02  0.71479242405E+02  0.00000000000E+00 0. -1.
</event>
<event>
 7    1  0.5194496E-006  0.7102236E+02  0.7818608E-02  0.1521652E+00
          2   -1    0    0  502    0  0.00000000000E+00  0.00000000000E+00  0.16421447374E+04  0.16421447374E+04  0.00000000000E+00 0. -1.
          1   -1    0    0  501    0 -0.00000000000E+00 -0.00000000000E+00 -0.11434041152E+03  0.11434041152E+03  0.00000000000E+00 0. -1.
         25    2    1    2    0    0 -0.42191563490E+01 -0.83075322825E+02  0.74091087253E+03  0.75597098118E+03  0.12499557116E+03 0.  0.
          2    1    1    2  501    0  0.18616803196E+02  0.68371528481E+02 -0.94924361241E+02  0.11845626039E+03  0.00000000000E+00 0. -1.
          1    1    1    2  502    0 -0.14397646847E+02  0.14703794345E+02  0.88181781462E+03  0.88205790738E+03  0.00000000000E+00 0. -1.
         22    1    3    3    0    0 -0.31113535480E+02  0.19511736859E+02  0.10407254498E+03  0.11036237848E+03  0.00000000000E+00 0.  1.
         22    1    3    3    0    0  0.26894379131E+02 -0.10258705968E+03  0.63683832755E+03  0.64560860270E+03  0.00000000000E+00 0.  1.
</event>
<event>
 7    1  0.5194496E-006  0.6403294E+02  0.7818608E-02  0.1530264E+00
          2   -1    0    0  502    0  0.00000000000E+00  0.00000000000E+00  0.38860791000E+03  0.38860791000E+03  0.00000000000E+00 0. -1.
          1   -1    0    0  501    0 -0.00000000000E+00 -0.00000000000E+00 -0.48914190927E+03  0.48914190927E+03  0.00000000000E+00 0. -1.
         25    2    1    2    0    0  0.69096413207E+02  0.28228131051E+02  0.23925925289E+02  0.14753633197E+03  0.12499351043E+03 0.  0.
          2    1    1    2  501    0 -0.59442806750E+01 -0.20722230814E+02 -0.42372122644E+03  0.42426928130E+03  0.00000000000E+00 0. -1.
          1    1    1    2  502    0 -0.63152132532E+02 -0.75059002371E+01  0.29926130188E+03  0.30594420599E+03  0.00000000000E+00 0. -1.
         22    1    3    3    0    0  0.10082271278E+03  0.43594371920E+02  0.12890375965E+02  0.11059769648E+03  0.00000000000E+00 0.  1.
         22    1    3    3    0    0 -0.31726299570E+02 -0.15366240869E+02  0.11035549323E+02  0.36938635488E+02  0.00000000000E+00 0.  1.
</event>
<event>
 7    1  0.5194496E-006  0.3180381E+03  0.7818608E-02  0.1260911E+00
          2   -1    0    0  502    0  0.00000000000E+00  0.00000000000E+00  0.77579073908E+03  0.77579073908E+03  0.00000000000E+00 0. -1.
          1   -1    0    0  501    0 -0.00000000000E+00 -0.00000000000E+00 -0.69990264877E+03  0.69990264877E+03  0.00000000000E+00 0. -1.
         25    2    1    2    0    0  0.28102673882E+03  0.90075046081E+02  0.25429008323E+03  0.40911815680E+03  0.12499871174E+03 0.  0.
          2    1    1    2  501    0 -0.31328158455E+03 -0.70138756738E+02 -0.58014415762E+03  0.66304753980E+03  0.00000000000E+00 0. -1.
          1    1    1    2  502    0  0.32254845726E+02 -0.19936289343E+02  0.40174216470E+03  0.40352769125E+03  0.00000000000E+00 0. -1.
         22    1    3    3    0    0 -0.54083579682E+01  0.20986121634E+02  0.37489786052E+02  0.43303021781E+02  0.00000000000E+00 0. -1.
         22    1    3    3    0    0  0.28643509679E+03  0.69088924447E+02  0.21680029718E+03  0.36581513502E+03  0.00000000000E+00 0. -1.
</event>
<event>
 7    1  0.5194496E-006  0.1786560E+03  0.7818608E-02  0.1244491E+00
          2   -1    0    0  502    0  0.00000000000E+00  0.00000000000E+00  0.31087582724E+03  0.31087582724E+03  0.00000000000E+00 0. -1.
          1   -1    0    0  501    0 -0.00000000000E+00 -0.00000000000E+00 -0.62923344606E+03  0.62923344606E+03  0.00000000000E+00 0. -1.
         25    2    1    2    0    0  0.11744313590E+03  0.60902114065E+02 -0.15998813634E+03  0.24232743657E+03  0.12499770028E+03 0.  0.
          2    1    1    2  501    0 -0.16938557470E+03 -0.12105548524E+03 -0.39590100364E+03  0.44730695066E+03  0.00000000000E+00 0. -1.
          1    1    1    2  502    0  0.51942438798E+02  0.60153371175E+02  0.23753152116E+03  0.25047488608E+03  0.00000000000E+00 0. -1.
         22    1    3    3    0    0 -0.16350190881E+02  0.23179270975E+02  0.25181007724E+01  0.28477151829E+02  0.00000000000E+00 0.  1.
         22    1    3    3    0    0  0.13379332678E+03  0.37722843090E+02 -0.16250623711E+03  0.21385028474E+03  0.00000000000E+00 0.  1.
</event>
<event>
 7    1  0.5194496E-006  0.4113338E+02  0.7818608E-02  0.1565290E+00
          2   -1    0    0  502    0  0.00000000000E+00  0.00000000000E+00  0.28458980608E+04  0.28458980608E+04  0.00000000000E+00 0. -1.
          1   -1    0    0  501    0 -0.00000000000E+00 -0.00000000000E+00 -0.59994811102E+03  0.59994811102E+03  0.00000000000E+00 0. -1.
         25    2    1    2    0    0 -0.24797213178E+02  0.16174462463E+02  0.99612834853E+03  0.10043770136E+04  0.12499993441E+03 0.  0.
          2    1    1    2  501    0  0.11905899305E+02  0.23988030198E+02 -0.59528169825E+03  0.59588377751E+03  0.00000000000E+00 0. -1.
          1    1    1    2  502    0  0.12891313872E+02 -0.40162492662E+02  0.18451032996E+04  0.18455853808E+04  0.00000000000E+00 0. -1.
         22    1    3    3    0    0 -0.12822779899E+02  0.32221886895E+02  0.70851154353E+02  0.78883203235E+02  0.00000000000E+00 0.  1.
         22    1    3    3    0    0 -0.11974433279E+02 -0.16047424432E+02  0.92527719418E+03  0.92549381032E+03  0.00000000000E+00 0.  1.
</event>
<event>
 7    1  0.5194496E-006  0.6219728E+02  0.7818608E-02  0.1527918E+00
          2   -1    0    0  502    0  0.00000000000E+00  0.00000000000E+00  0.76629827655E+03  0.76629827655E+03  0.00000000000E+00 0. -1.
          1   -1    0    0  501    0 -0.00000000000E+00 -0.00000000000E+00 -0.92574585691E+02  0.92574585691E+02  0.00000000000E+00 0. -1.
         25    2    1    2    0    0 -0.29253967783E+02 -0.39575704121E+02  0.14363092705E+03  0.19666301240E+03  0.12499786500E+03 0.  0.
          2    1    1    2  501    0  0.20272020875E+02  0.60249643339E+02 -0.50495889685E+02  0.81183799048E+02  0.00000000000E+00 0. -1.
          1    1    1    2  502    0  0.89819469078E+01 -0.20673939218E+02  0.58058865349E+03  0.58102605079E+03  0.00000000000E+00 0. -1.
         22    1    3    3    0    0 -0.33130560609E+02  0.24212709461E+02  0.17713964193E+01  0.41073436561E+02  0.00000000000E+00 0. -1.
         22    1    3    3    0    0  0.38765928254E+01 -0.63788413582E+02  0.14185953063E+03  0.15558957584E+03  0.00000000000E+00 0. -1.
</event>
<event>
 7    1  0.5194496E-006  0.7492129E+02  0.7818608E-02  0.1353304E+00
          2   -1    0    0  502    0  0.00000000000E+00  0.00000000000E+00  0.15256520697E+03  0.15256520697E+03  0.00000000000E+00 0. -1.
          1   -1    0    0  501    0 -0.00000000000E+00 -0.00000000000E+00 -0.11995762592E+04  0.11995762592E+04  0.00000000000E+00 0. -1.
         25    2    1    2    0    0 -0.63942166077E+02 -0.35670989520E+02  0.46128509466E+02  0.15203273167E+03  0.12500036808E+03 0.  0.
          2    1    1    2  501    0  0.59780903431E+02 -0.45160195037E+02 -0.11140071906E+04  0.11165237213E+04  0.00000000000E+00 0. -1.
          1    1    1    2  502    0  0.41612626462E+01  0.80831184557E+02  0.20867628817E+02  0.83585013227E+02  0.00000000000E+00 0. -1.
         22    1    3    3    0    0 -0.86406441530E+02 -0.42891250726E+02  0.69442853122E+02  0.11886144192E+03  0.00000000000E+00 0.  1.
         22    1    3    3    0    0  0.22464275453E+02  0.72202612069E+01 -0.23314343656E+02  0.33171289750E+02  0.00000000000E+00 0.  1.
</event>
<event>
 7    1  0.5194496E-006  0.1276250E+03  0.7818608E-02  0.1321168E+00
          2   -1    0    0  502    0  0.00000000000E+00  0.00000000000E+00  0.15371966245E+04  0.15371966245E+04  0.00000000000E+00 0. -1.
          1   -1    0    0  501    0 -0.00000000000E+00 -0.00000000000E+00 -0.24318309143E+04  0.24318309143E+04  0.00000000000E+00 0. -1.
         25    2    1    2    0    0 -0.75915312924E+02 -0.97594582866E+02  0.12955355271E+04  0.13074117297E+04  0.12500116582E+03 0.  0.
          2    1    1    2  501    0 -0.51091142763E+02  0.16780671326E+02 -0.24015270073E+04  0.24021290271E+04  0.00000000000E+00 0. -1.
          1    1    1    2  502    0  0.12700645569E+03  0.80813911540E+02  0.21135719047E+03  0.25948678203E+03  0.00000000000E+00 0. -1.
         22    1    3    3    0    0  0.28423917866E+02  0.33612628421E+00  0.34449989051E+03  0.34567066212E+03  0.00000000000E+00 0. -1.
         22    1    3    3    0    0 -0.10433923079E+03 -0.97930709150E+02  0.95103563662E+03  0.96174106754E+03  0.00000000000E+00 0. -1.
</event>
<event>
 7    1  0.5194496E-006  0.6137021E+02  0.7818608E-02  0.1525439E+00
          2   -1    0    0  502    0  0.00000000000E+00  0.00000000000E+00  0.57673929822E+03  0.57673929822E+03  0.00000000000E+00 0. -1.
          1   -1    0    0  501    0 -0.00000000000E+00 -0.00000000000E+00 -0.72224452314E+03  0.72224452314E+03  0.00000000000E+00 0. -1.
         25    2    1    2    0    0 -0.38557369939E+02 -0.82711684967E+01 -0.80948000756E+02  0.15405431035E+03  0.12500027482E+03 0.  0.
          2    1    1    2  501    0  0.61780330258E+02  0.83327921199E+01 -0.60288579535E+03  0.60610026140E+03  0.00000000000E+00 0. -1.
          1    1    1    2  502    0 -0.23222960318E+02 -0.61623623190E-01  0.53832857119E+03  0.53882924962E+03  0.00000000000E+00 0. -1.
         22    1    3    3    0    0  0.49238404485E+01 -0.49858634678E+02 -0.79377257023E+02  0.93866269709E+02  0.00000000000E+00 0.  1.
         22    1    3    3    0    0 -0.43481210388E+02  0.41587466181E+02 -0.15707437336E+01  0.60188040640E+02  0.00000000000E+00 0.  1.
</event>
<event>
 7    1  0.5194496E-006  0.1598005E+03  0.7818608E-02  0.1316841E+00
          2   -1    0    0  502    0  0.00000000000E+00  0.00000000000E+00  0.13339841796E+03  0.13339841796E+03  0.00000000000E+00 0. -1.
          1   -1    0    0  501    0 -0.00000000000E+00 -0.00000000000E+00 -0.82983141812E+03  0.82983141812E+03  0.00000000000E+00 0. -1.
         25    2    1    2    0    0 -0.79215401249E+02 -0.13865823838E+03 -0.20879646344E+02  0.20386935862E+03  0.12500227553E+03 0.  0.
          2    1    1    2  501    0  0.39842627126E+02 -0.20140913936E+02 -0.55336036140E+03  0.55515833860E+03  0.00000000000E+00 0. -1.
          1    1    1    2  502    0  0.39372774123E+02  0.15879915232E+03 -0.12219299241E+03  0.20420213885E+03  0.00000000000E+00 0. -1.
         22    1    3    3    0    0 -0.23607861335E+02 -0.92886854216E+01 -0.53602451808E+02  0.59302897345E+02  0.00000000000E+00 0. -1.
         22    1    3    3    0    0 -0.55607539914E+02 -0.12936955296E+03  0.32722805464E+02  0.14456646127E+03  0.00000000000E+00 0. -1.
</event>
<event>
 7    1  0.5194496E-006  0.4371532E+02  0.7818608E-02  0.1497838E+00
          2   -1    0    0  502    0  0.00000000000E+00  0.00000000000E+00  0.27589699931E+03  0.27589699931E+03  0.00000000000E+00 0. -1.
          1   -1    0    0  501    0 -0.00000000000E+00 -0.00000000000E+00 -0.19735533643E+04  0.19735533643E+04  0.00000000000E+00 0. -1.
         25    2    1    2    0    0 -0.16976779160E+02  0.18234964682E+02 -0.60742400895E+02  0.14120365733E+03  0.12501243382E+03 0.  0.
          2    1    1    2  501    0 -0.25940156058E+02 -0.29513293647E+02 -0.18702833256E+04  0.18706960320E+04  0.00000000000E+00 0. -1.
          1    1    1    2  502    0  0.42916935217E+02  0.11278328966E+02  0.23336936142E+03  0.23755067434E+03  0.00000000000E+00 0. -1.
         22    1    3    3    0    0 -0.69616120460E+02  0.89352112143E+01 -0.17211921422E+02  0.72266814420E+02  0.00000000000E+00 0. -1.
         22    1    3    3    0    0  0.52639341301E+02  0.92997534673E+01 -0.43530479473E+02  0.68936842909E+02  0.00000000000E+00 0. -1.
</event>
<event>
 7    1  0.5704847E-006  0.7217845E+02  0.7818608E-02  0.1454397E+00
          2   -1    0    0  502    0  0.00000000000E+00  0.00000000000E+00  0.36966682979E+03  0.36966682979E+03  0.00000000000E+00 0. -1.
          1   -1    0    0  501    0 -0.00000000000E+00 -0.00000000000E+00 -0.22952031674E+04  0.22952031674E+04  0.00000000000E+00 0. -1.
         25    2    1    2    0    0 -0.29281870959E+02  0.67665668366E+02 -0.96538347248E+03  0.97622722058E+03  0.12497306361E+03 0.  0.
          2    1    1    2  501    0  0.32089669249E+02  0.44790938098E+01 -0.13206193857E+04  0.13210167944E+04  0.00000000000E+00 0. -1.
          1    1    1    2  502    0 -0.28077982903E+01 -0.72144762176E+02  0.36046652051E+03  0.36762598228E+03  0.00000000000E+00 0. -1.
         22    1    3    3    0    0 -0.10470409693E+02  0.13161106687E+02 -0.81492910834E+03  0.81510262902E+03  0.00000000000E+00 0. -1.
         22    1    3    3    0    0 -0.18811461266E+02  0.54504561680E+02 -0.15045436413E+03  0.16112459156E+03  0.00000000000E+00 0. -1.
</event>
<event>
 7    1  0.5194496E-006  0.4535144E+02  0.7818608E-02  0.1499967E+00
          2   -1    0    0  502    0  0.00000000000E+00  0.00000000000E+00  0.29386692113E+02  0.29386692113E+02  0.00000000000E+00 0. -1.
          1   -1    0    0  501    0 -0.00000000000E+00 -0.00000000000E+00 -0.46096422836E+03  0.46096422836E+03  0.00000000000E+00 0. -1.
         25    2    1    2    0    0 -0.23282035253E+02 -0.33528740602E+02 -0.29222960849E+03  0.32044602137E+03  0.12498511480E+03 0.  0.
          2    1    1    2  501    0 -0.10261059809E+02  0.49898824713E+02 -0.11377734603E+03  0.12466140753E+03  0.00000000000E+00 0. -1.
          1    1    1    2  502    0  0.33543095062E+02 -0.16370084111E+02 -0.25570581722E+02  0.45243491573E+02  0.00000000000E+00 0. -1.
         22    1    3    3    0    0 -0.57795406232E+02 -0.61024925128E+02 -0.15535204042E+03  0.17663127393E+03  0.00000000000E+00 0. -1.
         22    1    3    3    0    0  0.34513370979E+02  0.27496184526E+02 -0.13687756808E+03  0.14381474745E+03  0.00000000000E+00 0. -1.
</event>
<event>
 7    1  0.5194496E-006  0.2911491E+03  0.7818608E-02  0.1215532E+00
          2   -1    0    0  502    0  0.00000000000E+00  0.00000000000E+00  0.10182151327E+04  0.10182151327E+04  0.00000000000E+00 0. -1.
          1   -1    0    0  501    0 -0.00000000000E+00 -0.00000000000E+00 -0.29372231950E+04  0.29372231950E+04  0.00000000000E+00 0. -1.
         25    2    1    2    0    0  0.23127845983E+03 -0.22844803294E+03  0.36914364626E+03  0.50751578284E+03  0.12500803384E+03 0.  0.
          2    1    1    2  501    0 -0.86304113744E+01  0.65197456440E+02 -0.28347729182E+04  0.28355356972E+04  0.00000000000E+00 0. -1.
          1    1    1    2  502    0 -0.22264804846E+03  0.16325057650E+03  0.54662120968E+03  0.61238684758E+03  0.00000000000E+00 0. -1.
         22    1    3    3    0    0  0.56772094281E+02  0.39953169541E+01  0.73029115183E+02  0.92586634624E+02  0.00000000000E+00 0.  1.
         22    1    3    3    0    0  0.17450636555E+03 -0.23244334989E+03  0.29611453108E+03  0.41492914822E+03  0.00000000000E+00 0.  1.
</event>
<event>
 7    1  0.5194496E-006  0.9749211E+02  0.7818608E-02  0.1405128E+00
          2   -1    0    0  502    0  0.00000000000E+00  0.00000000000E+00  0.63714021417E+02  0.63714021417E+02  0.00000000000E+00 0. -1.
          1   -1    0    0  501    0 -0.00000000000E+00 -0.00000000000E+00 -0.68255446221E+03  0.68255446221E+03  0.00000000000E+00 0. -1.
         25    2    1    2    0    0 -0.87328317774E+02  0.45665533497E+01 -0.19294815491E+03  0.24596884794E+03  0.12499838070E+03 0.  0.
          2    1    1    2  501    0  0.96213206033E+02  0.29139697582E+02 -0.44792179915E+03  0.45906431047E+03  0.00000000000E+00 0. -1.
          1    1    1    2  502    0 -0.88848882585E+01 -0.33706250932E+02  0.22029513271E+02  0.41235325222E+02  0.00000000000E+00 0. -1.
         22    1    3    3    0    0 -0.98548635335E+02 -0.11117807257E+02 -0.20172169874E+03  0.22478230114E+03  0.00000000000E+00 0. -1.
         22    1    3    3    0    0  0.11220317561E+02  0.15684360607E+02  0.87735438270E+01  0.21186546795E+02  0.00000000000E+00 0. -1.
</event>
<event>
 7    1  0.5194496E-006  0.9952663E+02  0.7818608E-02  0.1354634E+00
          2   -1    0    0  502    0  0.00000000000E+00  0.00000000000E+00  0.13970719237E+04  0.13970719237E+04  0.00000000000E+00 0. -1.
          1   -1    0    0  501    0 -0.00000000000E+00 -0.00000000000E+00 -0.55244414547E+03  0.55244414547E+03  0.00000000000E+00 0. -1.
         25    2    1    2    0    0  0.38677705499E+02 -0.13577449705E+03  0.44562584345E+03  0.48387817131E+03  0.12500005349E+03 0.  0.
          2    1    1    2  501    0 -0.24177691459E+01  0.99127618921E+02 -0.52798661607E+03  0.53721689957E+03  0.00000000000E+00 0. -1.
          1    1    1    2  502    0 -0.36259936353E+02  0.36646878128E+02  0.92698855080E+03  0.92842099824E+03  0.00000000000E+00 0. -1.
         22    1    3    3    0    0  0.82726989817E+01 -0.12308374191E+03  0.43012683532E+03  0.44746747315E+03  0.00000000000E+00 0.  1.
         22    1    3    3    0    0  0.30405006517E+02 -0.12690755143E+02  0.15499008130E+02  0.36410698159E+02  0.00000000000E+00 0.  1.
</event>
<event>
 7    1  0.5194496E-006  0.6932653E+02  0.7818608E-02  0.1373037E+00
          2   -1    0    0  502    0  0.00000000000E+00  0.00000000000E+00  0.34684705603E+03  0.34684705603E+03  0.00000000000E+00 0. -1.
          1   -1    0    0  501    0 -0.00000000000E+00 -0.00000000000E+00 -0.19726739360E+04  0.19726739360E+04  0.00000000000E+00 0. -1.
         25    2    1    2    0    0 -0.64767795405E+02 -0.22155978249E+02 -0.54597582710E+03  0.56427039755E+03  0.12500289229E+03 0.  0.
          2    1    1    2  501    0  0.45197216321E+02 -0.44550713330E+02 -0.14132534338E+04  0.14146776391E+04  0.00000000000E+00 0. -1.
          1    1    1    2  502    0  0.19570579085E+02  0.66706691579E+02  0.33340238097E+03  0.34057295534E+03  0.00000000000E+00 0. -1.
         22    1    3    3    0    0 -0.10209666794E+03 -0.19674905335E+02 -0.36809565085E+03  0.38249867932E+03  0.00000000000E+00 0.  1.
         22    1    3    3    0    0  0.37328872530E+02 -0.24810729141E+01 -0.17788017624E+03  0.18177171823E+03  0.00000000000E+00 0.  1.
</event>
<event>
 7    1  0.5194496E-006  0.1579441E+03  0.7818608E-02  0.1255646E+00
          2   -1    0    0  502    0  0.00000000000E+00  0.00000000000E+00  0.96879007520E+03  0.96879007520E+03  0.00000000000E+00 0. -1.
          1   -1    0    0  501    0 -0.00000000000E+00 -0.00000000000E+00 -0.99872436697E+02  0.99872436697E+02  0.00000000000E+00 0. -1.
         25    2    1    2    0    0 -0.13782138421E+03  0.55639100024E+01  0.27081921322E+03  0.32862598705E+03  0.12500520820E+03 0.  0.
          2    1    1    2  501    0 -0.16221127761E+02 -0.78766670036E+02 -0.32532111085E+02  0.86750513232E+02  0.00000000000E+00 0. -1.
          1    1    1    2  502    0  0.15404251197E+03  0.73202760034E+02  0.63063053637E+03  0.65328601162E+03  0.00000000000E+00 0. -1.
         22    1    3    3    0    0 -0.91362679685E+02  0.55484743280E+02  0.10729877449E+03  0.15145534980E+03  0.00000000000E+00 0.  1.
         22    1    3    3    0    0 -0.46458704525E+02 -0.49920833278E+02  0.16352043873E+03  0.17717063725E+03  0.00000000000E+00 0.  1.
</event>
<event>
 7    1  0.5194496E-006  0.1848130E+03  0.7818608E-02  0.1224234E+00
          2   -1    0    0  502    0  0.00000000000E+00  0.00000000000E+00  0.67903761432E+03  0.67903761432E+03  0.00000000000E+00 0. -1.
          1   -1    0    0  501    0 -0.00000000000E+00 -0.00000000000E+00 -0.60862834721E+03  0.60862834721E+03  0.00000000000E+00 0. -1.
         25    2    1    2    0    0 -0.12742409135E+03 -0.39474562608E+02 -0.30815683135E+03  0.35830309726E+03  0.12500134657E+03 0.  0.
          2    1    1    2  501    0 -0.56585354938E+02  0.75758965317E+02 -0.25323405771E+03  0.27031243257E+03  0.00000000000E+00 0. -1.
          1    1    1    2  502    0  0.18400944629E+03 -0.36284402709E+02  0.63180015616E+03  0.65905043171E+03  0.00000000000E+00 0. -1.
         22    1    3    3    0    0 -0.72700367465E+02 -0.51441189528E+02 -0.28339144312E+03  0.29705597022E+03  0.00000000000E+00 0. -1.
         22    1    3    3    0    0 -0.54723723890E+02  0.11966626920E+02 -0.24765388234E+02  0.61247127040E+02  0.00000000000E+00 0. -1.
</event>
<event>
 7    1  0.5194496E-006  0.3876749E+02  0.7818608E-02  0.1543827E+00
          2   -1    0    0  502    0  0.00000000000E+00  0.00000000000E+00  0.37011388188E+02  0.37011388188E+02  0.00000000000E+00 0. -1.
          1   -1    0    0  501    0 -0.00000000000E+00 -0.00000000000E+00 -0.38329864223E+03  0.38329864223E+03  0.00000000000E+00 0. -1.
         25    2    1    2    0    0  0.45626877589E+01  0.12665990128E+02 -0.28287375853E+03  0.30955181770E+03  0.12499407647E+03 0.  0.
          2    1    1    2  501    0 -0.24553255573E+02 -0.45881881796E+02 -0.36710128826E+02  0.63683930428E+02  0.00000000000E+00 0. -1.
          1    1    1    2  502    0  0.19990567815E+02  0.33215891668E+02 -0.26703366693E+02  0.47074282296E+02  0.00000000000E+00 0. -1.
         22    1    3    3    0    0 -0.40223490409E+02  0.17287354912E+02 -0.24999791294E+03  0.25380255770E+03  0.00000000000E+00 0.  1.
         22    1    3    3    0    0  0.44786178168E+02 -0.46213647842E+01 -0.32875845588E+02  0.55749260000E+02  0.00000000000E+00 0.  1.
</event>
<event>
 7    1  0.5194496E-006  0.1051145E+03  0.7818608E-02  0.1279526E+00
          2   -1    0    0  502    0  0.00000000000E+00  0.00000000000E+00  0.69041449116E+03  0.69041449116E+03  0.00000000000E+00 0. -1.
          1   -1    0    0  501    0 -0.00000000000E+00 -0.00000000000E+00 -0.99009337043E+03  0.99009337043E+03  0.00000000000E+00 0. -1.
         25    2    1    2    0    0 -0.13622263239E+03 -0.13708665922E+03  0.11167429019E+03  0.25582350315E+03  0.12500063986E+03 0.  0.
          2    1    1    2  501    0  0.76325414725E+02  0.57953976062E+02 -0.91062000560E+03  0.91564896487E+03  0.00000000000E+00 0. -1.
          1    1    1    2  502    0  0.59897217665E+02  0.79132683155E+02  0.49926683615E+03  0.50903539357E+03  0.00000000000E+00 0. -1.
         22    1    3    3    0    0 -0.11478017131E+03 -0.80114441313E+02  0.13919886723E+02  0.14066475991E+03  0.00000000000E+00 0.  1.
         22    1    3    3    0    0 -0.21442461080E+02 -0.56972217905E+02  0.97754403463E+02  0.11515874325E+03  0.00000000000E+00 0.  1.
</event>
<event>
 7    1  0.5194496E-006  0.4271254E+02  0.7818608E-02  0.1589461E+00
          2   -1    0    0  502    0  0.00000000000E+00  0.00000000000E+00  0.42675748365E+03  0.42675748365E+03  0.00000000000E+00 0. -1.
          1   -1    0    0  501    0 -0.00000000000E+00 -0.00000000000E+00 -0.56840808198E+03  0.56840808198E+03  0.00000000000E+00 0. -1.
         25    2    1    2    0    0 -0.39395990791E+02 -0.17553098367E+02  0.15729648640E+03  0.20549258094E+03  0.12499944334E+03 0.  0.
          2    1    1    2  501    0  0.13977100415E+02 -0.17251435370E+02 -0.54218848997E+03  0.54264291206E+03  0.00000000000E+00 0. -1.
          1    1    1    2  502    0  0.25418890376E+02  0.34804533737E+02  0.24324140524E+03  0.24703007262E+03  0.00000000000E+00 0. -1.
         22    1    3    3    0    0 -0.50811069229E+02  0.45116661158E+02  0.90768363423E+02  0.11338506810E+03  0.00000000000E+00 0. -1.
         22    1    3    3    0    0  0.11415078438E+02 -0.62669759525E+02  0.66528122977E+02  0.92107512840E+02  0.00000000000E+00 0. -1.
</event>
<event>
 7    1  0.5194496E-006  0.8178750E+02  0.7818608E-02  0.1337611E+00
          2   -1    0    0  502    0  0.00000000000E+00  0.00000000000E+00  0.43239085269E+02  0.43239085269E+02  0.00000000000E+00 0. -1.
          1   -1    0    0  501    0 -0.00000000000E+00 -0.00000000000E+00 -0.25504900632E+04  0.25504900632E+04  0.00000000000E+00 0. -1.
         25    2    1    2    0    0 -0.63281485465E+02 -0.12224598720E+03 -0.86519282247E+03  0.88494855548E+03  0.12500679188E+03 0.  0.
          2    1    1    2  501    0  0.14550969086E+01  0.72589161345E+02 -0.16263141477E+04  0.16279339700E+04  0.00000000000E+00 0. -1.
          1    1    1    2  502    0  0.61826388556E+02  0.49656825860E+02 -0.15744007826E+02  0.80846623052E+02  0.00000000000E+00 0. -1.
         22    1    3    3    0    0  0.57749070056E+01  0.14610525719E+02 -0.17543468746E+02  0.23549741153E+02  0.00000000000E+00 0. -1.
         22    1    3    3    0    0 -0.69056392470E+02 -0.13685651292E+03 -0.84764935372E+03  0.86139881433E+03  0.00000000000E+00 0. -1.
</event>
<event>
 7    1  0.5194496E-006  0.4499537E+02  0.7818608E-02  0.1534783E+00
          2   -1    0    0  502    0  0.00000000000E+00  0.00000000000E+00  0.13728029151E+04  0.13728029151E+04  0.00000000000E+00 0. -1.
          1   -1    0    0  501    0 -0.00000000000E+00 -0.00000000000E+00 -0.35697182243E+04  0.35697182243E+04  0.00000000000E+00 0. -1.
         25    2    1    2    0    0  0.34765890205E+02 -0.31329253813E+02 -0.34802396410E+03  0.37274174081E+03  0.12500214593E+03 0.  0.
          2    1    1    2  501    0 -0.79973573843E+01  0.44381619901E+02 -0.32090139420E+04  0.32093307972E+04  0.00000000000E+00 0. -1.
          1    1    1    2  502    0 -0.26768532820E+02 -0.13052366088E+02  0.13601225969E+04  0.13604486014E+04  0.00000000000E+00 0. -1.
         22    1    3    3    0    0  0.49041519045E+01 -0.42237179826E+02 -0.33611326694E+03  0.33879220516E+03  0.00000000000E+00 0. -1.
         22    1    3    3    0    0  0.29861738300E+02  0.10907926012E+02 -0.11910697168E+02  0.33949535655E+02  0.00000000000E+00 0. -1.
</event>
<event>
 7    1  0.5194496E-006  0.8465568E+02  0.7818608E-02  0.1429186E+00
          2   -1    0    0  502    0  0.00000000000E+00  0.00000000000E+00  0.24493042499E+02  0.24493042499E+02  0.00000000000E+00 0. -1.
          1   -1    0    0  501    0 -0.00000000000E+00 -0.00000000000E+00 -0.86509565346E+03  0.86509565346E+03  0.00000000000E+00 0. -1.
         25    2    1    2    0    0  0.37983723476E+02 -0.60417265257E+02 -0.62772968938E+03  0.64402224704E+03  0.12500832998E+03 0.  0.
          2    1    1    2  501    0 -0.19849095855E+02 -0.26783368539E+02 -0.60087027939E+02  0.68715255680E+02  0.00000000000E+00 0. -1.
          1    1    1    2  502    0 -0.18134627621E+02  0.87200633796E+02 -0.15278589363E+03  0.17685119323E+03  0.00000000000E+00 0. -1.
         22    1    3    3    0    0 -0.12279717188E+02 -0.18668971841E+02 -0.50046944364E+03  0.50096804887E+03  0.00000000000E+00 0.  1.
         22    1    3    3    0    0  0.50263440664E+02 -0.41748293416E+02 -0.12726024574E+03  0.14305419818E+03  0.00000000000E+00 0.  1.
</event>
<event>
 7    1  0.5194496E-006  0.9160295E+02  0.7818608E-02  0.1348563E+00
          2   -1    0    0  502    0  0.00000000000E+00  0.00000000000E+00  0.82871209113E+03  0.82871209113E+03  0.00000000000E+00 0. -1.
          1   -1    0    0  501    0 -0.00000000000E+00 -0.00000000000E+00 -0.14825572318E+03  0.14825572318E+03  0.00000000000E+00 0. -1.
         25    2    1    2    0    0  0.50941222979E+00  0.64913893557E+02  0.31892431716E+03  0.34864148618E+03  0.12499637088E+03 0.  0.
          2    1    1    2  501    0  0.53707333594E+02  0.24382960803E+02 -0.12100252758E+03  0.13461284538E+03  0.00000000000E+00 0. -1.
          1    1    1    2  502    0 -0.54216745824E+02 -0.89296854361E+02  0.48253457837E+03  0.49371348275E+03  0.00000000000E+00 0. -1.
         22    1    3    3    0    0 -0.11631747097E+02 -0.34870877314E+02  0.54340453399E+02  0.65606101094E+02  0.00000000000E+00 0. -1.
         22    1    3    3    0    0  0.12141159327E+02  0.99784770871E+02  0.26458386376E+03  0.28303538509E+03  0.00000000000E+00 0. -1.
</event>
<event>
 7    1  0.5194496E-006  0.1102008E+03  0.7818608E-02  0.1321323E+00
          2   -1    0    0  502    0  0.00000000000E+00  0.00000000000E+00  0.78342729412E+03  0.78342729412E+03  0.00000000000E+00 0. -1.
          1   -1    0    0  501    0 -0.00000000000E+00 -0.00000000000E+00 -0.93473281733E+03  0.93473281733E+03  0.00000000000E+00 0. -1.
         25    2    1    2    0    0  0.11280103671E+03  0.51735428201E+02 -0.63192066282E+02  0.18712826437E+03  0.12499248646E+03 0.  0.
          2    1    1    2  501    0 -0.63775191114E+02 -0.90003538424E+02 -0.80446151532E+03  0.81198906493E+03  0.00000000000E+00 0. -1.
          1    1    1    2  502    0 -0.49025845596E+02  0.38268110223E+02  0.71634805839E+03  0.71904278215E+03  0.00000000000E+00 0. -1.
         22    1    3    3    0    0  0.29054180350E+02  0.12324589389E+02  0.38393783848E+02  0.49700337399E+02  0.00000000000E+00 0.  1.
         22    1    3    3    0    0  0.83746856361E+02  0.39410838812E+02 -0.10158585013E+03  0.13742792698E+03  0.00000000000E+00 0.  1.
</event>
<event>
 7    1  0.5194496E-006  0.3322786E+02  0.7818608E-02  0.1587958E+00
          2   -1    0    0  502    0  0.00000000000E+00  0.00000000000E+00  0.16636276385E+03  0.16636276385E+03  0.00000000000E+00 0. -1.
          1   -1    0    0  501    0 -0.00000000000E+00 -0.00000000000E+00 -0.11706967420E+03  0.11706967420E+03  0.00000000000E+00 0. -1.
         25    2    1    2    0    0 -0.41225694072E+02 -0.40623506632E+02  0.74480054686E+02  0.15660375447E+03  0.12501052046E+03 0.  0.
          2    1    1    2  501    0  0.15566628968E+02  0.24235141968E+02 -0.68256105495E+02  0.74084802631E+02  0.00000000000E+00 0. -1.
          1    1    1    2  502    0  0.25659065104E+02  0.16388364664E+02  0.43069140452E+02  0.52743880950E+02  0.00000000000E+00 0. -1.
         22    1    3    3    0    0  0.45823134050E+01  0.11669191355E+02 -0.29198048482E+02  0.31775677148E+02  0.00000000000E+00 0.  1.
         22    1    3    3    0    0 -0.45808007477E+02 -0.52292697987E+02  0.10367810317E+03  0.12482807732E+03  0.00000000000E+00 0.  1.
</event>
<event>
 7    1  0.5194496E-006  0.1246296E+03  0.7818608E-02  0.1270933E+00
          2   -1    0    0  502    0  0.00000000000E+00  0.00000000000E+00  0.31017402219E+03  0.31017402219E+03  0.00000000000E+00 0. -1.
          1   -1    0    0  501    0 -0.00000000000E+00 -0.00000000000E+00 -0.88751727728E+03  0.88751727728E+03  0.00000000000E+00 0. -1.
         25    2    1    2    0    0  0.12489045100E+02 -0.12799673646E+03 -0.14681716628E+03  0.23177387954E+03  0.12499884052E+03 0.  0.
          2    1    1    2  501    0 -0.84460852273E+02  0.23871569179E+02 -0.68028029880E+03  0.68591892547E+03  0.00000000000E+00 0. -1.
          1    1    1    2  502    0  0.71971807173E+02  0.10412516728E+03  0.24975421000E+03  0.27999849446E+03  0.00000000000E+00 0. -1.
         22    1    3    3    0    0  0.91063244068E+01 -0.12295710539E+03 -0.47274610071E+02  0.13204644512E+03  0.00000000000E+00 0. -1.
         22    1    3    3    0    0  0.33827206934E+01 -0.50396310660E+01 -0.99542556206E+02  0.99727434423E+02  0.00000000000E+00 0. -1.
</event>
<event>
 7    1  0.5194496E-006  0.4212964E+02  0.7818608E-02  0.1588056E+00
          2   -1    0    0  502    0  0.00000000000E+00  0.00000000000E+00  0.54559208720E+03  0.54559208720E+03  0.00000000000E+00 0. -1.
          1   -1    0    0  501    0 -0.00000000000E+00 -0.00000000000E+00 -0.14509796333E+04  0.14509796333E+04  0.00000000000E+00 0. -1.
         25    2    1    2    0    0  0.59235316353E+02  0.26185589295E+02 -0.45959490733E+03  0.48065945360E+03  0.12494608318E+03 0.  0.
          2    1    1    2  501    0 -0.20375236702E+02 -0.10016296757E+02 -0.97989301816E+03  0.98015600978E+03  0.00000000000E+00 0. -1.
          1    1    1    2  502    0 -0.38860079652E+02 -0.16169292538E+02  0.53410037938E+03  0.53575625714E+03  0.00000000000E+00 0. -1.
         22    1    3    3    0    0 -0.20619093760E+02  0.51098719991E+02 -0.14448661226E+03  0.15463701800E+03  0.00000000000E+00 0.  1.
         22    1    3    3    0    0  0.79854410113E+02 -0.24913130696E+02 -0.31510829506E+03  0.32602243560E+03  0.00000000000E+00 0.  1.
</event>
<event>
 7    1  0.5194496E-006  0.3433796E+02  0.7818608E-02  0.1595684E+00
          2   -1    0    0  502    0  0.00000000000E+00  0.00000000000E+00  0.29828007630E+03  0.29828007630E+03  0.00000000000E+00 0. -1.
          1   -1    0    0  501    0 -0.00000000000E+00 -0.00000000000E+00 -0.45313638060E+03  0.45313638060E+03  0.00000000000E+00 0. -1.
         25    2    1    2    0    0 -0.17973740461E+02  0.47768671080E+02  0.17388835713E+03  0.22015230021E+03  0.12499989303E+03 0.  0.
          2    1    1    2  501    0 -0.65772308271E+01 -0.25767373751E+02 -0.42689642245E+03  0.42772394487E+03  0.00000000000E+00 0. -1.
          1    1    1    2  502    0  0.24550971288E+02 -0.22001297328E+02  0.98151761012E+02  0.10354021183E+03  0.00000000000E+00 0. -1.
         22    1    3    3    0    0 -0.17790025433E+01 -0.34334630428E+02  0.10889377582E+03  0.11419232071E+03  0.00000000000E+00 0. -1.
         22    1    3    3    0    0 -0.16194737917E+02  0.82103301507E+02  0.64994581310E+02  0.10595997949E+03  0.00000000000E+00 0. -1.
</event>
<event>
 7    1  0.5194496E-006  0.8465991E+02  0.7818608E-02  0.1464959E+00
          2   -1    0    0  502    0  0.00000000000E+00  0.00000000000E+00  0.69711132053E+03  0.69711132053E+03  0.00000000000E+00 0. -1.
          1   -1    0    0  501    0 -0.00000000000E+00 -0.00000000000E+00 -0.12514136721E+04  0.12514136721E+04  0.00000000000E+00 0. -1.
         25    2    1    2    0    0 -0.74612834973E+02  0.55139035857E+02 -0.11035627698E+01  0.15569608622E+03  0.12503065622E+03 0.  0.
          2    1    1    2  501    0  0.22804170660E+02  0.11595179715E+02 -0.11699944477E+04  0.11702741072E+04  0.00000000000E+00 0. -1.
          1    1    1    2  502    0  0.51808664314E+02 -0.66734215572E+02  0.61679565887E+03  0.62255479921E+03  0.00000000000E+00 0. -1.
         22    1    3    3    0    0 -0.38115554077E+02 -0.39112691304E+02 -0.11188465760E+01  0.54624627241E+02  0.00000000000E+00 0. -1.
         22    1    3    3    0    0 -0.36497280897E+02  0.94251727160E+02  0.15283806128E-01  0.10107145897E+03  0.00000000000E+00 0. -1.
</event>
<event>
 7    1  0.6406518E-006  0.6730500E+02  0.7818608E-02  0.1436597E+00
          2   -1    0    0  502    0  0.00000000000E+00  0.00000000000E+00  0.62399107229E+03  0.62399107229E+03  0.00000000000E+00 0. -1.
          1   -1    0    0  501    0 -0.00000000000E+00 -0.00000000000E+00 -0.10229975695E+04  0.10229975695E+04  0.00000000000E+00 0. -1.
         25    2    1    2    0    0 -0.73873461960E+02 -0.30021477758E+02 -0.53452992532E+03  0.55471702055E+03  0.12502061557E+03 0.  0.
          2    1    1    2  501    0  0.32343075061E+02 -0.22934175991E+02 -0.47570247837E+03  0.47735196539E+03  0.00000000000E+00 0. -1.
          1    1    1    2  502    0  0.41530386899E+02  0.52955653749E+02  0.61122590652E+03  0.61491965581E+03  0.00000000000E+00 0. -1.
         22    1    3    3    0    0 -0.40399711572E+02 -0.60304006407E+02 -0.14080695443E+03  0.15841498761E+03  0.00000000000E+00 0. -1.
         22    1    3    3    0    0 -0.33473750388E+02  0.30282528649E+02 -0.39372297089E+03  0.39630203294E+03  0.00000000000E+00 0. -1.
</event>
<event>
 7    1  0.5194496E-006  0.6729491E+02  0.7818608E-02  0.1404686E+00
          2   -1    0    0  502    0  0.00000000000E+00  0.00000000000E+00  0.89356958913E+03  0.89356958913E+03  0.00000000000E+00 0. -1.
          1   -1    0    0  501    0 -0.00000000000E+00 -0.00000000000E+00 -0.49336911558E+02  0.49336911558E+02  0.00000000000E+00 0. -1.
         25    2    1    2    0    0 -0.27983570887E+02 -0.14878132228E+01  0.28103738472E+03  0.30885797764E+03  0.12500377959E+03 0.  0.
          2    1    1    2  501    0  0.64957457553E+02 -0.33166117263E+02  0.45145342748E+01  0.73074233802E+02  0.00000000000E+00 0. -1.
          1    1    1    2  502    0 -0.36973886666E+02  0.34653930486E+02  0.55868075857E+03  0.56097428925E+03  0.00000000000E+00 0. -1.
         22    1    3    3    0    0 -0.59310343726E+02 -0.43137158685E+02  0.19414544091E+03  0.20753549951E+03  0.00000000000E+00 0.  1.
         22    1    3    3    0    0  0.31326772839E+02  0.41649345462E+02  0.86891943812E+02  0.10132247812E+03  0.00000000000E+00 0.  1.
</event>
<event>
 7    1  0.5194496E-006  0.9353503E+02  0.7818608E-02  0.1462381E+00
          2   -1    0    0  502    0  0.00000000000E+00  0.00000000000E+00  0.18321168112E+03  0.18321168112E+03  0.00000000000E+00 0. -1.
          1   -1    0    0  501    0 -0.00000000000E+00 -0.00000000000E+00 -0.49970771181E+03  0.49970771181E+03  0.00000000000E+00 0. -1.
         25    2    1    2    0    0 -0.53488919717E+02 -0.92702743731E+02  0.27161072053E+02  0.16678633570E+03  0.12500037885E+03 0.  0.
          2    1    1    2  501    0  0.21738025256E+02  0.91643520902E+01 -0.40630739286E+03  0.40699167631E+03  0.00000000000E+00 0. -1.
          1    1    1    2  502    0  0.31750894461E+02  0.83538391641E+02  0.62650290122E+02  0.10914138092E+03  0.00000000000E+00 0. -1.
         22    1    3    3    0    0  0.32811880485E+02 -0.61012418443E+02  0.28327218643E+02  0.74843610424E+02  0.00000000000E+00 0. -1.
         22    1    3    3    0    0 -0.86300800202E+02 -0.31690325288E+02 -0.11661465902E+01  0.91942725271E+02  0.00000000000E+00 0. -1.
</event>
<event>
 7    1  0.5194496E-006  0.9776411E+02  0.7818608E-02  0.1352629E+00
          2   -1    0    0  502    0  0.00000000000E+00  0.00000000000E+00  0.66201009523E+03  0.66201009523E+03  0.00000000000E+00 0. -1.
          1   -1    0    0  501    0 -0.00000000000E+00 -0.00000000000E+00 -0.59796771678E+03  0.59796771678E+03  0.00000000000E+00 0. -1.
         25    2    1    2    0    0 -0.24678845852E+02  0.99194537436E+02  0.21113621109E+03  0.26580491247E+03  0.12500060067E+03 0.  0.
          2    1    1    2  501    0 -0.45131007843E+02 -0.28513021090E+02 -0.56352903792E+03  0.56605192060E+03  0.00000000000E+00 0. -1.
          1    1    1    2  502    0  0.69809853695E+02 -0.70681516346E+02  0.41643520527E+03  0.42812097895E+03  0.00000000000E+00 0. -1.
         22    1    3    3    0    0  0.23109072816E+01  0.32146935113E+02 -0.95254396953E+01  0.33608030752E+02  0.00000000000E+00 0. -1.
         22    1    3    3    0    0 -0.26989753134E+02  0.67047602322E+02  0.22066165078E+03  0.23219688172E+03  0.00000000000E+00 0. -1.
</event>
<event>
 7    1  0.5194496E-006  0.3733744E+02  0.7818608E-02  0.1616813E+00
          2   -1    0    0  502    0  0.00000000000E+00  0.00000000000E+00  0.11501238478E+04  0.11501238478E+04  0.00000000000E+00 0. -1.
          1   -1    0    0  501    0 -0.00000000000E+00 -0.00000000000E+00 -0.16444600663E+02  0.16444600663E+02  0.00000000000E+00 0. -1.
         25    2    1    2    0    0  0.25127384282E+02  0.40498390335E+02  0.50060662946E+03  0.51817298493E+03  0.12499895918E+03 0.  0.
          2    1    1    2  501    0  0.60824905078E+01 -0.20683642900E+02  0.92195891848E+01  0.23448040411E+02  0.00000000000E+00 0. -1.
          1    1    1    2  502    0 -0.31209874790E+02 -0.19814747435E+02  0.62385302851E+03  0.62494742314E+03  0.00000000000E+00 0. -1.
         22    1    3    3    0    0  0.93315518355E+00 -0.12344732269E+02  0.41212574434E+03  0.41231164468E+03  0.00000000000E+00 0. -1.
         22    1    3    3    0    0  0.24194229099E+02  0.52843122604E+02  0.88480885118E+02  0.10586134025E+03  0.00000000000E+00 0. -1.
</event>
<event>
 7    1  0.5194496E-006  0.5568054E+02  0.7818608E-02  0.1454046E+00
          2   -1    0    0  502    0  0.00000000000E+00  0.00000000000E+00  0.39174967639E+03  0.39174967639E+03  0.00000000000E+00 0. -1.
          1   -1    0    0  501    0 -0.00000000000E+00 -0.00000000000E+00 -0.51051568332E+03  0.51051568332E+03  0.00000000000E+00 0. -1.
         25    2    1    2    0    0  0.11488405513E+02 -0.67801220283E+02 -0.16977584909E+03  0.22176418920E+03  0.12500611084E+03 0.  0.
          2    1    1    2  501    0  0.29476639810E+02  0.30071251137E+02 -0.31119936969E+03  0.31403534855E+03  0.00000000000E+00 0. -1.
          1    1    1    2  502    0 -0.40965045323E+02  0.37729969146E+02  0.36220921185E+03  0.36646582196E+03  0.00000000000E+00 0. -1.
         22    1    3    3    0    0 -0.42232019128E+02  0.14270090445E+02 -0.52164273857E+02  0.68616983233E+02  0.00000000000E+00 0.  1.
         22    1    3    3    0    0  0.53720424641E+02 -0.82071310728E+02 -0.11761157523E+03  0.15314720597E+03  0.00000000000E+00 0.  1.
</event>
<event>
 7    1  0.5194496E-006  0.6005316E+02  0.7818608E-02  0.1416736E+00
          2   -1    0    0  502    0  0.00000000000E+00  0.00000000000E+00  0.49238515393E+03  0.49238515393E+03  0.00000000000E+00 0. -1.
          1   -1    0    0  501    0 -0.00000000000E+00 -0.00000000000E+00 -0.26660851704E+03  0.26660851704E+03  0.00000000000E+00 0. -1.
         25    2    1    2    0    0 -0.53122351686E+02 -0.17651618138E+02 -0.65875754969E+02  0.15198070459E+03  0.12499982241E+03 0.  0.
          2    1    1    2  501    0  0.30035490743E+01  0.51607386332E+02 -0.15132852777E+03  0.15991456140E+03  0.00000000000E+00 0. -1.
          1    1    1    2  502    0  0.50118802612E+02 -0.33955768194E+02  0.44298091963E+03  0.44709840497E+03  0.00000000000E+00 0. -1.
         22    1    3    3    0    0  0.37934411350E+02 -0.25015210110E+02 -0.25453128724E+02  0.52083030472E+02  0.00000000000E+00 0.  1.
         22    1    3    3    0    0 -0.91056763036E+02  0.73635919714E+01 -0.40422626245E+02  0.99897674116E+02  0.00000000000E+00 0.  1.
</event>
<event>
 7    1  0.5194496E-006  0.4570904E+02  0.7818608E-02  0.1482682E+00
          2   -1    0    0  502    0  0.00000000000E+00  0.00000000000E+00  0.49689237432E+03  0.49689237432E+03  0.00000000000E+00 0. -1.
          1   -1    0    0  501    0 -0.00000000000E+00 -0.00000000000E+00 -0.11884900521E+03  0.11884900521E+03  0.00000000000E+00 0. -1.
         25    2    1    2    0    0 -0.45205246218E+01 -0.64379709159E+02  0.11017774475E+03  0.17868703271E+03  0.12499895251E+03 0.  0.
          2    1    1    2  501    0  0.31338908429E+02  0.27603717512E+02 -0.77855900623E+02  0.88349497247E+02  0.00000000000E+00 0. -1.
          1    1    1    2  502    0 -0.26818383807E+02  0.36775991647E+02  0.34572152499E+03  0.34870484957E+03  0.00000000000E+00 0. -1.
         22    1    3    3    0    0  0.51749079204E+01 -0.98737439061E+02  0.55494022645E+02  0.11338186845E+03  0.00000000000E+00 0.  1.
         22    1    3    3    0    0 -0.96954325422E+01  0.34357729902E+02  0.54683722104E+02  0.65305164263E+02  0.00000000000E+00 0.  1.
</event>
<event>
 7    1  0.5194496E-006  0.1299763E+03  0.7818608E-02  0.1366202E+00
          2   -1    0    0  502    0  0.00000000000E+00  0.00000000000E+00  0.76037240581E+03  0.76037240581E+03  0.00000000000E+00 0. -1.
          1   -1    0    0  501    0 -0.00000000000E+00 -0.00000000000E+00 -0.14790889113E+04  0.14790889113E+04  0.00000000000E+00 0. -1.
         25    2    1    2    0    0  0.63886776186E+02  0.12720141058E+03  0.54854026612E+02  0.19721884936E+03  0.12499836511E+03 0.  0.
          2    1    1    2  501    0 -0.35804737936E+02 -0.10964276990E+01 -0.14010970370E+04  0.14015548824E+04  0.00000000000E+00 0. -1.
          1    1    1    2  502    0 -0.28082038249E+02 -0.12610498288E+03  0.62752650492E+03  0.64068758530E+03  0.00000000000E+00 0. -1.
         22    1    3    3    0    0  0.78244075428E+01  0.11997941819E+03  0.69434281024E+02  0.13884308237E+03  0.00000000000E+00 0.  1.
         22    1    3    3    0    0  0.56062368643E+02  0.72219923905E+01 -0.14580254413E+02  0.58375766982E+02  0.00000000000E+00 0.  1.
</event>
<event>
 7    1  0.5194496E-006  0.3827655E+02  0.7818608E-02  0.1567847E+00
          2   -1    0    0  502    0  0.00000000000E+00  0.00000000000E+00  0.23409785586E+04  0.23409785586E+04  0.00000000000E+00 0. -1.
          1   -1    0    0  501    0 -0.00000000000E+00 -0.00000000000E+00 -0.76143263834E+01  0.76143263834E+01  0.00000000000E+00 0. -1.
         25    2    1    2    0    0 -0.56384732954E+01 -0.12378870836E+02  0.10599904694E+04  0.10674219983E+04  0.12499959344E+03 0.  0.
          2    1    1    2  501    0  0.27609078687E+02  0.30248448697E+02  0.10879658573E+03  0.11624941695E+03  0.00000000000E+00 0. -1.
          1    1    1    2  502    0 -0.21970605391E+02 -0.17869577861E+02  0.11645771771E+04  0.11649214697E+04  0.00000000000E+00 0. -1.
         22    1    3    3    0    0 -0.27064715834E+02  0.40475910979E+02  0.78869507881E+03  0.79019663726E+03  0.00000000000E+00 0. -1.
         22    1    3    3    0    0  0.21426242538E+02 -0.52854781814E+02  0.27129539062E+03  0.27722536104E+03  0.00000000000E+00 0. -1.
</event>
<event>
 7    1  0.5194496E-006  0.1067765E+03  0.7818608E-02  0.1303158E+00
          2   -1    0    0  502    0  0.00000000000E+00  0.00000000000E+00  0.76314474733E+03  0.76314474733E+03  0.00000000000E+00 0. -1.
          1   -1    0    0  501    0 -0.00000000000E+00 -0.00000000000E+00 -0.72722545166E+02  0.72722545166E+02  0.00000000000E+00 0. -1.
         25    2    1    2    0    0 -0.63147474010E+02 -0.13767197452E+02  0.27217912235E+03  0.30640782383E+03  0.12500856235E+03 0.  0.
          2    1    1    2  501    0 -0.68937156082E+02  0.31145109035E+02 -0.14193858164E+02  0.76966323253E+02  0.00000000000E+00 0. -1.
          1    1    1    2  502    0  0.13208463009E+03 -0.17377911583E+02  0.43243693798E+03  0.45249314542E+03  0.00000000000E+00 0. -1.
         22    1    3    3    0    0  0.35361772774E+01  0.45199753547E+02  0.13909866566E+03  0.14630092637E+03  0.00000000000E+00 0. -1.
         22    1    3    3    0    0 -0.66683651288E+02 -0.58966950998E+02  0.13308045669E+03  0.16010689745E+03  0.00000000000E+00 0. -1.
</event>
<event>
 7    1  0.5194496E-006  0.7779086E+02  0.7818608E-02  0.1402823E+00
          2   -1    0    0  502    0  0.00000000000E+00  0.00000000000E+00  0.20223684721E+03  0.20223684721E+03  0.00000000000E+00 0. -1.
          1   -1    0    0  501    0 -0.00000000000E+00 -0.00000000000E+00 -0.18434691912E+04  0.18434691912E+04  0.00000000000E+00 0. -1.
         25    2    1    2    0    0  0.10464374094E+02 -0.74327046682E+02 -0.13704413963E+03  0.20009875428E+03  0.12499760903E+03 0.  0.
          2    1    1    2  501    0 -0.44353162775E+02  0.34305105456E+01 -0.16655421915E+04  0.16661361778E+04  0.00000000000E+00 0. -1.
          1    1    1    2  502    0  0.33888788681E+02  0.70896536137E+02  0.16135398713E+03  0.17947110630E+03  0.00000000000E+00 0. -1.
         22    1    3    3    0    0  0.22685802805E+02 -0.86585091034E+02 -0.34217179462E+02  0.95825043744E+02  0.00000000000E+00 0. -1.
         22    1    3    3    0    0 -0.12221428711E+02  0.12258044351E+02 -0.10282696017E+03  0.10427371053E+03  0.00000000000E+00 0. -1.
</event>
<event>
 7    1  0.5194496E-006  0.8178821E+02  0.7818608E-02  0.1381349E+00
          2   -1    0    0  502    0  0.00000000000E+00  0.00000000000E+00  0.20167328239E+04  0.20167328239E+04  0.00000000000E+00 0. -1.
          1   -1    0    0  501    0 -0.00000000000E+00 -0.00000000000E+00 -0.77515728360E+02  0.77515728360E+02  0.00000000000E+00 0. -1.
         25    2    1    2    0    0  0.26135262170E+02 -0.49994296771E+02  0.34652675207E+03  0.37267611663E+03  0.12499686541E+03 0.  0.
          2    1    1    2  501    0  0.11057876976E+02  0.83789053444E+02 -0.36174971465E+02  0.91932098207E+02  0.00000000000E+00 0. -1.
          1    1    1    2  502    0 -0.37193139147E+02 -0.33794756673E+02  0.16288653150E+04  0.16296403375E+04  0.00000000000E+00 0. -1.
         22    1    3    3    0    0 -0.17357374081E+02 -0.81026271875E+02  0.23039189116E+03  0.24484068020E+03  0.00000000000E+00 0.  1.
         22    1    3    3    0    0  0.43492636252E+02  0.31031975104E+02  0.11613486091E+03  0.12783543643E+03  0.00000000000E+00 0.  1.
</event>
<event>
 7    1  0.5194496E-006  0.9596599E+02  0.7818608E-02  0.1446609E+00
          2   -1    0    0  502    0  0.00000000000E+00  0.00000000000E+00  0.10479161826E+04  0.10479161826E+04  0.00000000000E+00 0. -1.
          1   -1    0    0  501    0 -0.00000000000E+00 -0.00000000000E+00 -0.10417615771E+03  0.10417615771E+03  0.00000000000E+00 0. -1.
         25    2    1    2    0    0  0.94563124664E+02 -0.42261295507E+02  0.49450347716E+03  0.52046772142E+03  0.12499903389E+03 0.  0.
          2    1    1    2  501    0 -0.94312052204E+02  0.16455133461E+02 -0.65655034490E+02  0.11608668383E+03  0.00000000000E+00 0. -1.
          1    1    1    2  502    0 -0.25107246014E+00  0.25806162046E+02  0.51489158220E+03  0.51553793503E+03  0.00000000000E+00 0. -1.
         22    1    3    3    0    0  0.79685508471E+02  0.26804382796E+01  0.12717629710E+03  0.15010255013E+03  0.00000000000E+00 0.  1.
         22    1    3    3    0    0  0.14877616193E+02 -0.44941733786E+02  0.36732718006E+03  0.37036517129E+03  0.00000000000E+00 0.  1.
</event>
<event>
 7    1  0.5194496E-006  0.1702227E+03  0.7818608E-02  0.1218206E+00
          2   -1    0    0  502    0  0.00000000000E+00  0.00000000000E+00  0.12938837994E+04  0.12938837994E+04  0.00000000000E+00 0. -1.
          1   -1    0    0  501    0 -0.00000000000E+00 -0.00000000000E+00 -0.93414841346E+03  0.93414841346E+03  0.00000000000E+00 0. -1.
         25    2    1    2    0    0 -0.98029816657E+02 -0.80174915684E+02 -0.25662552683E+02  0.17978021348E+03  0.12499798595E+03 0.  0.
          2    1    1    2  501    0  0.41486196424E+02  0.17377867390E+03 -0.81932378977E+03  0.83857713091E+03  0.00000000000E+00 0. -1.
          1    1    1    2  502    0  0.56543620233E+02 -0.93603758218E+02  0.12047217284E+04  0.12096748685E+04  0.00000000000E+00 0. -1.
         22    1    3    3    0    0 -0.53795733471E+02 -0.63276195447E+02 -0.74633242755E+02  0.11166010377E+03  0.00000000000E+00 0. -1.
         22    1    3    3    0    0 -0.44234083186E+02 -0.16898720237E+02  0.48970690072E+02  0.68120109711E+02  0.00000000000E+00 0. -1.
</event>
<event>
 7    1  0.5194496E-006  0.2942291E+03  0.7818608E-02  0.1138343E+00
          2   -1    0    0  502    0  0.00000000000E+00  0.00000000000E+00  0.14599188374E+04  0.14599188374E+04  0.00000000000E+00 0. -1.
          1   -1    0    0  501    0 -0.00000000000E+00 -0.00000000000E+00 -0.55151087717E+03  0.55151087717E+03  0.00000000000E+00 0. -1.
         25    2    1    2    0    0 -0.45908370460E+02  0.43504113736E+03  0.41093494794E+03  0.61307477253E+03  0.12499910241E+03 0.  0.
          2    1    1    2  501    0  0.33844359191E+02 -0.27968345719E+03 -0.39900241100E+03  0.48843750968E+03  0.00000000000E+00 0. -1.
          1    1    1    2  502    0  0.12064011268E+02 -0.15535768017E+03  0.89647542332E+03  0.90991743239E+03  0.00000000000E+00 0. -1.
         22    1    3    3    0    0 -0.56601482499E+02  0.99078971319E+02  0.14470369613E+03  0.18428111692E+03  0.00000000000E+00 0. -1.
         22    1    3    3    0    0  0.10693112040E+02  0.33596216604E+03  0.26623125181E+03  0.42879365561E+03  0.00000000000E+00 0. -1.
</event>
<event>
 7    1  0.5194496E-006  0.7548078E+02  0.7818608E-02  0.1406254E+00
          2   -1    0    0  502    0  0.00000000000E+00  0.00000000000E+00  0.22212097826E+03  0.22212097826E+03  0.00000000000E+00 0. -1.
          1   -1    0    0  501    0 -0.00000000000E+00 -0.00000000000E+00 -0.12027317295E+04  0.12027317295E+04  0.00000000000E+00 0. -1.
         25    2    1    2    0    0 -0.10510499991E+03  0.51971268785E+02 -0.27579304935E+03  0.32470668350E+03  0.12499820181E+03 0.  0.
          2    1    1    2  501    0  0.63368391792E+02 -0.36173253252E+02 -0.89846505755E+03  0.90142305105E+03  0.00000000000E+00 0. -1.
          1    1    1    2  502    0  0.41736608121E+02 -0.15798015533E+02  0.19364735563E+03  0.19872297324E+03  0.00000000000E+00 0. -1.
         22    1    3    3    0    0 -0.78040502598E+02  0.84926817106E+02 -0.13481657485E+03  0.17742151269E+03  0.00000000000E+00 0.  1.
         22    1    3    3    0    0 -0.27064497315E+02 -0.32955548322E+02 -0.14097647450E+03  0.14728517082E+03  0.00000000000E+00 0.  1.
</event>
<event>
 7    1  0.5194496E-006  0.7008844E+02  0.7818608E-02  0.1402833E+00
          2   -1    0    0  502    0  0.00000000000E+00  0.00000000000E+00  0.19847483332E+04  0.19847483332E+04  0.00000000000E+00 0. -1.
          1   -1    0    0  501    0 -0.00000000000E+00 -0.00000000000E+00 -0.36336686003E+03  0.36336686003E+03  0.00000000000E+00 0. -1.
         25    2    1    2    0    0 -0.82354984919E+02 -0.67443671938E+02  0.99432613165E+02  0.19194912214E+03  0.12500651385E+03 0.  0.
          2    1    1    2  501    0  0.15814774913E+02  0.46769087226E+02 -0.31452228733E+03  0.31837356023E+03  0.00000000000E+00 0. -1.
          1    1    1    2  502    0  0.66540210006E+02  0.20674584713E+02  0.18364711473E+04  0.18377925109E+04  0.00000000000E+00 0. -1.
         22    1    3    3    0    0  0.59438956272E+01  0.96924482184E+01 -0.20993304283E+02  0.23874510935E+02  0.00000000000E+00 0. -1.
         22    1    3    3    0    0 -0.88298880546E+02 -0.77136120157E+02  0.12042591745E+03  0.16807461121E+03  0.00000000000E+00 0. -1.
</event>
<event>
 7    1  0.5194496E-006  0.9061515E+02  0.7818608E-02  0.1360689E+00
          2   -1    0    0  502    0  0.00000000000E+00  0.00000000000E+00  0.64592204155E+02  0.64592204155E+02  0.00000000000E+00 0. -1.
          1   -1    0    0  501    0 -0.00000000000E+00 -0.00000000000E+00 -0.19201685177E+04  0.19201685177E+04  0.00000000000E+00 0. -1.
         25    2    1    2    0    0  0.81763638400E+02  0.61699043615E+01 -0.12942811833E+03  0.19773680787E+03  0.12499938834E+03 0.  0.
          2    1    1    2  501    0 -0.21087054189E+01  0.53763438344E+02 -0.16733611273E+04  0.16742259155E+04  0.00000000000E+00 0. -1.
          1    1    1    2  502    0 -0.79654932981E+02 -0.59933342705E+02 -0.52787067939E+02  0.11279799846E+03  0.00000000000E+00 0. -1.
         22    1    3    3    0    0  0.10116755341E+03 -0.26548715588E+02 -0.65690976687E+02  0.12351118403E+03  0.00000000000E+00 0. -1.
         22    1    3    3    0    0 -0.19403915009E+02  0.32718619949E+02 -0.63737141646E+02  0.74225623839E+02  0.00000000000E+00 0. -1.
</event>
<event>
 7    1  0.5194496E-006  0.1156931E+03  0.7818608E-02  0.1327011E+00
          2   -1    0    0  502    0  0.00000000000E+00  0.00000000000E+00  0.13320722084E+04  0.13320722084E+04  0.00000000000E+00 0. -1.
          1   -1    0    0  501    0 -0.00000000000E+00 -0.00000000000E+00 -0.91829322386E+02  0.91829322386E+02  0.00000000000E+00 0. -1.
         25    2    1    2    0    0 -0.17973583450E+02  0.11759656351E+03  0.38787396769E+02  0.17686532734E+03  0.12499952166E+03 0.  0.
          2    1    1    2  501    0 -0.50893419202E+02 -0.24129057027E+02  0.19817309721E+02  0.59708268068E+02  0.00000000000E+00 0. -1.
          1    1    1    2  502    0  0.68867002652E+02 -0.93467506483E+02  0.11816381795E+04  0.11873279353E+04  0.00000000000E+00 0. -1.
         22    1    3    3    0    0 -0.25844583891E+02  0.13199145662E+03 -0.27420813888E+00  0.13449818708E+03  0.00000000000E+00 0. -1.
         22    1    3    3    0    0  0.78710004415E+01 -0.14394893112E+02  0.39061604907E+02  0.42367140258E+02  0.00000000000E+00 0. -1.
</event>
<event>
 7    1  0.5194496E-006  0.1606268E+03  0.7818608E-02  0.1237764E+00
          2   -1    0    0  502    0  0.00000000000E+00  0.00000000000E+00  0.36257496716E+03  0.36257496716E+03  0.00000000000E+00 0. -1.
          1   -1    0    0  501    0 -0.00000000000E+00 -0.00000000000E+00 -0.45736160277E+03  0.45736160277E+03  0.00000000000E+00 0. -1.
         25    2    1    2    0    0 -0.82773430232E+02 -0.65188787961E+02 -0.16808902470E+03  0.23447406534E+03  0.12499259283E+03 0.  0.
          2    1    1    2  501    0 -0.84056481312E+02  0.43474544086E+02 -0.22438510271E+03  0.24352454158E+03  0.00000000000E+00 0. -1.
          1    1    1    2  502    0  0.16682991154E+03  0.21714243875E+02  0.29768749180E+03  0.34193796301E+03  0.00000000000E+00 0. -1.
         22    1    3    3    0    0 -0.10201676596E+01 -0.65527502609E+02 -0.25920513098E+02  0.70475295952E+02  0.00000000000E+00 0. -1.
         22    1    3    3    0    0 -0.81753262573E+02  0.33871464797E+00 -0.14216851160E+03  0.16399876938E+03  0.00000000000E+00 0. -1.
</event>
<event>
 7    1  0.5194496E-006  0.1521541E+03  0.7818608E-02  0.1362746E+00
          2   -1    0    0  502    0  0.00000000000E+00  0.00000000000E+00  0.13756733966E+04  0.13756733966E+04  0.00000000000E+00 0. -1.
          1   -1    0    0  501    0 -0.00000000000E+00 -0.00000000000E+00 -0.90703036481E+02  0.90703036481E+02  0.00000000000E+00 0. -1.
         25    2    1    2    0    0  0.17159559683E+03 -0.50540336776E+02  0.20753554997E+03  0.30115577099E+03  0.12499767761E+03 0.  0.
          2    1    1    2  501    0 -0.31476187079E+02 -0.11115464274E+01 -0.32515924840E+02  0.45268877352E+02  0.00000000000E+00 0. -1.
          1    1    1    2  502    0 -0.14011940975E+03  0.51651883203E+02  0.11099507350E+04  0.11199517848E+04  0.00000000000E+00 0. -1.
         22    1    3    3    0    0  0.13759037581E+03 -0.61978341880E+02  0.84408466173E+02  0.17290811300E+03  0.00000000000E+00 0. -1.
         22    1    3    3    0    0  0.34005221023E+02  0.11438005105E+02  0.12312708380E+03  0.12824765800E+03  0.00000000000E+00 0. -1.
</event>
<event>
 7    1  0.5194496E-006  0.1090211E+03  0.7818608E-02  0.1367597E+00
          2   -1    0    0  502    0  0.00000000000E+00  0.00000000000E+00  0.13113886455E+04  0.13113886455E+04  0.00000000000E+00 0. -1.
          1   -1    0    0  501    0 -0.00000000000E+00 -0.00000000000E+00 -0.65828605204E+03  0.65828605204E+03  0.00000000000E+00 0. -1.
         25    2    1    2    0    0 -0.14371186480E+03 -0.83862366976E+01  0.83611381390E+02  0.20818244532E+03  0.12500255353E+03 0.  0.
          2    1    1    2  501    0  0.10495750832E+03  0.25123015808E+02 -0.59072793013E+03  0.60050539707E+03  0.00000000000E+00 0. -1.
          1    1    1    2  502    0  0.38754356488E+02 -0.16736779111E+02  0.11602191422E+04  0.11609868551E+04  0.00000000000E+00 0. -1.
         22    1    3    3    0    0 -0.84857927589E+02  0.51749114173E+02  0.73113085167E+02  0.12338704111E+03  0.00000000000E+00 0. -1.
         22    1    3    3    0    0 -0.58853937215E+02 -0.60135350871E+02  0.10498296223E+02  0.84795404202E+02  0.00000000000E+00 0. -1.
</event>
<event>
 7    1  0.5194496E-006  0.2215135E+03  0.7818608E-02  0.1301592E+00
          2   -1    0    0  502    0  0.00000000000E+00  0.00000000000E+00  0.76716674059E+03  0.76716674059E+03  0.00000000000E+00 0. -1.
          1   -1    0    0  501    0 -0.00000000000E+00 -0.00000000000E+00 -0.48435426259E+03  0.48435426259E+03  0.00000000000E+00 0. -1.
         25    2    1    2    0    0  0.13147990012E+03 -0.17250342811E+03 -0.43760947937E+02  0.25413452018E+03  0.12499974774E+03 0.  0.
          2    1    1    2  501    0 -0.16315262028E+03  0.15339175624E+03 -0.29741923619E+03  0.37229828155E+03  0.00000000000E+00 0. -1.
          1    1    1    2  502    0  0.31672720165E+02  0.19111671874E+02  0.62399266213E+03  0.62508820146E+03  0.00000000000E+00 0. -1.
         22    1    3    3    0    0  0.30607781262E+01 -0.10041073743E+03  0.14582740449E+00  0.10045748265E+03  0.00000000000E+00 0.  1.
         22    1    3    3    0    0  0.12841912199E+03 -0.72092690675E+02 -0.43906775341E+02  0.15367703752E+03  0.00000000000E+00 0.  1.
</event>
<event>
 7    1  0.5194496E-006  0.5617324E+02  0.7818608E-02  0.1453468E+00
          2   -1    0    0  502    0  0.00000000000E+00  0.00000000000E+00  0.78257899732E+03  0.78257899732E+03  0.00000000000E+00 0. -1.
          1   -1    0    0  501    0 -0.00000000000E+00 -0.00000000000E+00 -0.90766009053E+03  0.90766009053E+03  0.00000000000E+00 0. -1.
         25    2    1    2    0    0 -0.45539922707E+00 -0.45939070325E+02  0.61277441147E+03  0.62707895937E+03  0.12499974540E+03 0.  0.
          2    1    1    2  501    0 -0.40820869640E+02  0.38640163950E+02 -0.89691280717E+03  0.89867234815E+03  0.00000000000E+00 0. -1.
          1    1    1    2  502    0  0.41276268867E+02  0.72989063757E+01  0.15905730249E+03  0.16448778034E+03  0.00000000000E+00 0. -1.
         22    1    3    3    0    0 -0.36648449523E+01 -0.87870519349E+02  0.34557813976E+03  0.35659347994E+03  0.00000000000E+00 0. -1.
         22    1    3    3    0    0  0.32094457252E+01  0.41931449024E+02  0.26719627172E+03  0.27048547942E+03  0.00000000000E+00 0. -1.
</event>
<event>
 7    1  0.5194496E-006  0.3561579E+02  0.7818608E-02  0.1607421E+00
          2   -1    0    0  502    0  0.00000000000E+00  0.00000000000E+00  0.19618612141E+03  0.19618612141E+03  0.00000000000E+00 0. -1.
          1   -1    0    0  501    0 -0.00000000000E+00 -0.00000000000E+00 -0.16245552021E+03  0.16245552021E+03  0.00000000000E+00 0. -1.
         25    2    1    2    0    0 -0.39118445616E+02  0.28669916887E+02  0.82789643364E+01  0.13433241752E+03  0.12499776088E+03 0.  0.
          2    1    1    2  501    0  0.34901400296E+02 -0.51502744566E+01 -0.95089236412E+02  0.10142285714E+03  0.00000000000E+00 0. -1.
          1    1    1    2  502    0  0.42170453202E+01 -0.23519642431E+02  0.12054087328E+03  0.12288636695E+03  0.00000000000E+00 0. -1.
         22    1    3    3    0    0 -0.32297266558E+02 -0.46453203272E+02  0.15199080482E+02  0.58583492290E+02  0.00000000000E+00 0.  1.
         22    1    3    3    0    0 -0.68211790583E+01  0.75123120160E+02 -0.69201161456E+01  0.75748925232E+02  0.00000000000E+00 0.  1.
</event>
<event>
 7    1  0.5194496E-006  0.4990398E+02  0.7818608E-02  0.1519910E+00
          2   -1    0    0  502    0  0.00000000000E+00  0.00000000000E+00  0.37448641228E+03  0.37448641228E+03  0.00000000000E+00 0. -1.
          1   -1    0    0  501    0 -0.00000000000E+00 -0.00000000000E+00 -0.22773508082E+03  0.22773508082E+03  0.00000000000E+00 0. -1.
         25    2    1    2    0    0  0.85978934951E+01 -0.19128239935E+02  0.24175826330E+03  0.27296857132E+03  0.12499987888E+03 0.  0.
          2    1    1    2  501    0 -0.26860657856E+02  0.42461254997E+02 -0.20720426807E+03  0.21320896281E+03  0.00000000000E+00 0. -1.
          1    1    1    2  502    0  0.18262764361E+02 -0.23333015062E+02  0.11219733623E+03  0.11604395896E+03  0.00000000000E+00 0. -1.
         22    1    3    3    0    0 -0.16738360890E+02  0.10091296789E+02  0.23234431159E+03  0.23316493331E+03  0.00000000000E+00 0. -1.
         22    1    3    3    0    0  0.25336254385E+02 -0.29219536724E+02  0.94139517156E+01  0.39803638019E+02  0.00000000000E+00 0. -1.
</event>
<event>
 7    1  0.5194496E-006  0.1316515E+03  0.7818608E-02  0.1259502E+00
          2   -1    0    0  502    0  0.00000000000E+00  0.00000000000E+00  0.11257326318E+04  0.11257326318E+04  0.00000000000E+00 0. -1.
          1   -1    0    0  501    0 -0.00000000000E+00 -0.00000000000E+00 -0.41130211582E+03  0.41130211582E+03  0.00000000000E+00 0. -1.
         25    2    1    2    0    0 -0.16191981147E+03  0.10033317468E+03  0.93633308737E+01  0.22803122712E+03  0.12500318912E+03 0.  0.
          2    1    1    2  501    0  0.12590042209E+03 -0.14723550290E+02 -0.28639897326E+03  0.31319653750E+03  0.00000000000E+00 0. -1.
          1    1    1    2  502    0  0.36019389371E+02 -0.85609624391E+02  0.99146615841E+03  0.99580698304E+03  0.00000000000E+00 0. -1.
         22    1    3    3    0    0 -0.84638873936E+02  0.46764601958E+02  0.67090554282E+02  0.11769371033E+03  0.00000000000E+00 0. -1.
         22    1    3    3    0    0 -0.77280937529E+02  0.53568572723E+02 -0.57727223408E+02  0.11033751679E+03  0.00000000000E+00 0. -1.
</event>
<event>
 7    1  0.5194496E-006  0.5492161E+02  0.7818608E-02  0.1512393E+00
          2   -1    0    0  502    0  0.00000000000E+00  0.00000000000E+00  0.73524909383E+02  0.73524909383E+02  0.00000000000E+00 0. -1.
          1   -1    0    0  501    0 -0.00000000000E+00 -0.00000000000E+00 -0.40309871863E+03  0.40309871863E+03  0.00000000000E+00 0. -1.
         25    2    1    2    0    0  0.62788220093E+02 -0.35050194009E+02 -0.61334244466E+02  0.15671002158E+03  0.12500105855E+03 0.  0.
          2    1    1    2  501    0 -0.35164623258E+02  0.41286290471E+02 -0.28288182749E+03  0.28803339534E+03  0.00000000000E+00 0. -1.
          1    1    1    2  502    0 -0.27623596835E+02 -0.62360964619E+01  0.14642262712E+02  0.31880211081E+02  0.00000000000E+00 0. -1.
         22    1    3    3    0    0  0.17647318994E+02 -0.63009328658E+01 -0.92769016875E+02  0.94642591440E+02  0.00000000000E+00 0. -1.
         22    1    3    3    0    0  0.45140901099E+02 -0.28749261143E+02  0.31434772409E+02  0.62067430144E+02  0.00000000000E+00 0. -1.
</event>
<event>
 7    1  0.1045155E-005  0.7894179E+02  0.7818608E-02  0.1363944E+00
          2   -1    0    0  502    0  0.00000000000E+00  0.00000000000E+00  0.15921463292E+04  0.15921463292E+04  0.00000000000E+00 0. -1.
          1   -1    0    0  501    0 -0.00000000000E+00 -0.00000000000E+00 -0.10931707626E+04  0.10931707626E+04  0.00000000000E+00 0. -1.
         25    2    1    2    0    0  0.13552309680E+03  0.14093645081E+02 -0.20637584600E+03  0.27708492397E+03  0.12497969708E+03 0.  0.
          2    1    1    2  501    0 -0.75893351288E+02 -0.65861416009E+01 -0.84915459891E+03  0.85256478398E+03  0.00000000000E+00 0. -1.
          1    1    1    2  502    0 -0.59629745513E+02 -0.75075034798E+01  0.15545060116E+04  0.15556673838E+04  0.00000000000E+00 0. -1.
         22    1    3    3    0    0  0.61906139683E+02  0.26469581079E+02 -0.11372475533E+02  0.68281344836E+02  0.00000000000E+00 0. -1.
         22    1    3    3    0    0  0.73616957118E+02 -0.12375935998E+02 -0.19500337047E+03  0.20880357914E+03  0.00000000000E+00 0. -1.
</event>
<event>
 7    1  0.5194496E-006  0.9164241E+02  0.7818608E-02  0.1339076E+00
          2   -1    0    0  502    0  0.00000000000E+00  0.00000000000E+00  0.34644444740E+04  0.34644444740E+04  0.00000000000E+00 0. -1.
          1   -1    0    0  501    0 -0.00000000000E+00 -0.00000000000E+00 -0.14078193875E+03  0.14078193875E+03  0.00000000000E+00 0. -1.
         25    2    1    2    0    0  0.13812766585E+03 -0.45935570796E+02  0.91299270456E+03  0.93293691010E+03  0.12500508358E+03 0.  0.
          2    1    1    2  501    0 -0.90772355326E+02  0.29178396378E+01 -0.11459211838E+03  0.14621726258E+03  0.00000000000E+00 0. -1.
          1    1    1    2  502    0 -0.47355310519E+02  0.43017731158E+02  0.25252619491E+04  0.25260722401E+04  0.00000000000E+00 0. -1.
         22    1    3    3    0    0  0.54428908945E+02 -0.80432749093E+02  0.37451604008E+03  0.38690334391E+03  0.00000000000E+00 0.  1.
         22    1    3    3    0    0  0.83698756900E+02  0.34497178297E+02  0.53847666448E+03  0.54603356619E+03  0.00000000000E+00 0.  1.
</event>
<event>
 7    1  0.5194496E-006  0.7042684E+02  0.7818608E-02  0.1492601E+00
          2   -1    0    0  502    0  0.00000000000E+00  0.00000000000E+00  0.57357265900E+03  0.57357265900E+03  0.00000000000E+00 0. -1.
          1   -1    0    0  501    0 -0.00000000000E+00 -0.00000000000E+00 -0.30234630810E+03  0.30234630810E+03  0.00000000000E+00 0. -1.
         25    2    1    2    0    0 -0.21136863496E+02  0.40134583528E+02 -0.24235434503E+03  0.27643728785E+03  0.12499757503E+03 0.  0.
          2    1    1    2  501    0 -0.11237034928E+02  0.22655963850E+02 -0.36763431015E+02  0.44621894984E+02  0.00000000000E+00 0. -1.
          1    1    1    2  502    0  0.32373898423E+02 -0.62790547378E+02  0.55034412694E+03  0.55485978427E+03  0.00000000000E+00 0. -1.
         22    1    3    3    0    0  0.37507997504E+02  0.40275021580E+02 -0.19004275665E+03  0.19785140029E+03  0.00000000000E+00 0. -1.
         22    1    3    3    0    0 -0.58644861000E+02 -0.14043805175E+00 -0.52311588381E+02  0.78585887559E+02  0.00000000000E+00 0. -1.
</event>
<event>
 7    1  0.5194496E-006  0.5790493E+02  0.7818608E-02  0.1427941E+00
          2   -1    0    0  502    0  0.00000000000E+00  0.00000000000E+00  0.15025626612E+03  0.15025626612E+03  0.00000000000E+00 0. -1.
          1   -1    0    0  501    0 -0.00000000000E+00 -0.00000000000E+00 -0.40313440418E+03  0.40313440418E+03  0.00000000000E+00 0. -1.
         25    2    1    2    0    0  0.76252979191E+01 -0.14026099143E+02 -0.12193385957E+02  0.12660792543E+03  0.12500404592E+03 0.  0.
          2    1    1    2  501    0  0.14324114931E+02 -0.47069222673E+02 -0.32029896699E+03  0.32405573632E+03  0.00000000000E+00 0. -1.
          1    1    1    2  502    0 -0.21949412850E+02  0.61095321816E+02  0.79614214882E+02  0.10272700854E+03  0.00000000000E+00 0. -1.
         22    1    3    3    0    0 -0.38958276343E+02 -0.20786547397E+02  0.37665845327E+02  0.58039157062E+02  0.00000000000E+00 0.  1.
         22    1    3    3    0    0  0.46583574262E+02  0.67604482543E+01 -0.49859231285E+02  0.68568768371E+02  0.00000000000E+00 0.  1.
</event>
<event>
 7    1  0.6113688E-006  0.9299447E+02  0.7818608E-02  0.1411267E+00
          2   -1    0    0  502    0  0.00000000000E+00  0.00000000000E+00  0.14939212398E+04  0.14939212398E+04  0.00000000000E+00 0. -1.
          1   -1    0    0  501    0 -0.00000000000E+00 -0.00000000000E+00 -0.48196151097E+03  0.48196151097E+03  0.00000000000E+00 0. -1.
         25    2    1    2    0    0 -0.31475735302E+02  0.95360564281E+02 -0.18714313262E+03  0.24644008393E+03  0.12500321496E+03 0.  0.
          2    1    1    2  501    0  0.34744913543E+02 -0.24320605450E+01 -0.26254238436E+03  0.26484264672E+03  0.00000000000E+00 0. -1.
          1    1    1    2  502    0 -0.32691782414E+01 -0.92928503736E+02  0.14616452458E+04  0.14646000201E+04  0.00000000000E+00 0. -1.
         22    1    3    3    0    0 -0.48946549440E+02  0.14994100593E+01 -0.12032367605E+03  0.12990688954E+03  0.00000000000E+00 0.  1.
         22    1    3    3    0    0  0.17470814138E+02  0.93861154222E+02 -0.66819456569E+02  0.11653319439E+03  0.00000000000E+00 0.  1.
</event>
<event>
 7    1  0.5194496E-006  0.1641905E+03  0.7818608E-02  0.1230867E+00
          2   -1    0    0  502    0  0.00000000000E+00  0.00000000000E+00  0.19474953623E+03  0.19474953623E+03  0.00000000000E+00 0. -1.
          1   -1    0    0  501    0 -0.00000000000E+00 -0.00000000000E+00 -0.23627281973E+04  0.23627281973E+04  0.00000000000E+00 0. -1.
         25    2    1    2    0    0  0.15889092605E+03  0.11073410087E+02 -0.56205653734E+03  0.59741218317E+03  0.12499927458E+03 0.  0.
          2    1    1    2  501    0 -0.16924545684E+02 -0.97910567638E+02 -0.17421615104E+04  0.17449927358E+04  0.00000000000E+00 0. -1.
          1    1    1    2  502    0 -0.14196638036E+03  0.86837157551E+02  0.13623938669E+03  0.21507281458E+03  0.00000000000E+00 0. -1.
         22    1    3    3    0    0  0.13623959993E+03  0.43970223248E+02 -0.30090867482E+03  0.33322760946E+03  0.00000000000E+00 0.  1.
         22    1    3    3    0    0  0.22651326113E+02 -0.32896813160E+02 -0.26114786252E+03  0.26418457371E+03  0.00000000000E+00 0.  1.
</event>
<event>
 7    1  0.5194496E-006  0.5641257E+02  0.7818608E-02  0.1458568E+00
          2   -1    0    0  502    0  0.00000000000E+00  0.00000000000E+00  0.27189087861E+04  0.27189087861E+04  0.00000000000E+00 0. -1.
          1   -1    0    0  501    0 -0.00000000000E+00 -0.00000000000E+00 -0.23120175088E+03  0.23120175088E+03  0.00000000000E+00 0. -1.
         25    2    1    2    0    0  0.30453102305E+02 -0.61391102987E+02  0.91809891021E+02  0.16956076511E+03  0.12500215203E+03 0.  0.
          2    1    1    2  501    0 -0.49961719184E+02  0.26227844311E+02 -0.18802760750E+03  0.19631213509E+03  0.00000000000E+00 0. -1.
          1    1    1    2  502    0  0.19508616879E+02  0.35163258675E+02  0.25839247517E+04  0.25842376367E+04  0.00000000000E+00 0. -1.
         22    1    3    3    0    0 -0.46271885697E+02 -0.34332255127E+01  0.29758268369E+02  0.55121946443E+02  0.00000000000E+00 0. -1.
         22    1    3    3    0    0  0.76724988002E+02 -0.57957877474E+02  0.62051622651E+02  0.11443881867E+03  0.00000000000E+00 0. -1.
</event>
<event>
 7    1  0.5194496E-006  0.6576338E+02  0.7818608E-02  0.1469503E+00
          2   -1    0    0  502    0  0.00000000000E+00  0.00000000000E+00  0.62861103334E+02  0.62861103334E+02  0.00000000000E+00 0. -1.
          1   -1    0    0  501    0 -0.00000000000E+00 -0.00000000000E+00 -0.81332482788E+03  0.81332482788E+03  0.00000000000E+00 0. -1.
         25    2    1    2    0    0  0.17963697097E+02  0.84468966045E+02 -0.92590605285E+02  0.17791699681E+03  0.12499494761E+03 0.  0.
          2    1    1    2  501    0  0.79095942197E+01 -0.30878151646E+02 -0.63294819598E+03  0.63375029840E+03  0.00000000000E+00 0. -1.
          1    1    1    2  502    0 -0.25873291317E+02 -0.53590814399E+02 -0.24924923279E+02  0.64518636005E+02  0.00000000000E+00 0. -1.
         22    1    3    3    0    0  0.24725179582E+02  0.29125301638E+02 -0.11242479722E+03  0.11873901099E+03  0.00000000000E+00 0. -1.
         22    1    3    3    0    0 -0.67614824842E+01  0.55343664407E+02  0.19834191936E+02  0.59177985815E+02  0.00000000000E+00 0. -1.
</event>
<event>
 7    1  0.5194496E-006  0.4789179E+02  0.7818608E-02  0.1525024E+00
          2   -1    0    0  502    0  0.00000000000E+00  0.00000000000E+00  0.81468684978E+03  0.81468684978E+03  0.00000000000E+00 0. -1.
          1   -1    0    0  501    0 -0.00000000000E+00 -0.00000000000E+00 -0.38237335421E+03  0.38237335421E+03  0.00000000000E+00 0. -1.
         25    2    1    2    0    0 -0.54376217617E+02  0.54749812468E+02  0.78142943260E+02  0.16637453750E+03  0.12497940687E+03 0.  0.
          2    1    1    2  501    0  0.20258902530E+02 -0.21910070270E+02 -0.33678744195E+03  0.33810686974E+03  0.00000000000E+00 0. -1.
          1    1    1    2  502    0  0.34117315087E+02 -0.32839742199E+02  0.69095799426E+03  0.69257879674E+03  0.00000000000E+00 0. -1.
         22    1    3    3    0    0 -0.36368677864E+02  0.60495494781E+02 -0.14299113574E+02  0.72019790804E+02  0.00000000000E+00 0.  1.
         22    1    3    3    0    0 -0.18007539753E+02 -0.57456823124E+01  0.92442056835E+02  0.94354746701E+02  0.00000000000E+00 0.  1.
</event>
<event>
 7    1  0.5194496E-006  0.1437197E+03  0.7818608E-02  0.1334843E+00
          2   -1    0    0  502    0  0.00000000000E+00  0.00000000000E+00  0.67715176956E+03  0.67715176956E+03  0.00000000000E+00 0. -1.
          1   -1    0    0  501    0 -0.00000000000E+00 -0.00000000000E+00 -0.11654845544E+04  0.11654845544E+04  0.00000000000E+00 0. -1.
         25    2    1    2    0    0 -0.10893675673E+03 -0.43031357665E+01  0.51560517349E+03  0.54162722068E+03  0.12500246921E+03 0.  0.
          2    1    1    2  501    0  0.14240205905E+03 -0.21610803965E+02 -0.11448515009E+04  0.11538762205E+04  0.00000000000E+00 0. -1.
          1    1    1    2  502    0 -0.33465302317E+02  0.25913939731E+02  0.14091354251E+03  0.14713288278E+03  0.00000000000E+00 0. -1.
         22    1    3    3    0    0 -0.12457259178E+03 -0.12994324818E+02  0.50610390220E+03  0.52137159774E+03  0.00000000000E+00 0. -1.
         22    1    3    3    0    0  0.15635835049E+02  0.86911890511E+01  0.95012712827E+01  0.20255622942E+02  0.00000000000E+00 0. -1.
</event>
<event>
 7    1  0.5194496E-006  0.1278883E+03  0.7818608E-02  0.1412379E+00
          2   -1    0    0  502    0  0.00000000000E+00  0.00000000000E+00  0.19748125088E+03  0.19748125088E+03  0.00000000000E+00 0. -1.
          1   -1    0    0  501    0 -0.00000000000E+00 -0.00000000000E+00 -0.27857018742E+03  0.27857018742E+03  0.00000000000E+00 0. -1.
         25    2    1    2    0    0  0.85487895935E+01  0.14676693009E+03 -0.19704711561E+02  0.19397667206E+03  0.12500024030E+03 0.  0.
          2    1    1    2  501    0 -0.13962267064E+02 -0.12224898687E+03 -0.14766775493E+03  0.19221218884E+03  0.00000000000E+00 0. -1.
          1    1    1    2  502    0  0.54134774701E+01 -0.24517943219E+02  0.86283529940E+02  0.89862577399E+02  0.00000000000E+00 0. -1.
         22    1    3    3    0    0 -0.37829528183E+02  0.38802191877E+02  0.34845301932E+02  0.64427310698E+02  0.00000000000E+00 0.  1.
         22    1    3    3    0    0  0.46378317776E+02  0.10796473821E+03 -0.54550013493E+02  0.12954936136E+03  0.00000000000E+00 0.  1.
</event>
<event>
 7    1  0.5194496E-006  0.6841438E+02  0.7818608E-02  0.1371023E+00
          2   -1    0    0  502    0  0.00000000000E+00  0.00000000000E+00  0.23817064870E+03  0.23817064870E+03  0.00000000000E+00 0. -1.
          1   -1    0    0  501    0 -0.00000000000E+00 -0.00000000000E+00 -0.46930524939E+03  0.46930524939E+03  0.00000000000E+00 0. -1.
         25    2    1    2    0    0  0.49729374611E+02 -0.10274803492E+03 -0.16145240666E+03  0.23392528991E+03  0.12499596899E+03 0.  0.
          2    1    1    2  501    0  0.63031881651E+01  0.65082556659E+02 -0.26183798006E+03  0.26987885646E+03  0.00000000000E+00 0. -1.
          1    1    1    2  502    0 -0.56032562776E+02  0.37665478262E+02  0.19215578603E+03  0.20367175172E+03  0.00000000000E+00 0. -1.
         22    1    3    3    0    0  0.83200006000E+02 -0.10653445030E+03 -0.12243216770E+03  0.18237726225E+03  0.00000000000E+00 0.  1.
         22    1    3    3    0    0 -0.33470631389E+02  0.37864153753E+01 -0.39020238961E+02  0.51548027659E+02  0.00000000000E+00 0.  1.
</event>
<event>
 7    1  0.5194496E-006  0.1297388E+03  0.7818608E-02  0.1247893E+00
          2   -1    0    0  502    0  0.00000000000E+00  0.00000000000E+00  0.10649900444E+04  0.10649900444E+04  0.00000000000E+00 0. -1.
          1   -1    0    0  501    0 -0.00000000000E+00 -0.00000000000E+00 -0.24781185628E+03  0.24781185628E+03  0.00000000000E+00 0. -1.
         25    2    1    2    0    0 -0.18591279786E+03 -0.13558594585E+03  0.53898148277E+03  0.59922893942E+03  0.12500866349E+03 0.  0.
          2    1    1    2  501    0  0.92199020902E+02  0.86560690447E+02 -0.19295001300E+03  0.23070136563E+03  0.00000000000E+00 0. -1.
          1    1    1    2  502    0  0.93713776954E+02  0.49025255401E+02  0.47114671836E+03  0.48287159564E+03  0.00000000000E+00 0. -1.
         22    1    3    3    0    0 -0.46650823228E+02  0.14873424911E+02  0.55131034466E+02  0.73735670050E+02  0.00000000000E+00 0.  1.
         22    1    3    3    0    0 -0.13926197463E+03 -0.15045937076E+03  0.48385044831E+03  0.52549326937E+03  0.00000000000E+00 0.  1.
</event>
<event>
 7    1  0.5194496E-006  0.1393071E+03  0.7818608E-02  0.1323982E+00
          2   -1    0    0  502    0  0.00000000000E+00  0.00000000000E+00  0.51573806540E+03  0.51573806540E+03  0.00000000000E+00 0. -1.
          1   -1    0    0  501    0 -0.00000000000E+00 -0.00000000000E+00 -0.55081735823E+03  0.55081735823E+03  0.00000000000E+00 0. -1.
         25    2    1    2    0    0 -0.22583375415E+02  0.16097801763E+03  0.32284666200E+02  0.20758926715E+03  0.12500829236E+03 0.  0.
          2    1    1    2  501    0 -0.18768299983E+02 -0.13650973733E+03 -0.45138612288E+03  0.47194977424E+03  0.00000000000E+00 0. -1.
          1    1    1    2  502    0  0.41351675398E+02 -0.24468280306E+02  0.38402216384E+03  0.38701638224E+03  0.00000000000E+00 0. -1.
         22    1    3    3    0    0  0.27749879982E+02 -0.67086602800E+01 -0.38904731552E+01  0.28813152260E+02  0.00000000000E+00 0.  1.
         22    1    3    3    0    0 -0.50333255397E+02  0.16768667791E+03  0.36175139355E+02  0.17877611489E+03  0.00000000000E+00 0.  1.
</event>
<event>
 7    1  0.5194496E-006  0.9711418E+02  0.7818608E-02  0.1475915E+00
          2   -1    0    0  502    0  0.00000000000E+00  0.00000000000E+00  0.15852255024E+04  0.15852255024E+04  0.00000000000E+00 0. -1.
          1   -1    0    0  501    0 -0.00000000000E+00 -0.00000000000E+00 -0.11023089717E+03  0.11023089717E+03  0.00000000000E+00 0. -1.
         25    2    1    2    0    0 -0.39112649874E+02 -0.89764458178E+02  0.96641683705E+02  0.18587746928E+03  0.12499344473E+03 0.  0.
          2    1    1    2  501    0 -0.17545464845E+02  0.10832008637E+02 -0.62315203104E+02  0.65638100869E+02  0.00000000000E+00 0. -1.
          1    1    1    2  502    0  0.56658114720E+02  0.78932449541E+02  0.14406681246E+04  0.14439408294E+04  0.00000000000E+00 0. -1.
         22    1    3    3    0    0 -0.95409296256E+01  0.31375778378E+02  0.30210487784E+02  0.44588590235E+02  0.00000000000E+00 0.  1.
         22    1    3    3    0    0 -0.29571720249E+02 -0.12114023656E+03  0.66431195921E+02  0.14128887905E+03  0.00000000000E+00 0.  1.
</event>
<event>
 7    1  0.5194496E-006  0.6725103E+02  0.7818608E-02  0.1399924E+00
          2   -1    0    0  502    0  0.00000000000E+00  0.00000000000E+00  0.16803364261E+04  0.16803364261E+04  0.00000000000E+00 0. -1.
          1   -1    0    0  501    0 -0.00000000000E+00 -0.00000000000E+00 -0.43443735894E+03  0.43443735894E+03  0.00000000000E+00 0. -1.
         25    2    1    2    0    0 -0.17674412615E+02  0.10094337792E+02  0.12276762792E+03  0.17638292201E+03  0.12499905677E+03 0.  0.
          2    1    1    2  501    0  0.29926387946E+02 -0.61298763117E+02 -0.40431919910E+03  0.41003309844E+03  0.00000000000E+00 0. -1.
          1    1    1    2  502    0 -0.12251975331E+02  0.51204425325E+02  0.15274506384E+04  0.15283577646E+04  0.00000000000E+00 0. -1.
         22    1    3    3    0    0 -0.51698732483E+02 -0.17093792651E+02  0.12112235766E+03  0.13279902941E+03  0.00000000000E+00 0. -1.
         22    1    3    3    0    0  0.34024319868E+02  0.27188130443E+02  0.16452702630E+01  0.43583892594E+02  0.00000000000E+00 0. -1.
</event>
<event>
 7    1  0.5194496E-006  0.5647352E+02  0.7818608E-02  0.1512967E+00
          2   -1    0    0  502    0  0.00000000000E+00  0.00000000000E+00  0.44915466580E+03  0.44915466580E+03  0.00000000000E+00 0. -1.
          1   -1    0    0  501    0 -0.00000000000E+00 -0.00000000000E+00 -0.46234161867E+03  0.46234161867E+03  0.00000000000E+00 0. -1.
         25    2    1    2    0    0  0.45010463636E+02  0.51721868077E+01  0.26576705922E+03  0.29716946848E+03  0.12499947950E+03 0.  0.
          2    1    1    2  501    0  0.80398193714E+01  0.26229345857E+02 -0.44053335065E+03  0.44138673554E+03  0.00000000000E+00 0. -1.
          1    1    1    2  502    0 -0.53050283007E+02 -0.31401532665E+02  0.16157933855E+03  0.17294008046E+03  0.00000000000E+00 0. -1.
         22    1    3    3    0    0  0.21315857966E+02 -0.32736073205E+02  0.14050818634E+02  0.41514356481E+02  0.00000000000E+00 0. -1.
         22    1    3    3    0    0  0.23694605670E+02  0.37908260013E+02  0.25171624059E+03  0.25565511200E+03  0.00000000000E+00 0. -1.
</event>
<event>
 7    1  0.5194496E-006  0.5037389E+02  0.7818608E-02  0.1468630E+00
          2   -1    0    0  502    0  0.00000000000E+00  0.00000000000E+00  0.31528378128E+02  0.31528378128E+02  0.00000000000E+00 0. -1.
          1   -1    0    0  501    0 -0.00000000000E+00 -0.00000000000E+00 -0.11072853828E+04  0.11072853828E+04  0.00000000000E+00 0. -1.
         25    2    1    2    0    0  0.21850369240E+02 -0.93920728858E+01 -0.33649645335E+03  0.35976253748E+03  0.12503427765E+03 0.  0.
          2    1    1    2  501    0 -0.40634078992E+01 -0.41676834891E+02 -0.72064269338E+03  0.72185826958E+03  0.00000000000E+00 0. -1.
          1    1    1    2  502    0 -0.17786961340E+02  0.51068907777E+02 -0.18617857921E+02  0.57192953839E+02  0.00000000000E+00 0. -1.
         22    1    3    3    0    0  0.27596961038E+01 -0.42603353032E+02 -0.33268440589E+02  0.54124400702E+02  0.00000000000E+00 0. -1.
         22    1    3    3    0    0  0.19090673136E+02  0.33211280146E+02 -0.30322801276E+03  0.30563813678E+03  0.00000000000E+00 0. -1.
</event>
<event>
 7    1  0.5194496E-006  0.1641262E+03  0.7818608E-02  0.1285609E+00
          2   -1    0    0  502    0  0.00000000000E+00  0.00000000000E+00  0.90659980021E+02  0.90659980021E+02  0.00000000000E+00 0. -1.
          1   -1    0    0  501    0 -0.00000000000E+00 -0.00000000000E+00 -0.14839035930E+04  0.14839035930E+04  0.00000000000E+00 0. -1.
         25    2    1    2    0    0 -0.67659177647E+02 -0.15288810144E+03 -0.23454849139E+03  0.31399047342E+03  0.12499794679E+03 0.  0.
          2    1    1    2  501    0  0.10917406364E+02  0.16460337309E+03 -0.11853664858E+04  0.11967903601E+04  0.00000000000E+00 0. -1.
          1    1    1    2  502    0  0.56741771283E+02 -0.11715271648E+02  0.26671364215E+02  0.63782739571E+02  0.00000000000E+00 0. -1.
         22    1    3    3    0    0  0.28711364150E+02 -0.24110381360E+02 -0.90938427697E+02  0.98363868126E+02  0.00000000000E+00 0.  1.
         22    1    3    3    0    0 -0.96370541797E+02 -0.12877772009E+03 -0.14361006370E+03  0.21562660530E+03  0.00000000000E+00 0.  1.
</event>
<event>
 7    1  0.5194496E-006  0.1399143E+03  0.7818608E-02  0.1248743E+00
          2   -1    0    0  502    0  0.00000000000E+00  0.00000000000E+00  0.10909652706E+04  0.10909652706E+04  0.00000000000E+00 0. -1.
          1   -1    0    0  501    0 -0.00000000000E+00 -0.00000000000E+00 -0.22676064937E+04  0.22676064937E+04  0.00000000000E+00 0. -1.
         25    2    1    2    0    0 -0.16002989483E+03  0.79049812802E+02 -0.63663127559E+02  0.22701988228E+03  0.12500637182E+03 0.  0.
          2    1    1    2  501    0  0.21386164659E+02 -0.94858453646E+02 -0.21163200566E+04  0.21185528259E+04  0.00000000000E+00 0. -1.
          1    1    1    2  502    0  0.13864373018E+03  0.15808640844E+02  0.10033419610E+04  0.10129990562E+04  0.00000000000E+00 0. -1.
         22    1    3    3    0    0 -0.14977488534E+02  0.70909355462E+02 -0.25252502595E+02  0.76747317491E+02  0.00000000000E+00 0. -1.
         22    1    3    3    0    0 -0.14505240630E+03  0.81404573400E+01 -0.38410624965E+02  0.15027256479E+03  0.00000000000E+00 0. -1.
</event>
<event>
 7    1  0.5194496E-006  0.1188845E+03  0.7818608E-02  0.1421053E+00
          2   -1    0    0  502    0  0.00000000000E+00  0.00000000000E+00  0.47829242747E+03  0.47829242747E+03  0.00000000000E+00 0. -1.
          1   -1    0    0  501    0 -0.00000000000E+00 -0.00000000000E+00 -0.62369027956E+03  0.62369027956E+03  0.00000000000E+00 0. -1.
         25    2    1    2    0    0 -0.11735645435E+03  0.30941504348E+02  0.12220353734E+03  0.21281031170E+03  0.12499844063E+03 0.  0.
          2    1    1    2  501    0  0.10613401197E+03 -0.53570554274E+02 -0.57174849416E+03  0.58397823020E+03  0.00000000000E+00 0. -1.
          1    1    1    2  502    0  0.11222442380E+02  0.22629049926E+02  0.30414710473E+03  0.30519416513E+03  0.00000000000E+00 0. -1.
         22    1    3    3    0    0 -0.36662822816E+02  0.47823926052E+02 -0.58184722244E+01  0.60540441846E+02  0.00000000000E+00 0. -1.
         22    1    3    3    0    0 -0.80693631530E+02 -0.16882421704E+02  0.12802200957E+03  0.15226986986E+03  0.00000000000E+00 0. -1.
</event>
<event>
 7    1  0.5194496E-006  0.1071937E+03  0.7818608E-02  0.1272013E+00
          2   -1    0    0  502    0  0.00000000000E+00  0.00000000000E+00  0.72496195885E+03  0.72496195885E+03  0.00000000000E+00 0. -1.
          1   -1    0    0  501    0 -0.00000000000E+00 -0.00000000000E+00 -0.35923855140E+03  0.35923855140E+03  0.00000000000E+00 0. -1.
         25    2    1    2    0    0  0.46813572048E+01  0.19103274678E+02  0.99700893748E+02  0.16109555754E+03  0.12499864094E+03 0.  0.
          2    1    1    2  501    0  0.10300733693E+03  0.29664343293E+02 -0.31367039074E+03  0.33148091763E+03  0.00000000000E+00 0. -1.
          1    1    1    2  502    0 -0.10768869413E+03 -0.48767617971E+02  0.57969290445E+03  0.59162403508E+03  0.00000000000E+00 0. -1.
         22    1    3    3    0    0 -0.49990091715E+02 -0.17016565102E+02  0.73551196597E+02  0.90544747382E+02  0.00000000000E+00 0.  1.
         22    1    3    3    0    0  0.54671448920E+02  0.36119839781E+02  0.26149697151E+02  0.70550810158E+02  0.00000000000E+00 0.  1.
</event>
<event>
 7    1  0.5194496E-006  0.1519640E+03  0.7818608E-02  0.1388403E+00
          2   -1    0    0  502    0  0.00000000000E+00  0.00000000000E+00  0.10010632403E+04  0.10010632403E+04  0.00000000000E+00 0. -1.
          1   -1    0    0  501    0 -0.00000000000E+00 -0.00000000000E+00 -0.59675779283E+03  0.59675779283E+03  0.00000000000E+00 0. -1.
         25    2    1    2    0    0 -0.10985873301E+03 -0.76235697068E+02  0.59502916092E+03  0.62254776704E+03  0.12500078871E+03 0.  0.
          2    1    1    2  501    0  0.13481902263E+03  0.70799639022E+02 -0.57262074859E+03  0.59252280923E+03  0.00000000000E+00 0. -1.
          1    1    1    2  502    0 -0.24960289619E+02  0.54360580453E+01  0.38189703517E+03  0.38275045690E+03  0.00000000000E+00 0. -1.
         22    1    3    3    0    0 -0.82100686627E+02 -0.12218850103E+02  0.14446863757E+03  0.16661635659E+03  0.00000000000E+00 0.  1.
         22    1    3    3    0    0 -0.27758046380E+02 -0.64016846965E+02  0.45056052335E+03  0.45593141045E+03  0.00000000000E+00 0.  1.
</event>
<event>
 7    1  0.5194496E-006  0.7556412E+02  0.7818608E-02  0.1477038E+00
          2   -1    0    0  502    0  0.00000000000E+00  0.00000000000E+00  0.15297071135E+04  0.15297071135E+04  0.00000000000E+00 0. -1.
          1   -1    0    0  501    0 -0.00000000000E+00 -0.00000000000E+00 -0.90284480825E+03  0.90284480825E+03  0.00000000000E+00 0. -1.
         25    2    1    2    0    0  0.54820672199E+02  0.15810955830E+02  0.78901981752E+03  0.80089440270E+03  0.12499711762E+03 0.  0.
          2    1    1    2  501    0  0.26245798525E+02  0.15227910528E+01 -0.89437545699E+03  0.89476176656E+03  0.00000000000E+00 0. -1.
          1    1    1    2  502    0 -0.81066470724E+02 -0.17333746883E+02  0.73221794475E+03  0.73689575251E+03  0.00000000000E+00 0. -1.
         22    1    3    3    0    0 -0.16671263904E+02 -0.37733607920E+02  0.38016540547E+03  0.38239703414E+03  0.00000000000E+00 0. -1.
         22    1    3    3    0    0  0.71491936103E+02  0.53544563750E+02  0.40885441205E+03  0.41849736856E+03  0.00000000000E+00 0. -1.
</event>
<event>
 7    1  0.5194496E-006  0.4832380E+02  0.7818608E-02  0.1458285E+00
          2   -1    0    0  502    0  0.00000000000E+00  0.00000000000E+00  0.31477941281E+04  0.31477941281E+04  0.00000000000E+00 0. -1.
          1   -1    0    0  501    0 -0.00000000000E+00 -0.00000000000E+00 -0.13203077574E+03  0.13203077574E+03  0.00000000000E+00 0. -1.
         25    2    1    2    0    0  0.29307088979E+01  0.79565239798E+02  0.11619375312E+03  0.18832226485E+03  0.12500028294E+03 0.  0.
          2    1    1    2  501    0  0.24693138432E+02 -0.40038153521E+02 -0.89995840125E+02  0.10154829424E+03  0.00000000000E+00 0. -1.
          1    1    1    2  502    0 -0.27623847330E+02 -0.39527086277E+02  0.29895654393E+04  0.29899543447E+04  0.00000000000E+00 0. -1.
         22    1    3    3    0    0  0.39937544804E+02  0.96860068371E+02  0.66922618854E+02  0.12432022058E+03  0.00000000000E+00 0. -1.
         22    1    3    3    0    0 -0.37006835906E+02 -0.17294828573E+02  0.49271134268E+02  0.64002044273E+02  0.00000000000E+00 0. -1.
</event>
<event>
 7    1  0.5194496E-006  0.1228493E+03  0.7818608E-02  0.1288283E+00
          2   -1    0    0  502    0  0.00000000000E+00  0.00000000000E+00  0.58714011651E+03  0.58714011651E+03  0.00000000000E+00 0. -1.
          1   -1    0    0  501    0 -0.00000000000E+00 -0.00000000000E+00 -0.58887540746E+03  0.58887540746E+03  0.00000000000E+00 0. -1.
         25    2    1    2    0    0 -0.67454904771E+02  0.41147608788E+02 -0.53134149675E+02  0.15711687108E+03  0.12497673156E+03 0.  0.
          2    1    1    2  501    0  0.62610703342E+02 -0.11647425717E+03 -0.47195449764E+03  0.49012998337E+03  0.00000000000E+00 0. -1.
          1    1    1    2  502    0  0.48442014292E+01  0.75326648386E+02  0.52335335636E+03  0.52876866951E+03  0.00000000000E+00 0. -1.
         22    1    3    3    0    0 -0.15322538985E+02  0.62252355038E+02 -0.73288785577E+02  0.97372388284E+02  0.00000000000E+00 0.  1.
         22    1    3    3    0    0 -0.52132365786E+02 -0.21104746250E+02  0.20154635902E+02  0.59744482800E+02  0.00000000000E+00 0.  1.
</event>
<event>
 7    1  0.5194496E-006  0.3260242E+03  0.7818608E-02  0.1080370E+00
          2   -1    0    0  502    0  0.00000000000E+00  0.00000000000E+00  0.62850569523E+03  0.62850569523E+03  0.00000000000E+00 0. -1.
          1   -1    0    0  501    0 -0.00000000000E+00 -0.00000000000E+00 -0.16695021118E+04  0.16695021118E+04  0.00000000000E+00 0. -1.
         25    2    1    2    0    0  0.26310831252E+02 -0.80904612872E+02  0.58156215502E+02  0.16200285249E+03  0.12499985035E+03 0.  0.
          2    1    1    2  501    0 -0.20801975259E+03  0.31287660429E+03 -0.15513904470E+04  0.15962381734E+04  0.00000000000E+00 0. -1.
          1    1    1    2  502    0  0.18170892134E+03 -0.23197199142E+03  0.45223781490E+03  0.53976678123E+03  0.00000000000E+00 0. -1.
         22    1    3    3    0    0 -0.28239966100E+02 -0.25824398453E+02  0.73603513978E+02  0.82957052206E+02  0.00000000000E+00 0. -1.
         22    1    3    3    0    0  0.54550797352E+02 -0.55080214419E+02 -0.15447298477E+02  0.79045800283E+02  0.00000000000E+00 0. -1.
</event>
<event>
 7    1  0.5194496E-006  0.1100181E+03  0.7818608E-02  0.1334948E+00
          2   -1    0    0  502    0  0.00000000000E+00  0.00000000000E+00  0.18398335308E+03  0.18398335308E+03  0.00000000000E+00 0. -1.
          1   -1    0    0  501    0 -0.00000000000E+00 -0.00000000000E+00 -0.96861385937E+03  0.96861385937E+03  0.00000000000E+00 0. -1.
         25    2    1    2    0    0 -0.84619766115E+02 -0.66321707673E+02 -0.71891021210E+03  0.73757385910E+03  0.12499692330E+03 0.  0.
          2    1    1    2  501    0  0.51807545984E+02  0.11076116153E+03 -0.21969917565E+03  0.25143544799E+03  0.00000000000E+00 0. -1.
          1    1    1    2  502    0  0.32812220131E+02 -0.44439453853E+02  0.15397888146E+03  0.16358790537E+03  0.00000000000E+00 0. -1.
         22    1    3    3    0    0 -0.72121768143E+02 -0.10152764372E+03 -0.48685946195E+03  0.50253512073E+03  0.00000000000E+00 0. -1.
         22    1    3    3    0    0 -0.12497997972E+02  0.35205936048E+02 -0.23205075015E+03  0.23503873836E+03  0.00000000000E+00 0. -1.
</event>
<event>
 7    1  0.5194496E-006  0.2324686E+03  0.7818608E-02  0.1183667E+00
          2   -1    0    0  502    0  0.00000000000E+00  0.00000000000E+00  0.81290774437E+03  0.81290774437E+03  0.00000000000E+00 0. -1.
          1   -1    0    0  501    0 -0.00000000000E+00 -0.00000000000E+00 -0.13706441576E+04  0.13706441576E+04  0.00000000000E+00 0. -1.
         25    2    1    2    0    0  0.24517078215E+03  0.11445568000E+03 -0.35541073145E+03  0.46383695976E+03  0.12497648622E+03 0.  0.
          2    1    1    2  501    0 -0.14581230061E+03 -0.17520222957E+03 -0.94288949978E+03  0.97005033738E+03  0.00000000000E+00 0. -1.
          1    1    1    2  502    0 -0.99358481534E+02  0.60746549571E+02  0.74056381802E+03  0.74966460480E+03  0.00000000000E+00 0. -1.
         22    1    3    3    0    0  0.24096809164E+03  0.12118484376E+03 -0.36341136148E+03  0.45256955841E+03  0.00000000000E+00 0. -1.
         22    1    3    3    0    0  0.42026905048E+01 -0.67291637645E+01  0.80006300254E+01  0.11267401353E+02  0.00000000000E+00 0. -1.
</event>
<event>
 7    1  0.5194496E-006  0.6282161E+02  0.7818608E-02  0.1400299E+00
          2   -1    0    0  502    0  0.00000000000E+00  0.00000000000E+00  0.90499462027E+03  0.90499462027E+03  0.00000000000E+00 0. -1.
          1   -1    0    0  501    0 -0.00000000000E+00 -0.00000000000E+00 -0.15953711037E+04  0.15953711037E+04  0.00000000000E+00 0. -1.
         25    2    1    2    0    0  0.60046784628E+02 -0.52074948354E+01 -0.17898288721E+02  0.13992123722E+03  0.12499947815E+03 0.  0.
          2    1    1    2  501    0 -0.32429043187E+02  0.54147406908E+02 -0.15148680803E+04  0.15161823390E+04  0.00000000000E+00 0. -1.
          1    1    1    2  502    0 -0.27617741441E+02 -0.48939912072E+02  0.84238988561E+03  0.84426214769E+03  0.00000000000E+00 0. -1.
         22    1    3    3    0    0  0.19526576016E+02  0.36796888458E+02 -0.56316135655E+02  0.70048592464E+02  0.00000000000E+00 0.  1.
         22    1    3    3    0    0  0.40520208612E+02 -0.42004383293E+02  0.38417846934E+02  0.69872644753E+02  0.00000000000E+00 0.  1.
</event>
<event>
 7    1  0.5194496E-006  0.5864473E+02  0.7818608E-02  0.1450166E+00
          2   -1    0    0  502    0  0.00000000000E+00  0.00000000000E+00  0.72695028458E+03  0.72695028458E+03  0.00000000000E+00 0. -1.
          1   -1    0    0  501    0 -0.00000000000E+00 -0.00000000000E+00 -0.33539740469E+03  0.33539740469E+03  0.00000000000E+00 0. -1.
         25    2    1    2    0    0 -0.24589818497E+02  0.30405267106E+02  0.33086760910E+03  0.35584822617E+03  0.12500178351E+03 0.  0.
          2    1    1    2  501    0  0.58459623188E+02 -0.70593806195E+01 -0.31910268252E+03  0.32449019152E+03  0.00000000000E+00 0. -1.
          1    1    1    2  502    0 -0.33869804690E+02 -0.23345886486E+02  0.37978795332E+03  0.38200927158E+03  0.00000000000E+00 0. -1.
         22    1    3    3    0    0 -0.55481265232E+02  0.59271126720E+02  0.26846140984E+03  0.28046883219E+03  0.00000000000E+00 0.  1.
         22    1    3    3    0    0  0.30891446734E+02 -0.28865859614E+02  0.62406199253E+02  0.75379393987E+02  0.00000000000E+00 0.  1.
</event>
<event>
 7    1  0.5194496E-006  0.1044443E+03  0.7818608E-02  0.1278499E+00
          2   -1    0    0  502    0  0.00000000000E+00  0.00000000000E+00  0.78619468819E+03  0.78619468819E+03  0.00000000000E+00 0. -1.
          1   -1    0    0  501    0 -0.00000000000E+00 -0.00000000000E+00 -0.29916298935E+03  0.29916298935E+03  0.00000000000E+00 0. -1.
         25    2    1    2    0    0 -0.26519003495E+02 -0.36040865601E+01  0.28127966017E+01  0.12786632294E+03  0.12500255090E+03 0.  0.
          2    1    1    2  501    0  0.12146405642E+03  0.25322923424E+02 -0.21677029886E+03  0.24976815234E+03  0.00000000000E+00 0. -1.
          1    1    1    2  502    0 -0.94945052920E+02 -0.21718836864E+02  0.70098920110E+03  0.70772320226E+03  0.00000000000E+00 0. -1.
         22    1    3    3    0    0  0.29065657177E+02  0.31029032880E+02  0.34835986943E+02  0.54965073409E+02  0.00000000000E+00 0.  1.
         22    1    3    3    0    0 -0.55584660672E+02 -0.34633119440E+02 -0.32023190341E+02  0.72901249535E+02  0.00000000000E+00 0.  1.
</event>
<event>
 7    1  0.5194496E-006  0.3623281E+02  0.7818608E-02  0.1614544E+00
          2   -1    0    0  502    0  0.00000000000E+00  0.00000000000E+00  0.99083614920E+03  0.99083614920E+03  0.00000000000E+00 0. -1.
          1   -1    0    0  501    0 -0.00000000000E+00 -0.00000000000E+00 -0.84214102072E+02  0.84214102072E+02  0.00000000000E+00 0. -1.
         25    2    1    2    0    0  0.26795407276E+02 -0.18116928600E+02  0.31927348456E+03  0.34439712338E+03  0.12501041436E+03 0.  0.
          2    1    1    2  501    0  0.97945935978E+01  0.20273998911E+02 -0.69359676628E+02  0.72922793676E+02  0.00000000000E+00 0. -1.
          1    1    1    2  502    0 -0.36590000874E+02 -0.21570703108E+01  0.65670823920E+03  0.65773033422E+03  0.00000000000E+00 0. -1.
         22    1    3    3    0    0  0.13998052797E+01 -0.11200495978E+02 -0.93891836502E+01  0.14682211502E+02  0.00000000000E+00 0. -1.
         22    1    3    3    0    0  0.25395601996E+02 -0.69164326214E+01  0.32866266821E+03  0.32971491188E+03  0.00000000000E+00 0. -1.
</event>
<event>
 7    1  0.5194496E-006  0.1115107E+03  0.7818608E-02  0.1440854E+00
          2   -1    0    0  502    0  0.00000000000E+00  0.00000000000E+00  0.66349944423E+03  0.66349944423E+03  0.00000000000E+00 0. -1.
          1   -1    0    0  501    0 -0.00000000000E+00 -0.00000000000E+00 -0.70480278792E+02  0.70480278792E+02  0.00000000000E+00 0. -1.
         25    2    1    2    0    0 -0.11336511573E+03 -0.39007938715E+02  0.38276859456E+03  0.42013061946E+03  0.12499868671E+03 0.  0.
          2    1    1    2  501    0  0.10933434337E+03  0.16180574687E+02  0.85876319264E+01  0.11085827465E+03  0.00000000000E+00 0. -1.
          1    1    1    2  502    0  0.40307723625E+01  0.22827364028E+02  0.20166293895E+03  0.20299082891E+03  0.00000000000E+00 0. -1.
         22    1    3    3    0    0 -0.29505819894E+02 -0.50168522221E+02  0.49852638039E+02  0.76633932099E+02  0.00000000000E+00 0.  1.
         22    1    3    3    0    0 -0.83859295837E+02  0.11160583506E+02  0.33291595652E+03  0.34349668736E+03  0.00000000000E+00 0.  1.
</event>
<event>
 7    1  0.5194496E-006  0.2190635E+03  0.7818608E-02  0.1301713E+00
          2   -1    0    0  502    0  0.00000000000E+00  0.00000000000E+00  0.14184039852E+04  0.14184039852E+04  0.00000000000E+00 0. -1.
          1   -1    0    0  501    0 -0.00000000000E+00 -0.00000000000E+00 -0.63921522520E+03  0.63921522520E+03  0.00000000000E+00 0. -1.
         25    2    1    2    0    0 -0.33009661073E+02  0.20930325410E+03  0.52151759482E+03  0.57663117425E+03  0.12500167804E+03 0.  0.
          2    1    1    2  501    0 -0.29627384504E+01 -0.21940662436E+03 -0.59155511725E+03  0.63094017258E+03  0.00000000000E+00 0. -1.
          1    1    1    2  502    0  0.35972399523E+02  0.10103370261E+02  0.84922628244E+03  0.85004786360E+03  0.00000000000E+00 0. -1.
         22    1    3    3    0    0 -0.42823589914E+01  0.20515971407E+03  0.50008910670E+03  0.54055338452E+03  0.00000000000E+00 0.  1.
         22    1    3    3    0    0 -0.28727302082E+02  0.41435400264E+01  0.21428488120E+02  0.36077789732E+02  0.00000000000E+00 0.  1.
</event>
<event>
 7    1  0.5194496E-006  0.9913469E+02  0.7818608E-02  0.1382549E+00
          2   -1    0    0  502    0  0.00000000000E+00  0.00000000000E+00  0.37391824551E+03  0.37391824551E+03  0.00000000000E+00 0. -1.
          1   -1    0    0  501    0 -0.00000000000E+00 -0.00000000000E+00 -0.35344497079E+03  0.35344497079E+03  0.00000000000E+00 0. -1.
         25    2    1    2    0    0 -0.76729192783E+02 -0.52476883782E+02 -0.15649960043E+03  0.22081183785E+03  0.12499820176E+03 0.  0.
          2    1    1    2  501    0  0.56771135815E+02  0.88357445418E+02 -0.14662585697E+03  0.18035837091E+03  0.00000000000E+00 0. -1.
          1    1    1    2  502    0  0.19958056968E+02 -0.35880561637E+02  0.32359873212E+03  0.32619300755E+03  0.00000000000E+00 0. -1.
         22    1    3    3    0    0  0.72457971796E+01 -0.12124488119E+02  0.18070679896E+02  0.22935872793E+02  0.00000000000E+00 0. -1.
         22    1    3    3    0    0 -0.83974989963E+02 -0.40352395663E+02 -0.17457028033E+03  0.19787596506E+03  0.00000000000E+00 0. -1.
</event>
<event>
 7    1  0.5194496E-006  0.1394845E+03  0.7818608E-02  0.1332049E+00
          2   -1    0    0  502    0  0.00000000000E+00  0.00000000000E+00  0.41344533947E+03  0.41344533947E+03  0.00000000000E+00 0. -1.
          1   -1    0    0  501    0 -0.00000000000E+00 -0.00000000000E+00 -0.33662144689E+03  0.33662144689E+03  0.00000000000E+00 0. -1.
         25    2    1    2    0    0 -0.93884264544E+02  0.14119018906E+03 -0.16125634416E+03  0.26528483286E+03  0.12499403744E+03 0.  0.
          2    1    1    2  501    0 -0.43046265391E+01 -0.44482399060E+02 -0.10550894689E+03  0.11458338235E+03  0.00000000000E+00 0. -1.
          1    1    1    2  502    0  0.98188891083E+02 -0.96707789997E+02  0.34358918364E+03  0.37019857116E+03  0.00000000000E+00 0. -1.
         22    1    3    3    0    0 -0.12124075391E+03  0.13595301073E+03 -0.13251571127E+03  0.22526197031E+03  0.00000000000E+00 0. -1.
         22    1    3    3    0    0  0.27356489367E+02  0.52371783261E+01 -0.28740632886E+02  0.40022862541E+02  0.00000000000E+00 0. -1.
</event>
<event>
 7    1  0.5194496E-006  0.7426182E+02  0.7818608E-02  0.1426609E+00
          2   -1    0    0  502    0  0.00000000000E+00  0.00000000000E+00  0.44396319687E+03  0.44396319687E+03  0.00000000000E+00 0. -1.
          1   -1    0    0  501    0 -0.00000000000E+00 -0.00000000000E+00 -0.18821253997E+04  0.18821253997E+04  0.00000000000E+00 0. -1.
         25    2    1    2    0    0  0.45039950824E+02  0.25784639568E+02  0.14093803383E+03  0.19540276752E+03  0.12500106946E+03 0.  0.
          2    1    1    2  501    0  0.34419211934E+02 -0.17810809791E+02 -0.18489047986E+04  0.18493109153E+04  0.00000000000E+00 0. -1.
          1    1    1    2  502    0 -0.79459162757E+02 -0.79738297766E+01  0.26980456189E+03  0.28137491381E+03  0.00000000000E+00 0. -1.
         22    1    3    3    0    0  0.57369764029E+02  0.67880179210E+02  0.75459100509E+02  0.11658938375E+03  0.00000000000E+00 0.  1.
         22    1    3    3    0    0 -0.12329813205E+02 -0.42095539642E+02  0.65478933324E+02  0.78813383767E+02  0.00000000000E+00 0.  1.
</event>
<event>
 7    1  0.5194496E-006  0.1665961E+03  0.7818608E-02  0.1285927E+00
          2   -1    0    0  502    0  0.00000000000E+00  0.00000000000E+00  0.27586569829E+03  0.27586569829E+03  0.00000000000E+00 0. -1.
          1   -1    0    0  501    0 -0.00000000000E+00 -0.00000000000E+00 -0.85816525391E+03  0.85816525391E+03  0.00000000000E+00 0. -1.
         25    2    1    2    0    0 -0.11301957520E+03  0.98412325002E+02 -0.33108045453E+03  0.38430813082E+03  0.12498024625E+03 0.  0.
          2    1    1    2  501    0  0.94843854238E+02 -0.15234049407E+03 -0.48079806932E+03  0.51319564133E+03  0.00000000000E+00 0. -1.
          1    1    1    2  502    0  0.18175720963E+02  0.53928169066E+02  0.22957896823E+03  0.23652718005E+03  0.00000000000E+00 0. -1.
         22    1    3    3    0    0 -0.11266673353E+03  0.19885024301E+02 -0.22392262870E+03  0.25145685650E+03  0.00000000000E+00 0. -1.
         22    1    3    3    0    0 -0.35284166972E+00  0.78527300701E+02 -0.10715782584E+03  0.13285127433E+03  0.00000000000E+00 0. -1.
</event>
<event>
 7    1  0.5194496E-006  0.1009767E+03  0.7818608E-02  0.1426441E+00
          2   -1    0    0  502    0  0.00000000000E+00  0.00000000000E+00  0.24796207843E+03  0.24796207843E+03  0.00000000000E+00 0. -1.
          1   -1    0    0  501    0 -0.00000000000E+00 -0.00000000000E+00 -0.27035475464E+03  0.27035475464E+03  0.00000000000E+00 0. -1.
         25    2    1    2    0    0  0.10354328849E+03  0.26663696536E+02 -0.35711593569E+01  0.16452994736E+03  0.12500074038E+03 0.  0.
          2    1    1    2  501    0 -0.16392432366E+02  0.23360270978E+02 -0.16993384854E+03  0.17231345560E+03  0.00000000000E+00 0. -1.
          1    1    1    2  502    0 -0.87150856127E+02 -0.50023967513E+02  0.15111233169E+03  0.18147343012E+03  0.00000000000E+00 0. -1.
         22    1    3    3    0    0  0.12381030905E+03  0.12155247175E+02 -0.30238709264E+02  0.12802781807E+03  0.00000000000E+00 0. -1.
         22    1    3    3    0    0 -0.20267020557E+02  0.14508449360E+02  0.26667549908E+02  0.36502129297E+02  0.00000000000E+00 0. -1.
</event>
<event>
 7    1  0.5194496E-006  0.3008196E+02  0.7818608E-02  0.1632891E+00
          2   -1    0    0  502    0  0.00000000000E+00  0.00000000000E+00  0.10947902067E+04  0.10947902067E+04  0.00000000000E+00 0. -1.
          1   -1    0    0  501    0 -0.00000000000E+00 -0.00000000000E+00 -0.72363079349E+03  0.72363079349E+03  0.00000000000E+00 0. -1.
         25    2    1    2    0    0  0.26851232414E+02  0.25812068417E+02 -0.30848402973E+03  0.33492451926E+03  0.12499914177E+03 0.  0.
          2    1    1    2  501    0 -0.30097802236E+02 -0.16636669212E+01 -0.40122384502E+03  0.40235459399E+03  0.00000000000E+00 0. -1.
          1    1    1    2  502    0  0.32465698219E+01 -0.24148401495E+02  0.10808672879E+04  0.10811418869E+04  0.00000000000E+00 0. -1.
         22    1    3    3    0    0  0.14465864629E+01 -0.49919453837E+02 -0.13475838087E+03  0.14371452848E+03  0.00000000000E+00 0.  1.
         22    1    3    3    0    0  0.25404645951E+02  0.75731522253E+02 -0.17372564887E+03  0.19120999078E+03  0.00000000000E+00 0.  1.
</event>
<event>
 7    1  0.5194496E-006  0.8996764E+02  0.7818608E-02  0.1484935E+00
          2   -1    0    0  502    0  0.00000000000E+00  0.00000000000E+00  0.13880807124E+04  0.13880807124E+04  0.00000000000E+00 0. -1.
          1   -1    0    0  501    0 -0.00000000000E+00 -0.00000000000E+00 -0.35850421342E+03  0.35850421342E+03  0.00000000000E+00 0. -1.
         25    2    1    2    0    0 -0.75652980484E+02  0.68622455002E+02 -0.92997414366E+02  0.18629826495E+03  0.12500443856E+03 0.  0.
          2    1    1    2  501    0  0.73714185590E+02 -0.47828032837E+02 -0.20995119303E+03  0.22759790275E+03  0.00000000000E+00 0. -1.
          1    1    1    2  502    0  0.19387948933E+01 -0.20794422165E+02  0.13325251064E+04  0.13326887582E+04  0.00000000000E+00 0. -1.
         22    1    3    3    0    0 -0.73680681624E+02  0.98002823598E+02 -0.97315842613E+02  0.15653679919E+03  0.00000000000E+00 0.  1.
         22    1    3    3    0    0 -0.19722988595E+01 -0.29380368596E+02  0.43184282463E+01  0.29761465760E+02  0.00000000000E+00 0.  1.
</event>
<event>
 7    1  0.5194496E-006  0.5658143E+02  0.7818608E-02  0.1447927E+00
          2   -1    0    0  502    0  0.00000000000E+00  0.00000000000E+00  0.31801243413E+04  0.31801243413E+04  0.00000000000E+00 0. -1.
          1   -1    0    0  501    0 -0.00000000000E+00 -0.00000000000E+00 -0.25479055376E+02  0.25479055376E+02  0.00000000000E+00 0. -1.
         25    2    1    2    0    0 -0.12821592775E+02 -0.10599574531E+02  0.24063796486E+04  0.24096812996E+04  0.12499683365E+03 0.  0.
          2    1    1    2  501    0  0.21167820705E+02  0.53135060979E+02  0.12075653631E+02  0.58457101786E+02  0.00000000000E+00 0. -1.
          1    1    1    2  502    0 -0.83462279303E+01 -0.42535486447E+02  0.73618998373E+03  0.73746499528E+03  0.00000000000E+00 0. -1.
         22    1    3    3    0    0 -0.27369311953E+02 -0.30285183500E+02  0.23059652826E+04  0.23063265502E+04  0.00000000000E+00 0.  1.
         22    1    3    3    0    0  0.14547719178E+02  0.19685608969E+02  0.10041436595E+03  0.10335474940E+03  0.00000000000E+00 0.  1.
</event>
<event>
 7    1  0.5194496E-006  0.9750771E+02  0.7818608E-02  0.1372294E+00
          2   -1    0    0  502    0  0.00000000000E+00  0.00000000000E+00  0.11348666171E+04  0.11348666171E+04  0.00000000000E+00 0. -1.
          1   -1    0    0  501    0 -0.00000000000E+00 -0.00000000000E+00 -0.38694376807E+03  0.38694376807E+03  0.00000000000E+00 0. -1.
         25    2    1    2    0    0 -0.49447334215E+02 -0.32369197384E+02  0.24705203960E+03  0.28311149967E+03  0.12499842868E+03 0.  0.
          2    1    1    2  501    0 -0.33659076349E+02 -0.30464550924E+02 -0.36438040884E+03  0.36719763701E+03  0.00000000000E+00 0. -1.
          1    1    1    2  502    0  0.83106410564E+02  0.62833748308E+02  0.86525121831E+03  0.87150124853E+03  0.00000000000E+00 0. -1.
         22    1    3    3    0    0 -0.10697429968E+01  0.21943992012E+02 -0.34718623365E+01  0.22242683372E+02  0.00000000000E+00 0.  1.
         22    1    3    3    0    0 -0.48377591218E+02 -0.54313189396E+02  0.25052390194E+03  0.26086881630E+03  0.00000000000E+00 0.  1.
</event>
<event>
 7    1  0.5194496E-006  0.8764234E+02  0.7818608E-02  0.1334358E+00
          2   -1    0    0  502    0  0.00000000000E+00  0.00000000000E+00  0.24157502604E+04  0.24157502604E+04  0.00000000000E+00 0. -1.
          1   -1    0    0  501    0 -0.00000000000E+00 -0.00000000000E+00 -0.18064674923E+02  0.18064674923E+02  0.00000000000E+00 0. -1.
         25    2    1    2    0    0 -0.86723205970E+02 -0.89688776236E+02  0.86617349363E+03  0.88399457754E+03  0.12499960404E+03 0.  0.
          2    1    1    2  501    0  0.69358740663E+02  0.69083498018E+01  0.14658732048E+03  0.16231513401E+03  0.00000000000E+00 0. -1.
          1    1    1    2  502    0  0.17364465307E+02  0.82780426434E+02  0.13849247713E+04  0.13875052237E+04  0.00000000000E+00 0. -1.
         22    1    3    3    0    0 -0.11101512052E+03 -0.64800233698E+02  0.50320602077E+03  0.51936473370E+03  0.00000000000E+00 0. -1.
         22    1    3    3    0    0  0.24291914552E+02 -0.24888542538E+02  0.36296747286E+03  0.36462984384E+03  0.00000000000E+00 0. -1.
</event>
<event>
 7    1  0.5194496E-006  0.6493073E+02  0.7818608E-02  0.1465674E+00
          2   -1    0    0  502    0  0.00000000000E+00  0.00000000000E+00  0.68793280613E+03  0.68793280613E+03  0.00000000000E+00 0. -1.
          1   -1    0    0  501    0 -0.00000000000E+00 -0.00000000000E+00 -0.13204344400E+04  0.13204344400E+04  0.00000000000E+00 0. -1.
         25    2    1    2    0    0  0.11213451849E+02 -0.89716597028E+02 -0.74783082712E+02  0.17143837690E+03  0.12499519322E+03 0.  0.
          2    1    1    2  501    0  0.13871839914E+02  0.30146310766E+02 -0.11954598766E+04  0.11959203755E+04  0.00000000000E+00 0. -1.
          1    1    1    2  502    0 -0.25085291762E+02  0.59570286262E+02  0.63774132544E+03  0.64100849374E+03  0.00000000000E+00 0. -1.
         22    1    3    3    0    0 -0.18595562369E+02 -0.11343932744E+03 -0.65194507237E+02  0.13215369736E+03  0.00000000000E+00 0.  1.
         22    1    3    3    0    0  0.29809014218E+02  0.23722730416E+02 -0.95885754742E+01  0.39284679541E+02  0.00000000000E+00 0.  1.
</event>
<event>
 7    1  0.5194497E-006  0.4976955E+02  0.7818608E-02  0.1506036E+00
          2   -1    0    0  502    0  0.00000000000E+00  0.00000000000E+00  0.51161647425E+03  0.51161647425E+03  0.00000000000E+00 0. -1.
          1   -1    0    0  501    0 -0.00000000000E+00 -0.00000000000E+00 -0.23263242980E+04  0.23263242980E+04  0.00000000000E+00 0. -1.
         25    2    1    2    0    0  0.33523271998E+02  0.52677244882E+02 -0.35091086302E+03  0.37770403040E+03  0.12499279540E+03 0.  0.
          2    1    1    2  501    0  0.11106891686E+02 -0.30678927981E+02 -0.19606384691E+04  0.19609099332E+04  0.00000000000E+00 0. -1.
          1    1    1    2  502    0 -0.44630163683E+02 -0.21998316901E+02  0.49684150833E+03  0.49932680867E+03  0.00000000000E+00 0. -1.
         22    1    3    3    0    0  0.73021817074E+02  0.31277669732E+02 -0.13061921923E+03  0.15287857542E+03  0.00000000000E+00 0. -1.
         22    1    3    3    0    0 -0.39498545077E+02  0.21399575150E+02 -0.22029164379E+03  0.22482545498E+03  0.00000000000E+00 0. -1.
</event>
<event>
 7    1  0.5194496E-006  0.9155603E+02  0.7818608E-02  0.1311025E+00
          2   -1    0    0  502    0  0.00000000000E+00  0.00000000000E+00  0.40870131697E+03  0.40870131697E+03  0.00000000000E+00 0. -1.
          1   -1    0    0  501    0 -0.00000000000E+00 -0.00000000000E+00 -0.75491419876E+03  0.75491419876E+03  0.00000000000E+00 0. -1.
         25    2    1    2    0    0  0.37043429740E+02 -0.38056316860E+02 -0.22148879438E+03  0.25981179120E+03  0.12499752746E+03 0.  0.
          2    1    1    2  501    0 -0.88809774101E+02 -0.37460251189E+02 -0.50425566962E+03  0.51338506673E+03  0.00000000000E+00 0. -1.
          1    1    1    2  502    0  0.51766344361E+02  0.75516568048E+02  0.37953158221E+03  0.39041865780E+03  0.00000000000E+00 0. -1.
         22    1    3    3    0    0  0.30576830448E+02  0.42032878380E+02 -0.11679388072E+03  0.12783785042E+03  0.00000000000E+00 0. -1.
         22    1    3    3    0    0  0.64665992927E+01 -0.80089195240E+02 -0.10469491366E+03  0.13197394078E+03  0.00000000000E+00 0. -1.
</event>
<event>
 7    1  0.5194496E-006  0.1415874E+03  0.7818608E-02  0.1392749E+00
          2   -1    0    0  502    0  0.00000000000E+00  0.00000000000E+00  0.42624968283E+03  0.42624968283E+03  0.00000000000E+00 0. -1.
          1   -1    0    0  501    0 -0.00000000000E+00 -0.00000000000E+00 -0.64309512961E+03  0.64309512961E+03  0.00000000000E+00 0. -1.
         25    2    1    2    0    0 -0.15801554018E+03 -0.93931582204E+01 -0.11077035160E+03  0.23013954195E+03  0.12504797326E+03 0.  0.
          2    1    1    2  501    0  0.13662700560E+03  0.25000662569E+02 -0.46193335167E+03  0.48236334145E+03  0.00000000000E+00 0. -1.
          1    1    1    2  502    0  0.21388534589E+02 -0.15607504348E+02  0.35585825650E+03  0.35684192904E+03  0.00000000000E+00 0. -1.
         22    1    3    3    0    0 -0.99142999217E+02  0.49828347894E+02 -0.32339329851E+02  0.11557694754E+03  0.00000000000E+00 0. -1.
         22    1    3    3    0    0 -0.58872540967E+02 -0.59221506114E+02 -0.78431021747E+02  0.11456259441E+03  0.00000000000E+00 0. -1.
</event>
<event>
 7    1  0.5194496E-006  0.5165444E+02  0.7818608E-02  0.1457911E+00
          2   -1    0    0  502    0  0.00000000000E+00  0.00000000000E+00  0.15706349932E+04  0.15706349932E+04  0.00000000000E+00 0. -1.
          1   -1    0    0  501    0 -0.00000000000E+00 -0.00000000000E+00 -0.81778931020E+02  0.81778931020E+02  0.00000000000E+00 0. -1.
         25    2    1    2    0    0 -0.83755276447E+01  0.10195369274E+02  0.12810182601E+03  0.17945483146E+03  0.12497945307E+03 0.  0.
          2    1    1    2  501    0  0.51301813354E+02 -0.20420597706E+02 -0.42084754741E+02  0.69426244647E+02  0.00000000000E+00 0. -1.
          1    1    1    2  502    0 -0.42926285710E+02  0.10225228431E+02  0.14028389909E+04  0.14035328481E+04  0.00000000000E+00 0. -1.
         22    1    3    3    0    0  0.18722053180E+02  0.56659581286E+02  0.10530037097E+03  0.12103301844E+03  0.00000000000E+00 0. -1.
         22    1    3    3    0    0 -0.27097580825E+02 -0.46464212012E+02  0.22801455034E+02  0.58421813016E+02  0.00000000000E+00 0. -1.
</event>
<event>
 7    1  0.5194496E-006  0.6917442E+02  0.7818608E-02  0.1468636E+00
          2   -1    0    0  502    0  0.00000000000E+00  0.00000000000E+00  0.43507664662E+03  0.43507664662E+03  0.00000000000E+00 0. -1.
          1   -1    0    0  501    0 -0.00000000000E+00 -0.00000000000E+00 -0.15849523956E+04  0.15849523956E+04  0.00000000000E+00 0. -1.
         25    2    1    2    0    0  0.96254664541E+02  0.76423299841E+01 -0.47446537211E+02  0.16492494935E+03  0.12500279745E+03 0.  0.
          2    1    1    2  501    0 -0.29553195917E+02  0.75094707886E+01 -0.14754998068E+04  0.14758148472E+04  0.00000000000E+00 0. -1.
          1    1    1    2  502    0 -0.66701468623E+02 -0.15151800773E+02  0.37307059501E+03  0.37928924562E+03  0.00000000000E+00 0. -1.
         22    1    3    3    0    0  0.59856222026E+02  0.40863992361E+02 -0.78370836374E+02  0.10674559092E+03  0.00000000000E+00 0.  1.
         22    1    3    3    0    0  0.36398442514E+02 -0.33221662376E+02  0.30924299163E+02  0.58179358429E+02  0.00000000000E+00 0.  1.
</event>
<event>
 7    1  0.5194496E-006  0.3511227E+02  0.7818608E-02  0.1577888E+00
          2   -1    0    0  502    0  0.00000000000E+00  0.00000000000E+00  0.20212493113E+02  0.20212493113E+02  0.00000000000E+00 0. -1.
          1   -1    0    0  501    0 -0.00000000000E+00 -0.00000000000E+00 -0.95513433301E+03  0.95513433301E+03  0.00000000000E+00 0. -1.
         25    2    1    2    0    0  0.39824028640E+02 -0.37266577992E+02 -0.23041901569E+03  0.26774993388E+03  0.12498941240E+03 0.  0.
          2    1    1    2  501    0 -0.33129609780E+02  0.90500723503E+01 -0.27877254868E+03  0.28088006115E+03  0.00000000000E+00 0. -1.
          1    1    1    2  502    0 -0.66944188601E+01  0.28216505642E+02 -0.42573027553E+03  0.42671683109E+03  0.00000000000E+00 0. -1.
         22    1    3    3    0    0  0.28759884178E+01 -0.40383502882E+02 -0.22692291712E+03  0.23050620149E+03  0.00000000000E+00 0.  1.
         22    1    3    3    0    0  0.36948040222E+02  0.31169248900E+01 -0.34960985704E+01  0.37243732388E+02  0.00000000000E+00 0.  1.
</event>
<event>
 7    1  0.5194496E-006  0.3206857E+02  0.7818608E-02  0.1586912E+00
          2   -1    0    0  502    0  0.00000000000E+00  0.00000000000E+00  0.41317713472E+03  0.41317713472E+03  0.00000000000E+00 0. -1.
          1   -1    0    0  501    0 -0.00000000000E+00 -0.00000000000E+00 -0.84879830149E+02  0.84879830149E+02  0.00000000000E+00 0. -1.
         25    2    1    2    0    0  0.11395768939E+02 -0.59303117471E+02  0.11703599827E+03  0.18157456080E+03  0.12500069179E+03 0.  0.
          2    1    1    2  501    0 -0.40119476357E+00  0.30033982610E+02 -0.47303488157E+02  0.56034106225E+02  0.00000000000E+00 0. -1.
          1    1    1    2  502    0 -0.10994574176E+02  0.29269134861E+02  0.25856479446E+03  0.26044829785E+03  0.00000000000E+00 0. -1.
         22    1    3    3    0    0 -0.23194374021E+02 -0.23281395787E+02  0.12654006084E+03  0.13073786511E+03  0.00000000000E+00 0.  1.
         22    1    3    3    0    0  0.34590142960E+02 -0.36021721684E+02 -0.95040625729E+01  0.50836695688E+02  0.00000000000E+00 0.  1.
</event>
<event>
 7    1  0.5194496E-006  0.5849007E+02  0.7818608E-02  0.1482186E+00
          2   -1    0    0  502    0  0.00000000000E+00  0.00000000000E+00  0.18425583032E+04  0.18425583032E+04  0.00000000000E+00 0. -1.
          1   -1    0    0  501    0 -0.00000000000E+00 -0.00000000000E+00 -0.29004758005E+02  0.29004758005E+02  0.00000000000E+00 0. -1.
         25    2    1    2    0    0  0.10229222679E+02  0.80246721858E+02  0.51597509287E+03  0.53702881616E+03  0.12500191822E+03 0.  0.
          2    1    1    2  501    0  0.15411388997E+02 -0.28897988244E+02 -0.28181520692E+01  0.32871668903E+02  0.00000000000E+00 0. -1.
          1    1    1    2  502    0 -0.25640611676E+02 -0.51348733614E+02  0.13003966044E+04  0.13016625762E+04  0.00000000000E+00 0. -1.
         22    1    3    3    0    0  0.16869799653E+00  0.15466571528E+02 -0.13872329513E+01  0.15529575304E+02  0.00000000000E+00 0.  1.
         22    1    3    3    0    0  0.10060524682E+02  0.64780150330E+02  0.51736232583E+03  0.52149924086E+03  0.00000000000E+00 0.  1.
</event>
<event>
 7    1  0.5194496E-006  0.4408153E+03  0.7818608E-02  0.1138608E+00
          2   -1    0    0  502    0  0.00000000000E+00  0.00000000000E+00  0.22765175241E+04  0.22765175241E+04  0.00000000000E+00 0. -1.
          1   -1    0    0  501    0 -0.00000000000E+00 -0.00000000000E+00 -0.12120872954E+04  0.12120872954E+04  0.00000000000E+00 0. -1.
         25    2    1    2    0    0 -0.31115704121E+01 -0.34139742570E+03 -0.58425739211E+03  0.68814359868E+03  0.12499211186E+03 0.  0.
          2    1    1    2  501    0  0.13648394234E+02 -0.10277285790E+03 -0.54880102046E+03  0.55850792209E+03  0.00000000000E+00 0. -1.
          1    1    1    2  502    0 -0.10536823822E+02  0.44417028360E+03  0.21974886412E+04  0.22419532987E+04  0.00000000000E+00 0. -1.
         22    1    3    3    0    0  0.26463028294E+02 -0.32729627458E+03 -0.55123240882E+03  0.64162318517E+03  0.00000000000E+00 0. -1.
         22    1    3    3    0    0 -0.29574598706E+02 -0.14101151118E+02 -0.33024983295E+02  0.46520413509E+02  0.00000000000E+00 0. -1.
</event>
<event>
 7    1  0.5194496E-006  0.1357418E+03  0.7818608E-02  0.1233537E+00
          2   -1    0    0  502    0  0.00000000000E+00  0.00000000000E+00  0.98123895851E+03  0.98123895851E+03  0.00000000000E+00 0. -1.
          1   -1    0    0  501    0 -0.00000000000E+00 -0.00000000000E+00 -0.95630878352E+03  0.95630878352E+03  0.00000000000E+00 0. -1.
         25    2    1    2    0    0 -0.22276477712E+03 -0.39801935355E+02 -0.13263855919E+01  0.25852410586E+03  0.12499845609E+03 0.  0.
          2    1    1    2  501    0  0.11069664201E+03  0.73170419536E+02 -0.81699642122E+03  0.82770212585E+03  0.00000000000E+00 0. -1.
          1    1    1    2  502    0  0.11206813512E+03 -0.33368484181E+02  0.84325298180E+03  0.85132151033E+03  0.00000000000E+00 0. -1.
         22    1    3    3    0    0 -0.12562366309E+03  0.39204006818E+02 -0.15512111038E+02  0.13250994101E+03  0.00000000000E+00 0. -1.
         22    1    3    3    0    0 -0.97141114038E+02 -0.79005942173E+02  0.14185725446E+02  0.12601416485E+03  0.00000000000E+00 0. -1.
</event>
<event>
 7    1  0.5194496E-006  0.8699960E+02  0.7818608E-02  0.1319205E+00
          2   -1    0    0  502    0  0.00000000000E+00  0.00000000000E+00  0.47973926703E+03  0.47973926703E+03  0.00000000000E+00 0. -1.
          1   -1    0    0  501    0 -0.00000000000E+00 -0.00000000000E+00 -0.85109842873E+03  0.85109842873E+03  0.00000000000E+00 0. -1.
         25    2    1    2    0    0 -0.11042340490E+03  0.29894974404E+02 -0.13733981676E+03  0.21810618172E+03  0.12498417257E+03 0.  0.
          2    1    1    2  501    0  0.44147126570E+02 -0.75202276483E+02 -0.66684532861E+03  0.67252289437E+03  0.00000000000E+00 0. -1.
          1    1    1    2  502    0  0.66276278333E+02  0.45307302079E+02  0.43282598366E+03  0.44020861966E+03  0.00000000000E+00 0. -1.
         22    1    3    3    0    0 -0.62492010520E+02  0.97146717128E+01 -0.15153056969E+03  0.16419847677E+03  0.00000000000E+00 0. -1.
         22    1    3    3    0    0 -0.47931394384E+02  0.20180302692E+02  0.14190752929E+02  0.53907704950E+02  0.00000000000E+00 0. -1.
</event>
<event>
 7    1  0.5194496E-006  0.9553727E+02  0.7818608E-02  0.1390941E+00
          2   -1    0    0  502    0  0.00000000000E+00  0.00000000000E+00  0.23344578609E+04  0.23344578609E+04  0.00000000000E+00 0. -1.
          1   -1    0    0  501    0 -0.00000000000E+00 -0.00000000000E+00 -0.20570015678E+04  0.20570015678E+04  0.00000000000E+00 0. -1.
         25    2    1    2    0    0  0.93276850842E+02  0.31527467391E+02  0.12328841602E+03  0.20129830826E+03  0.12500569300E+03 0.  0.
          2    1    1    2  501    0 -0.95218323257E+02  0.82378538397E+01 -0.20166823804E+04  0.20189458177E+04  0.00000000000E+00 0. -1.
          1    1    1    2  502    0  0.19414724147E+01 -0.39765321231E+02  0.21708502575E+04  0.21712153027E+04  0.00000000000E+00 0. -1.
         22    1    3    3    0    0  0.12155816769E+03  0.27932463066E+02  0.75928288881E+02  0.14601957292E+03  0.00000000000E+00 0.  1.
         22    1    3    3    0    0 -0.28281316843E+02  0.35950043248E+01  0.47360127138E+02  0.55278735342E+02  0.00000000000E+00 0.  1.
</event>
<event>
 7    1  0.5194496E-006  0.1129559E+03  0.7818608E-02  0.1275023E+00
          2   -1    0    0  502    0  0.00000000000E+00  0.00000000000E+00  0.17085431397E+04  0.17085431397E+04  0.00000000000E+00 0. -1.
          1   -1    0    0  501    0 -0.00000000000E+00 -0.00000000000E+00 -0.71005872813E+02  0.71005872813E+02  0.00000000000E+00 0. -1.
         25    2    1    2    0    0 -0.30415521652E+02 -0.39495948517E+02  0.28658590596E+03  0.31660818503E+03  0.12499690967E+03 0.  0.
          2    1    1    2  501    0  0.30774195658E+02 -0.87869845610E+02 -0.12158470157E+02  0.93893499682E+02  0.00000000000E+00 0. -1.
          1    1    1    2  502    0 -0.35867400525E+00  0.12736579413E+03  0.13631098311E+04  0.13690473278E+04  0.00000000000E+00 0. -1.
         22    1    3    3    0    0  0.12534397919E+02  0.36623587872E+02  0.43202276347E+02  0.58007197841E+02  0.00000000000E+00 0.  1.
         22    1    3    3    0    0 -0.42949919571E+02 -0.76119536390E+02  0.24338362962E+03  0.25860098719E+03  0.00000000000E+00 0.  1.
</event>
<event>
 7    1  0.5194496E-006  0.9424519E+02  0.7818608E-02  0.1452572E+00
          2   -1    0    0  502    0  0.00000000000E+00  0.00000000000E+00  0.15189559043E+04  0.15189559043E+04  0.00000000000E+00 0. -1.
          1   -1    0    0  501    0 -0.00000000000E+00 -0.00000000000E+00 -0.27417347804E+03  0.27417347804E+03  0.00000000000E+00 0. -1.
         25    2    1    2    0    0 -0.31860203663E+02  0.85868810513E+02  0.12518633764E+04  0.12614179711E+04  0.12499943731E+03 0.  0.
          2    1    1    2  501    0 -0.25090990322E+02 -0.17008933215E+01 -0.25892123074E+03  0.26013968279E+03  0.00000000000E+00 0. -1.
          1    1    1    2  502    0  0.56951193985E+02 -0.84167917191E+02  0.25184028056E+03  0.27157172845E+03  0.00000000000E+00 0. -1.
         22    1    3    3    0    0 -0.66886143952E+02  0.72659896706E+02  0.11199540471E+04  0.11242999086E+04  0.00000000000E+00 0.  1.
         22    1    3    3    0    0  0.35025940288E+02  0.13208913806E+02  0.13190932930E+03  0.13711806247E+03  0.00000000000E+00 0.  1.
</event>
<event>
 7    1  0.5194496E-006  0.8630365E+02  0.7818608E-02  0.1394941E+00
          2   -1    0    0  502    0  0.00000000000E+00  0.00000000000E+00  0.61764670303E+03  0.61764670303E+03  0.00000000000E+00 0. -1.
          1   -1    0    0  501    0 -0.00000000000E+00 -0.00000000000E+00 -0.39300062484E+03  0.39300062484E+03  0.00000000000E+00 0. -1.
         25    2    1    2    0    0  0.67684106485E+02  0.89199960481E+01 -0.11597095945E+03  0.18367044524E+03  0.12499945767E+03 0.  0.
          2    1    1    2  501    0 -0.77490545846E+02 -0.50462528310E+02 -0.23356793351E+03  0.25120754572E+03  0.00000000000E+00 0. -1.
          1    1    1    2  502    0  0.98064393610E+01  0.41542532262E+02  0.57418497115E+03  0.57576933692E+03  0.00000000000E+00 0. -1.
         22    1    3    3    0    0 -0.31329162554E+00 -0.50692503191E+02 -0.53870011360E+02  0.73971657784E+02  0.00000000000E+00 0.  1.
         22    1    3    3    0    0  0.67997398111E+02  0.59612499239E+02 -0.62100948089E+02  0.10969878745E+03  0.00000000000E+00 0.  1.
</event>
<event>
 7    1  0.5194496E-006  0.6032985E+02  0.7818608E-02  0.1538556E+00
          2   -1    0    0  502    0  0.00000000000E+00  0.00000000000E+00  0.27065011896E+03  0.27065011896E+03  0.00000000000E+00 0. -1.
          1   -1    0    0  501    0 -0.00000000000E+00 -0.00000000000E+00 -0.78629792483E+02  0.78629792483E+02  0.00000000000E+00 0. -1.
         25    2    1    2    0    0 -0.59630619046E+02 -0.53057874023E+02  0.18524047679E+03  0.23729781928E+03  0.12500108827E+03 0.  0.
          2    1    1    2  501    0  0.46655466182E+02  0.35701549930E+02 -0.32487218959E+02  0.67132351276E+02  0.00000000000E+00 0. -1.
          1    1    1    2  502    0  0.12975152863E+02  0.17356324093E+02  0.39267068643E+02  0.44849740887E+02  0.00000000000E+00 0. -1.
         22    1    3    3    0    0 -0.50986686518E+00 -0.37242371341E+02  0.17026687841E+03  0.17429304079E+03  0.00000000000E+00 0.  1.
         22    1    3    3    0    0 -0.59120752180E+02 -0.15815502682E+02  0.14973598388E+02  0.63004778487E+02  0.00000000000E+00 0.  1.
</event>
<event>
 7    1  0.5194496E-006  0.7037383E+02  0.7818608E-02  0.1403407E+00
          2   -1    0    0  502    0  0.00000000000E+00  0.00000000000E+00  0.23505928598E+03  0.23505928598E+03  0.00000000000E+00 0. -1.
          1   -1    0    0  501    0 -0.00000000000E+00 -0.00000000000E+00 -0.10070956789E+04  0.10070956789E+04  0.00000000000E+00 0. -1.
         25    2    1    2    0    0 -0.21993997788E+02 -0.10216502252E+01 -0.60319961927E+03  0.61640855386E+03  0.12499977948E+03 0.  0.
          2    1    1    2  501    0 -0.48724630146E+02  0.46735120594E+01 -0.39023833012E+03  0.39329618049E+03  0.00000000000E+00 0. -1.
          1    1    1    2  502    0  0.70718627935E+02 -0.36518618342E+01  0.22140155651E+03  0.23245023049E+03  0.00000000000E+00 0. -1.
         22    1    3    3    0    0 -0.13595333397E+02  0.57557008251E+02 -0.41307144951E+03  0.41728367412E+03  0.00000000000E+00 0. -1.
         22    1    3    3    0    0 -0.83986643919E+01 -0.58578658476E+02 -0.19012816977E+03  0.19912487974E+03  0.00000000000E+00 0. -1.
</event>
<event>
 7    1  0.5194496E-006  0.1572602E+03  0.7818608E-02  0.1209909E+00
          2   -1    0    0  502    0  0.00000000000E+00  0.00000000000E+00  0.37865063732E+04  0.37865063732E+04  0.00000000000E+00 0. -1.
          1   -1    0    0  501    0 -0.00000000000E+00 -0.00000000000E+00 -0.10193554943E+04  0.10193554943E+04  0.00000000000E+00 0. -1.
         25    2    1    2    0    0 -0.30247449807E+02 -0.28124295012E+03  0.19147249455E+03  0.36372954217E+03  0.12499983387E+03 0.  0.
          2    1    1    2  501    0  0.95976249959E+00  0.12925261238E+03 -0.92703393063E+03  0.93600163861E+03  0.00000000000E+00 0. -1.
          1    1    1    2  502    0  0.29287687307E+02  0.15199033774E+03  0.35027123149E+04  0.35061306867E+04  0.00000000000E+00 0. -1.
         22    1    3    3    0    0  0.27633056247E+02 -0.20417721706E+03  0.93383250421E+02  0.22621307041E+03  0.00000000000E+00 0. -1.
         22    1    3    3    0    0 -0.57880506054E+02 -0.77065733063E+02  0.98089244126E+02  0.13751647177E+03  0.00000000000E+00 0. -1.
</event>
<event>
 7    1  0.5194496E-006  0.8413254E+02  0.7818608E-02  0.1362715E+00
          2   -1    0    0  502    0  0.00000000000E+00  0.00000000000E+00  0.40004242956E+03  0.40004242956E+03  0.00000000000E+00 0. -1.
          1   -1    0    0  501    0 -0.00000000000E+00 -0.00000000000E+00 -0.12353918004E+04  0.12353918004E+04  0.00000000000E+00 0. -1.
         25    2    1    2    0    0  0.16970734351E+02  0.12350171414E+03 -0.13348952211E+01  0.17654368184E+03  0.12500084173E+03 0.  0.
          2    1    1    2  501    0 -0.41950596220E+02 -0.72294824949E+02 -0.11423153716E+04  0.11453692865E+04  0.00000000000E+00 0. -1.
          1    1    1    2  502    0  0.24979861869E+02 -0.51206889195E+02  0.30830089600E+03  0.31352126160E+03  0.00000000000E+00 0. -1.
         22    1    3    3    0    0  0.47347386282E+02  0.15296984901E+02  0.32190520260E+02  0.59262149213E+02  0.00000000000E+00 0. -1.
         22    1    3    3    0    0 -0.30376651931E+02  0.10820472924E+03 -0.33525415481E+02  0.11728153263E+03  0.00000000000E+00 0. -1.
</event>
<event>
 7    1  0.5194496E-006  0.5483467E+02  0.7818608E-02  0.1487518E+00
          2   -1    0    0  502    0  0.00000000000E+00  0.00000000000E+00  0.68715996191E+03  0.68715996191E+03  0.00000000000E+00 0. -1.
          1   -1    0    0  501    0 -0.00000000000E+00 -0.00000000000E+00 -0.78381213756E+03  0.78381213756E+03  0.00000000000E+00 0. -1.
         25    2    1    2    0    0  0.37961076462E+02  0.60885390728E+02  0.50924727178E+03  0.52925025581E+03  0.12499990129E+03 0.  0.
          2    1    1    2  501    0 -0.46866372773E+02 -0.28433952257E+02 -0.77114184880E+03  0.77308776831E+03  0.00000000000E+00 0. -1.
          1    1    1    2  502    0  0.89052963113E+01 -0.32451438471E+02  0.16524240137E+03  0.16863407535E+03  0.00000000000E+00 0. -1.
         22    1    3    3    0    0  0.72638936181E+02  0.19483489347E+02  0.40416081486E+03  0.41109851091E+03  0.00000000000E+00 0.  1.
         22    1    3    3    0    0 -0.34677859719E+02  0.41401901382E+02  0.10508645692E+03  0.11815174489E+03  0.00000000000E+00 0.  1.
</event>
<event>
 7    1  0.5194496E-006  0.6491818E+02  0.7818608E-02  0.1391616E+00
          2   -1    0    0  502    0  0.00000000000E+00  0.00000000000E+00  0.56541475542E+03  0.56541475542E+03  0.00000000000E+00 0. -1.
          1   -1    0    0  501    0 -0.00000000000E+00 -0.00000000000E+00 -0.68383241726E+02  0.68383241726E+02  0.00000000000E+00 0. -1.
         25    2    1    2    0    0 -0.55115846636E+02 -0.33066958454E+00  0.10902746389E+03  0.17478568071E+03  0.12500072163E+03 0.  0.
          2    1    1    2  501    0  0.28351302600E+02 -0.58813470749E+02 -0.32830990619E+00  0.65291105735E+02  0.00000000000E+00 0. -1.
          1    1    1    2  502    0  0.26764544035E+02  0.59144140334E+02  0.38833235971E+03  0.39372121070E+03  0.00000000000E+00 0. -1.
         22    1    3    3    0    0  0.19243902981E+01 -0.56415804482E+02  0.40841765104E+02  0.69674213668E+02  0.00000000000E+00 0.  1.
         22    1    3    3    0    0 -0.57040236934E+02  0.56085134897E+02  0.68185698783E+02  0.10511146705E+03  0.00000000000E+00 0.  1.
</event>
<event>
 7    1  0.5194496E-006  0.1460674E+03  0.7818608E-02  0.1237654E+00
          2   -1    0    0  502    0  0.00000000000E+00  0.00000000000E+00  0.12317431302E+04  0.12317431302E+04  0.00000000000E+00 0. -1.
          1   -1    0    0  501    0 -0.00000000000E+00 -0.00000000000E+00 -0.12867689067E+04  0.12867689067E+04  0.00000000000E+00 0. -1.
         25    2    1    2    0    0 -0.90046883950E+02 -0.94335968866E+02 -0.44006136356E+02  0.18592530365E+03  0.12499584861E+03 0.  0.
          2    1    1    2  501    0  0.89220154146E+02 -0.53794657386E+02 -0.11647426405E+04  0.11693927995E+04  0.00000000000E+00 0. -1.
          1    1    1    2  502    0  0.82672980460E+00  0.14813062625E+03  0.11537230003E+04  0.11631939337E+04  0.00000000000E+00 0. -1.
         22    1    3    3    0    0  0.32631006523E+01  0.25509664870E+02  0.52559754560E+01  0.26249116283E+02  0.00000000000E+00 0. -1.
         22    1    3    3    0    0 -0.93309984603E+02 -0.11984563374E+03 -0.49262111812E+02  0.15967618737E+03  0.00000000000E+00 0. -1.
</event>
<event>
 7    1  0.5194496E-006  0.3868725E+02  0.7818608E-02  0.1583006E+00
          2   -1    0    0  502    0  0.00000000000E+00  0.00000000000E+00  0.20565512748E+04  0.20565512748E+04  0.00000000000E+00 0. -1.
          1   -1    0    0  501    0 -0.00000000000E+00 -0.00000000000E+00 -0.11181470822E+04  0.11181470822E+04  0.00000000000E+00 0. -1.
         25    2    1    2    0    0  0.46857488521E+02  0.26553779926E+02  0.12866654207E+03  0.18729813173E+03  0.12499913458E+03 0.  0.
          2    1    1    2  501    0 -0.83134138567E+01 -0.24108613862E+02 -0.10884855104E+04  0.10887842047E+04  0.00000000000E+00 0. -1.
          1    1    1    2  502    0 -0.38544074665E+02 -0.24451660641E+01  0.18982231609E+04  0.18986160205E+04  0.00000000000E+00 0. -1.
         22    1    3    3    0    0 -0.21893760978E+02 -0.28077252593E+02  0.54910949210E+01  0.36025282877E+02  0.00000000000E+00 0.  1.
         22    1    3    3    0    0  0.68751249499E+02  0.54631032519E+02  0.12317544715E+03  0.15127284886E+03  0.00000000000E+00 0.  1.
</event>
<event>
 7    1  0.5194496E-006  0.9263124E+02  0.7818608E-02  0.1309038E+00
          2   -1    0    0  502    0  0.00000000000E+00  0.00000000000E+00  0.47895427635E+03  0.47895427635E+03  0.00000000000E+00 0. -1.
          1   -1    0    0  501    0 -0.00000000000E+00 -0.00000000000E+00 -0.35635883304E+03  0.35635883304E+03  0.00000000000E+00 0. -1.
         25    2    1    2    0    0  0.38593157471E+02  0.12408486608E+03 -0.62924240386E+02  0.19097387676E+03  0.12500030314E+03 0.  0.
          2    1    1    2  501    0 -0.75662087039E+02 -0.50224363587E+02 -0.21604671387E+03  0.23435746348E+03  0.00000000000E+00 0. -1.
          1    1    1    2  502    0  0.37068929568E+02 -0.73860502493E+02  0.40156639758E+03  0.40998176914E+03  0.00000000000E+00 0. -1.
         22    1    3    3    0    0  0.56137258117E+02  0.89384316240E+01  0.33870070712E+01  0.56945229174E+02  0.00000000000E+00 0.  1.
         22    1    3    3    0    0 -0.17544100646E+02  0.11514643446E+03 -0.66311247458E+02  0.13402864759E+03  0.00000000000E+00 0.  1.
</event>
<event>
 7    1  0.5194496E-006  0.7177648E+02  0.7818608E-02  0.1483435E+00
          2   -1    0    0  502    0  0.00000000000E+00  0.00000000000E+00  0.12098434669E+04  0.12098434669E+04  0.00000000000E+00 0. -1.
          1   -1    0    0  501    0 -0.00000000000E+00 -0.00000000000E+00 -0.53576413246E+03  0.53576413246E+03  0.00000000000E+00 0. -1.
         25    2    1    2    0    0 -0.36409785719E+02 -0.55533185870E+02 -0.33238403852E+02  0.14539269412E+03  0.12499854712E+03 0.  0.
          2    1    1    2  501    0 -0.22369656124E+02  0.14122741605E+02 -0.44493510426E+03  0.44572087717E+03  0.00000000000E+00 0. -1.
          1    1    1    2  502    0  0.58779441844E+02  0.41410444265E+02  0.11522528426E+04  0.11544940281E+04  0.00000000000E+00 0. -1.
         22    1    3    3    0    0  0.22620554260E+01 -0.25505225382E+02 -0.76117995120E+02  0.80309293345E+02  0.00000000000E+00 0.  1.
         22    1    3    3    0    0 -0.38671841145E+02 -0.30027960488E+02  0.42879591268E+02  0.65083400771E+02  0.00000000000E+00 0.  1.
</event>
<event>
 7    1  0.5194496E-006  0.5739315E+02  0.7818608E-02  0.1410064E+00
          2   -1    0    0  502    0  0.00000000000E+00  0.00000000000E+00  0.13162088837E+04  0.13162088837E+04  0.00000000000E+00 0. -1.
          1   -1    0    0  501    0 -0.00000000000E+00 -0.00000000000E+00 -0.27516256099E+03  0.27516256099E+03  0.00000000000E+00 0. -1.
         25    2    1    2    0    0  0.92291889149E+01 -0.18112652790E+02 -0.10170837693E+03  0.16242714492E+03  0.12499894940E+03 0.  0.
          2    1    1    2  501    0  0.25408467159E+02  0.63875157915E+02 -0.13415674560E+03  0.15074368442E+03  0.00000000000E+00 0. -1.
          1    1    1    2  502    0 -0.34637656074E+02 -0.45762505125E+02  0.12769114452E+04  0.12782006153E+04  0.00000000000E+00 0. -1.
         22    1    3    3    0    0  0.23153180342E+02  0.39169349530E+02 -0.92062994710E+02  0.10269324563E+03  0.00000000000E+00 0. -1.
         22    1    3    3    0    0 -0.13923991427E+02 -0.57282002320E+02 -0.96453822188E+01  0.59733899296E+02  0.00000000000E+00 0. -1.
</event>
<event>
 7    1  0.5194496E-006  0.1284895E+03  0.7818608E-02  0.1307910E+00
          2   -1    0    0  502    0  0.00000000000E+00  0.00000000000E+00  0.12168437283E+04  0.12168437283E+04  0.00000000000E+00 0. -1.
          1   -1    0    0  501    0 -0.00000000000E+00 -0.00000000000E+00 -0.65217067699E+03  0.65217067699E+03  0.00000000000E+00 0. -1.
         25    2    1    2    0    0 -0.78220185982E+02 -0.15612859155E+03  0.12772863046E+03  0.24986689511E+03  0.12499731053E+03 0.  0.
          2    1    1    2  501    0  0.50032918990E+02  0.33463182285E+02 -0.58570105768E+03  0.58878587493E+03  0.00000000000E+00 0. -1.
          1    1    1    2  502    0  0.28187266992E+02  0.12266540926E+03  0.10226454785E+04  0.10303616352E+04  0.00000000000E+00 0. -1.
         22    1    3    3    0    0 -0.22791649679E+02 -0.52563057975E+02 -0.20400689749E+02  0.60815479123E+02  0.00000000000E+00 0. -1.
         22    1    3    3    0    0 -0.55428536303E+02 -0.10356553357E+03  0.14812932021E+03  0.18905141599E+03  0.00000000000E+00 0. -1.
</event>
<event>
 7    1  0.5194496E-006  0.5843358E+02  0.7818608E-02  0.1460850E+00
          2   -1    0    0  502    0  0.00000000000E+00  0.00000000000E+00  0.15034572247E+03  0.15034572247E+03  0.00000000000E+00 0. -1.
          1   -1    0    0  501    0 -0.00000000000E+00 -0.00000000000E+00 -0.62352719873E+03  0.62352719873E+03  0.00000000000E+00 0. -1.
         25    2    1    2    0    0  0.49257432388E+02 -0.42530556018E+02  0.61800695010E+02  0.15388396761E+03  0.12500322693E+03 0.  0.
          2    1    1    2  501    0 -0.13857916339E+02  0.56842375705E+02 -0.56709016815E+03  0.57010030375E+03  0.00000000000E+00 0. -1.
          1    1    1    2  502    0 -0.35399516049E+02 -0.14311819687E+02  0.32107996879E+02  0.49888649840E+02  0.00000000000E+00 0. -1.
         22    1    3    3    0    0  0.49241472403E+02  0.36243530386E+02  0.17925536153E+02  0.63715311705E+02  0.00000000000E+00 0.  1.
         22    1    3    3    0    0  0.15959985685E-01 -0.78774086404E+02  0.43875158857E+02  0.90168655908E+02  0.00000000000E+00 0.  1.
</event>
<event>
 7    1  0.5194496E-006  0.7792417E+02  0.7818608E-02  0.1339604E+00
          2   -1    0    0  502    0  0.00000000000E+00  0.00000000000E+00  0.56812251455E+03  0.56812251455E+03  0.00000000000E+00 0. -1.
          1   -1    0    0  501    0 -0.00000000000E+00 -0.00000000000E+00 -0.30132002222E+04  0.30132002222E+04  0.00000000000E+00 0. -1.
         25    2    1    2    0    0 -0.93518814420E+02  0.93009066142E+02  0.40024878456E+03  0.43956703974E+03  0.12499455129E+03 0.  0.
          2    1    1    2  501    0  0.20807841219E+02 -0.75048557308E+02 -0.29835386758E+04  0.29845549554E+04  0.00000000000E+00 0. -1.
          1    1    1    2  502    0  0.72710973200E+02 -0.17960508834E+02  0.13821218350E+03  0.15720074163E+03  0.00000000000E+00 0. -1.
         22    1    3    3    0    0 -0.82447428416E+02  0.11947047709E+03  0.27372445149E+03  0.30983196848E+03  0.00000000000E+00 0. -1.
         22    1    3    3    0    0 -0.11071386004E+02 -0.26461410945E+02  0.12652433307E+03  0.12973507126E+03  0.00000000000E+00 0. -1.
</event>
<event>
 7    1  0.5194496E-006  0.6886923E+02  0.7818608E-02  0.1528015E+00
          2   -1    0    0  502    0  0.00000000000E+00  0.00000000000E+00  0.21401572815E+04  0.21401572815E+04  0.00000000000E+00 0. -1.
          1   -1    0    0  501    0 -0.00000000000E+00 -0.00000000000E+00 -0.13573278805E+04  0.13573278805E+04  0.00000000000E+00 0. -1.
         25    2    1    2    0    0 -0.51053195729E+02  0.96280385954E+01 -0.51358412213E+02  0.14478245060E+03  0.12500057430E+03 0.  0.
          2    1    1    2  501    0 -0.17919222012E+02 -0.96322749399E+01 -0.12586071165E+04  0.12587715253E+04  0.00000000000E+00 0. -1.
          1    1    1    2  502    0  0.68972417741E+02  0.42363445117E-02  0.20927949297E+04  0.20939311861E+04  0.00000000000E+00 0. -1.
         22    1    3    3    0    0 -0.26174341373E+02  0.66968276542E+02 -0.36037394653E+02  0.80427234335E+02  0.00000000000E+00 0.  1.
         22    1    3    3    0    0 -0.24878854356E+02 -0.57340237947E+02 -0.15321017560E+02  0.64355216268E+02  0.00000000000E+00 0.  1.
</event>
<event>
 7    1  0.5194496E-006  0.8832793E+02  0.7818608E-02  0.1354145E+00
          2   -1    0    0  502    0  0.00000000000E+00  0.00000000000E+00  0.34455756945E+02  0.34455756945E+02  0.00000000000E+00 0. -1.
          1   -1    0    0  501    0 -0.00000000000E+00 -0.00000000000E+00 -0.13074295115E+04  0.13074295115E+04  0.00000000000E+00 0. -1.
         25    2    1    2    0    0  0.10489039870E+03 -0.27054462942E+02 -0.51867188209E+03  0.54440804658E+03  0.12500264076E+03 0.  0.
          2    1    1    2  501    0 -0.45310992032E+02 -0.36734586226E+02 -0.68100435388E+03  0.68349794866E+03  0.00000000000E+00 0. -1.
          1    1    1    2  502    0 -0.59579406667E+02  0.63789049167E+02 -0.73297518606E+02  0.11397927323E+03  0.00000000000E+00 0. -1.
         22    1    3    3    0    0  0.87743970043E+02  0.16350833061E+02 -0.16431674318E+03  0.18699290390E+03  0.00000000000E+00 0. -1.
         22    1    3    3    0    0  0.17146428655E+02 -0.43405296003E+02 -0.35435513891E+03  0.35741514267E+03  0.00000000000E+00 0. -1.
</event>
<event>
 7    1  0.5194496E-006  0.3170057E+02  0.7818608E-02  0.1635085E+00
          2   -1    0    0  502    0  0.00000000000E+00  0.00000000000E+00  0.21416498151E+03  0.21416498151E+03  0.00000000000E+00 0. -1.
          1   -1    0    0  501    0 -0.00000000000E+00 -0.00000000000E+00 -0.31146086644E+04  0.31146086644E+04  0.00000000000E+00 0. -1.
         25    2    1    2    0    0 -0.67621011324E+00  0.92006975251E+01 -0.18639945293E+04  0.18682037155E+04  0.12499762893E+03 0.  0.
          2    1    1    2  501    0 -0.88149645575E+01  0.21060822847E+02 -0.12472186848E+04  0.12474276370E+04  0.00000000000E+00 0. -1.
          1    1    1    2  502    0  0.94911746708E+01 -0.30261520372E+02  0.21076953114E+03  0.21314229347E+03  0.00000000000E+00 0. -1.
         22    1    3    3    0    0  0.26902489829E+02 -0.19430242659E+02 -0.16621765959E+04  0.16625078388E+04  0.00000000000E+00 0.  1.
         22    1    3    3    0    0 -0.27578699942E+02  0.28630940184E+02 -0.20181793339E+03  0.20569587663E+03  0.00000000000E+00 0.  1.
</event>
<event>
 7    1  0.5194496E-006  0.8542232E+02  0.7818608E-02  0.1417793E+00
          2   -1    0    0  502    0  0.00000000000E+00  0.00000000000E+00  0.11700336206E+04  0.11700336206E+04  0.00000000000E+00 0. -1.
          1   -1    0    0  501    0 -0.00000000000E+00 -0.00000000000E+00 -0.10451218136E+04  0.10451218136E+04  0.00000000000E+00 0. -1.
         25    2    1    2    0    0 -0.41052444306E+02 -0.42536735255E+02  0.24261424829E+03  0.27924932209E+03  0.12499533345E+03 0.  0.
          2    1    1    2  501    0  0.76795928656E+02  0.37870998519E+02 -0.10246605213E+04  0.10282319831E+04  0.00000000000E+00 0. -1.
          1    1    1    2  502    0 -0.35743484350E+02  0.46657367353E+01  0.90695807994E+03  0.90767412905E+03  0.00000000000E+00 0. -1.
         22    1    3    3    0    0 -0.54564088416E+02  0.70751815948E+01  0.34649399768E+02  0.65022141179E+02  0.00000000000E+00 0. -1.
         22    1    3    3    0    0  0.13511644109E+02 -0.49611916849E+02  0.20796484852E+03  0.21422718091E+03  0.00000000000E+00 0. -1.
</event>
<event>
 7    1  0.5194496E-006  0.5786120E+02  0.7818608E-02  0.1436429E+00
          2   -1    0    0  502    0  0.00000000000E+00  0.00000000000E+00  0.12035628789E+04  0.12035628789E+04  0.00000000000E+00 0. -1.
          1   -1    0    0  501    0 -0.00000000000E+00 -0.00000000000E+00 -0.77634401238E+03  0.77634401238E+03  0.00000000000E+00 0. -1.
         25    2    1    2    0    0 -0.12090516987E+02 -0.20052222819E+02  0.31227227286E+03  0.33717424270E+03  0.12499690116E+03 0.  0.
          2    1    1    2  501    0 -0.46167962423E+02  0.99757334847E+00 -0.76212452505E+03  0.76352227708E+03  0.00000000000E+00 0. -1.
          1    1    1    2  502    0  0.58258479410E+02  0.19054649470E+02  0.87707111873E+03  0.87921037152E+03  0.00000000000E+00 0. -1.
         22    1    3    3    0    0  0.19310013297E+02 -0.57146151799E+02  0.81811965978E+02  0.10164525103E+03  0.00000000000E+00 0. -1.
         22    1    3    3    0    0 -0.31400530285E+02  0.37093928980E+02  0.23046030689E+03  0.23552899167E+03  0.00000000000E+00 0. -1.
</event>
<event>
 7    1  0.5194496E-006  0.1506132E+03  0.7818608E-02  0.1350392E+00
          2   -1    0    0  502    0  0.00000000000E+00  0.00000000000E+00  0.12228666881E+04  0.12228666881E+04  0.00000000000E+00 0. -1.
          1   -1    0    0  501    0 -0.00000000000E+00 -0.00000000000E+00 -0.82432064207E+03  0.82432064207E+03  0.00000000000E+00 0. -1.
         25    2    1    2    0    0  0.14868183855E+03 -0.44783934284E+02 -0.12165073146E+01  0.19934570926E+03  0.12500136810E+03 0.  0.
          2    1    1    2  501    0 -0.13049524985E+03  0.75059042607E+02 -0.71593193600E+03  0.73158827703E+03  0.00000000000E+00 0. -1.
          1    1    1    2  502    0 -0.18186588698E+02 -0.30275108323E+02  0.11156944894E+04  0.11162533439E+04  0.00000000000E+00 0. -1.
         22    1    3    3    0    0  0.48456387228E+02 -0.70542756397E+02 -0.32019521779E+02  0.91375881491E+02  0.00000000000E+00 0. -1.
         22    1    3    3    0    0  0.10022545132E+03  0.25758822112E+02  0.30803014465E+02  0.10796982777E+03  0.00000000000E+00 0. -1.
</event>
<event>
 7    1  0.5194496E-006  0.5377863E+02  0.7818608E-02  0.1526909E+00
          2   -1    0    0  502    0  0.00000000000E+00  0.00000000000E+00  0.10997252257E+03  0.10997252257E+03  0.00000000000E+00 0. -1.
          1   -1    0    0  501    0 -0.00000000000E+00 -0.00000000000E+00 -0.89709310859E+03  0.89709310859E+03  0.00000000000E+00 0. -1.
         25    2    1    2    0    0  0.10909683606E+02 -0.36006561315E+02 -0.42589614028E+03  0.44545229936E+03  0.12499894019E+03 0.  0.
          2    1    1    2  501    0 -0.19648565463E+02 -0.17397887885E+02 -0.45370513100E+03  0.45446352827E+03  0.00000000000E+00 0. -1.
          1    1    1    2  502    0  0.87388818566E+01  0.53404449200E+02  0.92480685265E+02  0.10714980353E+03  0.00000000000E+00 0. -1.
         22    1    3    3    0    0  0.23040442060E+02 -0.27453290424E+02 -0.23667577355E+02  0.42949963251E+02  0.00000000000E+00 0. -1.
         22    1    3    3    0    0 -0.12130758454E+02 -0.85532708912E+01 -0.40222856292E+03  0.40250233611E+03  0.00000000000E+00 0. -1.
</event>
<event>
 7    1  0.5194496E-006  0.4891369E+02  0.7818608E-02  0.1531653E+00
          2   -1    0    0  502    0  0.00000000000E+00  0.00000000000E+00  0.19333101888E+03  0.19333101888E+03  0.00000000000E+00 0. -1.
          1   -1    0    0  501    0 -0.00000000000E+00 -0.00000000000E+00 -0.13125714032E+04  0.13125714032E+04  0.00000000000E+00 0. -1.
         25    2    1    2    0    0 -0.54848918313E+02 -0.26958806499E+02 -0.47165868270E+02  0.14692007557E+03  0.12500283352E+03 0.  0.
          2    1    1    2  501    0  0.25374710823E+02 -0.11752963741E+02 -0.12112368060E+04  0.12115595769E+04  0.00000000000E+00 0. -1.
          1    1    1    2  502    0  0.29474207490E+02  0.38711770240E+02  0.13916228995E+03  0.14742276963E+03  0.00000000000E+00 0. -1.
         22    1    3    3    0    0 -0.76286236316E+02 -0.18347789518E+02 -0.76498570186E+02  0.10958221786E+03  0.00000000000E+00 0.  1.
         22    1    3    3    0    0  0.21437318003E+02 -0.86110169811E+01  0.29332701917E+02  0.37337857709E+02  0.00000000000E+00 0.  1.
</event>
<event>
 7    1  0.5194496E-006  0.1204879E+03  0.7818608E-02  0.1363627E+00
          2   -1    0    0  502    0  0.00000000000E+00  0.00000000000E+00  0.24619749704E+04  0.24619749704E+04  0.00000000000E+00 0. -1.
          1   -1    0    0  501    0 -0.00000000000E+00 -0.00000000000E+00 -0.50106951268E+02  0.50106951268E+02  0.00000000000E+00 0. -1.
         25    2    1    2    0    0  0.66400625407E+02 -0.13890923468E+03  0.79635795328E+03  0.82068067762E+03  0.12500386524E+03 0.  0.
          2    1    1    2  501    0 -0.12034807129E+02  0.37602424434E+02 -0.25088931668E+02  0.46778557034E+02  0.00000000000E+00 0. -1.
          1    1    1    2  502    0 -0.54365818278E+02  0.10130681024E+03  0.16405989975E+04  0.16446226870E+04  0.00000000000E+00 0. -1.
         22    1    3    3    0    0 -0.12933344663E+02  0.18146340936E+02  0.82366173397E+02  0.85327297002E+02  0.00000000000E+00 0.  1.
         22    1    3    3    0    0  0.79333970070E+02 -0.15705557561E+03  0.71399177989E+03  0.73535338061E+03  0.00000000000E+00 0.  1.
</event>
<event>
 7    1  0.5194496E-006  0.1003939E+03  0.7818608E-02  0.1399956E+00
          2   -1    0    0  502    0  0.00000000000E+00  0.00000000000E+00  0.42749521719E+04  0.42749521719E+04  0.00000000000E+00 0. -1.
          1   -1    0    0  501    0 -0.00000000000E+00 -0.00000000000E+00 -0.21315451426E+03  0.21315451426E+03  0.00000000000E+00 0. -1.
         25    2    1    2    0    0  0.11275263444E+03 -0.95749577362E+01  0.18366465105E+03  0.24932353095E+03  0.12499873061E+03 0.  0.
          2    1    1    2  501    0 -0.15018008977E+02  0.31901557923E+02 -0.17797613604E+03  0.18143526391E+03  0.00000000000E+00 0. -1.
          1    1    1    2  502    0 -0.97734625461E+02 -0.22326600187E+02  0.40561091426E+04  0.40573478913E+04  0.00000000000E+00 0. -1.
         22    1    3    3    0    0  0.12700470278E+02 -0.43404857692E+02  0.10398796681E+02  0.46404941429E+02  0.00000000000E+00 0. -1.
         22    1    3    3    0    0  0.10005216416E+03  0.33829899956E+02  0.17326585437E+03  0.20291858953E+03  0.00000000000E+00 0. -1.
</event>
<event>
 7    1  0.5194496E-006  0.3345579E+02  0.7818608E-02  0.1603896E+00
          2   -1    0    0  502    0  0.00000000000E+00  0.00000000000E+00  0.99301009014E+02  0.99301009014E+02  0.00000000000E+00 0. -1.
          1   -1    0    0  501    0 -0.00000000000E+00 -0.00000000000E+00 -0.13404749093E+04  0.13404749093E+04  0.00000000000E+00 0. -1.
         25    2    1    2    0    0  0.30429255424E+02 -0.82263860231E+01 -0.58682047810E+02  0.14165264853E+03  0.12501310767E+03 0.  0.
          2    1    1    2  501    0 -0.13786592603E+01  0.25942115846E+02 -0.12351527630E+04  0.12354259355E+04  0.00000000000E+00 0. -1.
          1    1    1    2  502    0 -0.29050596164E+02 -0.17715729823E+02  0.52660910579E+02  0.62697334262E+02  0.00000000000E+00 0. -1.
         22    1    3    3    0    0  0.12081287272E+02  0.52706845236E+02 -0.56168776160E+02  0.77967303739E+02  0.00000000000E+00 0. -1.
         22    1    3    3    0    0  0.18347968152E+02 -0.60933231260E+02 -0.25132716501E+01  0.63685344793E+02  0.00000000000E+00 0. -1.
</event>
<event>
 7    1  0.5413982E-006  0.6872666E+02  0.7818608E-02  0.1417262E+00
          2   -1    0    0  502    0  0.00000000000E+00  0.00000000000E+00  0.17471642330E+04  0.17471642330E+04  0.00000000000E+00 0. -1.
          1   -1    0    0  501    0 -0.00000000000E+00 -0.00000000000E+00 -0.10450941933E+04  0.10450941933E+04  0.00000000000E+00 0. -1.
         25    2    1    2    0    0 -0.38071923526E+02  0.38764790035E+02 -0.44885930920E+02  0.14349403873E+03  0.12499444807E+03 0.  0.
          2    1    1    2  501    0 -0.30614292037E+02 -0.32964361181E+02 -0.94967188047E+03  0.95073685347E+03  0.00000000000E+00 0. -1.
          1    1    1    2  502    0  0.68686215564E+02 -0.58004288540E+01  0.16966278511E+04  0.16980275340E+04  0.00000000000E+00 0. -1.
         22    1    3    3    0    0 -0.42422936245E+02 -0.26141814820E+02 -0.58692336632E+02  0.76992794345E+02  0.00000000000E+00 0.  1.
         22    1    3    3    0    0  0.43510127183E+01  0.64906604855E+02  0.13806405712E+02  0.66501244381E+02  0.00000000000E+00 0.  1.
</event>
<event>
 7    1  0.5194496E-006  0.5164577E+02  0.7818608E-02  0.1461464E+00
          2   -1    0    0  502    0  0.00000000000E+00  0.00000000000E+00  0.11593269938E+04  0.11593269938E+04  0.00000000000E+00 0. -1.
          1   -1    0    0  501    0 -0.00000000000E+00 -0.00000000000E+00 -0.74023055172E+02  0.74023055172E+02  0.00000000000E+00 0. -1.
         25    2    1    2    0    0 -0.17316859114E+02 -0.81224874512E+01  0.64629041119E+03  0.65854596962E+03  0.12500260036E+03 0.  0.
          2    1    1    2  501    0 -0.34371176891E+02 -0.25854627833E+02 -0.58972948027E+02  0.72990740373E+02  0.00000000000E+00 0. -1.
          1    1    1    2  502    0  0.51688036005E+02  0.33977115284E+02  0.49798647542E+03  0.50181333893E+03  0.00000000000E+00 0. -1.
         22    1    3    3    0    0 -0.33833972839E+02 -0.26472877747E+02  0.62339893748E+03  0.62487741696E+03  0.00000000000E+00 0. -1.
         22    1    3    3    0    0  0.16517113725E+02  0.18350390296E+02  0.22891473712E+02  0.33668552665E+02  0.00000000000E+00 0. -1.
</event>
<event>
 7    1  0.5194496E-006  0.6670167E+02  0.7818608E-02  0.1443790E+00
          2   -1    0    0  502    0  0.00000000000E+00  0.00000000000E+00  0.18790791067E+04  0.18790791067E+04  0.00000000000E+00 0. -1.
          1   -1    0    0  501    0 -0.00000000000E+00 -0.00000000000E+00 -0.22906637230E+02  0.22906637230E+02  0.00000000000E+00 0. -1.
         25    2    1    2    0    0  0.48674313906E+02 -0.70181469317E+02  0.10522892654E+04  0.10631260234E+04  0.12501846264E+03 0.  0.
          2    1    1    2  501    0 -0.11104278854E+02  0.65081302691E+02  0.47035788900E+02  0.81063224746E+02  0.00000000000E+00 0. -1.
          1    1    1    2  502    0 -0.37570035052E+02  0.51001666265E+01  0.75684741517E+03  0.75779649582E+03  0.00000000000E+00 0. -1.
         22    1    3    3    0    0  0.40277385497E+01 -0.76492942074E+02  0.30478697084E+03  0.31426500037E+03  0.00000000000E+00 0. -1.
         22    1    3    3    0    0  0.44646575356E+02  0.63114727569E+01  0.74750229461E+03  0.74886102304E+03  0.00000000000E+00 0. -1.
</event>
<event>
 7    1  0.5194496E-006  0.7538319E+02  0.7818608E-02  0.1390184E+00
          2   -1    0    0  502    0  0.00000000000E+00  0.00000000000E+00  0.44549065338E+03  0.44549065338E+03  0.00000000000E+00 0. -1.
          1   -1    0    0  501    0 -0.00000000000E+00 -0.00000000000E+00 -0.74332296387E+03  0.74332296387E+03  0.00000000000E+00 0. -1.
         25    2    1    2    0    0  0.35528736563E+02 -0.42527997643E+02 -0.12529312389E+03  0.18545652828E+03  0.12499934113E+03 0.  0.
          2    1    1    2  501    0 -0.77051469530E+02  0.13324132833E+02 -0.58378062576E+03  0.58899429580E+03  0.00000000000E+00 0. -1.
          1    1    1    2  502    0  0.41522732967E+02  0.29203864810E+02  0.41124143917E+03  0.41436279317E+03  0.00000000000E+00 0. -1.
         22    1    3    3    0    0 -0.10478034800E+02 -0.35603024321E+02  0.13174349129E+02  0.39381823587E+02  0.00000000000E+00 0.  1.
         22    1    3    3    0    0  0.46006771362E+02 -0.69249733216E+01 -0.13846747302E+03  0.14607470469E+03  0.00000000000E+00 0.  1.
</event>
<event>
 7    1  0.5194496E-006  0.8999930E+02  0.7818608E-02  0.1435849E+00
          2   -1    0    0  502    0  0.00000000000E+00  0.00000000000E+00  0.25580984419E+03  0.25580984419E+03  0.00000000000E+00 0. -1.
          1   -1    0    0  501    0 -0.00000000000E+00 -0.00000000000E+00 -0.24032955962E+04  0.24032955962E+04  0.00000000000E+00 0. -1.
         25    2    1    2    0    0 -0.10518481506E+03 -0.10167824734E+02 -0.15994755025E+03  0.22885539897E+03  0.12499737927E+03 0.  0.
          2    1    1    2  501    0  0.16924133774E+02  0.24550023414E+02 -0.21997573496E+04  0.21999594376E+04  0.00000000000E+00 0. -1.
          1    1    1    2  502    0  0.88260681290E+02 -0.14382198680E+02  0.21221914784E+03  0.23029060383E+03  0.00000000000E+00 0. -1.
         22    1    3    3    0    0 -0.11262500529E+03 -0.34176986100E+00 -0.17579559981E+03  0.20877883403E+03  0.00000000000E+00 0. -1.
         22    1    3    3    0    0  0.74401902283E+01 -0.98260548733E+01  0.15848049560E+02  0.20076564942E+02  0.00000000000E+00 0. -1.
</event>
<event>
 7    1  0.5194496E-006  0.1336357E+03  0.7818608E-02  0.1285713E+00
          2   -1    0    0  502    0  0.00000000000E+00  0.00000000000E+00  0.13512977553E+04  0.13512977553E+04  0.00000000000E+00 0. -1.
          1   -1    0    0  501    0 -0.00000000000E+00 -0.00000000000E+00 -0.38798111860E+03  0.38798111860E+03  0.00000000000E+00 0. -1.
         25    2    1    2    0    0 -0.19306715564E+03 -0.31409889827E+02  0.11221192042E+03  0.25783373733E+03  0.12500085301E+03 0.  0.
          2    1    1    2  501    0  0.62432561698E+02  0.33996324440E+02 -0.30744204034E+03  0.31555377197E+03  0.00000000000E+00 0. -1.
          1    1    1    2  502    0  0.13063459394E+03 -0.25864346136E+01  0.11585467566E+04  0.11658913646E+04  0.00000000000E+00 0. -1.
         22    1    3    3    0    0 -0.12093345962E+03 -0.78764244744E+02  0.84324914971E+02  0.16715082767E+03  0.00000000000E+00 0. -1.
         22    1    3    3    0    0 -0.72133696024E+02  0.47354354917E+02  0.27887005445E+02  0.90682909660E+02  0.00000000000E+00 0. -1.
</event>
<event>
 7    1  0.5194496E-006  0.2302526E+03  0.7818608E-02  0.1188961E+00
          2   -1    0    0  502    0  0.00000000000E+00  0.00000000000E+00  0.67031319010E+03  0.67031319010E+03  0.00000000000E+00 0. -1.
          1   -1    0    0  501    0 -0.00000000000E+00 -0.00000000000E+00 -0.12063440367E+04  0.12063440367E+04  0.00000000000E+00 0. -1.
         25    2    1    2    0    0  0.10830865721E+03 -0.10264444761E+03 -0.26561039362E+03  0.32930351815E+03  0.12500111205E+03 0.  0.
          2    1    1    2  501    0  0.11029217068E+03  0.11181916888E+02 -0.88331556367E+03  0.89024478836E+03  0.00000000000E+00 0. -1.
          1    1    1    2  502    0 -0.21860082788E+03  0.91462530723E+02  0.61289511067E+03  0.65710892032E+03  0.00000000000E+00 0. -1.
         22    1    3    3    0    0 -0.36068854035E+01 -0.78436297040E+02 -0.12939272072E+03  0.15135302604E+03  0.00000000000E+00 0. -1.
         22    1    3    3    0    0  0.11191554261E+03 -0.24208150571E+02 -0.13621767289E+03  0.17795049210E+03  0.00000000000E+00 0. -1.
</event>
<event>
 7    1  0.5194496E-006  0.1033443E+03  0.7818608E-02  0.1409961E+00
          2   -1    0    0  502    0  0.00000000000E+00  0.00000000000E+00  0.16032022359E+03  0.16032022359E+03  0.00000000000E+00 0. -1.
          1   -1    0    0  501    0 -0.00000000000E+00 -0.00000000000E+00 -0.73249772909E+03  0.73249772909E+03  0.00000000000E+00 0. -1.
         25    2    1    2    0    0  0.42770293950E+02  0.87496328957E+02 -0.37413969301E+03  0.40631265730E+03  0.12499823986E+03 0.  0.
          2    1    1    2  501    0 -0.27745068062E+02  0.15255359731E+02 -0.32270451155E+03  0.32425409262E+03  0.00000000000E+00 0. -1.
          1    1    1    2  502    0 -0.15025225888E+02 -0.10275168869E+03  0.12466669906E+03  0.16225120276E+03  0.00000000000E+00 0. -1.
         22    1    3    3    0    0  0.37759723876E+02 -0.17212205273E+01 -0.25285446038E+03  0.25566411066E+03  0.00000000000E+00 0. -1.
         22    1    3    3    0    0  0.50105700738E+01  0.89217549485E+02 -0.12128523263E+03  0.15064854663E+03  0.00000000000E+00 0. -1.
</event>
<event>
 7    1  0.5194496E-006  0.1040874E+03  0.7818608E-02  0.1392486E+00
          2   -1    0    0  502    0  0.00000000000E+00  0.00000000000E+00  0.19544767419E+04  0.19544767419E+04  0.00000000000E+00 0. -1.
          1   -1    0    0  501    0 -0.00000000000E+00 -0.00000000000E+00 -0.38119313246E+02  0.38119313246E+02  0.00000000000E+00 0. -1.
         25    2    1    2    0    0  0.11132266106E+03 -0.10366805225E+02  0.86070397664E+03  0.87688992703E+03  0.12499761279E+03 0.  0.
          2    1    1    2  501    0 -0.10098079814E+03 -0.24212227295E+02  0.61073004034E+02  0.12047101463E+03  0.00000000000E+00 0. -1.
          1    1    1    2  502    0 -0.10341862915E+02  0.34579032520E+02  0.99458044801E+03  0.99523511351E+03  0.00000000000E+00 0. -1.
         22    1    3    3    0    0  0.89003577030E+02  0.42303162168E+02  0.68643391285E+03  0.69347149254E+03  0.00000000000E+00 0.  1.
         22    1    3    3    0    0  0.22319084027E+02 -0.52669967393E+02  0.17427006380E+03  0.18341843449E+03  0.00000000000E+00 0.  1.
</event>
<event>
 7    1  0.5194496E-006  0.7608665E+02  0.7818608E-02  0.1372771E+00
          2   -1    0    0  502    0  0.00000000000E+00  0.00000000000E+00  0.73586280397E+03  0.73586280397E+03  0.00000000000E+00 0. -1.
          1   -1    0    0  501    0 -0.00000000000E+00 -0.00000000000E+00 -0.24430422017E+03  0.24430422017E+03  0.00000000000E+00 0. -1.
         25    2    1    2    0    0  0.41149233062E+02  0.49362635474E+02  0.22686314308E+03  0.26687336201E+03  0.12499830600E+03 0.  0.
          2    1    1    2  501    0  0.10172065382E+02 -0.76279350672E+02 -0.21590624929E+03  0.22921064272E+03  0.00000000000E+00 0. -1.
          1    1    1    2  502    0 -0.51321298444E+02  0.26916715198E+02  0.48060169002E+03  0.48408301941E+03  0.00000000000E+00 0. -1.
         22    1    3    3    0    0 -0.40144258731E+00  0.72885573125E+02  0.19821538037E+03  0.21119139410E+03  0.00000000000E+00 0.  1.
         22    1    3    3    0    0  0.41550675649E+02 -0.23522937651E+02  0.28647762706E+02  0.55681967913E+02  0.00000000000E+00 0.  1.
</event>
<event>
 7    1  0.5194496E-006  0.1070752E+03  0.7818608E-02  0.1444016E+00
          2   -1    0    0  502    0  0.00000000000E+00  0.00000000000E+00  0.43609019877E+03  0.43609019877E+03  0.00000000000E+00 0. -1.
          1   -1    0    0  501    0 -0.00000000000E+00 -0.00000000000E+00 -0.15875201159E+03  0.15875201159E+03  0.00000000000E+00 0. -1.
         25    2    1    2    0    0 -0.72053582423E+02 -0.50077151163E+02  0.16999730351E+03  0.22851667894E+03  0.12498539732E+03 0.  0.
          2    1    1    2  501    0  0.95379754783E+02  0.53520516393E+02 -0.10563152562E+03  0.15205184149E+03  0.00000000000E+00 0. -1.
          1    1    1    2  502    0 -0.23326172361E+02 -0.34433652291E+01  0.21297240928E+03  0.21427368993E+03  0.00000000000E+00 0. -1.
         22    1    3    3    0    0 -0.18723411888E+02 -0.64177863336E+02  0.15870342359E+03  0.17220958439E+03  0.00000000000E+00 0. -1.
         22    1    3    3    0    0 -0.53330170535E+02  0.14100712172E+02  0.11293879917E+02  0.56307094550E+02  0.00000000000E+00 0. -1.
</event>
<event>
 7    1  0.5194496E-006  0.7077712E+02  0.7818608E-02  0.1399418E+00
          2   -1    0    0  502    0  0.00000000000E+00  0.00000000000E+00  0.20342384331E+03  0.20342384331E+03  0.00000000000E+00 0. -1.
          1   -1    0    0  501    0 -0.00000000000E+00 -0.00000000000E+00 -0.18955887822E+04  0.18955887822E+04  0.00000000000E+00 0. -1.
         25    2    1    2    0    0  0.71567671991E+02 -0.93107967499E+02  0.36344948384E+02  0.17531929553E+03  0.12499949930E+03 0.  0.
          2    1    1    2  501    0 -0.31211839841E+02  0.63203982276E+02 -0.18189106389E+04  0.18202760325E+04  0.00000000000E+00 0. -1.
          1    1    1    2  502    0 -0.40355832151E+02  0.29903985223E+02  0.90400751616E+02  0.10341729746E+03  0.00000000000E+00 0. -1.
         22    1    3    3    0    0  0.19723508053E+02 -0.35792133740E+02  0.77607057039E+02  0.87709457357E+02  0.00000000000E+00 0. -1.
         22    1    3    3    0    0  0.51844163938E+02 -0.57315833759E+02 -0.41262108654E+02  0.87609838172E+02  0.00000000000E+00 0. -1.
</event>
<event>
 7    1  0.5622118E-006  0.9703230E+02  0.7818608E-02  0.1298286E+00
          2   -1    0    0  502    0  0.00000000000E+00  0.00000000000E+00  0.29702510957E+04  0.29702510957E+04  0.00000000000E+00 0. -1.
          1   -1    0    0  501    0 -0.00000000000E+00 -0.00000000000E+00 -0.46626733699E+03  0.46626733699E+03  0.00000000000E+00 0. -1.
         25    2    1    2    0    0 -0.52900633604E+01 -0.84146972373E+02 -0.30343883664E+02  0.15379569259E+03  0.12499466410E+03 0.  0.
          2    1    1    2  501    0  0.83218838274E+02  0.25583848219E+02 -0.36830413226E+03  0.37845454439E+03  0.00000000000E+00 0. -1.
          1    1    1    2  502    0 -0.77928774914E+02  0.58563124154E+02  0.29026317746E+04  0.29042681957E+04  0.00000000000E+00 0. -1.
         22    1    3    3    0    0 -0.39215194578E+02 -0.61807843841E+02  0.31594432652E+02  0.79726088708E+02  0.00000000000E+00 0.  1.
         22    1    3    3    0    0  0.33925131218E+02 -0.22339128532E+02 -0.61938316316E+02  0.74069603885E+02  0.00000000000E+00 0.  1.
</event>
<event>
 7    1  0.5194496E-006  0.3271700E+02  0.7818608E-02  0.1569941E+00
          2   -1    0    0  502    0  0.00000000000E+00  0.00000000000E+00  0.92458422743E+03  0.92458422743E+03  0.00000000000E+00 0. -1.
          1   -1    0    0  501    0 -0.00000000000E+00 -0.00000000000E+00 -0.41264310339E+02  0.41264310339E+02  0.00000000000E+00 0. -1.
         25    2    1    2    0    0 -0.11491328162E+01  0.27338317804E+02  0.26213787767E+03  0.29169772049E+03  0.12499035604E+03 0.  0.
          2    1    1    2  501    0  0.30555048419E+02 -0.11695784356E+02 -0.15776391032E+02  0.36322126447E+02  0.00000000000E+00 0. -1.
          1    1    1    2  502    0 -0.29405915603E+02 -0.15642533448E+02  0.63695843046E+03  0.63782869084E+03  0.00000000000E+00 0. -1.
         22    1    3    3    0    0 -0.12450030490E+02 -0.38764538047E+02  0.31412999914E+02  0.51424403086E+02  0.00000000000E+00 0. -1.
         22    1    3    3    0    0  0.11300897673E+02  0.66102855850E+02  0.23072487775E+03  0.24027331740E+03  0.00000000000E+00 0. -1.
</event>
<event>
 7    1  0.5194496E-006  0.6049026E+02  0.7818608E-02  0.1549649E+00
          2   -1    0    0  502    0  0.00000000000E+00  0.00000000000E+00  0.10905658358E+04  0.10905658358E+04  0.00000000000E+00 0. -1.
          1   -1    0    0  501    0 -0.00000000000E+00 -0.00000000000E+00 -0.11249444723E+02  0.11249444723E+02  0.00000000000E+00 0. -1.
         25    2    1    2    0    0 -0.40223530773E+02  0.35637248058E+02  0.72047849102E+03  0.73321310535E+03  0.12499702380E+03 0.  0.
          2    1    1    2  501    0  0.57924986423E+02 -0.26083368961E+02  0.25175271462E+03  0.25964413244E+03  0.00000000000E+00 0. -1.
          1    1    1    2  502    0 -0.17701455650E+02 -0.95538790974E+01  0.10708518548E+03  0.10895804278E+03  0.00000000000E+00 0. -1.
         22    1    3    3    0    0 -0.78420664686E+02 -0.66955398171E+01  0.39212724888E+03  0.39994800940E+03  0.00000000000E+00 0.  1.
         22    1    3    3    0    0  0.38197133913E+02  0.42332787875E+02  0.32835124213E+03  0.33326509595E+03  0.00000000000E+00 0.  1.
</event>
<event>
 7    1  0.5194496E-006  0.4546128E+02  0.7818608E-02  0.1476366E+00
          2   -1    0    0  502    0  0.00000000000E+00  0.00000000000E+00  0.18941441997E+03  0.18941441997E+03  0.00000000000E+00 0. -1.
          1   -1    0    0  501    0 -0.00000000000E+00 -0.00000000000E+00 -0.97512291115E+03  0.97512291115E+03  0.00000000000E+00 0. -1.
         25    2    1    2    0    0  0.25007338620E+01  0.42173559398E+02 -0.11391717905E+02  0.13243606726E+03  0.12499871156E+03 0.  0.
          2    1    1    2  501    0  0.38039592106E+02 -0.25312596923E+02 -0.89887263898E+03  0.90003319896E+03  0.00000000000E+00 0. -1.
          1    1    1    2  502    0 -0.40540325968E+02 -0.16860962475E+02  0.12455586570E+03  0.13206806489E+03  0.00000000000E+00 0. -1.
         22    1    3    3    0    0  0.22348759244E+02 -0.39569979769E+02  0.79177259828E+01  0.46129607882E+02  0.00000000000E+00 0. -1.
         22    1    3    3    0    0 -0.19848025382E+02  0.81743539166E+02 -0.19309443888E+02  0.86306459377E+02  0.00000000000E+00 0. -1.
</event>
<event>
 7    1  0.5194496E-006  0.4938811E+02  0.7818608E-02  0.1454333E+00
          2   -1    0    0  502    0  0.00000000000E+00  0.00000000000E+00  0.16654569038E+03  0.16654569038E+03  0.00000000000E+00 0. -1.
          1   -1    0    0  501    0 -0.00000000000E+00 -0.00000000000E+00 -0.11028284962E+04  0.11028284962E+04  0.00000000000E+00 0. -1.
         25    2    1    2    0    0 -0.11205350605E+02 -0.40488678841E+02 -0.11876042360E+03  0.17746163496E+03  0.12499480258E+03 0.  0.
          2    1    1    2  501    0 -0.35839845762E+02  0.34915009131E+02 -0.94994969349E+03  0.95126650975E+03  0.00000000000E+00 0. -1.
          1    1    1    2  502    0  0.47045196367E+02  0.55736697109E+01  0.13242731132E+03  0.14064604181E+03  0.00000000000E+00 0. -1.
         22    1    3    3    0    0  0.28576031346E+02 -0.18455851501E+02  0.14257741482E+02  0.36884837187E+02  0.00000000000E+00 0. -1.
         22    1    3    3    0    0 -0.39781381952E+02 -0.22032827341E+02 -0.13301816508E+03  0.14057679777E+03  0.00000000000E+00 0. -1.
</event>
<event>
 7    1  0.5194496E-006  0.9527838E+02  0.7818608E-02  0.1451415E+00
          2   -1    0    0  502    0  0.00000000000E+00  0.00000000000E+00  0.26096997807E+03  0.26096997807E+03  0.00000000000E+00 0. -1.
          1   -1    0    0  501    0 -0.00000000000E+00 -0.00000000000E+00 -0.10709046852E+03  0.10709046852E+03  0.00000000000E+00 0. -1.
         25    2    1    2    0    0  0.71085226876E+02 -0.33278720693E+02  0.48804066275E+02  0.15546595016E+03  0.12500896785E+03 0.  0.
          2    1    1    2  501    0  0.13541601176E+02 -0.21119626371E+02 -0.33188432250E+02  0.41603913466E+02  0.00000000000E+00 0. -1.
          1    1    1    2  502    0 -0.84626828052E+02  0.54398347064E+02  0.13826387552E+03  0.17099058296E+03  0.00000000000E+00 0. -1.
         22    1    3    3    0    0  0.30382304355E+02 -0.62779245525E+02  0.71878230915E+02  0.10015387245E+03  0.00000000000E+00 0. -1.
         22    1    3    3    0    0  0.40702922521E+02  0.29500524832E+02 -0.23074164640E+02  0.55312077713E+02  0.00000000000E+00 0. -1.
</event>
<event>
 7    1  0.5194496E-006  0.1051059E+03  0.7818608E-02  0.1339161E+00
          2   -1    0    0  502    0  0.00000000000E+00  0.00000000000E+00  0.53838444319E+03  0.53838444319E+03  0.00000000000E+00 0. -1.
          1   -1    0    0  501    0 -0.00000000000E+00 -0.00000000000E+00 -0.78918783635E+02  0.78918783635E+02  0.00000000000E+00 0. -1.
         25    2    1    2    0    0 -0.13143169477E+03 -0.25889699792E+02  0.19665856286E+03  0.26878351693E+03  0.12500168672E+03 0.  0.
          2    1    1    2  501    0  0.33353187153E+02  0.44660899989E+02 -0.11225283198E+02  0.56859810622E+02  0.00000000000E+00 0. -1.
          1    1    1    2  502    0  0.98078507616E+02 -0.18771200197E+02  0.27403237990E+03  0.29165989927E+03  0.00000000000E+00 0. -1.
         22    1    3    3    0    0 -0.90753659579E+02  0.31460930768E+02  0.16662077741E+03  0.19232394639E+03  0.00000000000E+00 0.  1.
         22    1    3    3    0    0 -0.40678035190E+02 -0.57350630560E+02  0.30037785453E+02  0.76459570542E+02  0.00000000000E+00 0.  1.
</event>
<event>
 7    1  0.5194496E-006  0.1548154E+03  0.7818608E-02  0.1303351E+00
          2   -1    0    0  502    0  0.00000000000E+00  0.00000000000E+00  0.26131156848E+04  0.26131156848E+04  0.00000000000E+00 0. -1.
          1   -1    0    0  501    0 -0.00000000000E+00 -0.00000000000E+00 -0.19250010779E+03  0.19250010779E+03  0.00000000000E+00 0. -1.
         25    2    1    2    0    0  0.11259707598E+03 -0.54408520481E+02  0.37941309739E+03  0.41859076076E+03  0.12500215159E+03 0.  0.
          2    1    1    2  501    0 -0.15588391440E+03  0.25447739733E+02 -0.13646522879E+03  0.20873461834E+03  0.00000000000E+00 0. -1.
          1    1    1    2  502    0  0.43286838415E+02  0.28960780748E+02  0.21776677085E+04  0.21782904135E+04  0.00000000000E+00 0. -1.
         22    1    3    3    0    0 -0.88696118228E+01 -0.47519072405E+02  0.16643425393E+03  0.17331212634E+03  0.00000000000E+00 0.  1.
         22    1    3    3    0    0  0.12146668780E+03 -0.68894480761E+01  0.21297884346E+03  0.24527863442E+03  0.00000000000E+00 0.  1.
</event>
<event>
 7    1  0.5194496E-006  0.1127842E+03  0.7818608E-02  0.1287405E+00
          2   -1    0    0  502    0  0.00000000000E+00  0.00000000000E+00  0.45309246396E+03  0.45309246396E+03  0.00000000000E+00 0. -1.
          1   -1    0    0  501    0 -0.00000000000E+00 -0.00000000000E+00 -0.86208211663E+03  0.86208211663E+03  0.00000000000E+00 0. -1.
         25    2    1    2    0    0 -0.11662790132E+03 -0.62190153419E+02 -0.33207105526E+03  0.37863786703E+03  0.12500306420E+03 0.  0.
          2    1    1    2  501    0  0.55390014214E+01  0.82714766945E+02 -0.49580326956E+03  0.50268608028E+03  0.00000000000E+00 0. -1.
          1    1    1    2  502    0  0.11108889990E+03 -0.20524613525E+02  0.41888467214E+03  0.43385063328E+03  0.00000000000E+00 0. -1.
         22    1    3    3    0    0 -0.40096303680E+02 -0.41222387380E+02 -0.27210403959E+02  0.63619217802E+02  0.00000000000E+00 0.  1.
         22    1    3    3    0    0 -0.76531597639E+02 -0.20967766039E+02 -0.30486065130E+03  0.31501864923E+03  0.00000000000E+00 0.  1.
</event>
<event>
 7    1  0.5194496E-006  0.8369802E+02  0.7818608E-02  0.1320731E+00
          2   -1    0    0  502    0  0.00000000000E+00  0.00000000000E+00  0.13572959230E+04  0.13572959230E+04  0.00000000000E+00 0. -1.
          1   -1    0    0  501    0 -0.00000000000E+00 -0.00000000000E+00 -0.97784092737E+02  0.97784092737E+02  0.00000000000E+00 0. -1.
         25    2    1    2    0    0  0.49892344260E+01  0.53374907687E+02  0.30822283071E+03  0.33689766484E+03  0.12499979990E+03 0.  0.
          2    1    1    2  501    0 -0.83451870532E+02 -0.28473126683E+02 -0.58000459811E+02  0.10554139935E+03  0.00000000000E+00 0. -1.
          1    1    1    2  502    0  0.78462636106E+02 -0.24901781003E+02  0.10092894594E+04  0.10126409515E+04  0.00000000000E+00 0. -1.
         22    1    3    3    0    0 -0.47731328811E+02  0.62201551604E+02  0.22211672799E+03  0.23554862263E+03  0.00000000000E+00 0.  1.
         22    1    3    3    0    0  0.52720563237E+02 -0.88266439169E+01  0.86106102724E+02  0.10134904221E+03  0.00000000000E+00 0.  1.
</event>
<event>
 7    1  0.5194496E-006  0.7532516E+02  0.7818608E-02  0.1365810E+00
          2   -1    0    0  502    0  0.00000000000E+00  0.00000000000E+00  0.27565449865E+04  0.27565449865E+04  0.00000000000E+00 0. -1.
          1   -1    0    0  501    0 -0.00000000000E+00 -0.00000000000E+00 -0.26980739304E+03  0.26980739304E+03  0.00000000000E+00 0. -1.
         25    2    1    2    0    0 -0.12724918181E+01  0.65382846364E+02  0.21175304522E+04  0.21222245092E+04  0.12500046302E+03 0.  0.
          2    1    1    2  501    0 -0.59302355390E+02  0.18135620598E+02 -0.25960440132E+03  0.26690843987E+03  0.00000000000E+00 0. -1.
          1    1    1    2  502    0  0.60574847208E+02 -0.83518466962E+02  0.62881154264E+03  0.63721943049E+03  0.00000000000E+00 0. -1.
         22    1    3    3    0    0  0.31549954181E+02  0.91464501351E+02  0.16427313698E+04  0.16455781683E+04  0.00000000000E+00 0.  1.
         22    1    3    3    0    0 -0.32822445999E+02 -0.26081654986E+02  0.47479908234E+03  0.47664634088E+03  0.00000000000E+00 0.  1.
</event>
<event>
 7    1  0.5194496E-006  0.3288828E+02  0.7818608E-02  0.1568715E+00
          2   -1    0    0  502    0  0.00000000000E+00  0.00000000000E+00  0.23606865489E+03  0.23606865489E+03  0.00000000000E+00 0. -1.
          1   -1    0    0  501    0 -0.00000000000E+00 -0.00000000000E+00 -0.25834122274E+04  0.25834122274E+04  0.00000000000E+00 0. -1.
         25    2    1    2    0    0 -0.28894371441E+01 -0.16497550235E+02 -0.10332905179E+04  0.10409565115E+04  0.12498258511E+03 0.  0.
          2    1    1    2  501    0  0.32685694501E+02  0.24999697127E+01 -0.15449473199E+04  0.15452950611E+04  0.00000000000E+00 0. -1.
          1    1    1    2  502    0 -0.29796257357E+02  0.13997580523E+02  0.23089426521E+03  0.23322930973E+03  0.00000000000E+00 0. -1.
         22    1    3    3    0    0  0.49098940550E+02 -0.36954384649E+02 -0.72855266271E+03  0.73113973688E+03  0.00000000000E+00 0. -1.
         22    1    3    3    0    0 -0.51988377694E+02  0.20456834413E+02 -0.30473785516E+03  0.30981677465E+03  0.00000000000E+00 0. -1.
</event>
<event>
 7    1  0.5194496E-006  0.2593639E+03  0.7818608E-02  0.1221837E+00
          2   -1    0    0  502    0  0.00000000000E+00  0.00000000000E+00  0.31095914457E+03  0.31095914457E+03  0.00000000000E+00 0. -1.
          1   -1    0    0  501    0 -0.00000000000E+00 -0.00000000000E+00 -0.18892314760E+04  0.18892314760E+04  0.00000000000E+00 0. -1.
         25    2    1    2    0    0  0.19526379902E+03  0.14013102140E+03 -0.47513180131E+03  0.54693696463E+03  0.12500064122E+03 0.  0.
          2    1    1    2  501    0  0.50378818792E+02 -0.47276300973E+02 -0.13144023541E+04  0.13162167840E+04  0.00000000000E+00 0. -1.
          1    1    1    2  502    0 -0.24564261781E+03 -0.92854720424E+02  0.21126182397E+03  0.33703687195E+03  0.00000000000E+00 0. -1.
         22    1    3    3    0    0  0.17151909605E+03  0.53755615395E+02 -0.34398737361E+03  0.38811825479E+03  0.00000000000E+00 0. -1.
         22    1    3    3    0    0  0.23744702968E+02  0.86375406002E+02 -0.13114442770E+03  0.15881870984E+03  0.00000000000E+00 0. -1.
</event>
<event>
 7    1  0.5194496E-006  0.7339271E+02  0.7818608E-02  0.1441136E+00
          2   -1    0    0  502    0  0.00000000000E+00  0.00000000000E+00  0.74724247326E+03  0.74724247326E+03  0.00000000000E+00 0. -1.
          1   -1    0    0  501    0 -0.00000000000E+00 -0.00000000000E+00 -0.57230821039E+03  0.57230821039E+03  0.00000000000E+00 0. -1.
         25    2    1    2    0    0  0.25719808940E+02 -0.64579674406E+02 -0.25839530580E+03  0.29531478604E+03  0.12494257032E+03 0.  0.
          2    1    1    2  501    0  0.30564102027E+02  0.17351037042E+02 -0.29254682958E+03  0.29465042053E+03  0.00000000000E+00 0. -1.
          1    1    1    2  502    0 -0.56283910967E+02  0.47228637363E+02  0.72587639826E+03  0.72958547708E+03  0.00000000000E+00 0. -1.
         22    1    3    3    0    0 -0.22445841614E+02 -0.84706436385E+02 -0.13066133654E+03  0.15732571639E+03  0.00000000000E+00 0. -1.
         22    1    3    3    0    0  0.48165650555E+02  0.20126761979E+02 -0.12773396926E+03  0.13798906966E+03  0.00000000000E+00 0. -1.
</event>
<event>
 7    1  0.5194496E-006  0.1078872E+03  0.7818608E-02  0.1275586E+00
          2   -1    0    0  502    0  0.00000000000E+00  0.00000000000E+00  0.77454514545E+03  0.77454514545E+03  0.00000000000E+00 0. -1.
          1   -1    0    0  501    0 -0.00000000000E+00 -0.00000000000E+00 -0.21053425825E+04  0.21053425825E+04  0.00000000000E+00 0. -1.
         25    2    1    2    0    0 -0.12001829602E+03  0.21373896224E+01  0.46759413281E+03  0.49867582074E+03  0.12499736534E+03 0.  0.
          2    1    1    2  501    0  0.40998383377E+02 -0.87857636290E+02 -0.20769648579E+04  0.20792265035E+04  0.00000000000E+00 0. -1.
          1    1    1    2  502    0  0.79019912643E+02  0.85720246668E+02  0.27857328803E+03  0.30198540377E+03  0.00000000000E+00 0. -1.
         22    1    3    3    0    0 -0.31641102728E+02  0.11451486107E+02  0.13978853901E+02  0.36437676549E+02  0.00000000000E+00 0.  1.
         22    1    3    3    0    0 -0.88377193292E+02 -0.93140964843E+01  0.45361527891E+03  0.46223814419E+03  0.00000000000E+00 0.  1.
</event>
<event>
 7    1  0.5194496E-006  0.8277797E+02  0.7818608E-02  0.1438516E+00
          2   -1    0    0  502    0  0.00000000000E+00  0.00000000000E+00  0.99645439050E+03  0.99645439050E+03  0.00000000000E+00 0. -1.
          1   -1    0    0  501    0 -0.00000000000E+00 -0.00000000000E+00 -0.12312766739E+03  0.12312766739E+03  0.00000000000E+00 0. -1.
         25    2    1    2    0    0  0.14104387123E+02  0.94123986670E+02  0.24165280995E+03  0.28823438976E+03  0.12499889713E+03 0.  0.
          2    1    1    2  501    0  0.14810987601E+02 -0.80944916299E+02 -0.82467062431E+02  0.11650004813E+03  0.00000000000E+00 0. -1.
          1    1    1    2  502    0 -0.28915374724E+02 -0.13179070371E+02  0.71414097559E+03  0.71484761999E+03  0.00000000000E+00 0. -1.
         22    1    3    3    0    0 -0.30446024147E+02 -0.18744987761E+02  0.53558465833E+02  0.64395995333E+02  0.00000000000E+00 0.  1.
         22    1    3    3    0    0  0.44550411270E+02  0.11286897443E+03  0.18809434412E+03  0.22383839443E+03  0.00000000000E+00 0.  1.
</event>
<event>
 7    1  0.5194496E-006  0.4207900E+02  0.7818608E-02  0.1530042E+00
          2   -1    0    0  502    0  0.00000000000E+00  0.00000000000E+00  0.78804039767E+03  0.78804039767E+03  0.00000000000E+00 0. -1.
          1   -1    0    0  501    0 -0.00000000000E+00 -0.00000000000E+00 -0.11674876596E+04  0.11674876596E+04  0.00000000000E+00 0. -1.
         25    2    1    2    0    0  0.17227450294E+01 -0.50308626281E+02 -0.96728352146E+02  0.16587624418E+03  0.12499851418E+03 0.  0.
          2    1    1    2  501    0  0.26650533705E+02  0.19212101868E+02 -0.10353366330E+04  0.10358577602E+04  0.00000000000E+00 0. -1.
          1    1    1    2  502    0 -0.28373278734E+02  0.31096524413E+02  0.75261772323E+03  0.75379405284E+03  0.00000000000E+00 0. -1.
         22    1    3    3    0    0  0.29139542149E+02  0.25617824402E+02  0.13827232728E+01  0.38823932921E+02  0.00000000000E+00 0.  1.
         22    1    3    3    0    0 -0.27416797120E+02 -0.75926450683E+02 -0.98111075419E+02  0.12705231126E+03  0.00000000000E+00 0.  1.
</event>
<event>
 7    1  0.5194496E-006  0.5007722E+02  0.7818608E-02  0.1501082E+00
          2   -1    0    0  502    0  0.00000000000E+00  0.00000000000E+00  0.18048963129E+04  0.18048963129E+04  0.00000000000E+00 0. -1.
          1   -1    0    0  501    0 -0.00000000000E+00 -0.00000000000E+00 -0.28816741896E+03  0.28816741896E+03  0.00000000000E+00 0. -1.
         25    2    1    2    0    0  0.77662299619E+02 -0.16751842306E+02  0.10614976304E+03  0.18222159465E+03  0.12499952144E+03 0.  0.
          2    1    1    2  501    0 -0.33091824967E+02 -0.54914731854E+01 -0.24863140427E+03  0.25088403764E+03  0.00000000000E+00 0. -1.
          1    1    1    2  502    0 -0.44570474652E+02  0.22243315491E+02  0.16592105352E+04  0.16599580996E+04  0.00000000000E+00 0. -1.
         22    1    3    3    0    0  0.85083086247E+02 -0.22345900477E+02  0.13371448336E+02  0.88979022606E+02  0.00000000000E+00 0.  1.
         22    1    3    3    0    0 -0.74207866281E+01  0.55940581705E+01  0.92778314707E+02  0.93242572041E+02  0.00000000000E+00 0.  1.
</event>
<event>
 7    1  0.5194496E-006  0.5700912E+02  0.7818608E-02  0.1416834E+00
          2   -1    0    0  502    0  0.00000000000E+00  0.00000000000E+00  0.48028543173E+03  0.48028543173E+03  0.00000000000E+00 0. -1.
          1   -1    0    0  501    0 -0.00000000000E+00 -0.00000000000E+00 -0.23037471091E+03  0.23037471091E+03  0.00000000000E+00 0. -1.
         25    2    1    2    0    0 -0.19283588545E+02 -0.57491101383E+02  0.54499897237E+02  0.14922733883E+03  0.12498590452E+03 0.  0.
          2    1    1    2  501    0 -0.34085691090E+02  0.46880029526E+02 -0.17639113632E+03  0.18567014967E+03  0.00000000000E+00 0. -1.
          1    1    1    2  502    0  0.53369279636E+02  0.10611071856E+02  0.37180195990E+03  0.37576265414E+03  0.00000000000E+00 0. -1.
         22    1    3    3    0    0  0.32043574970E+02 -0.75921082644E+02  0.20350322651E+02  0.84881901008E+02  0.00000000000E+00 0. -1.
         22    1    3    3    0    0 -0.51327163515E+02  0.18429981262E+02  0.34149574586E+02  0.64345437820E+02  0.00000000000E+00 0. -1.
</event>
<event>
 7    1  0.5194496E-006  0.4256740E+02  0.7818608E-02  0.1491329E+00
          2   -1    0    0  502    0  0.00000000000E+00  0.00000000000E+00  0.13019565710E+04  0.13019565710E+04  0.00000000000E+00 0. -1.
          1   -1    0    0  501    0 -0.00000000000E+00 -0.00000000000E+00 -0.47673612790E+03  0.47673612790E+03  0.00000000000E+00 0. -1.
         25    2    1    2    0    0  0.22565586288E+02 -0.99814005948E+01  0.80093914161E+03  0.81100914051E+03  0.12499393340E+03 0.  0.
          2    1    1    2  501    0  0.18386016610E+02  0.37997965499E+02 -0.46951091068E+03  0.47140469476E+03  0.00000000000E+00 0. -1.
          1    1    1    2  502    0 -0.40951602898E+02 -0.28016564904E+02  0.49379221213E+03  0.49627886359E+03  0.00000000000E+00 0. -1.
         22    1    3    3    0    0 -0.38733513705E+02 -0.18975955738E+02  0.57841986517E+03  0.58002578599E+03  0.00000000000E+00 0. -1.
         22    1    3    3    0    0  0.61299099993E+02  0.89945551432E+01  0.22251927643E+03  0.23098335452E+03  0.00000000000E+00 0. -1.
</event>
<event>
 7    1  0.5194496E-006  0.1019500E+03  0.7818608E-02  0.1312274E+00
          2   -1    0    0  502    0  0.00000000000E+00  0.00000000000E+00  0.66290609180E+03  0.66290609180E+03  0.00000000000E+00 0. -1.
          1   -1    0    0  501    0 -0.00000000000E+00 -0.00000000000E+00 -0.42098814582E+03  0.42098814582E+03  0.00000000000E+00 0. -1.
         25    2    1    2    0    0 -0.49709375820E+02 -0.78183285359E+02 -0.17446463372E+03  0.23376507151E+03  0.12499820833E+03 0.  0.
          2    1    1    2  501    0 -0.13935053177E+02  0.11376612981E+03 -0.19942712942E+03  0.23001760356E+03  0.00000000000E+00 0. -1.
          1    1    1    2  502    0  0.63644428996E+02 -0.35582844450E+02  0.61580970912E+03  0.62011156255E+03  0.00000000000E+00 0. -1.
         22    1    3    3    0    0 -0.65748379082E+02  0.94131319498E+01 -0.79061840572E+02  0.10325807978E+03  0.00000000000E+00 0.  1.
         22    1    3    3    0    0  0.16039003263E+02 -0.87596417309E+02 -0.95402793147E+02  0.13050699173E+03  0.00000000000E+00 0.  1.
</event>
<event>
 7    1  0.5194496E-006  0.6681898E+02  0.7818608E-02  0.1379299E+00
          2   -1    0    0  502    0  0.00000000000E+00  0.00000000000E+00  0.51929503082E+03  0.51929503082E+03  0.00000000000E+00 0. -1.
          1   -1    0    0  501    0 -0.00000000000E+00 -0.00000000000E+00 -0.57383149131E+03  0.57383149131E+03  0.00000000000E+00 0. -1.
         25    2    1    2    0    0  0.11950167130E+03 -0.33828711187E+02  0.10821630298E+01  0.17621480305E+03  0.12500181836E+03 0.  0.
          2    1    1    2  501    0 -0.56973117656E+02  0.32255652286E+02 -0.48176814735E+03  0.48619637086E+03  0.00000000000E+00 0. -1.
          1    1    1    2  502    0 -0.62528553640E+02  0.15730589010E+01  0.42614952382E+03  0.43071534822E+03  0.00000000000E+00 0. -1.
         22    1    3    3    0    0  0.41093960717E+02 -0.35010012346E+01  0.60534032467E+02  0.73248479191E+02  0.00000000000E+00 0. -1.
         22    1    3    3    0    0  0.78407710579E+02 -0.30327709952E+02 -0.59451869437E+02  0.10296632386E+03  0.00000000000E+00 0. -1.
</event>
<event>
 7    1  0.5194496E-006  0.7213369E+02  0.7818608E-02  0.1352997E+00
          2   -1    0    0  502    0  0.00000000000E+00  0.00000000000E+00  0.17244933844E+03  0.17244933844E+03  0.00000000000E+00 0. -1.
          1   -1    0    0  501    0 -0.00000000000E+00 -0.00000000000E+00 -0.10022377245E+04  0.10022377245E+04  0.00000000000E+00 0. -1.
         25    2    1    2    0    0 -0.43795593219E+01 -0.10615059018E+02 -0.72260332061E+02  0.14483329930E+03  0.12499307572E+03 0.  0.
          2    1    1    2  501    0  0.40580397618E+02 -0.59636397124E+02 -0.88062320829E+03  0.88357257965E+03  0.00000000000E+00 0. -1.
          1    1    1    2  502    0 -0.36200838296E+02  0.70251456142E+02  0.12309515429E+03  0.14628118400E+03  0.00000000000E+00 0. -1.
         22    1    3    3    0    0 -0.42254769182E+02  0.25006855032E+02 -0.78370224118E+02  0.92480810688E+02  0.00000000000E+00 0.  1.
         22    1    3    3    0    0  0.37875209860E+02 -0.35621914050E+02  0.61098920571E+01  0.52352488609E+02  0.00000000000E+00 0.  1.
</event>
<event>
 7    1  0.5194496E-006  0.4675574E+02  0.7818608E-02  0.1524264E+00
          2   -1    0    0  502    0  0.00000000000E+00  0.00000000000E+00  0.88991087790E+03  0.88991087790E+03  0.00000000000E+00 0. -1.
          1   -1    0    0  501    0 -0.00000000000E+00 -0.00000000000E+00 -0.34753342104E+03  0.34753342104E+03  0.00000000000E+00 0. -1.
         25    2    1    2    0    0  0.20369347289E+02 -0.10278612494E+02 -0.27840163433E+02  0.13008126725E+03  0.12500200481E+03 0.  0.
          2    1    1    2  501    0  0.28133180903E+01 -0.30591497757E+02 -0.26703333193E+03  0.26879463324E+03  0.00000000000E+00 0. -1.
          1    1    1    2  502    0 -0.23182665379E+02  0.40870110251E+02  0.83725095223E+03  0.83856839846E+03  0.00000000000E+00 0. -1.
         22    1    3    3    0    0 -0.51225055004E+02  0.48353139423E+01  0.91689432215E+00  0.51460929027E+02  0.00000000000E+00 0. -1.
         22    1    3    3    0    0  0.71594402293E+02 -0.15113926436E+02 -0.28757057755E+02  0.78620338226E+02  0.00000000000E+00 0. -1.
</event>
<event>
 7    1  0.5194496E-006  0.9515118E+02  0.7818608E-02  0.1338740E+00
          2   -1    0    0  502    0  0.00000000000E+00  0.00000000000E+00  0.38883199847E+03  0.38883199847E+03  0.00000000000E+00 0. -1.
          1   -1    0    0  501    0 -0.00000000000E+00 -0.00000000000E+00 -0.64998227861E+03  0.64998227861E+03  0.00000000000E+00 0. -1.
         25    2    1    2    0    0  0.36394806608E+02  0.11945365875E+02  0.49250580106E+02  0.13970378190E+03  0.12499701325E+03 0.  0.
          2    1    1    2  501    0 -0.80386932173E+02 -0.55346264286E+02 -0.59750879402E+03  0.60542714406E+03  0.00000000000E+00 0. -1.
          1    1    1    2  502    0  0.43992125565E+02  0.43400898411E+02  0.28710793377E+03  0.29368335113E+03  0.00000000000E+00 0. -1.
         22    1    3    3    0    0  0.34617375802E+02  0.63639387070E+02  0.49912545850E+02  0.87974976711E+02  0.00000000000E+00 0. -1.
         22    1    3    3    0    0  0.17774308061E+01 -0.51694021195E+02 -0.66196574454E+00  0.51728805188E+02  0.00000000000E+00 0. -1.
</event>
<event>
 7    1  0.5194496E-006  0.1666629E+03  0.7818608E-02  0.1185386E+00
          2   -1    0    0  502    0  0.00000000000E+00  0.00000000000E+00  0.22487684582E+04  0.22487684582E+04  0.00000000000E+00 0. -1.
          1   -1    0    0  501    0 -0.00000000000E+00 -0.00000000000E+00 -0.73176372088E+03  0.73176372088E+03  0.00000000000E+00 0. -1.
         25    2    1    2    0    0 -0.87903321204E+02  0.27472393149E+03  0.10175877846E+03  0.33041973625E+03  0.12498848225E+03 0.  0.
          2    1    1    2  501    0 -0.26380394019E+02 -0.15715677682E+03 -0.60377221774E+03  0.62444781095E+03  0.00000000000E+00 0. -1.
          1    1    1    2  502    0  0.11428371522E+03 -0.11756715467E+03  0.20190181766E+04  0.20256646318E+04  0.00000000000E+00 0. -1.
         22    1    3    3    0    0  0.15755323611E+02  0.11318847821E+03  0.74844849432E+02  0.13660751556E+03  0.00000000000E+00 0.  1.
         22    1    3    3    0    0 -0.10365864482E+03  0.16153545328E+03  0.26913929029E+02  0.19381222068E+03  0.00000000000E+00 0.  1.
</event>
<event>
 7    1  0.5194496E-006  0.2046532E+03  0.7818608E-02  0.1308042E+00
          2   -1    0    0  502    0  0.00000000000E+00  0.00000000000E+00  0.10352781042E+04  0.10352781042E+04  0.00000000000E+00 0. -1.
          1   -1    0    0  501    0 -0.00000000000E+00 -0.00000000000E+00 -0.32513945464E+03  0.32513945464E+03  0.00000000000E+00 0. -1.
         25    2    1    2    0    0 -0.18816087846E+03 -0.45011014329E+02  0.10311908495E+03  0.25236478721E+03  0.12499573012E+03 0.  0.
          2    1    1    2  501    0 -0.18449603441E+02  0.32929334420E+02 -0.23651077630E+03  0.23950381258E+03  0.00000000000E+00 0. -1.
          1    1    1    2  502    0  0.20661048190E+03  0.12081679908E+02  0.84353034088E+03  0.86854895901E+03  0.00000000000E+00 0. -1.
         22    1    3    3    0    0 -0.75475621848E+02 -0.58627088635E+02  0.10070364635E+03  0.13883417952E+03  0.00000000000E+00 0.  1.
         22    1    3    3    0    0 -0.11268525662E+03  0.13616074306E+02  0.24154385985E+01  0.11353060769E+03  0.00000000000E+00 0.  1.
</event>
<event>
 7    1  0.5194496E-006  0.1139902E+03  0.7818608E-02  0.1292876E+00
          2   -1    0    0  502    0  0.00000000000E+00  0.00000000000E+00  0.11939132685E+04  0.11939132685E+04  0.00000000000E+00 0. -1.
          1   -1    0    0  501    0 -0.00000000000E+00 -0.00000000000E+00 -0.21131655114E+03  0.21131655114E+03  0.00000000000E+00 0. -1.
         25    2    1    2    0    0 -0.51396957441E+02  0.76101001658E+02  0.52437350041E+02  0.16372380551E+03  0.12499119618E+03 0.  0.
          2    1    1    2  501    0  0.11788706337E+03 -0.35460506894E+02 -0.12967959422E+03  0.17880605252E+03  0.00000000000E+00 0. -1.
          1    1    1    2  502    0 -0.66490105928E+02 -0.40640494764E+02  0.10598389616E+04  0.10626999617E+04  0.00000000000E+00 0. -1.
         22    1    3    3    0    0  0.59075993297E+01  0.74782939825E+01 -0.36436672618E+02  0.37662391350E+02  0.00000000000E+00 0.  1.
         22    1    3    3    0    0 -0.57304556771E+02  0.68622707676E+02  0.88874022659E+02  0.12606141416E+03  0.00000000000E+00 0.  1.
</event>
<event>
 7    1  0.5194496E-006  0.9975281E+02  0.7818608E-02  0.1323349E+00
          2   -1    0    0  502    0  0.00000000000E+00  0.00000000000E+00  0.14899880208E+04  0.14899880208E+04  0.00000000000E+00 0. -1.
          1   -1    0    0  501    0 -0.00000000000E+00 -0.00000000000E+00 -0.51425166432E+03  0.51425166432E+03  0.00000000000E+00 0. -1.
         25    2    1    2    0    0 -0.10540979017E+03 -0.55330564778E+02  0.86946071063E+03  0.88643173981E+03  0.12500642684E+03 0.  0.
          2    1    1    2  501    0  0.46509413602E+02  0.88256541772E+02 -0.49895336632E+03  0.50882885578E+03  0.00000000000E+00 0. -1.
          1    1    1    2  502    0  0.58900376564E+02 -0.32925976993E+02  0.60522901217E+03  0.60897908954E+03  0.00000000000E+00 0. -1.
         22    1    3    3    0    0 -0.27400117342E+02  0.40413619021E+02  0.27044421886E+03  0.27481648885E+03  0.00000000000E+00 0.  1.
         22    1    3    3    0    0 -0.78009672825E+02 -0.95744183799E+02  0.59901649178E+03  0.61161525096E+03  0.00000000000E+00 0.  1.
</event>
<event>
 7    1  0.5194496E-006  0.9678096E+02  0.7818608E-02  0.1307503E+00
          2   -1    0    0  502    0  0.00000000000E+00  0.00000000000E+00  0.28001075820E+04  0.28001075820E+04  0.00000000000E+00 0. -1.
          1   -1    0    0  501    0 -0.00000000000E+00 -0.00000000000E+00 -0.43459381472E+03  0.43459381472E+03  0.00000000000E+00 0. -1.
         25    2    1    2    0    0  0.15246962104E+03 -0.53241465903E+02  0.47399476231E+03  0.51611807489E+03  0.12500077401E+03 0.  0.
          2    1    1    2  501    0 -0.58241621677E+02  0.55149439578E+02 -0.40866866191E+03  0.41646563172E+03  0.00000000000E+00 0. -1.
          1    1    1    2  502    0 -0.94227999361E+02 -0.19079736750E+01  0.23001876669E+04  0.23021176901E+04  0.00000000000E+00 0. -1.
         22    1    3    3    0    0  0.12512312784E+03  0.10808995464E+02  0.22623923029E+03  0.25876016081E+03  0.00000000000E+00 0. -1.
         22    1    3    3    0    0  0.27346493202E+02 -0.64050461367E+02  0.24775553202E+03  0.25735791408E+03  0.00000000000E+00 0. -1.
</event>
<event>
 7    1  0.5194496E-006  0.1216591E+03  0.7818608E-02  0.1400367E+00
          2   -1    0    0  502    0  0.00000000000E+00  0.00000000000E+00  0.12618895270E+03  0.12618895270E+03  0.00000000000E+00 0. -1.
          1   -1    0    0  501    0 -0.00000000000E+00 -0.00000000000E+00 -0.15687775462E+04  0.15687775462E+04  0.00000000000E+00 0. -1.
         25    2    1    2    0    0  0.11471216732E+03 -0.55176570228E+02 -0.36664817299E+03  0.40775033410E+03  0.12500446781E+03 0.  0.
          2    1    1    2  501    0  0.38024531956E+01  0.28751610556E+02 -0.11464414494E+04  0.11468082275E+04  0.00000000000E+00 0. -1.
          1    1    1    2  502    0 -0.11851462052E+03  0.26424959672E+02  0.70501028913E+02  0.14040793727E+03  0.00000000000E+00 0. -1.
         22    1    3    3    0    0  0.13896075103E+03 -0.58267979231E+02 -0.28315446217E+03  0.32075176878E+03  0.00000000000E+00 0.  1.
         22    1    3    3    0    0 -0.24248583710E+02  0.30914090035E+01 -0.83493710820E+02  0.86998565322E+02  0.00000000000E+00 0.  1.
</event>
<event>
 7    1  0.5194496E-006  0.1540502E+03  0.7818608E-02  0.1415613E+00
          2   -1    0    0  502    0  0.00000000000E+00  0.00000000000E+00  0.10041579804E+04  0.10041579804E+04  0.00000000000E+00 0. -1.
          1   -1    0    0  501    0 -0.00000000000E+00 -0.00000000000E+00 -0.25492240553E+03  0.25492240553E+03  0.00000000000E+00 0. -1.
         25    2    1    2    0    0  0.15265060632E+03 -0.15555201513E+02  0.51324025463E+03  0.55007935723E+03  0.12501027308E+03 0.  0.
          2    1    1    2  501    0 -0.15406709099E+03 -0.47232728140E+01 -0.21113248867E+03  0.26141137237E+03  0.00000000000E+00 0. -1.
          1    1    1    2  502    0  0.14164846693E+01  0.20278474327E+02  0.44712780891E+03  0.44758965633E+03  0.00000000000E+00 0. -1.
         22    1    3    3    0    0  0.10147640305E+03  0.20363301889E+02  0.15470535168E+03  0.18613401160E+03  0.00000000000E+00 0. -1.
         22    1    3    3    0    0  0.51174203274E+02 -0.35918503402E+02  0.35853490296E+03  0.36394534563E+03  0.00000000000E+00 0. -1.
</event>
<event>
 7    1  0.5194496E-006  0.6801642E+02  0.7818608E-02  0.1391669E+00
          2   -1    0    0  502    0  0.00000000000E+00  0.00000000000E+00  0.26097952186E+04  0.26097952186E+04  0.00000000000E+00 0. -1.
          1   -1    0    0  501    0 -0.00000000000E+00 -0.00000000000E+00 -0.23547598285E+03  0.23547598285E+03  0.00000000000E+00 0. -1.
         25    2    1    2    0    0  0.11742076009E+03 -0.31918628805E+02  0.74447668055E+03  0.76464209771E+03  0.12500230381E+03 0.  0.
          2    1    1    2  501    0 -0.67173560056E+02  0.81245068733E+01 -0.21988806734E+03  0.23006315859E+03  0.00000000000E+00 0. -1.
          1    1    1    2  502    0 -0.50247200032E+02  0.23794121931E+02  0.18497306226E+04  0.18505659452E+04  0.00000000000E+00 0. -1.
         22    1    3    3    0    0 -0.20834860584E+02  0.11392559114E+02  0.19285893031E+03  0.19431533346E+03  0.00000000000E+00 0.  1.
         22    1    3    3    0    0  0.13825562067E+03 -0.43311187918E+02  0.55161775024E+03  0.57032676425E+03  0.00000000000E+00 0.  1.
</event>
<event>
 7    1  0.5194496E-006  0.9297284E+02  0.7818608E-02  0.1352593E+00
          2   -1    0    0  502    0  0.00000000000E+00  0.00000000000E+00  0.10816540715E+04  0.10816540715E+04  0.00000000000E+00 0. -1.
          1   -1    0    0  501    0 -0.00000000000E+00 -0.00000000000E+00 -0.42327205810E+04  0.42327205810E+04  0.00000000000E+00 0. -1.
         25    2    1    2    0    0 -0.12247593843E+03  0.84327364603E+01 -0.19630871361E+03  0.26312245825E+03  0.12499940184E+03 0.  0.
          2    1    1    2  501    0  0.36281697093E+02 -0.42855991328E+02 -0.40007531142E+04  0.40011471453E+04  0.00000000000E+00 0. -1.
          1    1    1    2  502    0  0.86194241333E+02  0.34423254868E+02  0.10459953183E+04  0.10501050489E+04  0.00000000000E+00 0. -1.
         22    1    3    3    0    0 -0.13750812633E+02 -0.46755167168E+02 -0.85241287807E+02  0.98189651450E+02  0.00000000000E+00 0.  1.
         22    1    3    3    0    0 -0.10872512579E+03  0.55187903629E+02 -0.11106742580E+03  0.16493280680E+03  0.00000000000E+00 0.  1.
</event>
<event>
 7    1  0.5194496E-006  0.7587315E+02  0.7818608E-02  0.1345791E+00
          2   -1    0    0  502    0  0.00000000000E+00  0.00000000000E+00  0.33763573759E+03  0.33763573759E+03  0.00000000000E+00 0. -1.
          1   -1    0    0  501    0 -0.00000000000E+00 -0.00000000000E+00 -0.42978462683E+04  0.42978462683E+04  0.00000000000E+00 0. -1.
         25    2    1    2    0    0  0.92875311061E+02  0.52939484935E+02 -0.19299627488E+03  0.25358810022E+03  0.12502379769E+03 0.  0.
          2    1    1    2  501    0 -0.19099020519E+02 -0.70377648555E+02 -0.40695476337E+04  0.40702009446E+04  0.00000000000E+00 0. -1.
          1    1    1    2  502    0 -0.73776290543E+02  0.17438163620E+02  0.30233337790E+03  0.31169296109E+03  0.00000000000E+00 0. -1.
         22    1    3    3    0    0 -0.17921646527E+02  0.49642955380E+02 -0.50413237271E+02  0.72987005181E+02  0.00000000000E+00 0. -1.
         22    1    3    3    0    0  0.11079695759E+03  0.32965295550E+01 -0.14258303760E+03  0.18060109504E+03  0.00000000000E+00 0. -1.
</event>
<event>
 7    1  0.5194496E-006  0.4053453E+02  0.7818608E-02  0.1577304E+00
          2   -1    0    0  502    0  0.00000000000E+00  0.00000000000E+00  0.25586390649E+02  0.25586390649E+02  0.00000000000E+00 0. -1.
          1   -1    0    0  501    0 -0.00000000000E+00 -0.00000000000E+00 -0.85752991020E+03  0.85752991020E+03  0.00000000000E+00 0. -1.
         25    2    1    2    0    0 -0.18289142450E+02  0.58383184181E+02 -0.49407351438E+03  0.51328689148E+03  0.12494681441E+03 0.  0.
          2    1    1    2  501    0 -0.30486016600E+01 -0.25026405287E+02 -0.32806971945E+03  0.32903701275E+03  0.00000000000E+00 0. -1.
          1    1    1    2  502    0  0.21337744110E+02 -0.33356778895E+02 -0.98002857194E+01  0.40792396621E+02  0.00000000000E+00 0. -1.
         22    1    3    3    0    0 -0.29956992793E+01  0.72895918950E+02 -0.13381046306E+03  0.15240744482E+03  0.00000000000E+00 0.  1.
         22    1    3    3    0    0 -0.15293443171E+02 -0.14512734768E+02 -0.36026305132E+03  0.36087944666E+03  0.00000000000E+00 0.  1.
</event>
<event>
 7    1  0.5194496E-006  0.4673664E+02  0.7818608E-02  0.1480139E+00
          2   -1    0    0  502    0  0.00000000000E+00  0.00000000000E+00  0.55076370095E+03  0.55076370095E+03  0.00000000000E+00 0. -1.
          1   -1    0    0  501    0 -0.00000000000E+00 -0.00000000000E+00 -0.65084827933E+02  0.65084827933E+02  0.00000000000E+00 0. -1.
         25    2    1    2    0    0 -0.13156226748E+02  0.19098339327E+02  0.14939354204E+03  0.19616603027E+03  0.12499939263E+03 0.  0.
          2    1    1    2  501    0  0.49690725812E+02  0.76044244331E+00 -0.25264100888E+02  0.55749630475E+02  0.00000000000E+00 0. -1.
          1    1    1    2  502    0 -0.36534499064E+02 -0.19858781770E+02  0.36154943186E+03  0.36393286814E+03  0.00000000000E+00 0. -1.
         22    1    3    3    0    0 -0.39211536166E+02  0.37955068078E+02  0.13091369637E+02  0.56120546329E+02  0.00000000000E+00 0.  1.
         22    1    3    3    0    0  0.26055309418E+02 -0.18856728751E+02  0.13630217241E+03  0.14004548394E+03  0.00000000000E+00 0.  1.
</event>
<event>
 7    1  0.5194496E-006  0.1217836E+03  0.7818608E-02  0.1276067E+00
          2   -1    0    0  502    0  0.00000000000E+00  0.00000000000E+00  0.36741626880E+03  0.36741626880E+03  0.00000000000E+00 0. -1.
          1   -1    0    0  501    0 -0.00000000000E+00 -0.00000000000E+00 -0.37914228782E+03  0.37914228782E+03  0.00000000000E+00 0. -1.
         25    2    1    2    0    0 -0.91090386871E+02  0.17666079468E+02 -0.63579289927E+01  0.15580174784E+03  0.12499684966E+03 0.  0.
          2    1    1    2  501    0 -0.22565392238E+02 -0.82462922873E+02 -0.27665879536E+03  0.28956764257E+03  0.00000000000E+00 0. -1.
          1    1    1    2  502    0  0.11365577911E+03  0.64796843405E+02  0.27129070533E+03  0.30118916620E+03  0.00000000000E+00 0. -1.
         22    1    3    3    0    0  0.26868477650E+02  0.12958735488E+02  0.18580438273E+02  0.35143656655E+02  0.00000000000E+00 0.  1.
         22    1    3    3    0    0 -0.11795886452E+03  0.47073439795E+01 -0.24938367266E+02  0.12065809118E+03  0.00000000000E+00 0.  1.
</event>
<event>
 7    1  0.1115376E-005  0.1030555E+03  0.7818608E-02  0.1388776E+00
          2   -1    0    0  502    0  0.00000000000E+00  0.00000000000E+00  0.12888047152E+04  0.12888047152E+04  0.00000000000E+00 0. -1.
          1   -1    0    0  501    0 -0.00000000000E+00 -0.00000000000E+00 -0.10039627266E+04  0.10039627266E+04  0.00000000000E+00 0. -1.
         25    2    1    2    0    0  0.79155631591E+02 -0.52518497682E+02 -0.50572614294E+03  0.52952709922E+03  0.12496483724E+03 0.  0.
          2    1    1    2  501    0  0.21624872285E+02  0.30705446497E+02 -0.48352505694E+03  0.48498138133E+03  0.00000000000E+00 0. -1.
          1    1    1    2  502    0 -0.10078050388E+03  0.21813051185E+02  0.12740931885E+04  0.12782589613E+04  0.00000000000E+00 0. -1.
         22    1    3    3    0    0  0.55311762527E+02 -0.92675471234E+02 -0.30805592471E+03  0.32641474659E+03  0.00000000000E+00 0.  1.
         22    1    3    3    0    0  0.23843869065E+02  0.40156973552E+02 -0.19767021822E+03  0.20311235263E+03  0.00000000000E+00 0.  1.
</event>
<event>
 7    1  0.5194496E-006  0.6180615E+02  0.7818608E-02  0.1415976E+00
          2   -1    0    0  502    0  0.00000000000E+00  0.00000000000E+00  0.96031590562E+03  0.96031590562E+03  0.00000000000E+00 0. -1.
          1   -1    0    0  501    0 -0.00000000000E+00 -0.00000000000E+00 -0.25755374981E+03  0.25755374981E+03  0.00000000000E+00 0. -1.
         25    2    1    2    0    0  0.99925692623E+02 -0.14686291894E+02  0.99765591673E+02  0.18915632685E+03  0.12500444589E+03 0.  0.
          2    1    1    2  501    0 -0.52198081587E+02  0.31264230200E+02 -0.20770774961E+03  0.21643613622E+03  0.00000000000E+00 0. -1.
          1    1    1    2  502    0 -0.47727611035E+02 -0.16577938306E+02  0.81070431375E+03  0.81227719236E+03  0.00000000000E+00 0. -1.
         22    1    3    3    0    0  0.74251088394E+02 -0.67132841380E+02  0.77758074321E+02  0.12675314845E+03  0.00000000000E+00 0.  1.
         22    1    3    3    0    0  0.25674604229E+02  0.52446549485E+02  0.22007517352E+02  0.62403178407E+02  0.00000000000E+00 0.  1.
</event>
<event>
 7    1  0.5194496E-006  0.5057171E+02  0.7818608E-02  0.1564230E+00
          2   -1    0    0  502    0  0.00000000000E+00  0.00000000000E+00  0.55085486284E+03  0.55085486284E+03  0.00000000000E+00 0. -1.
          1   -1    0    0  501    0 -0.00000000000E+00 -0.00000000000E+00 -0.79104108369E+02  0.79104108369E+02  0.00000000000E+00 0. -1.
         25    2    1    2    0    0 -0.16092416028E+02 -0.33575525285E+02  0.41617331924E+02  0.13691058364E+03  0.12500489528E+03 0.  0.
          2    1    1    2  501    0  0.79345328020E+01  0.53929540519E+02 -0.73609098675E+01  0.55004864744E+02  0.00000000000E+00 0. -1.
          1    1    1    2  502    0  0.81578832259E+01 -0.20354015234E+02  0.43749433241E+03  0.43804352282E+03  0.00000000000E+00 0. -1.
         22    1    3    3    0    0 -0.48743627826E+02  0.20896594271E+02  0.49955565829E+02  0.72857171666E+02  0.00000000000E+00 0. -1.
         22    1    3    3    0    0  0.32651211799E+02 -0.54472119556E+02 -0.83382339057E+01  0.64053411974E+02  0.00000000000E+00 0. -1.
</event>
<event>
 7    1  0.5194496E-006  0.2024339E+03  0.7818608E-02  0.1230795E+00
          2   -1    0    0  502    0  0.00000000000E+00  0.00000000000E+00  0.49480100934E+03  0.49480100934E+03  0.00000000000E+00 0. -1.
          1   -1    0    0  501    0 -0.00000000000E+00 -0.00000000000E+00 -0.50018351471E+03  0.50018351471E+03  0.00000000000E+00 0. -1.
         25    2    1    2    0    0  0.10583189992E+03  0.18504327411E+03  0.18735245687E+03  0.31010863214E+03  0.12500006521E+03 0.  0.
          2    1    1    2  501    0 -0.26777039607E+02 -0.20100658075E+03 -0.40766375866E+03  0.45531351339E+03  0.00000000000E+00 0. -1.
          1    1    1    2  502    0 -0.79054860312E+02  0.15963306638E+02  0.21492879643E+03  0.22956237852E+03  0.00000000000E+00 0. -1.
         22    1    3    3    0    0  0.13294841073E+03  0.16654030256E+03  0.15128852621E+03  0.26134109982E+03  0.00000000000E+00 0. -1.
         22    1    3    3    0    0 -0.27116510811E+02  0.18502971551E+02  0.36063930651E+02  0.48767532322E+02  0.00000000000E+00 0. -1.
</event>
<event>
 7    1  0.5194496E-006  0.1116454E+03  0.7818608E-02  0.1259790E+00
          2   -1    0    0  502    0  0.00000000000E+00  0.00000000000E+00  0.17787719375E+04  0.17787719375E+04  0.00000000000E+00 0. -1.
          1   -1    0    0  501    0 -0.00000000000E+00 -0.00000000000E+00 -0.16719383474E+03  0.16719383474E+03  0.00000000000E+00 0. -1.
         25    2    1    2    0    0 -0.54602050530E+02 -0.43623402334E+02  0.14308577729E+03  0.20244427979E+03  0.12500304637E+03 0.  0.
          2    1    1    2  501    0 -0.44289457183E+02  0.10248483586E+03 -0.11241226700E+03  0.15843363080E+03  0.00000000000E+00 0. -1.
          1    1    1    2  502    0  0.98891507713E+02 -0.58861433523E+02  0.15809045925E+04  0.15850878616E+04  0.00000000000E+00 0. -1.
         22    1    3    3    0    0 -0.39405903300E+02 -0.52103118542E+02  0.75106671734E+01  0.65756903045E+02  0.00000000000E+00 0. -1.
         22    1    3    3    0    0 -0.15196147231E+02  0.84797162078E+01  0.13557511012E+03  0.13668737675E+03  0.00000000000E+00 0. -1.
</event>
<event>
 7    1  0.5194496E-006  0.5325216E+02  0.7818608E-02  0.1471312E+00
          2   -1    0    0  502    0  0.00000000000E+00  0.00000000000E+00  0.21662638461E+03  0.21662638461E+03  0.00000000000E+00 0. -1.
          1   -1    0    0  501    0 -0.00000000000E+00 -0.00000000000E+00 -0.85888865159E+03  0.85888865159E+03  0.00000000000E+00 0. -1.
         25    2    1    2    0    0 -0.35075045687E+02  0.57796229777E+02 -0.49908541995E+02  0.15061205295E+03  0.12498985928E+03 0.  0.
          2    1    1    2  501    0  0.38563193996E+02 -0.47730526205E+01 -0.75386973150E+03  0.75487050150E+03  0.00000000000E+00 0. -1.
          1    1    1    2  502    0 -0.34881483087E+01 -0.53023177157E+02  0.16151600651E+03  0.17003248176E+03  0.00000000000E+00 0. -1.
         22    1    3    3    0    0 -0.34589649005E+02  0.10715910058E+02  0.36998712166E+02  0.51770447637E+02  0.00000000000E+00 0.  1.
         22    1    3    3    0    0 -0.48539668246E+00  0.47080319719E+02 -0.86907254161E+02  0.98841605312E+02  0.00000000000E+00 0.  1.
</event>
<event>
 7    1  0.5194496E-006  0.1552567E+03  0.7818608E-02  0.1295659E+00
          2   -1    0    0  502    0  0.00000000000E+00  0.00000000000E+00  0.26824414338E+04  0.26824414338E+04  0.00000000000E+00 0. -1.
          1   -1    0    0  501    0 -0.00000000000E+00 -0.00000000000E+00 -0.22309883956E+03  0.22309883956E+03  0.00000000000E+00 0. -1.
         25    2    1    2    0    0  0.16276392490E+03  0.11134152208E+03  0.82110888880E+03  0.85365961204E+03  0.12500358466E+03 0.  0.
          2    1    1    2  501    0 -0.29362732074E+02 -0.47393579469E+02 -0.20003997005E+03  0.20766393771E+03  0.00000000000E+00 0. -1.
          1    1    1    2  502    0 -0.13340119283E+03 -0.63947942612E+02  0.18382736755E+04  0.18442167236E+04  0.00000000000E+00 0. -1.
         22    1    3    3    0    0  0.12351648897E+03  0.10963307877E+03  0.43069497691E+03  0.46127421144E+03  0.00000000000E+00 0. -1.
         22    1    3    3    0    0  0.39247435928E+02  0.17084433133E+01  0.39041391189E+03  0.39238540060E+03  0.00000000000E+00 0. -1.
</event>
<event>
 7    1  0.5194496E-006  0.7109901E+02  0.7818608E-02  0.1475215E+00
          2   -1    0    0  502    0  0.00000000000E+00  0.00000000000E+00  0.10333166757E+03  0.10333166757E+03  0.00000000000E+00 0. -1.
          1   -1    0    0  501    0 -0.00000000000E+00 -0.00000000000E+00 -0.11172306067E+04  0.11172306067E+04  0.00000000000E+00 0. -1.
         25    2    1    2    0    0  0.33702355891E+02  0.28574317129E+02 -0.13757265204E+03  0.19106173437E+03  0.12500404536E+03 0.  0.
          2    1    1    2  501    0 -0.55320553496E+02 -0.46845194656E+02 -0.94886762131E+03  0.95163259648E+03  0.00000000000E+00 0. -1.
          1    1    1    2  502    0  0.21618197605E+02  0.18270877527E+02  0.72541334254E+02  0.77867943396E+02  0.00000000000E+00 0. -1.
         22    1    3    3    0    0 -0.12377202179E+02  0.34183955144E+02 -0.13993630881E+03  0.14458183996E+03  0.00000000000E+00 0. -1.
         22    1    3    3    0    0  0.46079558070E+02 -0.56096380147E+01  0.23636567687E+01  0.46479894405E+02  0.00000000000E+00 0. -1.
</event>
<event>
 7    1  0.5194496E-006  0.1030506E+03  0.7818608E-02  0.1373699E+00
          2   -1    0    0  502    0  0.00000000000E+00  0.00000000000E+00  0.17817243375E+03  0.17817243375E+03  0.00000000000E+00 0. -1.
          1   -1    0    0  501    0 -0.00000000000E+00 -0.00000000000E+00 -0.41545443989E+03  0.41545443989E+03  0.00000000000E+00 0. -1.
         25    2    1    2    0    0 -0.33856848439E+02  0.11812885835E+03 -0.16952392526E+03  0.24385131465E+03  0.12499755621E+03 0.  0.
          2    1    1    2  501    0 -0.24477569909E+02 -0.34697193666E+02 -0.18770676650E+03  0.19244967359E+03  0.00000000000E+00 0. -1.
          1    1    1    2  502    0  0.58334418347E+02 -0.83431664683E+02  0.11994868562E+03  0.15732588541E+03  0.00000000000E+00 0. -1.
         22    1    3    3    0    0 -0.53974546080E+02  0.58650534828E+02 -0.16208585042E+03  0.18062380731E+03  0.00000000000E+00 0. -1.
         22    1    3    3    0    0  0.20117697642E+02  0.59478323521E+02 -0.74380748448E+01  0.63227507342E+02  0.00000000000E+00 0. -1.
</event>
<event>
 7    1  0.5194496E-006  0.9105751E+02  0.7818608E-02  0.1313932E+00
          2   -1    0    0  502    0  0.00000000000E+00  0.00000000000E+00  0.19889478473E+03  0.19889478473E+03  0.00000000000E+00 0. -1.
          1   -1    0    0  501    0 -0.00000000000E+00 -0.00000000000E+00 -0.59211368365E+03  0.59211368365E+03  0.00000000000E+00 0. -1.
         25    2    1    2    0    0 -0.48986364900E+02 -0.90318517411E+02 -0.34715620467E+03  0.38301464330E+03  0.12500275200E+03 0.  0.
          2    1    1    2  501    0  0.80323235147E+02  0.40495951700E+01 -0.20736008428E+03  0.22241048959E+03  0.00000000000E+00 0. -1.
          1    1    1    2  502    0 -0.31336870248E+02  0.86268922241E+02  0.16129739003E+03  0.18558333549E+03  0.00000000000E+00 0. -1.
         22    1    3    3    0    0 -0.11615831663E+02 -0.22945863796E+02 -0.27890470915E+03  0.28008798082E+03  0.00000000000E+00 0. -1.
         22    1    3    3    0    0 -0.37370533237E+02 -0.67372653614E+02 -0.68251495515E+02  0.10292666248E+03  0.00000000000E+00 0. -1.
</event>
<event>
 7    1  0.5194496E-006  0.5264881E+02  0.7818608E-02  0.1504407E+00
          2   -1    0    0  502    0  0.00000000000E+00  0.00000000000E+00  0.58694742551E+03  0.58694742551E+03  0.00000000000E+00 0. -1.
          1   -1    0    0  501    0 -0.00000000000E+00 -0.00000000000E+00 -0.93467800136E+03  0.93467800136E+03  0.00000000000E+00 0. -1.
         25    2    1    2    0    0  0.74742246634E+02 -0.37153777524E+02  0.50152416664E+03  0.52356545149E+03  0.12500994219E+03 0.  0.
          2    1    1    2  501    0 -0.48581736098E+02  0.20173852431E+02 -0.91960401258E+03  0.92110732781E+03  0.00000000000E+00 0. -1.
          1    1    1    2  502    0 -0.26160510536E+02  0.16979925092E+02  0.70349270084E+02  0.76952647576E+02  0.00000000000E+00 0. -1.
         22    1    3    3    0    0  0.54653360457E+02  0.41814726367E+02  0.22586814339E+03  0.23611835877E+03  0.00000000000E+00 0.  1.
         22    1    3    3    0    0  0.20088886178E+02 -0.78968503891E+02  0.27565602326E+03  0.28744709272E+03  0.00000000000E+00 0.  1.
</event>
<event>
 7    1  0.5194496E-006  0.5773979E+02  0.7818608E-02  0.1452602E+00
          2   -1    0    0  502    0  0.00000000000E+00  0.00000000000E+00  0.14282688485E+03  0.14282688485E+03  0.00000000000E+00 0. -1.
          1   -1    0    0  501    0 -0.00000000000E+00 -0.00000000000E+00 -0.14524228448E+04  0.14524228448E+04  0.00000000000E+00 0. -1.
         25    2    1    2    0    0 -0.74280650105E+02 -0.30066645465E+02 -0.23892417120E+03  0.28130355157E+03  0.12500124157E+03 0.  0.
          2    1    1    2  501    0  0.38320826223E+02 -0.14688177091E+02 -0.11851595211E+04  0.11858698574E+04  0.00000000000E+00 0. -1.
          1    1    1    2  502    0  0.35959823882E+02  0.44754822556E+02  0.11448773231E+03  0.12807632071E+03  0.00000000000E+00 0. -1.
         22    1    3    3    0    0 -0.44375132492E+02 -0.60482495250E+02 -0.22381450788E+03  0.23605130492E+03  0.00000000000E+00 0.  1.
         22    1    3    3    0    0 -0.29905517613E+02  0.30415849785E+02 -0.15109663321E+02  0.45252246657E+02  0.00000000000E+00 0.  1.
</event>
<event>
 7    1  0.5194496E-006  0.1103456E+03  0.7818608E-02  0.1319975E+00
          2   -1    0    0  502    0  0.00000000000E+00  0.00000000000E+00  0.13515226090E+04  0.13515226090E+04  0.00000000000E+00 0. -1.
          1   -1    0    0  501    0 -0.00000000000E+00 -0.00000000000E+00 -0.18389291597E+03  0.18389291597E+03  0.00000000000E+00 0. -1.
         25    2    1    2    0    0  0.51951933093E+02  0.24576387754E+02  0.42339451085E+03  0.44518623790E+03  0.12499948964E+03 0.  0.
          2    1    1    2  501    0 -0.11250083759E+03 -0.76775858055E+01 -0.15340515789E+03  0.19039045735E+03  0.00000000000E+00 0. -1.
          1    1    1    2  502    0  0.60548904493E+02 -0.16898801948E+02  0.89764034005E+03  0.89983882970E+03  0.00000000000E+00 0. -1.
         22    1    3    3    0    0  0.62781701834E+02 -0.14170428009E+02  0.97559526989E+02  0.11687687719E+03  0.00000000000E+00 0.  1.
         22    1    3    3    0    0 -0.10829768741E+02  0.38746815763E+02  0.32583498386E+03  0.32830936071E+03  0.00000000000E+00 0.  1.
</event>
<event>
 7    1  0.5194496E-006  0.9369075E+02  0.7818608E-02  0.1322287E+00
          2   -1    0    0  502    0  0.00000000000E+00  0.00000000000E+00  0.11125123456E+04  0.11125123456E+04  0.00000000000E+00 0. -1.
          1   -1    0    0  501    0 -0.00000000000E+00 -0.00000000000E+00 -0.13381025251E+04  0.13381025251E+04  0.00000000000E+00 0. -1.
         25    2    1    2    0    0  0.89704409763E+02  0.13746633061E+03  0.34994117349E+02  0.20927984384E+03  0.12501836508E+03 0.  0.
          2    1    1    2  501    0 -0.43987385805E+02 -0.57664868512E+02 -0.12477692419E+04  0.12498752771E+04  0.00000000000E+00 0. -1.
          1    1    1    2  502    0 -0.45717023959E+02 -0.79801462101E+02  0.98718494505E+03  0.99145974975E+03  0.00000000000E+00 0. -1.
         22    1    3    3    0    0  0.65971513751E+02  0.12287898388E+03  0.76668099092E+02  0.15915238837E+03  0.00000000000E+00 0.  1.
         22    1    3    3    0    0  0.23732896012E+02  0.14587346734E+02 -0.41673981743E+02  0.50127455472E+02  0.00000000000E+00 0.  1.
</event>
<event>
 7    1  0.5194496E-006  0.1460094E+03  0.7818608E-02  0.1276714E+00
          2   -1    0    0  502    0  0.00000000000E+00  0.00000000000E+00  0.77865002323E+03  0.77865002323E+03  0.00000000000E+00 0. -1.
          1   -1    0    0  501    0 -0.00000000000E+00 -0.00000000000E+00 -0.11451154821E+04  0.11451154821E+04  0.00000000000E+00 0. -1.
         25    2    1    2    0    0 -0.11763997024E+03  0.30334746299E+02  0.15693927326E+03  0.23455045277E+03  0.12499847987E+03 0.  0.
          2    1    1    2  501    0 -0.34453331021E+02 -0.61930307477E+02 -0.10947945249E+04  0.10970858885E+04  0.00000000000E+00 0. -1.
          1    1    1    2  502    0  0.15209330127E+03  0.31595561178E+02  0.57138979272E+03  0.59212916412E+03  0.00000000000E+00 0. -1.
         22    1    3    3    0    0  0.24175053691E+01 -0.18395149592E+02 -0.11660981046E+02  0.21913565198E+02  0.00000000000E+00 0. -1.
         22    1    3    3    0    0 -0.12005747561E+03  0.48729895891E+02  0.16860025430E+03  0.21263688757E+03  0.00000000000E+00 0. -1.
</event>
<event>
 7    1  0.5194496E-006  0.8035296E+02  0.7818608E-02  0.1346638E+00
          2   -1    0    0  502    0  0.00000000000E+00  0.00000000000E+00  0.53626712161E+03  0.53626712161E+03  0.00000000000E+00 0. -1.
          1   -1    0    0  501    0 -0.00000000000E+00 -0.00000000000E+00 -0.96663352108E+03  0.96663352108E+03  0.00000000000E+00 0. -1.
         25    2    1    2    0    0  0.46354629207E+02  0.13333640645E+02  0.15448428098E+02  0.13487268927E+03  0.12500180302E+03 0.  0.
          2    1    1    2  501    0  0.18900505173E+02 -0.65693772538E+02 -0.90182204561E+03  0.90440914569E+03  0.00000000000E+00 0. -1.
          1    1    1    2  502    0 -0.65255134379E+02  0.52360131893E+02  0.45600721805E+03  0.46361880774E+03  0.00000000000E+00 0. -1.
         22    1    3    3    0    0  0.75586352219E+02  0.36018722973E+02 -0.17256425299E+02  0.85489351737E+02  0.00000000000E+00 0. -1.
         22    1    3    3    0    0 -0.29231723012E+02 -0.22685082328E+02  0.32704853396E+02  0.49383337536E+02  0.00000000000E+00 0. -1.
</event>
<event>
 7    1  0.5194496E-006  0.4374484E+02  0.7818608E-02  0.1505303E+00
          2   -1    0    0  502    0  0.00000000000E+00  0.00000000000E+00  0.13269498111E+04  0.13269498111E+04  0.00000000000E+00 0. -1.
          1   -1    0    0  501    0 -0.00000000000E+00 -0.00000000000E+00 -0.12527649580E+04  0.12527649580E+04  0.00000000000E+00 0. -1.
         25    2    1    2    0    0 -0.79341167256E+02 -0.10120398356E+02  0.56996172124E+03  0.58896460172E+03  0.12500198045E+03 0.  0.
          2    1    1    2  501    0  0.42075527967E+02  0.11883108679E+02 -0.12424132459E+04  0.12431823004E+04  0.00000000000E+00 0. -1.
          1    1    1    2  502    0  0.37265639289E+02 -0.17627103226E+01  0.74663637782E+03  0.74756786695E+03  0.00000000000E+00 0. -1.
         22    1    3    3    0    0 -0.10956336700E+03  0.13008086204E+02  0.42700304287E+03  0.44102714238E+03  0.00000000000E+00 0.  1.
         22    1    3    3    0    0  0.30222199740E+02 -0.23128484560E+02  0.14295867837E+03  0.14793745934E+03  0.00000000000E+00 0.  1.
</event>
<event>
 7    1  0.5194496E-006  0.6985261E+02  0.7818608E-02  0.1375532E+00
          2   -1    0    0  502    0  0.00000000000E+00  0.00000000000E+00  0.40644713623E+04  0.40644713623E+04  0.00000000000E+00 0. -1.
          1   -1    0    0  501    0 -0.00000000000E+00 -0.00000000000E+00 -0.12008828989E+03  0.12008828989E+03  0.00000000000E+00 0. -1.
         25    2    1    2    0    0  0.88437109323E+02  0.28601112954E+02  0.11972977359E+04  0.12073889990E+04  0.12500872221E+03 0.  0.
          2    1    1    2  501    0 -0.63974867480E+02  0.28048742166E+02 -0.10407426442E+03  0.12534340079E+03  0.00000000000E+00 0. -1.
          1    1    1    2  502    0 -0.24462241843E+02 -0.56649855120E+02  0.28511596009E+04  0.28518272523E+04  0.00000000000E+00 0. -1.
         22    1    3    3    0    0  0.74474919343E+02  0.68365906969E+02  0.58734628988E+03  0.59598328424E+03  0.00000000000E+00 0.  1.
         22    1    3    3    0    0  0.13962189980E+02 -0.39764794015E+02  0.60995144601E+03  0.61140571480E+03  0.00000000000E+00 0.  1.
</event>
<event>
 7    1  0.5194496E-006  0.1167153E+03  0.7818608E-02  0.1394813E+00
          2   -1    0    0  502    0  0.00000000000E+00  0.00000000000E+00  0.12134741383E+04  0.12134741383E+04  0.00000000000E+00 0. -1.
          1   -1    0    0  501    0 -0.00000000000E+00 -0.00000000000E+00 -0.37074327730E+03  0.37074327730E+03  0.00000000000E+00 0. -1.
         25    2    1    2    0    0  0.11074742338E+03 -0.38053659360E+02  0.32456542752E+03  0.36698981764E+03  0.12500294691E+03 0.  0.
          2    1    1    2  501    0 -0.14012092299E+02 -0.28317341003E+02 -0.34484027929E+03  0.34628460658E+03  0.00000000000E+00 0. -1.
          1    1    1    2  502    0 -0.96735331086E+02  0.66371000363E+02  0.86300571278E+03  0.87094299140E+03  0.00000000000E+00 0. -1.
         22    1    3    3    0    0  0.12527497561E+03 -0.46503170095E+02  0.32365906149E+03  0.35015932435E+03  0.00000000000E+00 0. -1.
         22    1    3    3    0    0 -0.14527552221E+02  0.84495107354E+01  0.90636602749E+00  0.16830493295E+02  0.00000000000E+00 0. -1.
</event>
<event>
 7    1  0.5194496E-006  0.1176003E+03  0.7818608E-02  0.1416607E+00
          2   -1    0    0  502    0  0.00000000000E+00  0.00000000000E+00  0.10687256340E+04  0.10687256340E+04  0.00000000000E+00 0. -1.
          1   -1    0    0  501    0 -0.00000000000E+00 -0.00000000000E+00 -0.17997415419E+03  0.17997415419E+03  0.00000000000E+00 0. -1.
         25    2    1    2    0    0  0.19622282799E+02 -0.13795567020E+03  0.27852368538E+03  0.33558479160E+03  0.12499963244E+03 0.  0.
          2    1    1    2  501    0 -0.27554643060E+02  0.11274979055E+03 -0.12893385917E+03  0.17348116227E+03  0.00000000000E+00 0. -1.
          1    1    1    2  502    0  0.79323602606E+01  0.25205879654E+02  0.73916165357E+03  0.73963383428E+03  0.00000000000E+00 0. -1.
         22    1    3    3    0    0 -0.29792001402E+02 -0.10525197558E+03  0.24302676678E+03  0.26650994556E+03  0.00000000000E+00 0.  1.
         22    1    3    3    0    0  0.49414284201E+02 -0.32703694627E+02  0.35496918601E+02  0.69074846040E+02  0.00000000000E+00 0.  1.
</event>
<event>
 7    1  0.5194496E-006  0.1246000E+03  0.7818608E-02  0.1413303E+00
          2   -1    0    0  502    0  0.00000000000E+00  0.00000000000E+00  0.70358512980E+03  0.70358512980E+03  0.00000000000E+00 0. -1.
          1   -1    0    0  501    0 -0.00000000000E+00 -0.00000000000E+00 -0.65227787955E+03  0.65227787955E+03  0.00000000000E+00 0. -1.
         25    2    1    2    0    0 -0.14233790142E+03  0.36884035512E+02 -0.91904142444E+02  0.21375740573E+03  0.12500138739E+03 0.  0.
          2    1    1    2  501    0  0.25353304600E+02  0.34478430055E+01 -0.49315584203E+03  0.49381915941E+03  0.00000000000E+00 0. -1.
          1    1    1    2  502    0  0.11698459682E+03 -0.40331878518E+02  0.63636723472E+03  0.64828644420E+03  0.00000000000E+00 0. -1.
         22    1    3    3    0    0 -0.10987326116E+03 -0.29581722901E+02 -0.30981297591E+02  0.11792816732E+03  0.00000000000E+00 0.  1.
         22    1    3    3    0    0 -0.32464640262E+02  0.66465758414E+02 -0.60922844853E+02  0.95829238408E+02  0.00000000000E+00 0.  1.
</event>
<event>
 7    1  0.5194496E-006  0.4768059E+02  0.7818608E-02  0.1500807E+00
          2   -1    0    0  502    0  0.00000000000E+00  0.00000000000E+00  0.52271882379E+03  0.52271882379E+03  0.00000000000E+00 0. -1.
          1   -1    0    0  501    0 -0.00000000000E+00 -0.00000000000E+00 -0.14987408678E+04  0.14987408678E+04  0.00000000000E+00 0. -1.
         25    2    1    2    0    0 -0.55024817789E+02  0.45144462480E+02 -0.79426415025E+03  0.80718410155E+03  0.12499952142E+03 0.  0.
          2    1    1    2  501    0  0.19971553364E+02 -0.41002445184E+02 -0.69666690821E+03  0.69815818010E+03  0.00000000000E+00 0. -1.
          1    1    1    2  502    0  0.35053264425E+02 -0.41420172954E+01  0.51490901446E+03  0.51611740992E+03  0.00000000000E+00 0. -1.
         22    1    3    3    0    0 -0.77561023712E+02  0.44922257295E+02 -0.31808937655E+03  0.33047628217E+03  0.00000000000E+00 0.  1.
         22    1    3    3    0    0  0.22536205923E+02  0.22220518407E+00 -0.47617477370E+03  0.47670781938E+03  0.00000000000E+00 0.  1.
</event>
<event>
 7    1  0.5194496E-006  0.1209676E+03  0.7818608E-02  0.1263790E+00
          2   -1    0    0  502    0  0.00000000000E+00  0.00000000000E+00  0.29204404241E+04  0.29204404241E+04  0.00000000000E+00 0. -1.
          1   -1    0    0  501    0 -0.00000000000E+00 -0.00000000000E+00 -0.39647562533E+03  0.39647562533E+03  0.00000000000E+00 0. -1.
         25    2    1    2    0    0 -0.46762802423E+02 -0.25752083436E+02  0.33361265931E+03  0.36023851254E+03  0.12499779987E+03 0.  0.
          2    1    1    2  501    0 -0.81472743118E+02  0.52497620359E+02 -0.37533578147E+03  0.38764772264E+03  0.00000000000E+00 0. -1.
          1    1    1    2  502    0  0.12823554554E+03 -0.26745536923E+02  0.25656879210E+04  0.25690298143E+04  0.00000000000E+00 0. -1.
         22    1    3    3    0    0  0.24648522145E+02 -0.33754293454E+02  0.23229691055E+03  0.23602702519E+03  0.00000000000E+00 0. -1.
         22    1    3    3    0    0 -0.71411324569E+02  0.80022100183E+01  0.10131574876E+03  0.12421148734E+03  0.00000000000E+00 0. -1.
</event>
<event>
 7    1  0.5194496E-006  0.5397055E+02  0.7818608E-02  0.1513210E+00
          2   -1    0    0  502    0  0.00000000000E+00  0.00000000000E+00  0.35770372203E+02  0.35770372203E+02  0.00000000000E+00 0. -1.
          1   -1    0    0  501    0 -0.00000000000E+00 -0.00000000000E+00 -0.76122206867E+03  0.76122206867E+03  0.00000000000E+00 0. -1.
         25    2    1    2    0    0 -0.56758909219E+02 -0.43049115023E+02 -0.35871655526E+03  0.38649416899E+03  0.12500150223E+03 0.  0.
          2    1    1    2  501    0  0.28612327314E+02 -0.16386996691E+01 -0.35530933282E+03  0.35646328366E+03  0.00000000000E+00 0. -1.
          1    1    1    2  502    0  0.28146581906E+02  0.44687814692E+02 -0.11425808381E+02  0.54034988221E+02  0.00000000000E+00 0. -1.
         22    1    3    3    0    0 -0.66415963658E+02 -0.79469455611E+02 -0.22731328394E+03  0.24979552370E+03  0.00000000000E+00 0.  1.
         22    1    3    3    0    0  0.96570544389E+01  0.36420340588E+02 -0.13140327132E+03  0.13669864528E+03  0.00000000000E+00 0.  1.
</event>
<event>
 7    1  0.5194496E-006  0.8240186E+02  0.7818608E-02  0.1430760E+00
          2   -1    0    0  502    0  0.00000000000E+00  0.00000000000E+00  0.79173557417E+03  0.79173557417E+03  0.00000000000E+00 0. -1.
          1   -1    0    0  501    0 -0.00000000000E+00 -0.00000000000E+00 -0.47679979838E+03  0.47679979838E+03  0.00000000000E+00 0. -1.
         25    2    1    2    0    0 -0.10361694656E+03  0.36242068729E+02 -0.12378711137E+03  0.20736039146E+03  0.12500049538E+03 0.  0.
          2    1    1    2  501    0  0.77954390476E+02 -0.14180377780E+02 -0.30579250115E+03  0.31589084170E+03  0.00000000000E+00 0. -1.
          1    1    1    2  502    0  0.25662556082E+02 -0.22061690949E+02  0.74451538831E+03  0.74528413939E+03  0.00000000000E+00 0. -1.
         22    1    3    3    0    0  0.21154458515E+02  0.87061375069E+01 -0.60686459641E+02  0.64854871283E+02  0.00000000000E+00 0.  1.
         22    1    3    3    0    0 -0.12477140507E+03  0.27535931222E+02 -0.63100651725E+02  0.14250552017E+03  0.00000000000E+00 0.  1.
</event>
<event>
 7    1  0.5194496E-006  0.2357817E+03  0.7818608E-02  0.1348820E+00
          2   -1    0    0  502    0  0.00000000000E+00  0.00000000000E+00  0.70953026579E+03  0.70953026579E+03  0.00000000000E+00 0. -1.
          1   -1    0    0  501    0 -0.00000000000E+00 -0.00000000000E+00 -0.23232635826E+03  0.23232635826E+03  0.00000000000E+00 0. -1.
         25    2    1    2    0    0  0.22799171186E+03  0.46466318816E+02  0.38444391661E+03  0.46643527111E+03  0.12500159060E+03 0.  0.
          2    1    1    2  501    0 -0.23517514186E+03 -0.24758963318E+02 -0.11740535753E+03  0.26401585481E+03  0.00000000000E+00 0. -1.
          1    1    1    2  502    0  0.71834300061E+01 -0.21707355498E+02  0.21016534845E+03  0.21140549813E+03  0.00000000000E+00 0. -1.
         22    1    3    3    0    0  0.54431543872E+02  0.51415308447E+02  0.19789384855E+03  0.21158521264E+03  0.00000000000E+00 0.  1.
         22    1    3    3    0    0  0.17356016799E+03 -0.49489896314E+01  0.18655006806E+03  0.25485005847E+03  0.00000000000E+00 0.  1.
</event>
<event>
 7    1  0.5194496E-006  0.9632370E+02  0.7818608E-02  0.1314077E+00
          2   -1    0    0  502    0  0.00000000000E+00  0.00000000000E+00  0.67423049546E+03  0.67423049546E+03  0.00000000000E+00 0. -1.
          1   -1    0    0  501    0 -0.00000000000E+00 -0.00000000000E+00 -0.16365316184E+03  0.16365316184E+03  0.00000000000E+00 0. -1.
         25    2    1    2    0    0  0.57741434846E+02 -0.88581016137E+02 -0.65872840914E+02  0.17647411701E+03  0.12499285214E+03 0.  0.
          2    1    1    2  501    0 -0.97922291121E+02  0.24154856056E+02  0.23878615691E+02  0.10364564852E+03  0.00000000000E+00 0. -1.
          1    1    1    2  502    0  0.40180856275E+02  0.64426160081E+02  0.55257155885E+03  0.55776389177E+03  0.00000000000E+00 0. -1.
         22    1    3    3    0    0 -0.60958683323E+01 -0.98097301041E+02 -0.30698855326E+02  0.10296921773E+03  0.00000000000E+00 0.  1.
         22    1    3    3    0    0  0.63837303178E+02  0.95162849041E+01 -0.35173985588E+02  0.73504899276E+02  0.00000000000E+00 0.  1.
</event>
<event>
 7    1  0.5194496E-006  0.9959931E+02  0.7818608E-02  0.1418962E+00
          2   -1    0    0  502    0  0.00000000000E+00  0.00000000000E+00  0.19483246152E+04  0.19483246152E+04  0.00000000000E+00 0. -1.
          1   -1    0    0  501    0 -0.00000000000E+00 -0.00000000000E+00 -0.11119351334E+03  0.11119351334E+03  0.00000000000E+00 0. -1.
         25    2    1    2    0    0  0.36531768824E+02  0.65471749734E+02  0.25611881718E+03  0.29468164534E+03  0.12497721168E+03 0.  0.
          2    1    1    2  501    0 -0.29847248716E+01  0.30492819300E+02 -0.87768290192E+02  0.92962322339E+02  0.00000000000E+00 0. -1.
          1    1    1    2  502    0 -0.33547043953E+02 -0.95964569034E+02  0.16687805749E+04  0.16718741609E+04  0.00000000000E+00 0. -1.
         22    1    3    3    0    0 -0.25122255601E+02  0.74186414163E+02  0.18025415984E+03  0.19653578278E+03  0.00000000000E+00 0.  1.
         22    1    3    3    0    0  0.61654024426E+02 -0.87146644295E+01  0.75864657340E+02  0.98145862558E+02  0.00000000000E+00 0.  1.
</event>
<event>
 7    1  0.5194496E-006  0.1059936E+03  0.7818608E-02  0.1322180E+00
          2   -1    0    0  502    0  0.00000000000E+00  0.00000000000E+00  0.75647209881E+03  0.75647209881E+03  0.00000000000E+00 0. -1.
          1   -1    0    0  501    0 -0.00000000000E+00 -0.00000000000E+00 -0.76895272236E+03  0.76895272236E+03  0.00000000000E+00 0. -1.
         25    2    1    2    0    0  0.15159805776E+02  0.45401711068E+02  0.47696005365E+02  0.14209100108E+03  0.12499523424E+03 0.  0.
          2    1    1    2  501    0  0.27459929446E+02  0.57997241272E+02 -0.71558274065E+03  0.71845416446E+03  0.00000000000E+00 0. -1.
          1    1    1    2  502    0 -0.42619735222E+02 -0.10339895234E+03  0.65540611173E+03  0.66487965563E+03  0.00000000000E+00 0. -1.
         22    1    3    3    0    0  0.26931742682E+02  0.66506506874E+02 -0.16389441007E+02  0.73600597803E+02  0.00000000000E+00 0. -1.
         22    1    3    3    0    0 -0.11771936906E+02 -0.21104795806E+02  0.64085446372E+02  0.68490403279E+02  0.00000000000E+00 0. -1.
</event>
<event>
 7    1  0.5194496E-006  0.7690069E+02  0.7818608E-02  0.1344676E+00
          2   -1    0    0  502    0  0.00000000000E+00  0.00000000000E+00  0.14079255535E+04  0.14079255535E+04  0.00000000000E+00 0. -1.
          1   -1    0    0  501    0 -0.00000000000E+00 -0.00000000000E+00 -0.23452694660E+02  0.23452694660E+02  0.00000000000E+00 0. -1.
         25    2    1    2    0    0 -0.54402947077E+02 -0.86240952558E+02  0.57797407057E+03  0.60006330432E+03  0.12499904153E+03 0.  0.
          2    1    1    2  501    0 -0.17296425216E+02  0.74580207216E+02  0.12955979195E+03  0.15048957879E+03  0.00000000000E+00 0. -1.
          1    1    1    2  502    0  0.71699372293E+02  0.11660745342E+02  0.67693899634E+03  0.68082536508E+03  0.00000000000E+00 0. -1.
         22    1    3    3    0    0 -0.58747507340E+01  0.32050775708E+02  0.14433003908E+03  0.14796258007E+03  0.00000000000E+00 0. -1.
         22    1    3    3    0    0 -0.48528196343E+02 -0.11829172827E+03  0.43364403149E+03  0.45210072424E+03  0.00000000000E+00 0. -1.
</event>
<event>
 7    1  0.5194496E-006  0.7739688E+02  0.7818608E-02  0.1343500E+00
          2   -1    0    0  502    0  0.00000000000E+00  0.00000000000E+00  0.68798988309E+03  0.68798988309E+03  0.00000000000E+00 0. -1.
          1   -1    0    0  501    0 -0.00000000000E+00 -0.00000000000E+00 -0.70346023309E+02  0.70346023309E+02  0.00000000000E+00 0. -1.
         25    2    1    2    0    0 -0.51281251855E+02  0.85029631248E+02  0.38843479807E+03  0.41995993107E+03  0.12499978549E+03 0.  0.
          2    1    1    2  501    0  0.76155710330E+02 -0.16494262542E+02 -0.18560711804E+02  0.80101516436E+02  0.00000000000E+00 0. -1.
          1    1    1    2  502    0 -0.24874458475E+02 -0.68535368706E+02  0.24776977352E+03  0.25827445890E+03  0.00000000000E+00 0. -1.
         22    1    3    3    0    0 -0.14920362874E+02  0.34997276726E+01  0.27586089555E+03  0.27628626280E+03  0.00000000000E+00 0.  1.
         22    1    3    3    0    0 -0.36360888980E+02  0.81529903575E+02  0.11257390252E+03  0.14367366827E+03  0.00000000000E+00 0.  1.
</event>
<event>
 7    1  0.5194496E-006  0.3210154E+02  0.7818608E-02  0.1577615E+00
          2   -1    0    0  502    0  0.00000000000E+00  0.00000000000E+00  0.13172158332E+04  0.13172158332E+04  0.00000000000E+00 0. -1.
          1   -1    0    0  501    0 -0.00000000000E+00 -0.00000000000E+00 -0.54367533221E+03  0.54367533221E+03  0.00000000000E+00 0. -1.
         25    2    1    2    0    0 -0.16960437585E+02 -0.56230746934E+01 -0.13818542339E+02  0.12703074375E+03  0.12500632917E+03 0.  0.
          2    1    1    2  501    0 -0.18694871984E+01  0.31718168328E+02 -0.47251171029E+03  0.47357877227E+03  0.00000000000E+00 0. -1.
          1    1    1    2  502    0  0.18829924783E+02 -0.26095093635E+02  0.12598707536E+04  0.12602816494E+04  0.00000000000E+00 0. -1.
         22    1    3    3    0    0 -0.65420517672E+02 -0.29039182518E+02 -0.46289144989E+00  0.71577458199E+02  0.00000000000E+00 0. -1.
         22    1    3    3    0    0  0.48460080087E+02  0.23416107824E+02 -0.13355650889E+02  0.55453285550E+02  0.00000000000E+00 0. -1.
</event>
<event>
 7    1  0.5194496E-006  0.6864105E+02  0.7818608E-02  0.1503203E+00
          2   -1    0    0  502    0  0.00000000000E+00  0.00000000000E+00  0.26194294009E+04  0.26194294009E+04  0.00000000000E+00 0. -1.
          1   -1    0    0  501    0 -0.00000000000E+00 -0.00000000000E+00 -0.16199776719E+03  0.16199776719E+03  0.00000000000E+00 0. -1.
         25    2    1    2    0    0  0.75848778531E+02  0.16156032524E+02  0.13063300055E+04  0.13145863088E+04  0.12500010146E+03 0.  0.
          2    1    1    2  501    0 -0.17167712996E+02  0.16941478918E+02 -0.15607578456E+03  0.15792844774E+03  0.00000000000E+00 0. -1.
          1    1    1    2  502    0 -0.58681065536E+02 -0.33097511442E+02  0.13071774128E+04  0.13089124116E+04  0.00000000000E+00 0. -1.
         22    1    3    3    0    0  0.17110283538E+02 -0.78094437545E+01  0.23097535593E+02  0.29786664214E+02  0.00000000000E+00 0. -1.
         22    1    3    3    0    0  0.58738494993E+02  0.23965476279E+02  0.12832324700E+04  0.12847996446E+04  0.00000000000E+00 0. -1.
</event>
<event>
 7    1  0.5194496E-006  0.6053316E+02  0.7818608E-02  0.1399349E+00
          2   -1    0    0  502    0  0.00000000000E+00  0.00000000000E+00  0.13671555777E+04  0.13671555777E+04  0.00000000000E+00 0. -1.
          1   -1    0    0  501    0 -0.00000000000E+00 -0.00000000000E+00 -0.67411235121E+02  0.67411235121E+02  0.00000000000E+00 0. -1.
         25    2    1    2    0    0  0.47310194757E+02  0.10346661945E+02  0.47112304114E+03  0.48982370433E+03  0.12500013394E+03 0.  0.
          2    1    1    2  501    0 -0.27861281461E+02  0.51734390576E+02 -0.41662589767E+02  0.72031031917E+02  0.00000000000E+00 0. -1.
          1    1    1    2  502    0 -0.19448913296E+02 -0.62081052521E+02  0.87028389116E+03  0.87271207653E+03  0.00000000000E+00 0. -1.
         22    1    3    3    0    0  0.42110423795E+02 -0.29550276415E+02  0.42709000680E+03  0.43017715018E+03  0.00000000000E+00 0. -1.
         22    1    3    3    0    0  0.51997709614E+01  0.39896938360E+02  0.44033034343E+02  0.59646554150E+02  0.00000000000E+00 0. -1.
</event>
<event>
 7    1  0.5194496E-006  0.6416118E+02  0.7818608E-02  0.1528050E+00
          2   -1    0    0  502    0  0.00000000000E+00  0.00000000000E+00  0.25968014670E+03  0.25968014670E+03  0.00000000000E+00 0. -1.
          1   -1    0    0  501    0 -0.00000000000E+00 -0.00000000000E+00 -0.36236748041E+03  0.36236748041E+03  0.00000000000E+00 0. -1.
         25    2    1    2    0    0 -0.82996287504E+02 -0.13936232718E+02 -0.48290756524E+01  0.15076342036E+03  0.12499474639E+03 0.  0.
          2    1    1    2  501    0  0.21829121802E+02 -0.33800904628E+00 -0.27885006629E+03  0.27970338625E+03  0.00000000000E+00 0. -1.
          1    1    1    2  502    0  0.61167165701E+02  0.14274241764E+02  0.18099180823E+03  0.19158082051E+03  0.00000000000E+00 0. -1.
         22    1    3    3    0    0  0.22843777734E+02 -0.12547078404E+02  0.29615835249E+02  0.39450792833E+02  0.00000000000E+00 0. -1.
         22    1    3    3    0    0 -0.10584006524E+03 -0.13891543132E+01 -0.34444910902E+02  0.11131262752E+03  0.00000000000E+00 0. -1.
</event>
<event>
 7    1  0.5194496E-006  0.3771064E+02  0.7818608E-02  0.1619482E+00
          2   -1    0    0  502    0  0.00000000000E+00  0.00000000000E+00  0.10935104066E+04  0.10935104066E+04  0.00000000000E+00 0. -1.
          1   -1    0    0  501    0 -0.00000000000E+00 -0.00000000000E+00 -0.79904230783E+03  0.79904230783E+03  0.00000000000E+00 0. -1.
         25    2    1    2    0    0  0.18789448779E+02 -0.44860004868E+02  0.21731622261E+03  0.25537583377E+03  0.12500004978E+03 0.  0.
          2    1    1    2  501    0 -0.19702371855E+02  0.73073324239E+01 -0.77945928755E+03  0.77974249692E+03  0.00000000000E+00 0. -1.
          1    1    1    2  502    0  0.91292307530E+00  0.37552672444E+02  0.85661116366E+03  0.85743438370E+03  0.00000000000E+00 0. -1.
         22    1    3    3    0    0  0.52122825313E+02 -0.64446243012E+02  0.19209641008E+03  0.20921552983E+03  0.00000000000E+00 0.  1.
         22    1    3    3    0    0 -0.33333376534E+02  0.19586238144E+02  0.25219812525E+02  0.46160303938E+02  0.00000000000E+00 0.  1.
</event>
<event>
 7    1  0.5194496E-006  0.4508611E+02  0.7818608E-02  0.1504988E+00
          2   -1    0    0  502    0  0.00000000000E+00  0.00000000000E+00  0.35082222267E+03  0.35082222267E+03  0.00000000000E+00 0. -1.
          1   -1    0    0  501    0 -0.00000000000E+00 -0.00000000000E+00 -0.50957212994E+03  0.50957212994E+03  0.00000000000E+00 0. -1.
         25    2    1    2    0    0  0.48774631979E+02 -0.50297674972E+02 -0.97610858310E+02  0.17338388618E+03  0.12500108598E+03 0.  0.
          2    1    1    2  501    0 -0.35506844162E+02  0.74262399262E+01 -0.37157801551E+03  0.37334448789E+03  0.00000000000E+00 0. -1.
          1    1    1    2  502    0 -0.13267787816E+02  0.42871435046E+02  0.31043896656E+03  0.31366597854E+03  0.00000000000E+00 0. -1.
         22    1    3    3    0    0 -0.33858293024E+02 -0.44339648214E+02 -0.61425531458E+02  0.82978818533E+02  0.00000000000E+00 0.  1.
         22    1    3    3    0    0  0.82632925003E+02 -0.59580267580E+01 -0.36185326852E+02  0.90405067650E+02  0.00000000000E+00 0.  1.
</event>
<event>
 7    1  0.5194496E-006  0.6865670E+02  0.7818608E-02  0.1432546E+00
          2   -1    0    0  502    0  0.00000000000E+00  0.00000000000E+00  0.87086770460E+03  0.87086770460E+03  0.00000000000E+00 0. -1.
          1   -1    0    0  501    0 -0.00000000000E+00 -0.00000000000E+00 -0.45469289539E+02  0.45469289539E+02  0.00000000000E+00 0. -1.
         25    2    1    2    0    0  0.16983430307E+02 -0.27197905980E+02  0.63051584978E+03  0.64358613001E+03  0.12499882770E+03 0.  0.
          2    1    1    2  501    0 -0.50015099296E+02  0.49885352112E+02 -0.31441618055E+01  0.70710284021E+02  0.00000000000E+00 0. -1.
          1    1    1    2  502    0  0.33031668989E+02 -0.22687446132E+02  0.19802672709E+03  0.20204058011E+03  0.00000000000E+00 0. -1.
         22    1    3    3    0    0 -0.54618873142E+01 -0.11541687863E+02  0.60803774135E+03  0.60817179947E+03  0.00000000000E+00 0.  1.
         22    1    3    3    0    0  0.22445317621E+02 -0.15656218117E+02  0.22478108431E+02  0.35414330538E+02  0.00000000000E+00 0.  1.
</event>
<event>
 7    1  0.5194496E-006  0.8528438E+02  0.7818608E-02  0.1482254E+00
          2   -1    0    0  502    0  0.00000000000E+00  0.00000000000E+00  0.60719866577E+03  0.60719866577E+03  0.00000000000E+00 0. -1.
          1   -1    0    0  501    0 -0.00000000000E+00 -0.00000000000E+00 -0.14672160613E+04  0.14672160613E+04  0.00000000000E+00 0. -1.
         25    2    1    2    0    0 -0.67110875704E+02  0.73234113517E+02 -0.43204543509E+03  0.46060377957E+03  0.12500191502E+03 0.  0.
          2    1    1    2  501    0 -0.12734171103E+01 -0.22414268155E+02 -0.10177062858E+04  0.10179538817E+04  0.00000000000E+00 0. -1.
          1    1    1    2  502    0  0.68384292815E+02 -0.50819845363E+02  0.58973432545E+03  0.59585706575E+03  0.00000000000E+00 0. -1.
         22    1    3    3    0    0  0.22654194316E+02  0.59160373665E+02 -0.23885110603E+03  0.24710931424E+03  0.00000000000E+00 0. -1.
         22    1    3    3    0    0 -0.89765070020E+02  0.14073739852E+02 -0.19319432905E+03  0.21349446533E+03  0.00000000000E+00 0. -1.
</event>
<event>
 7    1  0.5194496E-006  0.7724527E+02  0.7818608E-02  0.1341512E+00
          2   -1    0    0  502    0  0.00000000000E+00  0.00000000000E+00  0.12946266812E+04  0.12946266812E+04  0.00000000000E+00 0. -1.
          1   -1    0    0  501    0 -0.00000000000E+00 -0.00000000000E+00 -0.86311612008E+02  0.86311612008E+02  0.00000000000E+00 0. -1.
         25    2    1    2    0    0  0.83416401976E+01 -0.11977110549E+01  0.53466204136E+03  0.54914442118E+03  0.12500031747E+03 0.  0.
          2    1    1    2  501    0 -0.47299551192E+02  0.64485013458E+02 -0.56468900109E+02  0.97899444243E+02  0.00000000000E+00 0. -1.
          1    1    1    2  502    0  0.38957910995E+02 -0.63287302403E+02  0.73012192798E+03  0.73389442783E+03  0.00000000000E+00 0. -1.
         22    1    3    3    0    0  0.51303296948E+02  0.29538505721E+02  0.40227513387E+03  0.40660771626E+03  0.00000000000E+00 0.  1.
         22    1    3    3    0    0 -0.42961656750E+02 -0.30736216776E+02  0.13238690750E+03  0.14253670492E+03  0.00000000000E+00 0.  1.
</event>
<event>
 7    1  0.5194496E-006  0.1892633E+03  0.7818608E-02  0.1206481E+00
          2   -1    0    0  502    0  0.00000000000E+00  0.00000000000E+00  0.87105782522E+03  0.87105782522E+03  0.00000000000E+00 0. -1.
          1   -1    0    0  501    0 -0.00000000000E+00 -0.00000000000E+00 -0.11614757488E+04  0.11614757488E+04  0.00000000000E+00 0. -1.
         25    2    1    2    0    0 -0.18803432390E+03 -0.12028364059E+03  0.93185116185E+02  0.27227370882E+03  0.12499778188E+03 0.  0.
          2    1    1    2  501    0  0.87204220292E+02  0.16768507439E+03 -0.10590003185E+04  0.10757344165E+04  0.00000000000E+00 0. -1.
          1    1    1    2  502    0  0.10083010361E+03 -0.47401433799E+02  0.67539727878E+03  0.68452544869E+03  0.00000000000E+00 0. -1.
         22    1    3    3    0    0 -0.10104046792E+03 -0.51141514955E+02 -0.18472729433E+02  0.11474263568E+03  0.00000000000E+00 0. -1.
         22    1    3    3    0    0 -0.86993855981E+02 -0.69142125631E+02  0.11165784562E+03  0.15753107314E+03  0.00000000000E+00 0. -1.
</event>
<event>
 7    1  0.5194496E-006  0.5588876E+02  0.7818608E-02  0.1530753E+00
          2   -1    0    0  502    0  0.00000000000E+00  0.00000000000E+00  0.13492022174E+04  0.13492022174E+04  0.00000000000E+00 0. -1.
          1   -1    0    0  501    0 -0.00000000000E+00 -0.00000000000E+00 -0.14548633830E+03  0.14548633830E+03  0.00000000000E+00 0. -1.
         25    2    1    2    0    0 -0.63128699869E+02 -0.48018936836E+02  0.27221491764E+03  0.30987040234E+03  0.12501061483E+03 0.  0.
          2    1    1    2  501    0  0.46894490079E+02  0.29509583732E+02 -0.12044824773E+03  0.13258087763E+03  0.00000000000E+00 0. -1.
          1    1    1    2  502    0  0.16234209790E+02  0.18509353104E+02  0.10519492092E+04  0.10522372757E+04  0.00000000000E+00 0. -1.
         22    1    3    3    0    0 -0.23535540429E+02  0.10099728235E+02 -0.30246536633E+01  0.25789042314E+02  0.00000000000E+00 0. -1.
         22    1    3    3    0    0 -0.39593159440E+02 -0.58118665070E+02  0.27523957130E+03  0.28408136002E+03  0.00000000000E+00 0. -1.
</event>
<event>
 7    1  0.5194496E-006  0.1021703E+03  0.7818608E-02  0.1402423E+00
          2   -1    0    0  502    0  0.00000000000E+00  0.00000000000E+00  0.48663161268E+03  0.48663161268E+03  0.00000000000E+00 0. -1.
          1   -1    0    0  501    0 -0.00000000000E+00 -0.00000000000E+00 -0.16508069888E+03  0.16508069888E+03  0.00000000000E+00 0. -1.
         25    2    1    2    0    0  0.66532025179E+02  0.46131880877E+02 -0.27056969581E+02  0.15136568408E+03  0.12499931963E+03 0.  0.
          2    1    1    2  501    0 -0.36092843005E+00  0.33975796115E+02 -0.65292258885E+02  0.73604103563E+02  0.00000000000E+00 0. -1.
          1    1    1    2  502    0 -0.66171096748E+02 -0.80107676992E+02  0.41390014226E+03  0.42674252392E+03  0.00000000000E+00 0. -1.
         22    1    3    3    0    0  0.58083610247E+02  0.44778477249E+01  0.40922748092E+02  0.71192894385E+02  0.00000000000E+00 0.  1.
         22    1    3    3    0    0  0.84484149317E+01  0.41654033152E+02 -0.67979717673E+02  0.80172789696E+02  0.00000000000E+00 0.  1.
</event>
<event>
 7    1  0.5194496E-006  0.1275981E+03  0.7818608E-02  0.1328391E+00
          2   -1    0    0  502    0  0.00000000000E+00  0.00000000000E+00  0.16042152740E+03  0.16042152740E+03  0.00000000000E+00 0. -1.
          1   -1    0    0  501    0 -0.00000000000E+00 -0.00000000000E+00 -0.65132531426E+03  0.65132531426E+03  0.00000000000E+00 0. -1.
         25    2    1    2    0    0 -0.10529223975E+03 -0.38140046265E+02 -0.28390929295E+03  0.32980185106E+03  0.12499462172E+03 0.  0.
          2    1    1    2  501    0  0.14006799328E+03  0.15903822589E+01 -0.32483974586E+03  0.35375476328E+03  0.00000000000E+00 0. -1.
          1    1    1    2  502    0 -0.34775753528E+02  0.36549664006E+02  0.11784525195E+03  0.12819022732E+03  0.00000000000E+00 0. -1.
         22    1    3    3    0    0 -0.70036340282E+02  0.27979957585E+02 -0.21558587882E+03  0.22839710623E+03  0.00000000000E+00 0. -1.
         22    1    3    3    0    0 -0.35255899467E+02 -0.66120003850E+02 -0.68323414130E+02  0.10140474483E+03  0.00000000000E+00 0. -1.
</event>
<event>
 7    1  0.5194496E-006  0.1092618E+03  0.7818608E-02  0.1361917E+00
          2   -1    0    0  502    0  0.00000000000E+00  0.00000000000E+00  0.27969469853E+03  0.27969469853E+03  0.00000000000E+00 0. -1.
          1   -1    0    0  501    0 -0.00000000000E+00 -0.00000000000E+00 -0.22903454402E+04  0.22903454402E+04  0.00000000000E+00 0. -1.
         25    2    1    2    0    0 -0.66419035731E+02  0.11479318633E+03 -0.79316353779E+03  0.81383254084E+03  0.12500417161E+03 0.  0.
          2    1    1    2  501    0  0.23815549696E+02 -0.10315244771E+03 -0.14831374911E+04  0.14869110348E+04  0.00000000000E+00 0. -1.
          1    1    1    2  502    0  0.42603486035E+02 -0.11640738623E+02  0.26565028720E+03  0.26929656312E+03  0.00000000000E+00 0. -1.
         22    1    3    3    0    0 -0.12265882838E+01  0.34441586531E+02 -0.36775818126E+02  0.50400279765E+02  0.00000000000E+00 0.  1.
         22    1    3    3    0    0 -0.65192447448E+02  0.80351599800E+02 -0.75638771967E+03  0.76343226108E+03  0.00000000000E+00 0.  1.
</event>
<event>
 7    1  0.5194496E-006  0.5018876E+02  0.7818608E-02  0.1528946E+00
          2   -1    0    0  502    0  0.00000000000E+00  0.00000000000E+00  0.12407170208E+04  0.12407170208E+04  0.00000000000E+00 0. -1.
          1   -1    0    0  501    0 -0.00000000000E+00 -0.00000000000E+00 -0.21201836359E+02  0.21201836359E+02  0.00000000000E+00 0. -1.
         25    2    1    2    0    0  0.20997527544E+02  0.51168369132E+02  0.81771376379E+03  0.82905955401E+03  0.12499938577E+03 0.  0.
          2    1    1    2  501    0 -0.27716473474E+02 -0.12572978966E+01 -0.16989331679E+00  0.27745496275E+02  0.00000000000E+00 0. -1.
          1    1    1    2  502    0  0.67189459292E+01 -0.49911071235E+02  0.40197131399E+03  0.40511380690E+03  0.00000000000E+00 0. -1.
         22    1    3    3    0    0  0.59950308791E+02 -0.19417569855E+01  0.55432060366E+03  0.55755640216E+03  0.00000000000E+00 0. -1.
         22    1    3    3    0    0 -0.38952781247E+02  0.53110126117E+02  0.26339316013E+03  0.27150315185E+03  0.00000000000E+00 0. -1.
</event>
<event>
 7    1  0.5194496E-006  0.5975845E+02  0.7818608E-02  0.1450517E+00
          2   -1    0    0  502    0  0.00000000000E+00  0.00000000000E+00  0.19634533192E+04  0.19634533192E+04  0.00000000000E+00 0. -1.
          1   -1    0    0  501    0 -0.00000000000E+00 -0.00000000000E+00 -0.85572180424E+02  0.85572180424E+02  0.00000000000E+00 0. -1.
         25    2    1    2    0    0 -0.90039558240E+02  0.42010029191E+02  0.84969301251E+03  0.86456621599E+03  0.12499824690E+03 0.  0.
          2    1    1    2  501    0  0.54748691517E+02 -0.22622653114E+02 -0.66484055368E+02  0.89046803845E+02  0.00000000000E+00 0. -1.
          1    1    1    2  502    0  0.35290866723E+02 -0.19387376077E+02  0.10946721816E+04  0.10954124798E+04  0.00000000000E+00 0. -1.
         22    1    3    3    0    0 -0.12440329752E+02 -0.41474414157E+02  0.17270253349E+03  0.17804789779E+03  0.00000000000E+00 0.  1.
         22    1    3    3    0    0 -0.77599228488E+02  0.83484443348E+02  0.67699047902E+03  0.68651831820E+03  0.00000000000E+00 0.  1.
</event>
<event>
 7    1  0.5194496E-006  0.1052873E+03  0.7818608E-02  0.1343630E+00
          2   -1    0    0  502    0  0.00000000000E+00  0.00000000000E+00  0.16215364616E+04  0.16215364616E+04  0.00000000000E+00 0. -1.
          1   -1    0    0  501    0 -0.00000000000E+00 -0.00000000000E+00 -0.83147156358E+02  0.83147156358E+02  0.00000000000E+00 0. -1.
         25    2    1    2    0    0  0.74959139861E+02 -0.57040076689E+02  0.61206874815E+02  0.16805822156E+03  0.12499936524E+03 0.  0.
          2    1    1    2  501    0  0.30372940007E+02  0.44086470602E+02 -0.20648908268E+01  0.53576078141E+02  0.00000000000E+00 0. -1.
          1    1    1    2  502    0 -0.10533207987E+03  0.12953606087E+02  0.14792473212E+04  0.14830493182E+04  0.00000000000E+00 0. -1.
         22    1    3    3    0    0 -0.34042370173E+02 -0.14012955791E+02  0.22644188096E+01  0.36883241310E+02  0.00000000000E+00 0.  1.
         22    1    3    3    0    0  0.10900151003E+03 -0.43027120898E+02  0.58942456005E+02  0.13117498025E+03  0.00000000000E+00 0.  1.
</event>
<event>
 7    1  0.5194496E-006  0.8352699E+02  0.7818608E-02  0.1354244E+00
          2   -1    0    0  502    0  0.00000000000E+00  0.00000000000E+00  0.12417532438E+04  0.12417532438E+04  0.00000000000E+00 0. -1.
          1   -1    0    0  501    0 -0.00000000000E+00 -0.00000000000E+00 -0.44803552146E+03  0.44803552146E+03  0.00000000000E+00 0. -1.
         25    2    1    2    0    0  0.13923110544E+03  0.32796104925E+02  0.63225156484E+03  0.66017421058E+03  0.12500824714E+03 0.  0.
          2    1    1    2  501    0 -0.82773452945E+02 -0.80771133298E+01 -0.42847049113E+03  0.43646723364E+03  0.00000000000E+00 0. -1.
          1    1    1    2  502    0 -0.56457652495E+02 -0.24718991595E+02  0.58993664860E+03  0.59314732102E+03  0.00000000000E+00 0. -1.
         22    1    3    3    0    0  0.64812096344E+02  0.30280919497E+02  0.52355025358E+03  0.52841499784E+03  0.00000000000E+00 0. -1.
         22    1    3    3    0    0  0.74419009096E+02  0.25151854278E+01  0.10870131126E+03  0.13175921274E+03  0.00000000000E+00 0. -1.
</event>
<event>
 7    1  0.5194496E-006  0.1423943E+03  0.7818608E-02  0.1343217E+00
          2   -1    0    0  502    0  0.00000000000E+00  0.00000000000E+00  0.24707831487E+03  0.24707831487E+03  0.00000000000E+00 0. -1.
          1   -1    0    0  501    0 -0.00000000000E+00 -0.00000000000E+00 -0.35404290036E+03  0.35404290036E+03  0.00000000000E+00 0. -1.
         25    2    1    2    0    0 -0.11755408612E+03 -0.27210236614E+02  0.10283093008E+03  0.20188869972E+03  0.12500194700E+03 0.  0.
          2    1    1    2  501    0  0.14525577831E+03 -0.12641212004E+01 -0.28177719172E+03  0.31701612721E+03  0.00000000000E+00 0. -1.
          1    1    1    2  502    0 -0.27701692190E+02  0.28474357815E+02  0.71981676164E+02  0.82216388308E+02  0.00000000000E+00 0. -1.
         22    1    3    3    0    0  0.11547735985E+02 -0.41468302901E+02  0.17428776740E+02  0.46440635337E+02  0.00000000000E+00 0.  1.
         22    1    3    3    0    0 -0.12910182210E+03  0.14258066286E+02  0.85402153336E+02  0.15544806438E+03  0.00000000000E+00 0.  1.
</event>
<event>
 7    1  0.5194496E-006  0.1763087E+03  0.7818608E-02  0.1362614E+00
          2   -1    0    0  502    0  0.00000000000E+00  0.00000000000E+00  0.36882086586E+03  0.36882086586E+03  0.00000000000E+00 0. -1.
          1   -1    0    0  501    0 -0.00000000000E+00 -0.00000000000E+00 -0.21084368030E+04  0.21084368030E+04  0.00000000000E+00 0. -1.
         25    2    1    2    0    0  0.15720026546E+03 -0.66052390230E+02 -0.16102853994E+03  0.26576392312E+03  0.12500172175E+03 0.  0.
          2    1    1    2  501    0 -0.15080157748E+03  0.92500242968E+02 -0.18903177408E+04  0.18985780395E+04  0.00000000000E+00 0. -1.
          1    1    1    2  502    0 -0.63986879828E+01 -0.26447852737E+02  0.31173034360E+03  0.31291570629E+03  0.00000000000E+00 0. -1.
         22    1    3    3    0    0 -0.86067950281E+01 -0.10041793063E+01  0.13730689614E+02  0.16236290648E+02  0.00000000000E+00 0. -1.
         22    1    3    3    0    0  0.16580706049E+03 -0.65048210924E+02 -0.17475922955E+03  0.24952763247E+03  0.00000000000E+00 0. -1.
</event>
<event>
 7    1  0.5194496E-006  0.1094467E+03  0.7818608E-02  0.1292589E+00
          2   -1    0    0  502    0  0.00000000000E+00  0.00000000000E+00  0.21409507107E+03  0.21409507107E+03  0.00000000000E+00 0. -1.
          1   -1    0    0  501    0 -0.00000000000E+00 -0.00000000000E+00 -0.86175701246E+03  0.86175701246E+03  0.00000000000E+00 0. -1.
         25    2    1    2    0    0  0.14211226551E+03  0.59929918690E+02 -0.55472349142E+03  0.58917796938E+03  0.12500014602E+03 0.  0.
          2    1    1    2  501    0 -0.93231185890E+02  0.51338632691E+01 -0.27329619885E+03  0.28880654923E+03  0.00000000000E+00 0. -1.
          1    1    1    2  502    0 -0.48881079617E+02 -0.65063781960E+02  0.18035774887E+03  0.19786756492E+03  0.00000000000E+00 0. -1.
         22    1    3    3    0    0 -0.13131798849E+02 -0.18684406180E+02 -0.43187327024E+02  0.48853826778E+02  0.00000000000E+00 0. -1.
         22    1    3    3    0    0  0.15524406436E+03  0.78614324871E+02 -0.51153616439E+03  0.54032414260E+03  0.00000000000E+00 0. -1.
</event>
<event>
 7    1  0.5194496E-006  0.4881177E+02  0.7818608E-02  0.1453621E+00
          2   -1    0    0  502    0  0.00000000000E+00  0.00000000000E+00  0.30963523473E+04  0.30963523473E+04  0.00000000000E+00 0. -1.
          1   -1    0    0  501    0 -0.00000000000E+00 -0.00000000000E+00 -0.32009202834E+03  0.32009202834E+03  0.00000000000E+00 0. -1.
         25    2    1    2    0    0  0.39697726018E+02 -0.56791332178E+02  0.37914578632E+03  0.40518587479E+03  0.12499160367E+03 0.  0.
          2    1    1    2  501    0 -0.47909704199E+02  0.93120086278E+01 -0.30491650287E+03  0.30879787400E+03  0.00000000000E+00 0. -1.
          1    1    1    2  502    0  0.82119781805E+01  0.47479323550E+02  0.27020310356E+04  0.27024606269E+04  0.00000000000E+00 0. -1.
         22    1    3    3    0    0  0.12427236723E+02  0.39638902642E+02  0.88894744585E+02  0.98122140366E+02  0.00000000000E+00 0. -1.
         22    1    3    3    0    0  0.27270489295E+02 -0.96430234820E+02  0.29025104173E+03  0.30706373443E+03  0.00000000000E+00 0. -1.
</event>
<event>
 7    1  0.5194496E-006  0.9847358E+02  0.7818608E-02  0.1334766E+00
          2   -1    0    0  502    0  0.00000000000E+00  0.00000000000E+00  0.29001037684E+04  0.29001037684E+04  0.00000000000E+00 0. -1.
          1   -1    0    0  501    0 -0.00000000000E+00 -0.00000000000E+00 -0.50879196920E+03  0.50879196920E+03  0.00000000000E+00 0. -1.
         25    2    1    2    0    0  0.27502486798E+02  0.60208959823E+02  0.56412624836E+03  0.58158462518E+03  0.12498298499E+03 0.  0.
          2    1    1    2  501    0 -0.87615993452E+02 -0.45806247584E+02 -0.49476064862E+03  0.50454224208E+03  0.00000000000E+00 0. -1.
          1    1    1    2  502    0  0.60113506653E+02 -0.14402712239E+02  0.23219461994E+04  0.23227688703E+04  0.00000000000E+00 0. -1.
         22    1    3    3    0    0  0.45821346394E+02  0.96632364269E+01  0.68065167761E+02  0.82618647931E+02  0.00000000000E+00 0.  1.
         22    1    3    3    0    0 -0.18318859596E+02  0.50545723396E+02  0.49606108060E+03  0.49896597725E+03  0.00000000000E+00 0.  1.
</event>
<event>
 7    1  0.5194496E-006  0.9747262E+02  0.7818608E-02  0.1392604E+00
          2   -1    0    0  502    0  0.00000000000E+00  0.00000000000E+00  0.18332300591E+03  0.18332300591E+03  0.00000000000E+00 0. -1.
          1   -1    0    0  501    0 -0.00000000000E+00 -0.00000000000E+00 -0.33731099434E+03  0.33731099434E+03  0.00000000000E+00 0. -1.
         25    2    1    2    0    0 -0.13019726028E+03  0.28249435469E+00 -0.75092837746E+02  0.19548801250E+03  0.12500088944E+03 0.  0.
          2    1    1    2  501    0  0.91714903104E+02  0.10565048862E+01 -0.18814365766E+03  0.20931023761E+03  0.00000000000E+00 0. -1.
          1    1    1    2  502    0  0.38482357177E+02 -0.13389992409E+01  0.10924850697E+03  0.11583575013E+03  0.00000000000E+00 0. -1.
         22    1    3    3    0    0 -0.12245435715E+02 -0.50133496340E+02 -0.28907789709E+02  0.59152163587E+02  0.00000000000E+00 0.  1.
         22    1    3    3    0    0 -0.11795182457E+03  0.50415990695E+02 -0.46185048037E+02  0.13633584891E+03  0.00000000000E+00 0.  1.
</event>
<event>
 7    1  0.5194496E-006  0.5632620E+02  0.7818608E-02  0.1503298E+00
          2   -1    0    0  502    0  0.00000000000E+00  0.00000000000E+00  0.76252529282E+03  0.76252529282E+03  0.00000000000E+00 0. -1.
          1   -1    0    0  501    0 -0.00000000000E+00 -0.00000000000E+00 -0.53302968276E+03  0.53302968276E+03  0.00000000000E+00 0. -1.
         25    2    1    2    0    0 -0.50967805836E+01  0.34800871049E+02  0.25916495022E+03  0.28987271859E+03  0.12499057470E+03 0.  0.
          2    1    1    2  501    0 -0.24386631221E+02  0.16373772002E+02 -0.51546922688E+03  0.51630546390E+03  0.00000000000E+00 0. -1.
          1    1    1    2  502    0  0.29483411804E+02 -0.51174643050E+02  0.48579988673E+03  0.48937679308E+03  0.00000000000E+00 0. -1.
         22    1    3    3    0    0 -0.40166083010E+02  0.51104654212E+02  0.65110474922E+02  0.92002031777E+02  0.00000000000E+00 0. -1.
         22    1    3    3    0    0  0.35069302427E+02 -0.16303783163E+02  0.19405447530E+03  0.19787068681E+03  0.00000000000E+00 0. -1.
</event>
<event>
 7    1  0.5194496E-006  0.1290225E+03  0.7818608E-02  0.1265960E+00
          2   -1    0    0  502    0  0.00000000000E+00  0.00000000000E+00  0.93161521809E+03  0.93161521809E+03  0.00000000000E+00 0. -1.
          1   -1    0    0  501    0 -0.00000000000E+00 -0.00000000000E+00 -0.16372375981E+03  0.16372375981E+03  0.00000000000E+00 0. -1.
         25    2    1    2    0    0 -0.17725899133E+03 -0.80553747724E+02  0.24851022134E+03  0.33954675451E+03  0.12500004843E+03 0.  0.
          2    1    1    2  501    0  0.12230335219E+03  0.10587864621E+02 -0.82153394834E+02  0.14771388938E+03  0.00000000000E+00 0. -1.
          1    1    1    2  502    0  0.54955639140E+02  0.69965883104E+02  0.60153463177E+03  0.60807833401E+03  0.00000000000E+00 0. -1.
         22    1    3    3    0    0 -0.92988031387E+02 -0.81095661646E+02  0.69303657973E+02  0.14151423012E+03  0.00000000000E+00 0.  1.
         22    1    3    3    0    0 -0.84270959941E+02  0.54191392141E+00  0.17920656337E+03  0.19803252439E+03  0.00000000000E+00 0.  1.
</event>
<event>
 7    1  0.5194496E-006  0.6504873E+02  0.7818608E-02  0.1426729E+00
          2   -1    0    0  502    0  0.00000000000E+00  0.00000000000E+00  0.15702420006E+03  0.15702420006E+03  0.00000000000E+00 0. -1.
          1   -1    0    0  501    0 -0.00000000000E+00 -0.00000000000E+00 -0.50122862020E+03  0.50122862020E+03  0.00000000000E+00 0. -1.
         25    2    1    2    0    0  0.79598391191E+02 -0.40899663059E+02  0.31794452312E+02  0.15698691373E+03  0.12500127025E+03 0.  0.
          2    1    1    2  501    0 -0.64673399446E+02 -0.70719660240E+00 -0.42808970309E+03  0.43294796756E+03  0.00000000000E+00 0. -1.
          1    1    1    2  502    0 -0.14924991745E+02  0.41606859661E+02  0.52090830634E+02  0.68317938973E+02  0.00000000000E+00 0. -1.
         22    1    3    3    0    0  0.98753875278E+02 -0.16875183807E+02 -0.14698769067E+02  0.10125785660E+03  0.00000000000E+00 0.  1.
         22    1    3    3    0    0 -0.19155484088E+02 -0.24024479252E+02  0.46493221380E+02  0.55729057126E+02  0.00000000000E+00 0.  1.
</event>
<event>
 7    1  0.5194496E-006  0.1612006E+03  0.7818608E-02  0.1223690E+00
          2   -1    0    0  502    0  0.00000000000E+00  0.00000000000E+00  0.94328089730E+03  0.94328089730E+03  0.00000000000E+00 0. -1.
          1   -1    0    0  501    0 -0.00000000000E+00 -0.00000000000E+00 -0.21731805563E+04  0.21731805563E+04  0.00000000000E+00 0. -1.
         25    2    1    2    0    0  0.56088501024E+02  0.15841179903E+03  0.20467601289E+02  0.21043311327E+03  0.12499181749E+03 0.  0.
          2    1    1    2  501    0  0.52809838130E+02 -0.15314009903E+03 -0.20714321834E+04  0.20777564967E+04  0.00000000000E+00 0. -1.
          1    1    1    2  502    0 -0.10889833915E+03 -0.52717000003E+01  0.82106492310E+03  0.82827184369E+03  0.00000000000E+00 0. -1.
         22    1    3    3    0    0  0.46508738778E+02  0.81761102606E+02 -0.49426558224E+02  0.10625876594E+03  0.00000000000E+00 0.  1.
         22    1    3    3    0    0  0.95797622462E+01  0.76650696423E+02  0.69894159513E+02  0.10417434733E+03  0.00000000000E+00 0.  1.
</event>
<event>
 7    1  0.5194496E-006  0.4421147E+02  0.7818608E-02  0.1520136E+00
          2   -1    0    0  502    0  0.00000000000E+00  0.00000000000E+00  0.23713084466E+04  0.23713084466E+04  0.00000000000E+00 0. -1.
          1   -1    0    0  501    0 -0.00000000000E+00 -0.00000000000E+00 -0.20964787169E+04  0.20964787169E+04  0.00000000000E+00 0. -1.
         25    2    1    2    0    0 -0.44968329060E+02  0.30055771433E+02  0.12755664527E+04  0.12828178058E+04  0.12500499050E+03 0.  0.
          2    1    1    2  501    0  0.44086363392E+02  0.33276502663E+01 -0.20923641713E+04  0.20928312177E+04  0.00000000000E+00 0. -1.
          1    1    1    2  502    0  0.88196566727E+00 -0.33383421699E+02  0.10916274483E+04  0.10921381399E+04  0.00000000000E+00 0. -1.
         22    1    3    3    0    0 -0.39186003778E+02  0.16395089450E+02  0.12620029002E+04  0.12627175701E+04  0.00000000000E+00 0.  1.
         22    1    3    3    0    0 -0.57823252821E+01  0.13660681983E+02  0.13563552535E+02  0.20100235702E+02  0.00000000000E+00 0.  1.
</event>
<event>
 7    1  0.5194496E-006  0.9985090E+02  0.7818608E-02  0.1281857E+00
          2   -1    0    0  502    0  0.00000000000E+00  0.00000000000E+00  0.57768161920E+02  0.57768161920E+02  0.00000000000E+00 0. -1.
          1   -1    0    0  501    0 -0.00000000000E+00 -0.00000000000E+00 -0.73873672756E+03  0.73873672756E+03  0.00000000000E+00 0. -1.
         25    2    1    2    0    0 -0.72232266476E+02 -0.87489877078E+02 -0.26436579974E+03  0.31366147222E+03  0.12498905620E+03 0.  0.
          2    1    1    2  501    0 -0.26522403641E+02  0.10224514567E+03 -0.34272494567E+03  0.35863337281E+03  0.00000000000E+00 0. -1.
          1    1    1    2  502    0  0.98754670118E+02 -0.14755268590E+02 -0.73877820227E+02  0.12421004445E+03  0.00000000000E+00 0. -1.
         22    1    3    3    0    0 -0.96140118102E+02 -0.68487942359E+02 -0.25614472634E+03  0.28203482301E+03  0.00000000000E+00 0. -1.
         22    1    3    3    0    0  0.23907851626E+02 -0.19001934718E+02 -0.82210734012E+01  0.31626649211E+02  0.00000000000E+00 0. -1.
</event>
<event>
 7    1  0.5194496E-006  0.3654803E+02  0.7818608E-02  0.1602354E+00
          2   -1    0    0  502    0  0.00000000000E+00  0.00000000000E+00  0.19019768466E+04  0.19019768466E+04  0.00000000000E+00 0. -1.
          1   -1    0    0  501    0 -0.00000000000E+00 -0.00000000000E+00 -0.94359483838E+01  0.94359483838E+01  0.00000000000E+00 0. -1.
         25    2    1    2    0    0 -0.29343934014E+01 -0.22695090676E+02  0.13767998249E+04  0.13826515064E+04  0.12499501040E+03 0.  0.
          2    1    1    2  501    0 -0.19198630582E+02  0.31979499014E+02  0.49888135522E+02  0.62290463470E+02  0.00000000000E+00 0. -1.
          1    1    1    2  502    0  0.22133023983E+02 -0.92844083374E+01  0.46585293777E+03  0.46647082504E+03  0.00000000000E+00 0. -1.
         22    1    3    3    0    0  0.18437848997E+02  0.26564005749E+02  0.11116054504E+04  0.11120756620E+04  0.00000000000E+00 0. -1.
         22    1    3    3    0    0 -0.21372242398E+02 -0.49259096425E+02  0.26519437455E+03  0.27057584449E+03  0.00000000000E+00 0. -1.
</event>
<event>
 7    1  0.5194496E-006  0.5422251E+02  0.7818608E-02  0.1423994E+00
          2   -1    0    0  502    0  0.00000000000E+00  0.00000000000E+00  0.44567311386E+03  0.44567311386E+03  0.00000000000E+00 0. -1.
          1   -1    0    0  501    0 -0.00000000000E+00 -0.00000000000E+00 -0.10201805742E+03  0.10201805742E+03  0.00000000000E+00 0. -1.
         25    2    1    2    0    0 -0.20138159024E+01  0.25172570353E+02  0.21973395007E+02  0.12940540592E+03  0.12500086096E+03 0.  0.
          2    1    1    2  501    0  0.55128758749E+02 -0.36075930005E+02 -0.22682492522E+02  0.69678893748E+02  0.00000000000E+00 0. -1.
          1    1    1    2  502    0 -0.53114942847E+02  0.10903359651E+02  0.34436415395E+03  0.34860687161E+03  0.00000000000E+00 0. -1.
         22    1    3    3    0    0 -0.59223428961E+02 -0.98206615067E+01  0.50767456904E+01  0.60246437879E+02  0.00000000000E+00 0.  1.
         22    1    3    3    0    0  0.57209613059E+02  0.34993231860E+02  0.16896649317E+02  0.69158968041E+02  0.00000000000E+00 0.  1.
</event>
<event>
 7    1  0.5194496E-006  0.8551458E+02  0.7818608E-02  0.1442916E+00
          2   -1    0    0  502    0  0.00000000000E+00  0.00000000000E+00  0.18112982183E+04  0.18112982183E+04  0.00000000000E+00 0. -1.
          1   -1    0    0  501    0 -0.00000000000E+00 -0.00000000000E+00 -0.40480102785E+03  0.40480102785E+03  0.00000000000E+00 0. -1.
         25    2    1    2    0    0  0.70430776105E+02  0.24575526764E+02  0.67023851918E+03  0.68586444559E+03  0.12500365751E+03 0.  0.
          2    1    1    2  501    0  0.18231354796E+02 -0.23529825887E+02 -0.39469237152E+03  0.39581321749E+03  0.00000000000E+00 0. -1.
          1    1    1    2  502    0 -0.88662130901E+02 -0.10457008767E+01  0.11309510428E+04  0.11344215831E+04  0.00000000000E+00 0. -1.
         22    1    3    3    0    0  0.38322097221E+01  0.48262968277E+02  0.98315555854E+02  0.10958991040E+03  0.00000000000E+00 0. -1.
         22    1    3    3    0    0  0.66598566383E+02 -0.23687441513E+02  0.57192296333E+03  0.57627453519E+03  0.00000000000E+00 0. -1.
</event>
<event>
 7    1  0.5194496E-006  0.3542392E+02  0.7818608E-02  0.1604395E+00
          2   -1    0    0  502    0  0.00000000000E+00  0.00000000000E+00  0.27874368671E+03  0.27874368671E+03  0.00000000000E+00 0. -1.
          1   -1    0    0  501    0 -0.00000000000E+00 -0.00000000000E+00 -0.31895313831E+03  0.31895313831E+03  0.00000000000E+00 0. -1.
         25    2    1    2    0    0  0.11891293962E+02  0.36397909368E+01 -0.14894557082E+02  0.12649852494E+03  0.12500151211E+03 0.  0.
          2    1    1    2  501    0 -0.35970319699E+02  0.67302614979E+00 -0.24627465322E+03  0.24888857282E+03  0.00000000000E+00 0. -1.
          1    1    1    2  502    0  0.24079025737E+02 -0.43128170866E+01  0.22095975870E+03  0.22230972726E+03  0.00000000000E+00 0. -1.
         22    1    3    3    0    0  0.61591145238E+02  0.12496043791E+02 -0.35261156964E+02  0.72062261085E+02  0.00000000000E+00 0.  1.
         22    1    3    3    0    0 -0.49699851276E+02 -0.88562528538E+01  0.20366599882E+02  0.54436263852E+02  0.00000000000E+00 0.  1.
</event>
<event>
 7    1  0.5194496E-006  0.4528972E+02  0.7818608E-02  0.1556130E+00
          2   -1    0    0  502    0  0.00000000000E+00  0.00000000000E+00  0.32171018818E+03  0.32171018818E+03  0.00000000000E+00 0. -1.
          1   -1    0    0  501    0 -0.00000000000E+00 -0.00000000000E+00 -0.67188080462E+03  0.67188080462E+03  0.00000000000E+00 0. -1.
         25    2    1    2    0    0  0.34068823321E+02  0.89395183302E+01 -0.28629993467E+03  0.31437116620E+03  0.12498391029E+03 0.  0.
          2    1    1    2  501    0  0.86383180680E+01 -0.24284465366E+02 -0.36942042855E+03  0.37031852347E+03  0.00000000000E+00 0. -1.
          1    1    1    2  502    0 -0.42707141389E+02  0.15344947036E+02  0.30554974678E+03  0.30890130314E+03  0.00000000000E+00 0. -1.
         22    1    3    3    0    0  0.29903456003E+01  0.40512922193E+02 -0.25935618764E+03  0.26251832526E+03  0.00000000000E+00 0.  1.
         22    1    3    3    0    0  0.31078477721E+02 -0.31573403863E+02 -0.26943747039E+02  0.51852840939E+02  0.00000000000E+00 0.  1.
</event>
<event>
 7    1  0.5194496E-006  0.8486852E+02  0.7818608E-02  0.1414397E+00
          2   -1    0    0  502    0  0.00000000000E+00  0.00000000000E+00  0.72012973060E+03  0.72012973060E+03  0.00000000000E+00 0. -1.
          1   -1    0    0  501    0 -0.00000000000E+00 -0.00000000000E+00 -0.41910359123E+03  0.41910359123E+03  0.00000000000E+00 0. -1.
         25    2    1    2    0    0  0.40325641552E+02  0.30249687527E+02  0.25119954774E+03  0.28507560089E+03  0.12500273789E+03 0.  0.
          2    1    1    2  501    0 -0.57329156701E+02 -0.63389884112E+02 -0.39684063173E+03  0.40594013919E+03  0.00000000000E+00 0. -1.
          1    1    1    2  502    0  0.17003515148E+02  0.33140196585E+02  0.44666722337E+03  0.44821758175E+03  0.00000000000E+00 0. -1.
         22    1    3    3    0    0  0.17578224327E+02 -0.23656421123E+02  0.21338407062E+03  0.21540979975E+03  0.00000000000E+00 0.  1.
         22    1    3    3    0    0  0.22747417225E+02  0.53906108651E+02  0.37815477110E+02  0.69665801146E+02  0.00000000000E+00 0.  1.
</event>
<event>
 7    1  0.5194496E-006  0.4253622E+02  0.7818608E-02  0.1578942E+00
          2   -1    0    0  502    0  0.00000000000E+00  0.00000000000E+00  0.23663277502E+03  0.23663277502E+03  0.00000000000E+00 0. -1.
          1   -1    0    0  501    0 -0.00000000000E+00 -0.00000000000E+00 -0.78120869192E+03  0.78120869192E+03  0.00000000000E+00 0. -1.
         25    2    1    2    0    0  0.48164975283E+02 -0.43301190188E+02  0.15279605175E+03  0.20776616364E+03  0.12500114963E+03 0.  0.
          2    1    1    2  501    0 -0.35644616935E+02  0.23080871664E+02 -0.75058715164E+03  0.75178742844E+03  0.00000000000E+00 0. -1.
          1    1    1    2  502    0 -0.12520358348E+02  0.20220318524E+02  0.53215182989E+02  0.58287874853E+02  0.00000000000E+00 0. -1.
         22    1    3    3    0    0  0.55964943878E+02  0.22221584701E+02  0.27586776512E+02  0.66233707492E+02  0.00000000000E+00 0. -1.
         22    1    3    3    0    0 -0.77999685946E+01 -0.65522774888E+02  0.12520927524E+03  0.14153245615E+03  0.00000000000E+00 0. -1.
</event>
<event>
 7    1  0.5194496E-006  0.1511227E+03  0.7818608E-02  0.1293807E+00
          2   -1    0    0  502    0  0.00000000000E+00  0.00000000000E+00  0.37028978965E+03  0.37028978965E+03  0.00000000000E+00 0. -1.
          1   -1    0    0  501    0 -0.00000000000E+00 -0.00000000000E+00 -0.17786444626E+03  0.17786444626E+03  0.00000000000E+00 0. -1.
         25    2    1    2    0    0  0.92505762312E+02  0.77743073362E+02  0.10540862999E+03  0.20331668905E+03  0.12500158101E+03 0.  0.
          2    1    1    2  501    0  0.56847914434E+02  0.12803531285E+02 -0.82789465391E+02  0.10124085820E+03  0.00000000000E+00 0. -1.
          1    1    1    2  502    0 -0.14935367675E+03 -0.90546604647E+02  0.16980617879E+03  0.24359668866E+03  0.00000000000E+00 0. -1.
         22    1    3    3    0    0  0.40092406484E+02  0.88998599383E+02  0.15780112946E+02  0.98879541435E+02  0.00000000000E+00 0.  1.
         22    1    3    3    0    0  0.52413355829E+02 -0.11255526021E+02  0.89628517040E+02  0.10443714762E+03  0.00000000000E+00 0.  1.
</event>
<event>
 7    1  0.5194496E-006  0.3442088E+03  0.7818608E-02  0.1183458E+00
          2   -1    0    0  502    0  0.00000000000E+00  0.00000000000E+00  0.11146146235E+04  0.11146146235E+04  0.00000000000E+00 0. -1.
          1   -1    0    0  501    0 -0.00000000000E+00 -0.00000000000E+00 -0.21906183710E+04  0.21906183710E+04  0.00000000000E+00 0. -1.
         25    2    1    2    0    0  0.12586369587E+03  0.37941106043E+03 -0.26272804763E+03  0.49441389157E+03  0.12499858583E+03 0.  0.
          2    1    1    2  501    0 -0.63623431840E+02 -0.33102468221E+03 -0.17947768364E+04  0.18261569411E+04  0.00000000000E+00 0. -1.
          1    1    1    2  502    0 -0.62240264033E+02 -0.48386378221E+02  0.98150113645E+03  0.98466216182E+03  0.00000000000E+00 0. -1.
         22    1    3    3    0    0 -0.10657811794E+02  0.15718443217E+02  0.83151892153E+01  0.20731637202E+02  0.00000000000E+00 0. -1.
         22    1    3    3    0    0  0.13652150767E+03  0.36369261721E+03 -0.27104323684E+03  0.47368225437E+03  0.00000000000E+00 0. -1.
</event>
<event>
 7    1  0.5194496E-006  0.2331534E+03  0.7818608E-02  0.1272194E+00
          2   -1    0    0  502    0  0.00000000000E+00  0.00000000000E+00  0.25138578147E+04  0.25138578147E+04  0.00000000000E+00 0. -1.
          1   -1    0    0  501    0 -0.00000000000E+00 -0.00000000000E+00 -0.51192790671E+03  0.51192790671E+03  0.00000000000E+00 0. -1.
         25    2    1    2    0    0 -0.21272237628E+03  0.17608559661E+03  0.15965786790E+03  0.34259595396E+03  0.12499762471E+03 0.  0.
          2    1    1    2  501    0  0.39661766474E+02 -0.23982901953E+02 -0.41329493774E+03  0.41588573054E+03  0.00000000000E+00 0. -1.
          1    1    1    2  502    0  0.17306060980E+03 -0.15210269466E+03  0.22555669778E+04  0.22673040369E+04  0.00000000000E+00 0. -1.
         22    1    3    3    0    0 -0.25459431091E+02  0.74415737902E+02  0.40701408225E+01  0.78755639323E+02  0.00000000000E+00 0.  1.
         22    1    3    3    0    0 -0.18726294519E+03  0.10166985871E+03  0.15558772708E+03  0.26384031464E+03  0.00000000000E+00 0.  1.
</event>
<event>
 7    1  0.5194496E-006  0.1412595E+03  0.7818608E-02  0.1283078E+00
          2   -1    0    0  502    0  0.00000000000E+00  0.00000000000E+00  0.11663687378E+04  0.11663687378E+04  0.00000000000E+00 0. -1.
          1   -1    0    0  501    0 -0.00000000000E+00 -0.00000000000E+00 -0.96552553933E+02  0.96552553933E+02  0.00000000000E+00 0. -1.
         25    2    1    2    0    0  0.11601409478E+03  0.12398818415E+02  0.15375589274E+03  0.22995419249E+03  0.12500022081E+03 0.  0.
          2    1    1    2  501    0 -0.15245533102E+03  0.46131425590E+02  0.54048271474E+02  0.16820211662E+03  0.00000000000E+00 0. -1.
          1    1    1    2  502    0  0.36441236240E+02 -0.58530244005E+02  0.86201201969E+03  0.86476498267E+03  0.00000000000E+00 0. -1.
         22    1    3    3    0    0  0.40467316054E+02  0.12442154426E+02  0.14828404623E+03  0.15420949789E+03  0.00000000000E+00 0. -1.
         22    1    3    3    0    0  0.75546778730E+02 -0.43336011623E-01  0.54718465141E+01  0.75744694591E+02  0.00000000000E+00 0. -1.
</event>
<event>
 7    1  0.5194496E-006  0.8671962E+02  0.7818608E-02  0.1413467E+00
          2   -1    0    0  502    0  0.00000000000E+00  0.00000000000E+00  0.10605743623E+03  0.10605743623E+03  0.00000000000E+00 0. -1.
          1   -1    0    0  501    0 -0.00000000000E+00 -0.00000000000E+00 -0.41962510653E+03  0.41962510653E+03  0.00000000000E+00 0. -1.
         25    2    1    2    0    0 -0.53505938585E+02  0.80035627228E+02 -0.25123527676E+03  0.29667391548E+03  0.12501064254E+03 0.  0.
          2    1    1    2  501    0 -0.18288550915E+02 -0.31837636993E+02 -0.11972150318E+03  0.12522517537E+03  0.00000000000E+00 0. -1.
          1    1    1    2  502    0  0.71794489500E+02 -0.48197990235E+02  0.57389109635E+02  0.10378345191E+03  0.00000000000E+00 0. -1.
         22    1    3    3    0    0  0.98576759501E+01 -0.79468169421E+01  0.84770732592E+01  0.15237665362E+02  0.00000000000E+00 0. -1.
         22    1    3    3    0    0 -0.63363614535E+02  0.87982444170E+02 -0.25971235002E+03  0.28143625012E+03  0.00000000000E+00 0. -1.
</event>
<event>
 7    1  0.5194496E-006  0.6438358E+02  0.7818608E-02  0.1463254E+00
          2   -1    0    0  502    0  0.00000000000E+00  0.00000000000E+00  0.15212875728E+03  0.15212875728E+03  0.00000000000E+00 0. -1.
          1   -1    0    0  501    0 -0.00000000000E+00 -0.00000000000E+00 -0.17870245981E+03  0.17870245981E+03  0.00000000000E+00 0. -1.
         25    2    1    2    0    0 -0.71603930157E+02 -0.51756699607E+02  0.88881914954E+01  0.15332892972E+03  0.12499952789E+03 0.  0.
          2    1    1    2  501    0  0.33726936600E+02  0.47258864499E+01 -0.89940750021E+02  0.96172650839E+02  0.00000000000E+00 0. -1.
          1    1    1    2  502    0  0.37876993557E+02  0.47030813157E+02  0.54478855999E+02  0.81329636530E+02  0.00000000000E+00 0. -1.
         22    1    3    3    0    0  0.22221004767E+02 -0.44862299357E+02  0.27952504353E+02  0.57338830264E+02  0.00000000000E+00 0.  1.
         22    1    3    3    0    0 -0.93824934924E+02 -0.68944002494E+01 -0.19064312858E+02  0.95990099453E+02  0.00000000000E+00 0.  1.
</event>
<event>
 7    1  0.5194496E-006  0.3343840E+02  0.7818608E-02  0.1577489E+00
          2   -1    0    0  502    0  0.00000000000E+00  0.00000000000E+00  0.59195766894E+03  0.59195766894E+03  0.00000000000E+00 0. -1.
          1   -1    0    0  501    0 -0.00000000000E+00 -0.00000000000E+00 -0.48635994854E+03  0.48635994854E+03  0.00000000000E+00 0. -1.
         25    2    1    2    0    0  0.38567789329E+02  0.45857700008E+02  0.22245419478E+03  0.26212083309E+03  0.12502423503E+03 0.  0.
          2    1    1    2  501    0 -0.26113969486E+02 -0.15809627913E+02 -0.46526894448E+03  0.46626931535E+03  0.00000000000E+00 0. -1.
          1    1    1    2  502    0 -0.12453819843E+02 -0.30048072095E+02  0.34841247010E+03  0.34992746904E+03  0.00000000000E+00 0. -1.
         22    1    3    3    0    0 -0.26279543397E+02  0.61472021488E+02  0.76168979857E+02  0.10134661967E+03  0.00000000000E+00 0.  1.
         22    1    3    3    0    0  0.64847332726E+02 -0.15614321480E+02  0.14628521492E+03  0.16077421342E+03  0.00000000000E+00 0.  1.
</event>
<event>
 7    1  0.5194496E-006  0.7724241E+02  0.7818608E-02  0.1457987E+00
          2   -1    0    0  502    0  0.00000000000E+00  0.00000000000E+00  0.11055713920E+04  0.11055713920E+04  0.00000000000E+00 0. -1.
          1   -1    0    0  501    0 -0.00000000000E+00 -0.00000000000E+00 -0.40664231102E+02  0.40664231102E+02  0.00000000000E+00 0. -1.
         25    2    1    2    0    0  0.35811527295E+02  0.63479132077E+02  0.94588607934E+03  0.95688935993E+03  0.12499882543E+03 0.  0.
          2    1    1    2  501    0  0.29492386267E+02  0.18792579917E+00 -0.10177458186E+02  0.31199628507E+02  0.00000000000E+00 0. -1.
          1    1    1    2  502    0 -0.65303913562E+02 -0.63667057877E+02  0.12919853975E+03  0.15814663468E+03  0.00000000000E+00 0. -1.
         22    1    3    3    0    0  0.32597358737E+02  0.94749013185E+02  0.50263487221E+03  0.51252490482E+03  0.00000000000E+00 0. -1.
         22    1    3    3    0    0  0.32141685580E+01 -0.31269881108E+02  0.44325120713E+03  0.44436445511E+03  0.00000000000E+00 0. -1.
</event>
<event>
 7    1  0.5194496E-006  0.1533469E+03  0.7818608E-02  0.1261993E+00
          2   -1    0    0  502    0  0.00000000000E+00  0.00000000000E+00  0.96886467171E+03  0.96886467171E+03  0.00000000000E+00 0. -1.
          1   -1    0    0  501    0 -0.00000000000E+00 -0.00000000000E+00 -0.15532550796E+03  0.15532550796E+03  0.00000000000E+00 0. -1.
         25    2    1    2    0    0 -0.22661973259E+02 -0.22116984582E+03  0.19885472126E+03  0.32341668120E+03  0.12500193508E+03 0.  0.
          2    1    1    2  501    0  0.14422796374E+02  0.76464055140E+02 -0.67715334867E+02  0.10315103179E+03  0.00000000000E+00 0. -1.
          1    1    1    2  502    0  0.82391768848E+01  0.14470579068E+03  0.68239977735E+03  0.69762246668E+03  0.00000000000E+00 0. -1.
         22    1    3    3    0    0 -0.10119665680E+02 -0.84523108715E+02  0.15928318956E+03  0.18060370432E+03  0.00000000000E+00 0.  1.
         22    1    3    3    0    0 -0.12542307579E+02 -0.13664673711E+03  0.39571531707E+02  0.14281297687E+03  0.00000000000E+00 0.  1.
</event>
<event>
 7    1  0.5194496E-006  0.8248138E+02  0.7818608E-02  0.1370352E+00
          2   -1    0    0  502    0  0.00000000000E+00  0.00000000000E+00  0.97549207442E+03  0.97549207442E+03  0.00000000000E+00 0. -1.
          1   -1    0    0  501    0 -0.00000000000E+00 -0.00000000000E+00 -0.48039648122E+02  0.48039648122E+02  0.00000000000E+00 0. -1.
         25    2    1    2    0    0 -0.10226601741E+02 -0.12733540649E+03  0.46132642162E+03  0.49473832270E+03  0.12500020614E+03 0.  0.
          2    1    1    2  501    0  0.23248055817E+02  0.74375590180E+02  0.21501084437E+02  0.80836236589E+02  0.00000000000E+00 0. -1.
          1    1    1    2  502    0 -0.13021454077E+02  0.52959816309E+02  0.44462492025E+03  0.44795716326E+03  0.00000000000E+00 0. -1.
         22    1    3    3    0    0  0.45006521901E+02 -0.27742340820E+02  0.24087188785E+03  0.24660594243E+03  0.00000000000E+00 0. -1.
         22    1    3    3    0    0 -0.55233123641E+02 -0.99593065669E+02  0.22045453377E+03  0.24813238026E+03  0.00000000000E+00 0. -1.
</event>
<event>
 7    1  0.5194496E-006  0.1252066E+03  0.7818608E-02  0.1273168E+00
          2   -1    0    0  502    0  0.00000000000E+00  0.00000000000E+00  0.96699032315E+03  0.96699032315E+03  0.00000000000E+00 0. -1.
          1   -1    0    0  501    0 -0.00000000000E+00 -0.00000000000E+00 -0.43349339371E+03  0.43349339371E+03  0.00000000000E+00 0. -1.
         25    2    1    2    0    0  0.84845636356E+02 -0.92203118129E+02  0.19801857425E+03  0.26558800024E+03  0.12500173247E+03 0.  0.
          2    1    1    2  501    0  0.43190615558E+02  0.73793472687E+02 -0.38934367165E+03  0.39862187664E+03  0.00000000000E+00 0. -1.
          1    1    1    2  502    0 -0.12803625191E+03  0.18409645442E+02  0.72482202684E+03  0.73627383998E+03  0.00000000000E+00 0. -1.
         22    1    3    3    0    0  0.11482145323E+03 -0.80679443242E+02  0.13433582145E+03  0.19426593013E+03  0.00000000000E+00 0. -1.
         22    1    3    3    0    0 -0.29975816877E+02 -0.11523674888E+02  0.63682752801E+02  0.71322070109E+02  0.00000000000E+00 0. -1.
</event>
<event>
 7    1  0.5194496E-006  0.9563661E+02  0.7818608E-02  0.1386524E+00
          2   -1    0    0  502    0  0.00000000000E+00  0.00000000000E+00  0.13500754928E+03  0.13500754928E+03  0.00000000000E+00 0. -1.
          1   -1    0    0  501    0 -0.00000000000E+00 -0.00000000000E+00 -0.27304176785E+04  0.27304176785E+04  0.00000000000E+00 0. -1.
         25    2    1    2    0    0  0.41303559920E+02  0.41518407525E+02 -0.28636189265E+03  0.31789728687E+03  0.12500315680E+03 0.  0.
          2    1    1    2  501    0  0.16693274024E+02  0.37678425648E+02 -0.24078793568E+04  0.24082319918E+04  0.00000000000E+00 0. -1.
          1    1    1    2  502    0 -0.57996833944E+02 -0.79196833173E+02  0.98831120218E+02  0.13929594917E+03  0.00000000000E+00 0. -1.
         22    1    3    3    0    0  0.19739372046E+02 -0.44843949620E+02 -0.98417028381E+02  0.10993877433E+03  0.00000000000E+00 0.  1.
         22    1    3    3    0    0  0.21564187874E+02  0.86362357145E+02 -0.18794486427E+03  0.20795851254E+03  0.00000000000E+00 0.  1.
</event>
<event>
 7    1  0.5194496E-006  0.5149416E+02  0.7818608E-02  0.1500683E+00
          2   -1    0    0  502    0  0.00000000000E+00  0.00000000000E+00  0.82702559992E+03  0.82702559992E+03  0.00000000000E+00 0. -1.
          1   -1    0    0  501    0 -0.00000000000E+00 -0.00000000000E+00 -0.19418720305E+02  0.19418720305E+02  0.00000000000E+00 0. -1.
         25    2    1    2    0    0 -0.25144526631E+02  0.43593648740E+02  0.41841612922E+03  0.43957988064E+03  0.12500304334E+03 0.  0.
          2    1    1    2  501    0 -0.23796310737E+02 -0.22444002797E+02  0.32150903198E+02  0.45865872309E+02  0.00000000000E+00 0. -1.
          1    1    1    2  502    0  0.48940837368E+02 -0.21149645944E+02  0.35703984719E+03  0.36099856727E+03  0.00000000000E+00 0. -1.
         22    1    3    3    0    0 -0.48098582530E+02  0.76246913932E+02  0.33781922838E+03  0.34964109683E+03  0.00000000000E+00 0. -1.
         22    1    3    3    0    0  0.22954055898E+02 -0.32653265191E+02  0.80596900838E+02  0.89938783817E+02  0.00000000000E+00 0. -1.
</event>
<event>
 7    1  0.5194496E-006  0.6968987E+02  0.7818608E-02  0.1437791E+00
          2   -1    0    0  502    0  0.00000000000E+00  0.00000000000E+00  0.54425626682E+03  0.54425626682E+03  0.00000000000E+00 0. -1.
          1   -1    0    0  501    0 -0.00000000000E+00 -0.00000000000E+00 -0.15894538489E+03  0.15894538489E+03  0.00000000000E+00 0. -1.
         25    2    1    2    0    0 -0.38560628956E+01 -0.91452480107E+02  0.22446768793E+03  0.27274359321E+03  0.12499959749E+03 0.  0.
          2    1    1    2  501    0  0.25584458434E+02  0.28030385501E+02 -0.12822205215E+03  0.13372046097E+03  0.00000000000E+00 0. -1.
          1    1    1    2  502    0 -0.21728395538E+02  0.63422094606E+02  0.28906524615E+03  0.29673759753E+03  0.00000000000E+00 0. -1.
         22    1    3    3    0    0  0.58436859516E+02 -0.30124990949E+02  0.11706590651E+03  0.13426394936E+03  0.00000000000E+00 0.  1.
         22    1    3    3    0    0 -0.62292922412E+02 -0.61327489158E+02  0.10740178142E+03  0.13847964385E+03  0.00000000000E+00 0.  1.
</event>
<event>
 7    1  0.5194496E-006  0.7924955E+02  0.7818608E-02  0.1441778E+00
          2   -1    0    0  502    0  0.00000000000E+00  0.00000000000E+00  0.11520314371E+03  0.11520314371E+03  0.00000000000E+00 0. -1.
          1   -1    0    0  501    0 -0.00000000000E+00 -0.00000000000E+00 -0.60005388314E+03  0.60005388314E+03  0.00000000000E+00 0. -1.
         25    2    1    2    0    0  0.10912619260E+03  0.13791996448E+02 -0.30111022237E+03  0.34407952268E+03  0.12499842734E+03 0.  0.
          2    1    1    2  501    0 -0.32334292517E+02 -0.19475099369E+01 -0.26017531383E+03  0.26218408265E+03  0.00000000000E+00 0. -1.
          1    1    1    2  502    0 -0.76791900082E+02 -0.11844486511E+02  0.76434796768E+02  0.10899342153E+03  0.00000000000E+00 0. -1.
         22    1    3    3    0    0 -0.18889156594E+02  0.15140167861E+01 -0.27047000432E+01  0.19141783772E+02  0.00000000000E+00 0.  1.
         22    1    3    3    0    0  0.12801534919E+03  0.12277979662E+02 -0.29840552233E+03  0.32493773891E+03  0.00000000000E+00 0.  1.
</event>
<event>
 7    1  0.5194496E-006  0.3185747E+02  0.7818608E-02  0.1653919E+00
          2   -1    0    0  502    0  0.00000000000E+00  0.00000000000E+00  0.19938664715E+04  0.19938664715E+04  0.00000000000E+00 0. -1.
          1   -1    0    0  501    0 -0.00000000000E+00 -0.00000000000E+00 -0.14240095336E+02  0.14240095336E+02  0.00000000000E+00 0. -1.
         25    2    1    2    0    0 -0.43849478076E+02 -0.94392175323E+01  0.91615498727E+03  0.92572995841E+03  0.12499647852E+03 0.  0.
          2    1    1    2  501    0  0.25576923437E+02  0.18535753471E+02  0.17316118424E+02  0.36022231004E+02  0.00000000000E+00 0. -1.
          1    1    1    2  502    0  0.18272554640E+02 -0.90965359387E+01  0.10461552705E+04  0.10463543775E+04  0.00000000000E+00 0. -1.
         22    1    3    3    0    0 -0.75759969766E+02  0.28480511629E+02  0.48101002568E+03  0.48777182920E+03  0.00000000000E+00 0. -1.
         22    1    3    3    0    0  0.31910491689E+02 -0.37919729161E+02  0.43514496159E+03  0.43795812921E+03  0.00000000000E+00 0. -1.
</event>
<event>
 7    1  0.5194496E-006  0.4021488E+02  0.7818608E-02  0.1606343E+00
          2   -1    0    0  502    0  0.00000000000E+00  0.00000000000E+00  0.87840855692E+03  0.87840855692E+03  0.00000000000E+00 0. -1.
          1   -1    0    0  501    0 -0.00000000000E+00 -0.00000000000E+00 -0.20890949968E+03  0.20890949968E+03  0.00000000000E+00 0. -1.
         25    2    1    2    0    0 -0.36470376382E+02  0.43469889140E+02  0.25452465957E+03  0.28918508766E+03  0.12500197191E+03 0.  0.
          2    1    1    2  501    0  0.33254696539E+02 -0.22415546349E+02 -0.18929082920E+03  0.19349250522E+03  0.00000000000E+00 0. -1.
          1    1    1    2  502    0  0.32156798429E+01 -0.21054342791E+02  0.60426522687E+03  0.60464046371E+03  0.00000000000E+00 0. -1.
         22    1    3    3    0    0 -0.13479621965E+02  0.79985582111E+02  0.10006606304E+03  0.12881230736E+03  0.00000000000E+00 0.  1.
         22    1    3    3    0    0 -0.22990754417E+02 -0.36515692971E+02  0.15445859653E+03  0.16037278030E+03  0.00000000000E+00 0.  1.
</event>
<event>
 7    1  0.5194496E-006  0.5121554E+02  0.7818608E-02  0.1566538E+00
          2   -1    0    0  502    0  0.00000000000E+00  0.00000000000E+00  0.18918309921E+03  0.18918309921E+03  0.00000000000E+00 0. -1.
          1   -1    0    0  501    0 -0.00000000000E+00 -0.00000000000E+00 -0.20877588547E+03  0.20877588547E+03  0.00000000000E+00 0. -1.
         25    2    1    2    0    0 -0.28285927650E+02 -0.17317007502E+02 -0.82978146683E+01  0.12959466098E+03  0.12500379984E+03 0.  0.
          2    1    1    2  501    0  0.49616965954E+02  0.17937262456E+02 -0.13389820419E+03  0.14391774658E+03  0.00000000000E+00 0. -1.
          1    1    1    2  502    0 -0.21331038304E+02 -0.62025495429E+00  0.12260323260E+03  0.12444657712E+03  0.00000000000E+00 0. -1.
         22    1    3    3    0    0  0.26669587664E+02 -0.55868241057E+02 -0.83322897596E+01  0.62465625087E+02  0.00000000000E+00 0. -1.
         22    1    3    3    0    0 -0.54955515314E+02  0.38551233555E+02  0.34475091331E-01  0.67129035898E+02  0.00000000000E+00 0. -1.
</event>
<event>
 7    1  0.5194496E-006  0.5806310E+02  0.7818608E-02  0.1517105E+00
          2   -1    0    0  502    0  0.00000000000E+00  0.00000000000E+00  0.35865931932E+03  0.35865931932E+03  0.00000000000E+00 0. -1.
          1   -1    0    0  501    0 -0.00000000000E+00 -0.00000000000E+00 -0.20122232197E+04  0.20122232197E+04  0.00000000000E+00 0. -1.
         25    2    1    2    0    0 -0.25315222064E+02 -0.43452477025E+02 -0.14487095371E+04  0.14549613224E+04  0.12499659453E+03 0.  0.
          2    1    1    2  501    0  0.88832879861E+01  0.63536972607E+02 -0.55807409224E+03  0.56174954572E+03  0.00000000000E+00 0. -1.
          1    1    1    2  502    0  0.16431934078E+02 -0.20084495582E+02  0.35321972903E+03  0.35417167080E+03  0.00000000000E+00 0. -1.
         22    1    3    3    0    0 -0.16829167031E+02 -0.20051478019E+02 -0.53810740371E+02  0.59840441283E+02  0.00000000000E+00 0. -1.
         22    1    3    3    0    0 -0.84860550329E+01 -0.23400999007E+02 -0.13948987968E+04  0.13951208812E+04  0.00000000000E+00 0. -1.
</event>
<event>
 7    1  0.5194496E-006  0.7512643E+02  0.7818608E-02  0.1375514E+00
          2   -1    0    0  502    0  0.00000000000E+00  0.00000000000E+00  0.30681139803E+03  0.30681139803E+03  0.00000000000E+00 0. -1.
          1   -1    0    0  501    0 -0.00000000000E+00 -0.00000000000E+00 -0.22551549882E+03  0.22551549882E+03  0.00000000000E+00 0. -1.
         25    2    1    2    0    0 -0.99953209571E+02 -0.28805177058E+02 -0.86625030461E+02  0.18425882151E+03  0.12500814003E+03 0.  0.
          2    1    1    2  501    0  0.67425584111E+02 -0.18467499233E+02 -0.72605808932E+02  0.10079117725E+03  0.00000000000E+00 0. -1.
          1    1    1    2  502    0  0.32527625460E+02  0.47272676290E+02  0.24052673861E+03  0.24727689809E+03  0.00000000000E+00 0. -1.
         22    1    3    3    0    0 -0.84728525559E+02 -0.11515843997E+02  0.89239085305E+01  0.85971936408E+02  0.00000000000E+00 0. -1.
         22    1    3    3    0    0 -0.15224684012E+02 -0.17289333061E+02 -0.95548938991E+02  0.98286885104E+02  0.00000000000E+00 0. -1.
</event>
<event>
 7    1  0.5194496E-006  0.1160022E+03  0.7818608E-02  0.1277531E+00
          2   -1    0    0  502    0  0.00000000000E+00  0.00000000000E+00  0.12428103317E+04  0.12428103317E+04  0.00000000000E+00 0. -1.
          1   -1    0    0  501    0 -0.00000000000E+00 -0.00000000000E+00 -0.31519069244E+03  0.31519069244E+03  0.00000000000E+00 0. -1.
         25    2    1    2    0    0  0.94379291598E+02 -0.84923235161E+02 -0.86361406044E+01  0.17838097012E+03  0.12500312406E+03 0.  0.
          2    1    1    2  501    0 -0.11917137644E+03 -0.41266067648E-01 -0.20382608746E+03  0.23610779867E+03  0.00000000000E+00 0. -1.
          1    1    1    2  502    0  0.24792084840E+02  0.84964501228E+02  0.11400818673E+04  0.11435122553E+04  0.00000000000E+00 0. -1.
         22    1    3    3    0    0  0.40584810147E+02 -0.60977092399E+02 -0.64214384410E+02  0.97410573231E+02  0.00000000000E+00 0. -1.
         22    1    3    3    0    0  0.53794481450E+02 -0.23946142762E+02  0.55578243806E+02  0.80970396888E+02  0.00000000000E+00 0. -1.
</event>
<event>
 7    1  0.5194496E-006  0.2423276E+02  0.7818608E-02  0.1672398E+00
          2   -1    0    0  502    0  0.00000000000E+00  0.00000000000E+00  0.27295048637E+02  0.27295048637E+02  0.00000000000E+00 0. -1.
          1   -1    0    0  501    0 -0.00000000000E+00 -0.00000000000E+00 -0.94567821967E+03  0.94567821967E+03  0.00000000000E+00 0. -1.
         25    2    1    2    0    0 -0.13188453282E+02 -0.43235969768E+01 -0.17148069901E+03  0.21265686684E+03  0.12499873635E+03 0.  0.
          2    1    1    2  501    0  0.14214401948E+02 -0.19870752227E+02 -0.73086060817E+03  0.73126884563E+03  0.00000000000E+00 0. -1.
          1    1    1    2  502    0 -0.10259486664E+01  0.24194349204E+02 -0.16041863849E+02  0.29047555832E+02  0.00000000000E+00 0. -1.
         22    1    3    3    0    0 -0.55488069731E+02 -0.10770178186E+02 -0.28286184504E+02  0.63206256450E+02  0.00000000000E+00 0. -1.
         22    1    3    3    0    0  0.42299616449E+02  0.64465812089E+01 -0.14319451451E+03  0.14945061039E+03  0.00000000000E+00 0. -1.
</event>
<event>
 7    1  0.5194496E-006  0.1549146E+03  0.7818608E-02  0.1381725E+00
          2   -1    0    0  502    0  0.00000000000E+00  0.00000000000E+00  0.12273160091E+04  0.12273160091E+04  0.00000000000E+00 0. -1.
          1   -1    0    0  501    0 -0.00000000000E+00 -0.00000000000E+00 -0.14303272153E+04  0.14303272153E+04  0.00000000000E+00 0. -1.
         25    2    1    2    0    0 -0.28916293006E+02  0.14012570698E+03 -0.23732198598E+03  0.30400255704E+03  0.12499785558E+03 0.  0.
          2    1    1    2  501    0 -0.25971902145E+02  0.50098070627E+01 -0.11544714609E+04  0.11547744333E+04  0.00000000000E+00 0. -1.
          1    1    1    2  502    0  0.54888195151E+02 -0.14513551405E+03  0.11887822407E+04  0.11988662340E+04  0.00000000000E+00 0. -1.
         22    1    3    3    0    0 -0.10477487529E+02  0.96269468465E+02 -0.46656887029E+02  0.10749164345E+03  0.00000000000E+00 0.  1.
         22    1    3    3    0    0 -0.18438805477E+02  0.43856238519E+02 -0.19066509895E+03  0.19651091359E+03  0.00000000000E+00 0.  1.
</event>
<event>
 7    1  0.5194496E-006  0.1004238E+03  0.7818608E-02  0.1295576E+00
          2   -1    0    0  502    0  0.00000000000E+00  0.00000000000E+00  0.20858689124E+04  0.20858689124E+04  0.00000000000E+00 0. -1.
          1   -1    0    0  501    0 -0.00000000000E+00 -0.00000000000E+00 -0.18393045149E+03  0.18393045149E+03  0.00000000000E+00 0. -1.
         25    2    1    2    0    0 -0.88314239449E+01 -0.19765412616E+02  0.22139514477E+03  0.25516763048E+03  0.12500417565E+03 0.  0.
          2    1    1    2  501    0 -0.43267473497E+02 -0.74623963407E+02 -0.15421927324E+03  0.17670425693E+03  0.00000000000E+00 0. -1.
          1    1    1    2  502    0  0.52098897442E+02  0.94389376023E+02  0.18347625893E+04  0.18379274764E+04  0.00000000000E+00 0. -1.
         22    1    3    3    0    0  0.50519625855E+02 -0.40552960113E-01  0.15895970354E+03  0.16679454904E+03  0.00000000000E+00 0. -1.
         22    1    3    3    0    0 -0.59351049800E+02 -0.19724859656E+02  0.62435441235E+02  0.88373081439E+02  0.00000000000E+00 0. -1.
</event>
<event>
 7    1  0.5426630E-006  0.1097740E+03  0.7818608E-02  0.1361498E+00
          2   -1    0    0  502    0  0.00000000000E+00  0.00000000000E+00  0.12666745742E+04  0.12666745742E+04  0.00000000000E+00 0. -1.
          1   -1    0    0  501    0 -0.00000000000E+00 -0.00000000000E+00 -0.11309050426E+04  0.11309050426E+04  0.00000000000E+00 0. -1.
         25    2    1    2    0    0  0.14318842576E+03  0.52172734028E+02 -0.83868111224E+03  0.86152954098E+03  0.12498888949E+03 0.  0.
          2    1    1    2  501    0 -0.37359271015E+02 -0.23459290422E+02 -0.27665405820E+03  0.28014910557E+03  0.00000000000E+00 0. -1.
          1    1    1    2  502    0 -0.10582915474E+03 -0.28713443606E+02  0.12511047020E+04  0.12559009703E+04  0.00000000000E+00 0. -1.
         22    1    3    3    0    0  0.70570569885E+02 -0.21740523795E+02 -0.54758818166E+03  0.55254472435E+03  0.00000000000E+00 0. -1.
         22    1    3    3    0    0  0.72617855873E+02  0.73913257823E+02 -0.29109293058E+03  0.30898481663E+03  0.00000000000E+00 0. -1.
</event>
<event>
 7    1  0.5194496E-006  0.4573526E+02  0.7818608E-02  0.1551786E+00
          2   -1    0    0  502    0  0.00000000000E+00  0.00000000000E+00  0.66357356087E+03  0.66357356087E+03  0.00000000000E+00 0. -1.
          1   -1    0    0  501    0 -0.00000000000E+00 -0.00000000000E+00 -0.16777635127E+04  0.16777635127E+04  0.00000000000E+00 0. -1.
         25    2    1    2    0    0  0.13843133434E+02 -0.15941527340E+02 -0.31279520922E+02  0.13057200031E+03  0.12499949680E+03 0.  0.
          2    1    1    2  501    0  0.24426558607E+02 -0.95914999991E+01 -0.15958678561E+04  0.15960836030E+04  0.00000000000E+00 0. -1.
          1    1    1    2  502    0 -0.38269692041E+02  0.25533027340E+02  0.61295742517E+03  0.61468147027E+03  0.00000000000E+00 0. -1.
         22    1    3    3    0    0  0.46678591960E+02 -0.47447681555E+02 -0.48031473968E+02  0.82080423512E+02  0.00000000000E+00 0. -1.
         22    1    3    3    0    0 -0.32835458526E+02  0.31506154215E+02  0.16751953046E+02  0.48491576803E+02  0.00000000000E+00 0. -1.
</event>
<event>
 7    1  0.5194496E-006  0.5213971E+02  0.7818608E-02  0.1484647E+00
          2   -1    0    0  502    0  0.00000000000E+00  0.00000000000E+00  0.38392089475E+03  0.38392089475E+03  0.00000000000E+00 0. -1.
          1   -1    0    0  501    0 -0.00000000000E+00 -0.00000000000E+00 -0.99442743289E+03  0.99442743289E+03  0.00000000000E+00 0. -1.
         25    2    1    2    0    0  0.54152255706E+02 -0.28503973163E+02 -0.22817064608E+02  0.14102921316E+03  0.12499470886E+03 0.  0.
          2    1    1    2  501    0 -0.31108701114E+02 -0.18334263633E+02 -0.91004671073E+03  0.91076281886E+03  0.00000000000E+00 0. -1.
          1    1    1    2  502    0 -0.23043554592E+02  0.46838236796E+02  0.32235723719E+03  0.32655629562E+03  0.00000000000E+00 0. -1.
         22    1    3    3    0    0 -0.88370881255E+01 -0.42992884775E+02 -0.53733527628E+02  0.69381368243E+02  0.00000000000E+00 0.  1.
         22    1    3    3    0    0  0.62989343831E+02  0.14488911612E+02  0.30916463021E+02  0.71647844920E+02  0.00000000000E+00 0.  1.
</event>
<event>
 7    1  0.5194496E-006  0.1743716E+03  0.7818608E-02  0.1201780E+00
          2   -1    0    0  502    0  0.00000000000E+00  0.00000000000E+00  0.16445781190E+03  0.16445781190E+03  0.00000000000E+00 0. -1.
          1   -1    0    0  501    0 -0.00000000000E+00 -0.00000000000E+00 -0.92427192825E+03  0.92427192825E+03  0.00000000000E+00 0. -1.
         25    2    1    2    0    0  0.45803644409E+02 -0.62153853708E+02 -0.57618138148E+02  0.15781749637E+03  0.12500174776E+03 0.  0.
          2    1    1    2  501    0 -0.71605600680E+02  0.18673024287E+03 -0.76380954518E+03  0.78955719676E+03  0.00000000000E+00 0. -1.
          1    1    1    2  502    0  0.25801956271E+02 -0.12457638916E+03  0.61613566977E+02  0.14135504702E+03  0.00000000000E+00 0. -1.
         22    1    3    3    0    0  0.63293854858E+02 -0.60462948519E+01 -0.73257540962E+02  0.97001737366E+02  0.00000000000E+00 0. -1.
         22    1    3    3    0    0 -0.17490210449E+02 -0.56107558857E+02  0.15639402814E+02  0.60815759000E+02  0.00000000000E+00 0. -1.
</event>
<event>
 7    1  0.5194496E-006  0.1343241E+03  0.7818608E-02  0.1375553E+00
          2   -1    0    0  502    0  0.00000000000E+00  0.00000000000E+00  0.17084530945E+04  0.17084530945E+04  0.00000000000E+00 0. -1.
          1   -1    0    0  501    0 -0.00000000000E+00 -0.00000000000E+00 -0.13027580693E+04  0.13027580693E+04  0.00000000000E+00 0. -1.
         25    2    1    2    0    0 -0.16229397079E+02 -0.14266545169E+03  0.41397230634E+03  0.45564778493E+03  0.12500003623E+03 0.  0.
          2    1    1    2  501    0  0.44126609921E+02  0.12681975782E+03 -0.12782008794E+04  0.12852345687E+04  0.00000000000E+00 0. -1.
          1    1    1    2  502    0 -0.27897212842E+02  0.15845693875E+02  0.12699235982E+04  0.12703288101E+04  0.00000000000E+00 0. -1.
         22    1    3    3    0    0 -0.17587936476E+00  0.12632574214E+02 -0.60388645816E+00  0.12648222945E+02  0.00000000000E+00 0.  1.
         22    1    3    3    0    0 -0.16053517714E+02 -0.15529802590E+03  0.41457619280E+03  0.44299956198E+03  0.00000000000E+00 0.  1.
</event>
<event>
 7    1  0.5194496E-006  0.1143490E+03  0.7818608E-02  0.1299281E+00
          2   -1    0    0  502    0  0.00000000000E+00  0.00000000000E+00  0.10897920424E+04  0.10897920424E+04  0.00000000000E+00 0. -1.
          1   -1    0    0  501    0 -0.00000000000E+00 -0.00000000000E+00 -0.80910271530E+03  0.80910271530E+03  0.00000000000E+00 0. -1.
         25    2    1    2    0    0 -0.12890746793E+03 -0.12546393789E+02  0.46763819786E+02  0.18597618316E+03  0.12500295428E+03 0.  0.
          2    1    1    2  501    0  0.28294467920E+02  0.67512597270E+02 -0.73429455508E+03  0.73793429337E+03  0.00000000000E+00 0. -1.
          1    1    1    2  502    0  0.10061300001E+03 -0.54966203481E+02  0.96822006238E+03  0.97498428115E+03  0.00000000000E+00 0. -1.
         22    1    3    3    0    0 -0.68456080520E+02 -0.67765419343E+02  0.38320506507E+02  0.10366700651E+03  0.00000000000E+00 0.  1.
         22    1    3    3    0    0 -0.60451387406E+02  0.55219025554E+02  0.84433132796E+01  0.82309176655E+02  0.00000000000E+00 0.  1.
</event>
<event>
 7    1  0.5194496E-006  0.1114253E+03  0.7818608E-02  0.1316634E+00
          2   -1    0    0  502    0  0.00000000000E+00  0.00000000000E+00  0.16203149919E+03  0.16203149919E+03  0.00000000000E+00 0. -1.
          1   -1    0    0  501    0 -0.00000000000E+00 -0.00000000000E+00 -0.10023863587E+04  0.10023863587E+04  0.00000000000E+00 0. -1.
         25    2    1    2    0    0  0.78205279657E+02  0.63829222282E+02 -0.76414809930E+02  0.17791483630E+03  0.12499692163E+03 0.  0.
          2    1    1    2  501    0 -0.11296300531E+03 -0.99170978259E+01 -0.86194505177E+03  0.86937233776E+03  0.00000000000E+00 0. -1.
          1    1    1    2  502    0  0.34757725651E+02 -0.53912124456E+02  0.98005002151E+02  0.11713068386E+03  0.00000000000E+00 0. -1.
         22    1    3    3    0    0 -0.23883551388E+02  0.60831358864E+01  0.15313565297E+02  0.29016096416E+02  0.00000000000E+00 0.  1.
         22    1    3    3    0    0  0.10208883104E+03  0.57746086396E+02 -0.91728375227E+02  0.14889873989E+03  0.00000000000E+00 0.  1.
</event>
<event>
 7    1  0.5194496E-006  0.7448676E+02  0.7818608E-02  0.1411148E+00
          2   -1    0    0  502    0  0.00000000000E+00  0.00000000000E+00  0.11670681945E+03  0.11670681945E+03  0.00000000000E+00 0. -1.
          1   -1    0    0  501    0 -0.00000000000E+00 -0.00000000000E+00 -0.75129728726E+03  0.75129728726E+03  0.00000000000E+00 0. -1.
         25    2    1    2    0    0  0.30967315070E+02  0.19757930633E+02 -0.36247555944E+03  0.38517900978E+03  0.12499995181E+03 0.  0.
          2    1    1    2  501    0  0.14674595377E+02  0.40976060093E+02 -0.36229998297E+03  0.36490499984E+03  0.00000000000E+00 0. -1.
          1    1    1    2  502    0 -0.45641910447E+02 -0.60733990726E+02  0.90185074594E+02  0.11792009709E+03  0.00000000000E+00 0. -1.
         22    1    3    3    0    0 -0.36831171690E+02  0.25481601867E+02 -0.58466252618E+02  0.73648828483E+02  0.00000000000E+00 0. -1.
         22    1    3    3    0    0  0.67798486759E+02 -0.57236712343E+01 -0.30400930683E+03  0.31153018129E+03  0.00000000000E+00 0. -1.
</event>
<event>
 7    1  0.5194496E-006  0.1142991E+03  0.7818608E-02  0.1411430E+00
          2   -1    0    0  502    0  0.00000000000E+00  0.00000000000E+00  0.49578146152E+04  0.49578146152E+04  0.00000000000E+00 0. -1.
          1   -1    0    0  501    0 -0.00000000000E+00 -0.00000000000E+00 -0.46744784339E+03  0.46744784339E+03  0.00000000000E+00 0. -1.
         25    2    1    2    0    0 -0.13953542192E+03 -0.27785725661E+02  0.89153363236E+02  0.20932180308E+03  0.12500045818E+03 0.  0.
          2    1    1    2  501    0  0.27887937824E+02  0.48222548228E+01 -0.40619568283E+03  0.40718045627E+03  0.00000000000E+00 0. -1.
          1    1    1    2  502    0  0.11164748410E+03  0.22963470838E+02  0.48074090914E+04  0.48087601993E+04  0.00000000000E+00 0. -1.
         22    1    3    3    0    0 -0.12002459926E+03 -0.68101062842E+02  0.89592856502E+02  0.16453127096E+03  0.00000000000E+00 0.  1.
         22    1    3    3    0    0 -0.19510822658E+02  0.40315337181E+02 -0.43949326561E+00  0.44790532115E+02  0.00000000000E+00 0.  1.
</event>
<event>
 7    1  0.5194496E-006  0.7619182E+02  0.7818608E-02  0.1378506E+00
          2   -1    0    0  502    0  0.00000000000E+00  0.00000000000E+00  0.88888117779E+03  0.88888117779E+03  0.00000000000E+00 0. -1.
          1   -1    0    0  501    0 -0.00000000000E+00 -0.00000000000E+00 -0.13974702010E+04  0.13974702010E+04  0.00000000000E+00 0. -1.
         25    2    1    2    0    0 -0.99974143579E+02 -0.79038391122E+02  0.58482720622E+02  0.18784529109E+03  0.12499491236E+03 0.  0.
          2    1    1    2  501    0  0.49027448385E+02  0.57763569903E+02 -0.13307147523E+04  0.13328698633E+04  0.00000000000E+00 0. -1.
          1    1    1    2  502    0  0.50946695193E+02  0.21274821219E+02  0.76364300842E+03  0.76563622438E+03  0.00000000000E+00 0. -1.
         22    1    3    3    0    0 -0.75794662836E+02 -0.43066661997E-01 -0.15018162698E+02  0.77268221022E+02  0.00000000000E+00 0. -1.
         22    1    3    3    0    0 -0.24179480743E+02 -0.78995324460E+02  0.73500883320E+02  0.11057707007E+03  0.00000000000E+00 0. -1.
</event>
<event>
 7    1  0.5194496E-006  0.3040942E+03  0.7818608E-02  0.1174242E+00
          2   -1    0    0  502    0  0.00000000000E+00  0.00000000000E+00  0.32509163356E+04  0.32509163356E+04  0.00000000000E+00 0. -1.
          1   -1    0    0  501    0 -0.00000000000E+00 -0.00000000000E+00 -0.27896066252E+03  0.27896066252E+03  0.00000000000E+00 0. -1.
         25    2    1    2    0    0 -0.10434953491E+03  0.19828751181E+03  0.29577929882E+03  0.39155655902E+03  0.12499753007E+03 0.  0.
          2    1    1    2  501    0 -0.73070456595E+02  0.66788935032E+02 -0.21126790742E+03  0.23331134172E+03  0.00000000000E+00 0. -1.
          1    1    1    2  502    0  0.17741999150E+03 -0.26507644685E+03  0.28874442817E+04  0.29050090974E+04  0.00000000000E+00 0. -1.
         22    1    3    3    0    0 -0.15540796944E+02 -0.16737082256E+02  0.17080804226E+02  0.28520171197E+02  0.00000000000E+00 0.  1.
         22    1    3    3    0    0 -0.88808737962E+02  0.21502459407E+03  0.27869849459E+03  0.36303638782E+03  0.00000000000E+00 0.  1.
</event>
<event>
 7    1  0.5194496E-006  0.5972648E+02  0.7818608E-02  0.1426953E+00
          2   -1    0    0  502    0  0.00000000000E+00  0.00000000000E+00  0.52495743545E+01  0.52495743545E+01  0.00000000000E+00 0. -1.
          1   -1    0    0  501    0 -0.00000000000E+00 -0.00000000000E+00 -0.30438897572E+04  0.30438897572E+04  0.00000000000E+00 0. -1.
         25    2    1    2    0    0  0.25057360537E+02  0.16323361201E+01 -0.13068328298E+04  0.13130380854E+04  0.12500573104E+03 0.  0.
          2    1    1    2  501    0 -0.71490785855E+02  0.10765053797E+02 -0.11758530300E+04  0.11780734981E+04  0.00000000000E+00 0. -1.
          1    1    1    2  502    0  0.46433425318E+02 -0.12397389917E+02 -0.55595432304E+03  0.55802774803E+03  0.00000000000E+00 0. -1.
         22    1    3    3    0    0 -0.16878915393E+02  0.53774087795E+02 -0.43403349971E+03  0.43767754018E+03  0.00000000000E+00 0. -1.
         22    1    3    3    0    0  0.41936275930E+02 -0.52141751675E+02 -0.87279933011E+03  0.87536054523E+03  0.00000000000E+00 0. -1.
</event>
<event>
 7    1  0.5194496E-006  0.1148680E+03  0.7818608E-02  0.1356694E+00
          2   -1    0    0  502    0  0.00000000000E+00  0.00000000000E+00  0.20339609566E+04  0.20339609566E+04  0.00000000000E+00 0. -1.
          1   -1    0    0  501    0 -0.00000000000E+00 -0.00000000000E+00 -0.44045090638E+02  0.44045090638E+02  0.00000000000E+00 0. -1.
         25    2    1    2    0    0 -0.46832371125E+02  0.13668874918E+03  0.91997868304E+03  0.93960764023E+03  0.12499862081E+03 0.  0.
          2    1    1    2  501    0  0.60054446096E+02 -0.94830599741E+02  0.59563483022E+02  0.12707158476E+03  0.00000000000E+00 0. -1.
          1    1    1    2  502    0 -0.13222074970E+02 -0.41858149436E+02  0.10103736999E+04  0.10113268222E+04  0.00000000000E+00 0. -1.
         22    1    3    3    0    0  0.79015621282E+01  0.24509285949E+02  0.24742739942E+02  0.35711944243E+02  0.00000000000E+00 0. -1.
         22    1    3    3    0    0 -0.54733933253E+02  0.11217946323E+03  0.89523594310E+03  0.90389569599E+03  0.00000000000E+00 0. -1.
</event>
<event>
 7    1  0.5194496E-006  0.6265616E+02  0.7818608E-02  0.1495879E+00
          2   -1    0    0  502    0  0.00000000000E+00  0.00000000000E+00  0.53454658581E+03  0.53454658581E+03  0.00000000000E+00 0. -1.
          1   -1    0    0  501    0 -0.00000000000E+00 -0.00000000000E+00 -0.78505090041E+02  0.78505090041E+02  0.00000000000E+00 0. -1.
         25    2    1    2    0    0 -0.36804816670E+02 -0.75076309381E+02  0.10272207104E+03  0.18212114326E+03  0.12500096073E+03 0.  0.
          2    1    1    2  501    0  0.15311764782E+02  0.57463324975E+02 -0.15187765137E+02  0.61377129843E+02  0.00000000000E+00 0. -1.
          1    1    1    2  502    0  0.21493051888E+02  0.17612984406E+02  0.36850718986E+03  0.36955340274E+03  0.00000000000E+00 0. -1.
         22    1    3    3    0    0  0.27499312892E+02 -0.67581747726E+02  0.17382745341E+02  0.75004431008E+02  0.00000000000E+00 0.  1.
         22    1    3    3    0    0 -0.64304129563E+02 -0.74945616545E+01  0.85339325702E+02  0.10711671226E+03  0.00000000000E+00 0.  1.
</event>
<event>
 7    1  0.5194496E-006  0.2452345E+03  0.7818608E-02  0.1250025E+00
          2   -1    0    0  502    0  0.00000000000E+00  0.00000000000E+00  0.15989842595E+04  0.15989842595E+04  0.00000000000E+00 0. -1.
          1   -1    0    0  501    0 -0.00000000000E+00 -0.00000000000E+00 -0.53166286922E+03  0.53166286922E+03  0.00000000000E+00 0. -1.
         25    2    1    2    0    0 -0.11708008362E+03  0.24196035188E+03  0.10721755519E+04  0.11124047846E+04  0.12502572871E+03 0.  0.
          2    1    1    2  501    0  0.62571867583E+02 -0.23659604081E+03 -0.48061646812E+03  0.53933766285E+03  0.00000000000E+00 0. -1.
          1    1    1    2  502    0  0.54508216040E+02 -0.53643110735E+01  0.47576230651E+03  0.47890468127E+03  0.00000000000E+00 0. -1.
         22    1    3    3    0    0 -0.18708612356E+02  0.24815643773E+01  0.24345660538E+03  0.24418699605E+03  0.00000000000E+00 0. -1.
         22    1    3    3    0    0 -0.98371471267E+02  0.23947878751E+03  0.82871894652E+03  0.86821778854E+03  0.00000000000E+00 0. -1.
</event>
<event>
 7    1  0.5194496E-006  0.6877765E+02  0.7818608E-02  0.1464194E+00
          2   -1    0    0  502    0  0.00000000000E+00  0.00000000000E+00  0.26655609759E+04  0.26655609759E+04  0.00000000000E+00 0. -1.
          1   -1    0    0  501    0 -0.00000000000E+00 -0.00000000000E+00 -0.70367443121E+02  0.70367443121E+02  0.00000000000E+00 0. -1.
         25    2    1    2    0    0  0.31022641273E+02 -0.81561732103E+02  0.20460207994E+04  0.20516921384E+04  0.12499919535E+03 0.  0.
          2    1    1    2  501    0 -0.44023193440E+02  0.52688920838E+02 -0.49552963375E+02  0.84673845542E+02  0.00000000000E+00 0. -1.
          1    1    1    2  502    0  0.13000552167E+02  0.28872811265E+02  0.59872569677E+03  0.59956243508E+03  0.00000000000E+00 0. -1.
         22    1    3    3    0    0  0.10671547510E+02 -0.11039149437E+03  0.17620846823E+04  0.17655714632E+04  0.00000000000E+00 0. -1.
         22    1    3    3    0    0  0.20351093763E+02  0.28829762268E+02  0.28393611708E+03  0.28612067522E+03  0.00000000000E+00 0. -1.
</event>
<event>
 7    1  0.5194496E-006  0.8661482E+02  0.7818608E-02  0.1412061E+00
          2   -1    0    0  502    0  0.00000000000E+00  0.00000000000E+00  0.73060670480E+03  0.73060670480E+03  0.00000000000E+00 0. -1.
          1   -1    0    0  501    0 -0.00000000000E+00 -0.00000000000E+00 -0.51886737497E+03  0.51886737497E+03  0.00000000000E+00 0. -1.
         25    2    1    2    0    0 -0.71993141349E+01 -0.12030359214E+03  0.40055150327E+03  0.43656892580E+03  0.12500454311E+03 0.  0.
          2    1    1    2  501    0 -0.71629447632E+01  0.86025965213E+02 -0.49601085858E+03  0.50346652947E+03  0.00000000000E+00 0. -1.
          1    1    1    2  502    0  0.14362258898E+02  0.34277626932E+02  0.30719868513E+03  0.30943862451E+03  0.00000000000E+00 0. -1.
         22    1    3    3    0    0  0.38043790600E+02 -0.52935721837E+02  0.30175958174E+03  0.30872053029E+03  0.00000000000E+00 0. -1.
         22    1    3    3    0    0 -0.45243104735E+02 -0.67367870308E+02  0.98791921522E+02  0.12784839551E+03  0.00000000000E+00 0. -1.
</event>
<event>
 7    1  0.5194496E-006  0.1180323E+03  0.7818608E-02  0.1306278E+00
          2   -1    0    0  502    0  0.00000000000E+00  0.00000000000E+00  0.16275908963E+04  0.16275908963E+04  0.00000000000E+00 0. -1.
          1   -1    0    0  501    0 -0.00000000000E+00 -0.00000000000E+00 -0.51262268903E+03  0.51262268903E+03  0.00000000000E+00 0. -1.
         25    2    1    2    0    0  0.67358109507E+00  0.18030842492E+03 -0.16573681187E+03  0.27496245857E+03  0.12499632397E+03 0.  0.
          2    1    1    2  501    0  0.17196465896E+02 -0.64245125421E+02 -0.28626395742E+03  0.29388808736E+03  0.00000000000E+00 0. -1.
          1    1    1    2  502    0 -0.17870046991E+02 -0.11606329950E+03  0.15669689766E+04  0.15713630394E+04  0.00000000000E+00 0. -1.
         22    1    3    3    0    0  0.14986523059E+01  0.19888172104E+03 -0.16071141403E+03  0.25570362438E+03  0.00000000000E+00 0.  1.
         22    1    3    3    0    0 -0.82507121079E+00 -0.18573296114E+02 -0.50253978327E+01  0.19258834191E+02  0.00000000000E+00 0.  1.
</event>
<event>
 7    1  0.5194496E-006  0.6789079E+02  0.7818608E-02  0.1368569E+00
          2   -1    0    0  502    0  0.00000000000E+00  0.00000000000E+00  0.18882177497E+03  0.18882177497E+03  0.00000000000E+00 0. -1.
          1   -1    0    0  501    0 -0.00000000000E+00 -0.00000000000E+00 -0.29037398313E+03  0.29037398313E+03  0.00000000000E+00 0. -1.
         25    2    1    2    0    0 -0.50459404469E+02  0.32654694061E+01  0.96393769471E+01  0.13518356045E+03  0.12499945055E+03 0.  0.
          2    1    1    2  501    0  0.25110022090E+02 -0.66246166530E+02 -0.21140908707E+03  0.22296383089E+03  0.00000000000E+00 0. -1.
          1    1    1    2  502    0  0.25349382379E+02  0.62980697124E+02  0.10021750196E+03  0.12104836677E+03  0.00000000000E+00 0. -1.
         22    1    3    3    0    0 -0.35517793043E+02  0.52556530985E+02 -0.30020306284E+02  0.70177783958E+02  0.00000000000E+00 0. -1.
         22    1    3    3    0    0 -0.14941611426E+02 -0.49291061579E+02  0.39659683231E+02  0.65005776494E+02  0.00000000000E+00 0. -1.
</event>
<event>
 7    1  0.5194496E-006  0.1793625E+03  0.7818608E-02  0.1239810E+00
          2   -1    0    0  502    0  0.00000000000E+00  0.00000000000E+00  0.27858875210E+03  0.27858875210E+03  0.00000000000E+00 0. -1.
          1   -1    0    0  501    0 -0.00000000000E+00 -0.00000000000E+00 -0.93938727407E+03  0.93938727407E+03  0.00000000000E+00 0. -1.
         25    2    1    2    0    0 -0.18441513570E+02 -0.12079815162E+03 -0.14925187385E+03  0.22985226820E+03  0.12499464184E+03 0.  0.
          2    1    1    2  501    0 -0.64172897529E+02 -0.52643501521E+02 -0.70829285550E+03  0.71313972556E+03  0.00000000000E+00 0. -1.
          1    1    1    2  502    0  0.82614411099E+02  0.17344165315E+03  0.19674620737E+03  0.27498403242E+03  0.00000000000E+00 0. -1.
         22    1    3    3    0    0  0.21852374216E+02 -0.59516417810E+02 -0.14278185723E+03  0.15622544287E+03  0.00000000000E+00 0.  1.
         22    1    3    3    0    0 -0.40293887786E+02 -0.61281733815E+02 -0.64700166259E+01  0.73626825325E+02  0.00000000000E+00 0.  1.
</event>
<event>
 7    1  0.5194496E-006  0.9593657E+02  0.7818608E-02  0.1395925E+00
          2   -1    0    0  502    0  0.00000000000E+00  0.00000000000E+00  0.17103089401E+03  0.17103089401E+03  0.00000000000E+00 0. -1.
          1   -1    0    0  501    0 -0.00000000000E+00 -0.00000000000E+00 -0.24263103255E+04  0.24263103255E+04  0.00000000000E+00 0. -1.
         25    2    1    2    0    0  0.50273082785E+02 -0.59019347661E+02 -0.19239106872E+03  0.24217837869E+03  0.12500151010E+03 0.  0.
          2    1    1    2  501    0  0.35852043714E+02  0.12887943898E+02 -0.21925116674E+04  0.21928426482E+04  0.00000000000E+00 0. -1.
          1    1    1    2  502    0 -0.86125126499E+02  0.46131403763E+02  0.12962330462E+03  0.16232019261E+03  0.00000000000E+00 0. -1.
         22    1    3    3    0    0 -0.40707181824E+02 -0.33112018147E+02 -0.66676783157E+02  0.84848534519E+02  0.00000000000E+00 0. -1.
         22    1    3    3    0    0  0.90980264608E+02 -0.25907329513E+02 -0.12571428557E+03  0.15732984417E+03  0.00000000000E+00 0. -1.
</event>
<event>
 7    1  0.5194496E-006  0.7586399E+02  0.7818608E-02  0.1435968E+00
          2   -1    0    0  502    0  0.00000000000E+00  0.00000000000E+00  0.49073480493E+03  0.49073480493E+03  0.00000000000E+00 0. -1.
          1   -1    0    0  501    0 -0.00000000000E+00 -0.00000000000E+00 -0.11712327893E+04  0.11712327893E+04  0.00000000000E+00 0. -1.
         25    2    1    2    0    0 -0.10444342885E+02  0.96881804396E+02  0.25894763023E+03  0.30360026760E+03  0.12499631579E+03 0.  0.
          2    1    1    2  501    0 -0.16358767827E+02 -0.31328457555E+02 -0.11426390496E+04  0.11431854964E+04  0.00000000000E+00 0. -1.
          1    1    1    2  502    0  0.26803110712E+02 -0.65553346841E+02  0.20319343500E+03  0.21518183021E+03  0.00000000000E+00 0. -1.
         22    1    3    3    0    0  0.11002284481E+02 -0.23118845014E+02  0.12153693255E+02  0.28341551092E+02  0.00000000000E+00 0.  1.
         22    1    3    3    0    0 -0.21446627366E+02  0.12000064941E+03  0.24679393698E+03  0.27525871651E+03  0.00000000000E+00 0.  1.
</event>
<event>
 7    1  0.5194496E-006  0.6855783E+02  0.7818608E-02  0.1375448E+00
          2   -1    0    0  502    0  0.00000000000E+00  0.00000000000E+00  0.44871549381E+03  0.44871549381E+03  0.00000000000E+00 0. -1.
          1   -1    0    0  501    0 -0.00000000000E+00 -0.00000000000E+00 -0.12539144221E+04  0.12539144221E+04  0.00000000000E+00 0. -1.
         25    2    1    2    0    0 -0.95454590644E+02  0.12891620711E+02 -0.57359318118E+02  0.16791028894E+03  0.12500400393E+03 0.  0.
          2    1    1    2  501    0  0.38043955826E+02 -0.50108561620E+02 -0.11374292487E+04  0.11391679008E+04  0.00000000000E+00 0. -1.
          1    1    1    2  502    0  0.57410634818E+02  0.37216940909E+02  0.38958963847E+03  0.39555172618E+03  0.00000000000E+00 0. -1.
         22    1    3    3    0    0 -0.85770007170E+02 -0.11546588690E+02  0.17739960547E+02  0.88343217287E+02  0.00000000000E+00 0. -1.
         22    1    3    3    0    0 -0.96845834734E+01  0.24438209401E+02 -0.75099278665E+02  0.79567071655E+02  0.00000000000E+00 0. -1.
</event>
<event>
 7    1  0.5194496E-006  0.5614617E+02  0.7818608E-02  0.1515621E+00
          2   -1    0    0  502    0  0.00000000000E+00  0.00000000000E+00  0.24799405485E+04  0.24799405485E+04  0.00000000000E+00 0. -1.
          1   -1    0    0  501    0 -0.00000000000E+00 -0.00000000000E+00 -0.16121820904E+03  0.16121820904E+03  0.00000000000E+00 0. -1.
         25    2    1    2    0    0  0.61905239246E+02 -0.21365664369E+02  0.10437141772E+03  0.17552160256E+03  0.12500275944E+03 0.  0.
          2    1    1    2  501    0 -0.60222608436E+01  0.26427216096E+02 -0.12384078739E+03  0.12677226037E+03  0.00000000000E+00 0. -1.
          1    1    1    2  502    0 -0.55882978403E+02 -0.50615517272E+01  0.23381917092E+04  0.23388648947E+04  0.00000000000E+00 0. -1.
         22    1    3    3    0    0  0.46392232024E+02  0.27335645432E+02  0.11158965686E+03  0.12390209127E+03  0.00000000000E+00 0.  1.
         22    1    3    3    0    0  0.15513007222E+02 -0.48701309801E+02 -0.72182391348E+01  0.51619511288E+02  0.00000000000E+00 0.  1.
</event>
<event>
 7    1  0.5194496E-006  0.1732078E+03  0.7818608E-02  0.1310597E+00
          2   -1    0    0  502    0  0.00000000000E+00  0.00000000000E+00  0.19568047751E+03  0.19568047751E+03  0.00000000000E+00 0. -1.
          1   -1    0    0  501    0 -0.00000000000E+00 -0.00000000000E+00 -0.66730674871E+03  0.66730674871E+03  0.00000000000E+00 0. -1.
         25    2    1    2    0    0 -0.19636211105E+02 -0.14100141194E+03 -0.47337844261E+03  0.50988111427E+03  0.12499848722E+03 0.  0.
          2    1    1    2  501    0 -0.34450735677E+02 -0.26681986404E+02 -0.12740211891E+03  0.13464799103E+03  0.00000000000E+00 0. -1.
          1    1    1    2  502    0  0.54086946782E+02  0.16768339834E+03  0.12915429031E+03  0.21845812093E+03  0.00000000000E+00 0. -1.
         22    1    3    3    0    0 -0.25360591656E+02 -0.16211852348E+03 -0.37895179887E+03  0.41295283161E+03  0.00000000000E+00 0.  1.
         22    1    3    3    0    0  0.57243805510E+01  0.21117111543E+02 -0.94426643733E+02  0.96928282660E+02  0.00000000000E+00 0.  1.
</event>
<event>
 7    1  0.5194496E-006  0.3964436E+02  0.7818608E-02  0.1529760E+00
          2   -1    0    0  502    0  0.00000000000E+00  0.00000000000E+00  0.14462392874E+03  0.14462392874E+03  0.00000000000E+00 0. -1.
          1   -1    0    0  501    0 -0.00000000000E+00 -0.00000000000E+00 -0.97756068886E+03  0.97756068886E+03  0.00000000000E+00 0. -1.
         25    2    1    2    0    0 -0.81769894566E+00 -0.71416667031E+01 -0.35935455481E+03  0.38054108830E+03  0.12499660708E+03 0.  0.
          2    1    1    2  501    0 -0.29210490345E+02 -0.19164393418E+02 -0.60412433042E+03  0.60513364915E+03  0.00000000000E+00 0. -1.
          1    1    1    2  502    0  0.30028189291E+02  0.26306060121E+02  0.13054212512E+03  0.13650988016E+03  0.00000000000E+00 0. -1.
         22    1    3    3    0    0  0.50913176460E+02 -0.77410638974E+01 -0.28705872925E+03  0.29164154307E+03  0.00000000000E+00 0.  1.
         22    1    3    3    0    0 -0.51730875405E+02  0.59939719431E+00 -0.72295825565E+02  0.88899545226E+02  0.00000000000E+00 0.  1.
</event>
<event>
 7    1  0.5194496E-006  0.1224991E+03  0.7818608E-02  0.1321386E+00
          2   -1    0    0  502    0  0.00000000000E+00  0.00000000000E+00  0.34669250540E+03  0.34669250540E+03  0.00000000000E+00 0. -1.
          1   -1    0    0  501    0 -0.00000000000E+00 -0.00000000000E+00 -0.32704503488E+03  0.32704503488E+03  0.00000000000E+00 0. -1.
         25    2    1    2    0    0 -0.28824420391E+02 -0.13486645691E+03  0.89873040581E+02  0.20669326120E+03  0.12500052956E+03 0.  0.
          2    1    1    2  501    0 -0.24933187922E+02  0.11947532414E+03 -0.25030902201E+03  0.27847912567E+03  0.00000000000E+00 0. -1.
          1    1    1    2  502    0  0.53757608313E+02  0.15391132773E+02  0.18008345194E+03  0.18856515341E+03  0.00000000000E+00 0. -1.
         22    1    3    3    0    0  0.29985133293E+02 -0.72797860590E+02 -0.51052173057E+01  0.78896767797E+02  0.00000000000E+00 0. -1.
         22    1    3    3    0    0 -0.58809553685E+02 -0.62068596321E+02  0.94978257887E+02  0.12779649340E+03  0.00000000000E+00 0. -1.
</event>
<event>
 7    1  0.5194496E-006  0.8573316E+02  0.7818608E-02  0.1351232E+00
          2   -1    0    0  502    0  0.00000000000E+00  0.00000000000E+00  0.21341001072E+04  0.21341001072E+04  0.00000000000E+00 0. -1.
          1   -1    0    0  501    0 -0.00000000000E+00 -0.00000000000E+00 -0.86888743287E+03  0.86888743287E+03  0.00000000000E+00 0. -1.
         25    2    1    2    0    0  0.70105734654E+02  0.48792876817E+02  0.26847910304E+03  0.30822350396E+03  0.12500056305E+03 0.  0.
          2    1    1    2  501    0 -0.19344031055E+02 -0.83694643931E+02 -0.84632649816E+03  0.85067474774E+03  0.00000000000E+00 0. -1.
          1    1    1    2  502    0 -0.50761703598E+02  0.34901767115E+02  0.18430600694E+04  0.18440892883E+04  0.00000000000E+00 0. -1.
         22    1    3    3    0    0 -0.16824248061E+02  0.21638591137E+02  0.17710758990E+03  0.17921602146E+03  0.00000000000E+00 0.  1.
         22    1    3    3    0    0  0.86929982714E+02  0.27154285680E+02  0.91371513143E+02  0.12900748249E+03  0.00000000000E+00 0.  1.
</event>
<event>
 7    1  0.5194496E-006  0.7218620E+02  0.7818608E-02  0.1385238E+00
          2   -1    0    0  502    0  0.00000000000E+00  0.00000000000E+00  0.48910987076E+03  0.48910987076E+03  0.00000000000E+00 0. -1.
          1   -1    0    0  501    0 -0.00000000000E+00 -0.00000000000E+00 -0.87796552484E+02  0.87796552484E+02  0.00000000000E+00 0. -1.
         25    2    1    2    0    0  0.46696292348E+01  0.96100822429E+01  0.37863384114E+02  0.13104313590E+03  0.12499803395E+03 0.  0.
          2    1    1    2  501    0 -0.76287013248E+02 -0.18654319625E+02  0.33571831652E+01  0.78606378302E+02  0.00000000000E+00 0. -1.
          1    1    1    2  502    0  0.71617384013E+02  0.90442373819E+01  0.36009275100E+03  0.36725690905E+03  0.00000000000E+00 0. -1.
         22    1    3    3    0    0  0.27236371118E+02  0.19875877935E+02 -0.38252522532E+02  0.50991429823E+02  0.00000000000E+00 0.  1.
         22    1    3    3    0    0 -0.22566741883E+02 -0.10265795692E+02  0.76115906647E+02  0.80051706072E+02  0.00000000000E+00 0.  1.
</event>
<event>
 7    1  0.5194496E-006  0.1510985E+03  0.7818608E-02  0.1296233E+00
          2   -1    0    0  502    0  0.00000000000E+00  0.00000000000E+00  0.34512922488E+03  0.34512922488E+03  0.00000000000E+00 0. -1.
          1   -1    0    0  501    0 -0.00000000000E+00 -0.00000000000E+00 -0.93876549611E+03  0.93876549611E+03  0.00000000000E+00 0. -1.
         25    2    1    2    0    0 -0.14838250590E+03  0.74084342315E+02  0.10346097922E+03  0.23202779698E+03  0.12500746584E+03 0.  0.
          2    1    1    2  501    0  0.22501902016E+01 -0.56937870061E+02 -0.84284284991E+03  0.84476686373E+03  0.00000000000E+00 0. -1.
          1    1    1    2  502    0  0.14613231570E+03 -0.17146472255E+02  0.14574559947E+03  0.20710006028E+03  0.00000000000E+00 0. -1.
         22    1    3    3    0    0 -0.81645938107E+02  0.95678374875E+02  0.27722652018E+02  0.12879812135E+03  0.00000000000E+00 0. -1.
         22    1    3    3    0    0 -0.66736567797E+02 -0.21594032560E+02  0.75738327200E+02  0.10322967563E+03  0.00000000000E+00 0. -1.
</event>
<event>
 7    1  0.5194496E-006  0.7925672E+02  0.7818608E-02  0.1343943E+00
          2   -1    0    0  502    0  0.00000000000E+00  0.00000000000E+00  0.31726550290E+03  0.31726550290E+03  0.00000000000E+00 0. -1.
          1   -1    0    0  501    0 -0.00000000000E+00 -0.00000000000E+00 -0.32170937069E+03  0.32170937069E+03  0.00000000000E+00 0. -1.
         25    2    1    2    0    0 -0.68296844247E+02 -0.29873277039E+02  0.11298655080E+03  0.18424372036E+03  0.12499166458E+03 0.  0.
          2    1    1    2  501    0  0.44665025443E+02 -0.55098024470E+02 -0.26964152453E+03  0.27881411110E+03  0.00000000000E+00 0. -1.
          1    1    1    2  502    0  0.23631818804E+02  0.84971301509E+02  0.15221110594E+03  0.17591704213E+03  0.00000000000E+00 0. -1.
         22    1    3    3    0    0 -0.25789869797E+02 -0.76027916309E+02  0.80073220721E+02  0.11338907407E+03  0.00000000000E+00 0.  1.
         22    1    3    3    0    0 -0.42506974450E+02  0.46154639271E+02  0.32913330077E+02  0.70854646283E+02  0.00000000000E+00 0.  1.
</event>
<event>
 7    1  0.5194496E-006  0.1450605E+03  0.7818608E-02  0.1295872E+00
          2   -1    0    0  502    0  0.00000000000E+00  0.00000000000E+00  0.76174539243E+03  0.76174539243E+03  0.00000000000E+00 0. -1.
          1   -1    0    0  501    0 -0.00000000000E+00 -0.00000000000E+00 -0.11097159525E+03  0.11097159525E+03  0.00000000000E+00 0. -1.
         25    2    1    2    0    0  0.18142466073E+02 -0.91819181376E+02  0.50660903452E+03  0.53012986413E+03  0.12500019136E+03 0.  0.
          2    1    1    2  501    0 -0.10050794511E+02  0.15081999862E+03 -0.33829980993E+02  0.15489402206E+03  0.00000000000E+00 0. -1.
          1    1    1    2  502    0 -0.80916715621E+01 -0.59000817246E+02  0.17799474365E+03  0.18769310150E+03  0.00000000000E+00 0. -1.
         22    1    3    3    0    0 -0.42443713972E+02  0.33325432582E+01  0.11632964237E+03  0.12387558433E+03  0.00000000000E+00 0. -1.
         22    1    3    3    0    0  0.60586180046E+02 -0.95151724635E+02  0.39027939215E+03  0.40625427979E+03  0.00000000000E+00 0. -1.
</event>
<event>
 7    1  0.5194496E-006  0.5326138E+02  0.7818608E-02  0.1433325E+00
          2   -1    0    0  502    0  0.00000000000E+00  0.00000000000E+00  0.12359881550E+03  0.12359881550E+03  0.00000000000E+00 0. -1.
          1   -1    0    0  501    0 -0.00000000000E+00 -0.00000000000E+00 -0.26903567744E+03  0.26903567744E+03  0.00000000000E+00 0. -1.
         25    2    1    2    0    0  0.25232952825E+02 -0.27571882825E+02 -0.41113083576E+02  0.13680431036E+03  0.12501289158E+03 0.  0.
          2    1    1    2  501    0 -0.43613331904E+02 -0.27110412608E+02 -0.16458309285E+03  0.17240850224E+03  0.00000000000E+00 0. -1.
          1    1    1    2  502    0  0.18380379079E+02  0.54682295433E+02  0.60259314480E+02  0.83421680339E+02  0.00000000000E+00 0. -1.
         22    1    3    3    0    0  0.65341836917E+02 -0.41581998388E+02  0.33272083912E+00  0.77451461864E+02  0.00000000000E+00 0.  1.
         22    1    3    3    0    0 -0.40108884093E+02  0.14010115563E+02 -0.41445804415E+02  0.59352848498E+02  0.00000000000E+00 0.  1.
</event>
<event>
 7    1  0.5194496E-006  0.6981556E+02  0.7818608E-02  0.1517793E+00
          2   -1    0    0  502    0  0.00000000000E+00  0.00000000000E+00  0.24178918754E+04  0.24178918754E+04  0.00000000000E+00 0. -1.
          1   -1    0    0  501    0 -0.00000000000E+00 -0.00000000000E+00 -0.10324818248E+04  0.10324818248E+04  0.00000000000E+00 0. -1.
         25    2    1    2    0    0 -0.81470480923E+02 -0.12073571797E+02  0.25633457641E+03  0.29684167361E+03  0.12499741489E+03 0.  0.
          2    1    1    2  501    0  0.16784671043E+02 -0.13407323663E+02 -0.10115498850E+04  0.10117779654E+04  0.00000000000E+00 0. -1.
          1    1    1    2  502    0  0.64685809880E+02  0.25480895461E+02  0.21406253592E+04  0.21417540611E+04  0.00000000000E+00 0. -1.
         22    1    3    3    0    0  0.13277708800E+02 -0.30808645317E+02  0.14714503501E+02  0.36633137874E+02  0.00000000000E+00 0.  1.
         22    1    3    3    0    0 -0.94748189722E+02  0.18735073520E+02  0.24162007291E+03  0.26020853573E+03  0.00000000000E+00 0.  1.
</event>
<event>
 7    1  0.5194496E-006  0.2271390E+03  0.7818608E-02  0.1323461E+00
          2   -1    0    0  502    0  0.00000000000E+00  0.00000000000E+00  0.68148460402E+03  0.68148460402E+03  0.00000000000E+00 0. -1.
          1   -1    0    0  501    0 -0.00000000000E+00 -0.00000000000E+00 -0.74060772109E+03  0.74060772109E+03  0.00000000000E+00 0. -1.
         25    2    1    2    0    0 -0.13539895898E+03  0.18670200485E+03  0.11563539368E+03  0.28668224203E+03  0.12499858765E+03 0.  0.
          2    1    1    2  501    0  0.15569315007E+03 -0.16514698375E+03 -0.63493508455E+03  0.67428217002E+03  0.00000000000E+00 0. -1.
          1    1    1    2  502    0 -0.20294191085E+02 -0.21555021104E+02  0.46017657380E+03  0.46112791306E+03  0.00000000000E+00 0. -1.
         22    1    3    3    0    0 -0.10811861989E+03  0.19332286863E+03  0.12819938265E+03  0.25592664811E+03  0.00000000000E+00 0.  1.
         22    1    3    3    0    0 -0.27280339098E+02 -0.66208637768E+01 -0.12563988972E+02  0.30755593920E+02  0.00000000000E+00 0.  1.
</event>
<event>
 7    1  0.5194496E-006  0.6636585E+02  0.7818608E-02  0.1398800E+00
          2   -1    0    0  502    0  0.00000000000E+00  0.00000000000E+00  0.88347919363E+03  0.88347919363E+03  0.00000000000E+00 0. -1.
          1   -1    0    0  501    0 -0.00000000000E+00 -0.00000000000E+00 -0.41284670659E+03  0.41284670659E+03  0.00000000000E+00 0. -1.
         25    2    1    2    0    0 -0.40851801520E+02  0.34544809267E+02 -0.14081592169E+03  0.19573795649E+03  0.12498804053E+03 0.  0.
          2    1    1    2  501    0  0.71228955837E+02  0.98945406897E+01 -0.23841347987E+03  0.24902299787E+03  0.00000000000E+00 0. -1.
          1    1    1    2  502    0 -0.30377154317E+02 -0.44439349957E+02  0.84986188860E+03  0.85156494587E+03  0.00000000000E+00 0. -1.
         22    1    3    3    0    0 -0.55555817385E+02 -0.32756262381E+02 -0.87120808382E+02  0.10839491143E+03  0.00000000000E+00 0. -1.
         22    1    3    3    0    0  0.14704015865E+02  0.67301071648E+02 -0.53695113312E+02  0.87343045064E+02  0.00000000000E+00 0. -1.
</event>
<event>
 7    1  0.5194496E-006  0.8285413E+02  0.7818608E-02  0.1457021E+00
          2   -1    0    0  502    0  0.00000000000E+00  0.00000000000E+00  0.22465153370E+04  0.22465153370E+04  0.00000000000E+00 0. -1.
          1   -1    0    0  501    0 -0.00000000000E+00 -0.00000000000E+00 -0.33382020626E+03  0.33382020626E+03  0.00000000000E+00 0. -1.
         25    2    1    2    0    0  0.72245451880E+02  0.13370251442E+02  0.67765460426E+03  0.69298849290E+03  0.12497647650E+03 0.  0.
          2    1    1    2  501    0 -0.82003869054E+02  0.12542912068E+02 -0.32075297855E+03  0.33130715723E+03  0.00000000000E+00 0. -1.
          1    1    1    2  502    0  0.97584171738E+01 -0.25913163510E+02  0.15557935050E+04  0.15560398931E+04  0.00000000000E+00 0. -1.
         22    1    3    3    0    0  0.10192388904E+03 -0.16039065920E+02  0.47802877095E+03  0.48903705038E+03  0.00000000000E+00 0. -1.
         22    1    3    3    0    0 -0.29678437163E+02  0.29409317362E+02  0.19962583331E+03  0.20395144252E+03  0.00000000000E+00 0. -1.
</event>
<event>
 7    1  0.5194496E-006  0.8151808E+02  0.7818608E-02  0.1380009E+00
          2   -1    0    0  502    0  0.00000000000E+00  0.00000000000E+00  0.71436723548E+02  0.71436723548E+02  0.00000000000E+00 0. -1.
          1   -1    0    0  501    0 -0.00000000000E+00 -0.00000000000E+00 -0.91234524536E+03  0.91234524536E+03  0.00000000000E+00 0. -1.
         25    2    1    2    0    0 -0.36782398299E+02 -0.22714175247E+02 -0.46719592806E+02  0.14027527962E+03  0.12500222053E+03 0.  0.
          2    1    1    2  501    0  0.39625225404E+02  0.73608274718E+02 -0.78769815878E+03  0.79212166108E+03  0.00000000000E+00 0. -1.
          1    1    1    2  502    0 -0.28428271043E+01 -0.50894099472E+02 -0.64907702281E+01  0.51385028220E+02  0.00000000000E+00 0. -1.
         22    1    3    3    0    0 -0.41571829275E+02 -0.39954635864E+02  0.27534053786E+02  0.63896119085E+02  0.00000000000E+00 0. -1.
         22    1    3    3    0    0  0.47894309762E+01  0.17240460617E+02 -0.74253646592E+02  0.76379160532E+02  0.00000000000E+00 0. -1.
</event>
<event>
 7    1  0.5194496E-006  0.8894879E+02  0.7818608E-02  0.1336803E+00
          2   -1    0    0  502    0  0.00000000000E+00  0.00000000000E+00  0.38099432619E+03  0.38099432619E+03  0.00000000000E+00 0. -1.
          1   -1    0    0  501    0 -0.00000000000E+00 -0.00000000000E+00 -0.38063901327E+03  0.38063901327E+03  0.00000000000E+00 0. -1.
         25    2    1    2    0    0  0.39813148321E+02 -0.11702640661E+02  0.43531846782E+02  0.13871685694E+03  0.12500122454E+03 0.  0.
          2    1    1    2  501    0 -0.50725887877E+02  0.78040712099E+02 -0.32247575945E+03  0.33563981271E+03  0.00000000000E+00 0. -1.
          1    1    1    2  502    0  0.10912739556E+02 -0.66338071437E+02  0.27929922558E+03  0.28727666981E+03  0.00000000000E+00 0. -1.
         22    1    3    3    0    0  0.64495011628E+02  0.11998218860E+02 -0.18249002319E+02  0.68092509620E+02  0.00000000000E+00 0.  1.
         22    1    3    3    0    0 -0.24681863307E+02 -0.23700859521E+02  0.61780849101E+02  0.70624347317E+02  0.00000000000E+00 0.  1.
</event>
<event>
 7    1  0.5194496E-006  0.5609470E+02  0.7818608E-02  0.1440839E+00
          2   -1    0    0  502    0  0.00000000000E+00  0.00000000000E+00  0.26946770406E+04  0.26946770406E+04  0.00000000000E+00 0. -1.
          1   -1    0    0  501    0 -0.00000000000E+00 -0.00000000000E+00 -0.36931134029E+02  0.36931134029E+02  0.00000000000E+00 0. -1.
         25    2    1    2    0    0  0.10721294999E+02 -0.51667495601E+02  0.89412537747E+03  0.90436122800E+03  0.12499825518E+03 0.  0.
          2    1    1    2  501    0 -0.45756874047E+02  0.54944097147E+01 -0.14399257476E+02  0.48282695415E+02  0.00000000000E+00 0. -1.
          1    1    1    2  502    0  0.35035579049E+02  0.46173085886E+02  0.17780197865E+04  0.17789642512E+04  0.00000000000E+00 0. -1.
         22    1    3    3    0    0  0.41304731509E+02  0.21806965274E+02  0.50656524664E+03  0.50871403920E+03  0.00000000000E+00 0. -1.
         22    1    3    3    0    0 -0.30583436510E+02 -0.73474460875E+02  0.38756013083E+03  0.39564718880E+03  0.00000000000E+00 0. -1.
</event>
<event>
 7    1  0.5194496E-006  0.9016730E+02  0.7818608E-02  0.1389229E+00
          2   -1    0    0  502    0  0.00000000000E+00  0.00000000000E+00  0.43524538669E+03  0.43524538669E+03  0.00000000000E+00 0. -1.
          1   -1    0    0  501    0 -0.00000000000E+00 -0.00000000000E+00 -0.30213938644E+03  0.30213938644E+03  0.00000000000E+00 0. -1.
         25    2    1    2    0    0  0.10350116363E+03 -0.69596117713E+02  0.75028186555E+02  0.19186218496E+03  0.12500303503E+03 0.  0.
          2    1    1    2  501    0 -0.61153569896E+02  0.63615810429E+02 -0.23412714619E+03  0.25020441849E+03  0.00000000000E+00 0. -1.
          1    1    1    2  502    0 -0.42347593731E+02  0.59803072845E+01  0.29220495988E+03  0.29531816969E+03  0.00000000000E+00 0. -1.
         22    1    3    3    0    0  0.12370544600E+03 -0.82998256237E+02  0.50301823129E+02  0.15723238000E+03  0.00000000000E+00 0.  1.
         22    1    3    3    0    0 -0.20204282376E+02  0.13402138524E+02  0.24726363426E+02  0.34629804961E+02  0.00000000000E+00 0.  1.
</event>
<event>
 7    1  0.5194496E-006  0.4789089E+02  0.7818608E-02  0.1528016E+00
          2   -1    0    0  502    0  0.00000000000E+00  0.00000000000E+00  0.45618365974E+03  0.45618365974E+03  0.00000000000E+00 0. -1.
          1   -1    0    0  501    0 -0.00000000000E+00 -0.00000000000E+00 -0.51689563448E+03  0.51689563448E+03  0.00000000000E+00 0. -1.
         25    2    1    2    0    0 -0.20104523938E+02 -0.34239062876E+02 -0.16915407166E+03  0.21404489230E+03  0.12500244257E+03 0.  0.
          2    1    1    2  501    0  0.26005656932E+02 -0.13401188468E+02 -0.32330542126E+03  0.32462637210E+03  0.00000000000E+00 0. -1.
          1    1    1    2  502    0 -0.59011329935E+01  0.47640251345E+02  0.43174751818E+03  0.43440802982E+03  0.00000000000E+00 0. -1.
         22    1    3    3    0    0 -0.11077059373E+02 -0.31307836552E+02  0.99665643627E+01  0.34672961788E+02  0.00000000000E+00 0. -1.
         22    1    3    3    0    0 -0.90274645653E+01 -0.29312263243E+01 -0.17912063602E+03  0.17937193051E+03  0.00000000000E+00 0. -1.
</event>
<event>
 7    1  0.5194496E-006  0.1011772E+03  0.7818608E-02  0.1379468E+00
          2   -1    0    0  502    0  0.00000000000E+00  0.00000000000E+00  0.96454990675E+03  0.96454990675E+03  0.00000000000E+00 0. -1.
          1   -1    0    0  501    0 -0.00000000000E+00 -0.00000000000E+00 -0.20203872718E+03  0.20203872718E+03  0.00000000000E+00 0. -1.
         25    2    1    2    0    0  0.77632145417E+02  0.10043993202E+00 -0.85091534466E+01  0.14737006351E+03  0.12497507686E+03 0.  0.
          2    1    1    2  501    0  0.17524927971E+02  0.37343379847E+02 -0.11765612402E+03  0.12467804393E+03  0.00000000000E+00 0. -1.
          1    1    1    2  502    0 -0.95157073388E+02 -0.37443819779E+02  0.88867645703E+03  0.89454052649E+03  0.00000000000E+00 0. -1.
         22    1    3    3    0    0  0.32934419107E+02  0.29568051957E+02  0.50863417409E+02  0.67424275220E+02  0.00000000000E+00 0. -1.
         22    1    3    3    0    0  0.44697726311E+02 -0.29467612025E+02 -0.59372570855E+02  0.79945788293E+02  0.00000000000E+00 0. -1.
</event>
<event>
 7    1  0.5194496E-006  0.2511670E+03  0.7818608E-02  0.1218560E+00
          2   -1    0    0  502    0  0.00000000000E+00  0.00000000000E+00  0.10842520996E+04  0.10842520996E+04  0.00000000000E+00 0. -1.
          1   -1    0    0  501    0 -0.00000000000E+00 -0.00000000000E+00 -0.31845680970E+04  0.31845680970E+04  0.00000000000E+00 0. -1.
         25    2    1    2    0    0  0.17989685397E+01  0.21400158073E+03 -0.58374923965E+03  0.63418429083E+03  0.12500650821E+03 0.  0.
          2    1    1    2  501    0 -0.63540809052E+02 -0.25449877217E+03 -0.25676240224E+04  0.25809882177E+04  0.00000000000E+00 0. -1.
          1    1    1    2  502    0  0.61741840513E+02  0.40497191439E+02  0.10510572645E+04  0.10536476881E+04  0.00000000000E+00 0. -1.
         22    1    3    3    0    0  0.51798080110E+02  0.36353363920E+02 -0.15173799123E+03  0.16440506730E+03  0.00000000000E+00 0. -1.
         22    1    3    3    0    0 -0.49999111571E+02  0.17764821681E+03 -0.43201124842E+03  0.46977922353E+03  0.00000000000E+00 0. -1.
</event>
<event>
 7    1  0.5194496E-006  0.7000730E+02  0.7818608E-02  0.1386863E+00
          2   -1    0    0  502    0  0.00000000000E+00  0.00000000000E+00  0.11885012300E+04  0.11885012300E+04  0.00000000000E+00 0. -1.
          1   -1    0    0  501    0 -0.00000000000E+00 -0.00000000000E+00 -0.11069935237E+04  0.11069935237E+04  0.00000000000E+00 0. -1.
         25    2    1    2    0    0  0.10654432590E+03  0.48964929206E+01  0.15484581069E+03  0.22577448837E+03  0.12498490103E+03 0.  0.
          2    1    1    2  501    0 -0.59841004292E+02 -0.36056457566E+02 -0.10695991816E+04  0.10718784555E+04  0.00000000000E+00 0. -1.
          1    1    1    2  502    0 -0.46703321611E+02  0.31159964645E+02  0.99626107717E+03  0.99784180987E+03  0.00000000000E+00 0. -1.
         22    1    3    3    0    0  0.95671894207E+02 -0.50157498035E+02  0.10668971437E+03  0.15182747151E+03  0.00000000000E+00 0.  1.
         22    1    3    3    0    0  0.10872431696E+02  0.55053990956E+02  0.48156096315E+02  0.73947016867E+02  0.00000000000E+00 0.  1.
</event>
<event>
 7    1  0.5194496E-006  0.1832012E+03  0.7818608E-02  0.1266845E+00
          2   -1    0    0  502    0  0.00000000000E+00  0.00000000000E+00  0.36422671947E+03  0.36422671947E+03  0.00000000000E+00 0. -1.
          1   -1    0    0  501    0 -0.00000000000E+00 -0.00000000000E+00 -0.17046285133E+04  0.17046285133E+04  0.00000000000E+00 0. -1.
         25    2    1    2    0    0 -0.36516340653E+01  0.22666039098E+03 -0.38117108136E+03  0.46076554561E+03  0.12500090994E+03 0.  0.
          2    1    1    2  501    0  0.35625642111E+02 -0.17340006033E+03 -0.12745119143E+04  0.12867468232E+04  0.00000000000E+00 0. -1.
          1    1    1    2  502    0 -0.31974008046E+02 -0.53260330653E+02  0.31528120182E+03  0.32134286398E+03  0.00000000000E+00 0. -1.
         22    1    3    3    0    0 -0.33733742810E+02  0.44778736715E+01 -0.40011455196E+02  0.52525549055E+02  0.00000000000E+00 0. -1.
         22    1    3    3    0    0  0.30082108745E+02  0.22218251731E+03 -0.34115962616E+03  0.40823999656E+03  0.00000000000E+00 0. -1.
</event>
<event>
 7    1  0.5194496E-006  0.3655389E+02  0.7818608E-02  0.1568662E+00
          2   -1    0    0  502    0  0.00000000000E+00  0.00000000000E+00  0.14770489303E+04  0.14770489303E+04  0.00000000000E+00 0. -1.
          1   -1    0    0  501    0 -0.00000000000E+00 -0.00000000000E+00 -0.79379312189E+02  0.79379312189E+02  0.00000000000E+00 0. -1.
         25    2    1    2    0    0  0.15029670630E+02  0.50884276604E+01  0.41502957633E+03  0.43373769965E+03  0.12500823882E+03 0.  0.
          2    1    1    2  501    0  0.17459952950E+02 -0.23782795188E+02 -0.66567938303E+02  0.72813197388E+02  0.00000000000E+00 0. -1.
          1    1    1    2  502    0 -0.32489623580E+02  0.18694367527E+02  0.10492079800E+04  0.10498773454E+04  0.00000000000E+00 0. -1.
         22    1    3    3    0    0  0.12451878906E+02 -0.39783135550E+02  0.46389221458E+02  0.62367515823E+02  0.00000000000E+00 0. -1.
         22    1    3    3    0    0  0.25777917232E+01  0.44871563211E+02  0.36864035487E+03  0.37137018382E+03  0.00000000000E+00 0. -1.
</event>
<event>
 7    1  0.5194496E-006  0.1051267E+03  0.7818608E-02  0.1290510E+00
          2   -1    0    0  502    0  0.00000000000E+00  0.00000000000E+00  0.31004730457E+04  0.31004730457E+04  0.00000000000E+00 0. -1.
          1   -1    0    0  501    0 -0.00000000000E+00 -0.00000000000E+00 -0.43607773327E+03  0.43607773327E+03  0.00000000000E+00 0. -1.
         25    2    1    2    0    0 -0.12516866914E+03  0.77786776247E+02 -0.67787114111E+02  0.20478586332E+03  0.12499671468E+03 0.  0.
          2    1    1    2  501    0  0.10246922808E+03  0.55628312068E+01 -0.29037417806E+03  0.30797410780E+03  0.00000000000E+00 0. -1.
          1    1    1    2  502    0  0.22699441056E+02 -0.83349607454E+02  0.30225566046E+04  0.30237908079E+04  0.00000000000E+00 0. -1.
         22    1    3    3    0    0 -0.51752339590E+02  0.97874822141E+02 -0.65494536065E+02  0.12863638566E+03  0.00000000000E+00 0.  1.
         22    1    3    3    0    0 -0.73416329551E+02 -0.20088045894E+02 -0.22925780460E+01  0.76149477652E+02  0.00000000000E+00 0.  1.
</event>
<event>
 7    1  0.5194496E-006  0.5343723E+02  0.7818608E-02  0.1560371E+00
          2   -1    0    0  502    0  0.00000000000E+00  0.00000000000E+00  0.82662396352E+03  0.82662396352E+03  0.00000000000E+00 0. -1.
          1   -1    0    0  501    0 -0.00000000000E+00 -0.00000000000E+00 -0.50673645002E+03  0.50673645002E+03  0.00000000000E+00 0. -1.
         25    2    1    2    0    0 -0.49354311035E+02  0.47199094646E+02  0.58561102598E+02  0.15400709845E+03  0.12500072433E+03 0.  0.
          2    1    1    2  501    0  0.30580770079E+01 -0.21043422278E+02 -0.45778501725E+03  0.45827862646E+03  0.00000000000E+00 0. -1.
          1    1    1    2  502    0  0.46296234027E+02 -0.26155672368E+02  0.71911142815E+03  0.72107468863E+03  0.00000000000E+00 0. -1.
         22    1    3    3    0    0 -0.12534728213E+02  0.86742062262E+02  0.28408859427E+02  0.92132339983E+02  0.00000000000E+00 0. -1.
         22    1    3    3    0    0 -0.36819582822E+02 -0.39542967616E+02  0.30152243171E+02  0.61874758467E+02  0.00000000000E+00 0. -1.
</event>
<event>
 7    1  0.5194496E-006  0.1208922E+03  0.7818608E-02  0.1312939E+00
          2   -1    0    0  502    0  0.00000000000E+00  0.00000000000E+00  0.27081333994E+04  0.27081333994E+04  0.00000000000E+00 0. -1.
          1   -1    0    0  501    0 -0.00000000000E+00 -0.00000000000E+00 -0.53437135807E+03  0.53437135807E+03  0.00000000000E+00 0. -1.
         25    2    1    2    0    0 -0.55676500621E+02 -0.12315964272E+03  0.17680645456E+03  0.25525223537E+03  0.12500004387E+03 0.  0.
          2    1    1    2  501    0 -0.53993246935E+01  0.12076576376E+03 -0.48738861206E+03  0.50215653094E+03  0.00000000000E+00 0. -1.
          1    1    1    2  502    0  0.61075825315E+02  0.23938789677E+01  0.24843441988E+04  0.24850959911E+04  0.00000000000E+00 0. -1.
         22    1    3    3    0    0 -0.62185602692E+02 -0.10566272933E+03  0.19424790105E+03  0.22970395864E+03  0.00000000000E+00 0. -1.
         22    1    3    3    0    0  0.65091020713E+01 -0.17496913395E+02 -0.17441446489E+02  0.25548276728E+02  0.00000000000E+00 0. -1.
</event>
<event>
 7    1  0.5194496E-006  0.7269780E+02  0.7818608E-02  0.1446463E+00
          2   -1    0    0  502    0  0.00000000000E+00  0.00000000000E+00  0.11369324820E+04  0.11369324820E+04  0.00000000000E+00 0. -1.
          1   -1    0    0  501    0 -0.00000000000E+00 -0.00000000000E+00 -0.28836979507E+03  0.28836979507E+03  0.00000000000E+00 0. -1.
         25    2    1    2    0    0 -0.40870893113E+02  0.50999715286E+02  0.39587005910E+03  0.42025191312E+03  0.12500866342E+03 0.  0.
          2    1    1    2  501    0  0.25784867325E+02  0.22321600665E+02 -0.27319380296E+03  0.27531430623E+03  0.00000000000E+00 0. -1.
          1    1    1    2  502    0  0.15086025788E+02 -0.73321315951E+02  0.72588643077E+03  0.72973605771E+03  0.00000000000E+00 0. -1.
         22    1    3    3    0    0  0.78735908112E+01 -0.38284289674E+02  0.12147844311E+03  0.12761149011E+03  0.00000000000E+00 0. -1.
         22    1    3    3    0    0 -0.48744483924E+02  0.89284004960E+02  0.27439161599E+03  0.29264042301E+03  0.00000000000E+00 0. -1.
</event>
<event>
 7    1  0.5194496E-006  0.3848917E+02  0.7818608E-02  0.1527309E+00
          2   -1    0    0  502    0  0.00000000000E+00  0.00000000000E+00  0.23716164065E+04  0.23716164065E+04  0.00000000000E+00 0. -1.
          1   -1    0    0  501    0 -0.00000000000E+00 -0.00000000000E+00 -0.12096566014E+02  0.12096566014E+02  0.00000000000E+00 0. -1.
         25    2    1    2    0    0 -0.32816473937E+01  0.72402311817E+02  0.13655556389E+04  0.13731788226E+04  0.12500004779E+03 0.  0.
          2    1    1    2  501    0 -0.58253032489E+01 -0.36981850543E+02  0.36217200007E+02  0.52089125582E+02  0.00000000000E+00 0. -1.
          1    1    1    2  502    0  0.91069506426E+01 -0.35420461274E+02  0.95774700163E+03  0.95844502438E+03  0.00000000000E+00 0. -1.
         22    1    3    3    0    0 -0.57244320647E+02  0.67001052969E+02  0.72627695904E+03  0.73160390553E+03  0.00000000000E+00 0.  1.
         22    1    3    3    0    0  0.53962673254E+02  0.54012588479E+01  0.63927867981E+03  0.64157491703E+03  0.00000000000E+00 0.  1.
</event>
<event>
 7    1  0.5194496E-006  0.5141828E+02  0.7818608E-02  0.1465080E+00
          2   -1    0    0  502    0  0.00000000000E+00  0.00000000000E+00  0.45740232258E+03  0.45740232258E+03  0.00000000000E+00 0. -1.
          1   -1    0    0  501    0 -0.00000000000E+00 -0.00000000000E+00 -0.18494871315E+04  0.18494871315E+04  0.00000000000E+00 0. -1.
         25    2    1    2    0    0 -0.16232403471E+02  0.60265008373E+01  0.43375258340E+02  0.13343875532E+03  0.12499871500E+03 0.  0.
          2    1    1    2  501    0 -0.32741288190E+02 -0.26441731794E+02 -0.18023011219E+04  0.18027924148E+04  0.00000000000E+00 0. -1.
          1    1    1    2  502    0  0.48973691661E+02  0.20415230956E+02  0.36684105457E+03  0.37065828394E+03  0.00000000000E+00 0. -1.
         22    1    3    3    0    0 -0.23463899094E+02  0.96150918317E+01 -0.41254641191E+02  0.48424683493E+02  0.00000000000E+00 0.  1.
         22    1    3    3    0    0  0.72314956230E+01 -0.35885909944E+01  0.84629899531E+02  0.85014071829E+02  0.00000000000E+00 0.  1.
</event>
<event>
 7    1  0.5194496E-006  0.2455140E+03  0.7818608E-02  0.1189500E+00
          2   -1    0    0  502    0  0.00000000000E+00  0.00000000000E+00  0.27023051454E+04  0.27023051454E+04  0.00000000000E+00 0. -1.
          1   -1    0    0  501    0 -0.00000000000E+00 -0.00000000000E+00 -0.34631639900E+03  0.34631639900E+03  0.00000000000E+00 0. -1.
         25    2    1    2    0    0  0.23656896683E+03  0.23708622788E+03  0.30331481362E+03  0.46882757762E+03  0.12499866341E+03 0.  0.
          2    1    1    2  501    0 -0.15260496635E+03 -0.17682920021E+03 -0.21039820707E+03  0.31436324108E+03  0.00000000000E+00 0. -1.
          1    1    1    2  502    0 -0.83964000479E+02 -0.60257027671E+02  0.22630721398E+04  0.22654307257E+04  0.00000000000E+00 0. -1.
         22    1    3    3    0    0  0.42379146188E+01  0.64942369617E+02  0.32876049765E+02  0.72913002543E+02  0.00000000000E+00 0. -1.
         22    1    3    3    0    0  0.23233105221E+03  0.17214385826E+03  0.27043876386E+03  0.39591457507E+03  0.00000000000E+00 0. -1.
</event>
<event>
 7    1  0.5194496E-006  0.4432649E+02  0.7818608E-02  0.1499590E+00
          2   -1    0    0  502    0  0.00000000000E+00  0.00000000000E+00  0.37676523135E+03  0.37676523135E+03  0.00000000000E+00 0. -1.
          1   -1    0    0  501    0 -0.00000000000E+00 -0.00000000000E+00 -0.22823672951E+04  0.22823672951E+04  0.00000000000E+00 0. -1.
         25    2    1    2    0    0  0.67135289107E+02 -0.13248133723E+01 -0.95020967204E+01  0.14221636057E+03  0.12500520468E+03 0.  0.
          2    1    1    2  501    0 -0.36783238954E+02  0.24661763550E+02 -0.22051043028E+04  0.22055489556E+04  0.00000000000E+00 0. -1.
          1    1    1    2  502    0 -0.30352050153E+02 -0.23336950178E+02  0.30900433572E+03  0.31136721035E+03  0.00000000000E+00 0. -1.
         22    1    3    3    0    0  0.26770651269E+02 -0.53790685431E+02 -0.36970249128E+02  0.70547182290E+02  0.00000000000E+00 0. -1.
         22    1    3    3    0    0  0.40364637838E+02  0.52465872059E+02  0.27468152407E+02  0.71669178280E+02  0.00000000000E+00 0. -1.
</event>
<event>
 7    1  0.5194496E-006  0.1371526E+03  0.7818608E-02  0.1253613E+00
          2   -1    0    0  502    0  0.00000000000E+00  0.00000000000E+00  0.20049576248E+04  0.20049576248E+04  0.00000000000E+00 0. -1.
          1   -1    0    0  501    0 -0.00000000000E+00 -0.00000000000E+00 -0.24941366693E+03  0.24941366693E+03  0.00000000000E+00 0. -1.
         25    2    1    2    0    0 -0.15581283077E+02 -0.15842232258E+02 -0.43978159526E+02  0.13436132588E+03  0.12500053868E+03 0.  0.
          2    1    1    2  501    0  0.13292114742E+03  0.86850618287E+02 -0.11785146770E+03  0.19773727460E+03  0.00000000000E+00 0. -1.
          1    1    1    2  502    0 -0.11733986434E+03 -0.71008386029E+02  0.19173735851E+04  0.19222726913E+04  0.00000000000E+00 0. -1.
         22    1    3    3    0    0  0.29963279389E+02 -0.44485874498E+02  0.13829421284E+02  0.55389927195E+02  0.00000000000E+00 0. -1.
         22    1    3    3    0    0 -0.45544562467E+02  0.28643642240E+02 -0.57807580810E+02  0.78971398684E+02  0.00000000000E+00 0. -1.
</event>
<event>
 7    1  0.6161046E-006  0.9005506E+02  0.7818608E-02  0.1346565E+00
          2   -1    0    0  502    0  0.00000000000E+00  0.00000000000E+00  0.28168743733E+04  0.28168743733E+04  0.00000000000E+00 0. -1.
          1   -1    0    0  501    0 -0.00000000000E+00 -0.00000000000E+00 -0.16495362372E+04  0.16495362372E+04  0.00000000000E+00 0. -1.
         25    2    1    2    0    0 -0.42352649479E+02 -0.42299841627E+02 -0.10694104889E+04  0.10783550899E+04  0.12501153023E+03 0.  0.
          2    1    1    2  501    0 -0.47637663247E+02  0.38152204517E+02 -0.57331190207E+03  0.57655136348E+03  0.00000000000E+00 0. -1.
          1    1    1    2  502    0  0.89990312725E+02  0.41476371098E+01  0.28100605271E+04  0.28115041571E+04  0.00000000000E+00 0. -1.
         22    1    3    3    0    0 -0.83021362851E+01 -0.26219021008E+02 -0.41685223187E+02  0.49940167817E+02  0.00000000000E+00 0.  1.
         22    1    3    3    0    0 -0.34050513194E+02 -0.16080820619E+02 -0.10277252657E+04  0.10284149221E+04  0.00000000000E+00 0.  1.
</event>
<event>
 7    1  0.5194496E-006  0.3595592E+03  0.7818608E-02  0.1120558E+00
          2   -1    0    0  502    0  0.00000000000E+00  0.00000000000E+00  0.41754361534E+04  0.41754361534E+04  0.00000000000E+00 0. -1.
          1   -1    0    0  501    0 -0.00000000000E+00 -0.00000000000E+00 -0.67888327176E+03  0.67888327176E+03  0.00000000000E+00 0. -1.
         25    2    1    2    0    0  0.30384717248E+03 -0.41261333791E+03  0.14335777179E+04  0.15275284185E+04  0.12500050122E+03 0.  0.
          2    1    1    2  501    0 -0.21979402937E+03  0.27803442520E+03 -0.57964469537E+03  0.67941189997E+03  0.00000000000E+00 0. -1.
          1    1    1    2  502    0 -0.84053143114E+02  0.13457891271E+03  0.26426198592E+04  0.26473791067E+04  0.00000000000E+00 0. -1.
         22    1    3    3    0    0  0.98715328054E+01  0.73094864295E+01  0.63983807245E+02  0.65152155309E+02  0.00000000000E+00 0.  1.
         22    1    3    3    0    0  0.29397563968E+03 -0.41992282434E+03  0.13695939106E+04  0.14623762632E+04  0.00000000000E+00 0.  1.
</event>
<event>
 7    1  0.5194496E-006  0.8398948E+02  0.7818608E-02  0.1329067E+00
          2   -1    0    0  502    0  0.00000000000E+00  0.00000000000E+00  0.13438827338E+04  0.13438827338E+04  0.00000000000E+00 0. -1.
          1   -1    0    0  501    0 -0.00000000000E+00 -0.00000000000E+00 -0.68865934638E+02  0.68865934638E+02  0.00000000000E+00 0. -1.
         25    2    1    2    0    0 -0.38822658800E+02 -0.60470844841E+01  0.77563743442E+03  0.78662709408E+03  0.12499995761E+03 0.  0.
          2    1    1    2  501    0  0.52360789756E+02 -0.68929744967E+02 -0.29752706068E+02  0.91532429027E+02  0.00000000000E+00 0. -1.
          1    1    1    2  502    0 -0.13538130956E+02  0.74976829451E+02  0.52913207080E+03  0.53458914532E+03  0.00000000000E+00 0. -1.
         22    1    3    3    0    0 -0.70116902560E+02  0.18429592625E+02  0.66744145553E+03  0.67136735583E+03  0.00000000000E+00 0.  1.
         22    1    3    3    0    0  0.31294243760E+02 -0.24476677109E+02  0.10819597889E+03  0.11525973826E+03  0.00000000000E+00 0.  1.
</event>
<event>
 7    1  0.5194496E-006  0.8972579E+02  0.7818608E-02  0.1346284E+00
          2   -1    0    0  502    0  0.00000000000E+00  0.00000000000E+00  0.48167844461E+02  0.48167844461E+02  0.00000000000E+00 0. -1.
          1   -1    0    0  501    0 -0.00000000000E+00 -0.00000000000E+00 -0.10728888161E+04  0.10728888161E+04  0.00000000000E+00 0. -1.
         25    2    1    2    0    0  0.95266504075E+01  0.40941390589E+02 -0.57448847476E+03  0.58943071971E+03  0.12499844472E+03 0.  0.
          2    1    1    2  501    0  0.53468321691E+02  0.30192538889E+02 -0.43014788107E+03  0.43450851593E+03  0.00000000000E+00 0. -1.
          1    1    1    2  502    0 -0.62994972098E+02 -0.71133929478E+02 -0.20084615831E+02  0.97117424934E+02  0.00000000000E+00 0. -1.
         22    1    3    3    0    0 -0.25065164548E+02  0.77083345245E+02 -0.38577725726E+03  0.39420070625E+03  0.00000000000E+00 0.  1.
         22    1    3    3    0    0  0.34591814956E+02 -0.36141954655E+02 -0.18871121750E+03  0.19523001346E+03  0.00000000000E+00 0.  1.
</event>
<event>
 7    1  0.5194496E-006  0.1075725E+03  0.7818608E-02  0.1386945E+00
          2   -1    0    0  502    0  0.00000000000E+00  0.00000000000E+00  0.14173006028E+04  0.14173006028E+04  0.00000000000E+00 0. -1.
          1   -1    0    0  501    0 -0.00000000000E+00 -0.00000000000E+00 -0.33851044555E+03  0.33851044555E+03  0.00000000000E+00 0. -1.
         25    2    1    2    0    0 -0.10309338031E+03  0.25334520163E+02  0.12662585281E+03  0.20719483263E+03  0.12500203636E+03 0.  0.
          2    1    1    2  501    0 -0.43453552891E+01 -0.36254411902E+02 -0.29476563732E+03  0.29701859443E+03  0.00000000000E+00 0. -1.
          1    1    1    2  502    0  0.10743873560E+03  0.10919891739E+02  0.12469299417E+04  0.12515976212E+04  0.00000000000E+00 0. -1.
         22    1    3    3    0    0 -0.35127671480E+02  0.57451587245E+02  0.11189154872E+03  0.13059233077E+03  0.00000000000E+00 0.  1.
         22    1    3    3    0    0 -0.67965708830E+02 -0.32117067082E+02  0.14734304087E+02  0.76602501863E+02  0.00000000000E+00 0.  1.
</event>
<event>
 7    1  0.5194496E-006  0.1379596E+03  0.7818608E-02  0.1379894E+00
          2   -1    0    0  502    0  0.00000000000E+00  0.00000000000E+00  0.49425939859E+02  0.49425939859E+02  0.00000000000E+00 0. -1.
          1   -1    0    0  501    0 -0.00000000000E+00 -0.00000000000E+00 -0.24060347267E+04  0.24060347267E+04  0.00000000000E+00 0. -1.
         25    2    1    2    0    0  0.10892346319E+03 -0.37216249406E+02 -0.98594413581E+03  0.10004798386E+04  0.12499879413E+03 0.  0.
          2    1    1    2  501    0  0.17613733273E+02 -0.24467275875E+02 -0.12946428995E+04  0.12949938719E+04  0.00000000000E+00 0. -1.
          1    1    1    2  502    0 -0.12653719646E+03  0.61683525281E+02 -0.76021751581E+02  0.15998695601E+03  0.00000000000E+00 0. -1.
         22    1    3    3    0    0  0.52680463381E+02  0.37990406957E+02 -0.58936824417E+03  0.59293627776E+03  0.00000000000E+00 0.  1.
         22    1    3    3    0    0  0.56242999807E+02 -0.75206656362E+02 -0.39657589164E+03  0.40754356088E+03  0.00000000000E+00 0.  1.
</event>
<event>
 7    1  0.5194496E-006  0.4983635E+02  0.7818608E-02  0.1559215E+00
          2   -1    0    0  502    0  0.00000000000E+00  0.00000000000E+00  0.16095063997E+03  0.16095063997E+03  0.00000000000E+00 0. -1.
          1   -1    0    0  501    0 -0.00000000000E+00 -0.00000000000E+00 -0.68682626706E+03  0.68682626706E+03  0.00000000000E+00 0. -1.
         25    2    1    2    0    0  0.19220038697E+02  0.19867155097E+02 -0.55622558457E+02  0.13958497223E+03  0.12500392684E+03 0.  0.
          2    1    1    2  501    0 -0.31990300982E+02 -0.38958474145E+02 -0.58702351656E+03  0.58918397048E+03  0.00000000000E+00 0. -1.
          1    1    1    2  502    0  0.12770262285E+02  0.19091319048E+02  0.11677044793E+03  0.11900796432E+03  0.00000000000E+00 0. -1.
         22    1    3    3    0    0  0.14603306019E+02 -0.36587066262E+02  0.20730644287E+02  0.44515498165E+02  0.00000000000E+00 0.  1.
         22    1    3    3    0    0  0.46167326778E+01  0.56454221359E+02 -0.76353202744E+02  0.95069474066E+02  0.00000000000E+00 0.  1.
</event>
<event>
 7    1  0.5194496E-006  0.7085363E+02  0.7818608E-02  0.1433317E+00
          2   -1    0    0  502    0  0.00000000000E+00  0.00000000000E+00  0.15962051190E+04  0.15962051190E+04  0.00000000000E+00 0. -1.
          1   -1    0    0  501    0 -0.00000000000E+00 -0.00000000000E+00 -0.67513487374E+02  0.67513487374E+02  0.00000000000E+00 0. -1.
         25    2    1    2    0    0  0.14449235179E+02 -0.37311280343E+02  0.60029655072E+03  0.61447711523E+03  0.12500105721E+03 0.  0.
          2    1    1    2  501    0  0.24534242101E+02 -0.29806032270E+02 -0.52563534270E+02  0.65216974249E+02  0.00000000000E+00 0. -1.
          1    1    1    2  502    0 -0.38983477281E+02  0.67117312614E+02  0.98095861516E+03  0.98402451688E+03  0.00000000000E+00 0. -1.
         22    1    3    3    0    0 -0.49223237139E+02 -0.11096928169E+02  0.38863139867E+03  0.39189339484E+03  0.00000000000E+00 0.  1.
         22    1    3    3    0    0  0.63672472318E+02 -0.26214352175E+02  0.21166515205E+03  0.22258372039E+03  0.00000000000E+00 0.  1.
</event>
<event>
 7    1  0.5194496E-006  0.1043727E+03  0.7818608E-02  0.1451845E+00
          2   -1    0    0  502    0  0.00000000000E+00  0.00000000000E+00  0.35638435950E+03  0.35638435950E+03  0.00000000000E+00 0. -1.
          1   -1    0    0  501    0 -0.00000000000E+00 -0.00000000000E+00 -0.12620156998E+03  0.12620156998E+03  0.00000000000E+00 0. -1.
         25    2    1    2    0    0  0.74853857673E+00  0.88043515055E+02  0.10086628020E+03  0.18316847259E+03  0.12499784805E+03 0.  0.
          2    1    1    2  501    0 -0.65304321264E+01  0.21875926728E+02 -0.68958027749E+02  0.72638917289E+02  0.00000000000E+00 0. -1.
          1    1    1    2  502    0  0.57818935497E+01 -0.10991944178E+03  0.19827453707E+03  0.22677853960E+03  0.00000000000E+00 0. -1.
         22    1    3    3    0    0 -0.32488237493E+02  0.87190952563E+02  0.19218797607E+02  0.95011104433E+02  0.00000000000E+00 0. -1.
         22    1    3    3    0    0  0.33236776070E+02  0.85256249237E+00  0.81647482594E+02  0.88157368156E+02  0.00000000000E+00 0. -1.
</event>
<event>
 7    1  0.5878395E-006  0.1554737E+03  0.7818608E-02  0.1347911E+00
          2   -1    0    0  502    0  0.00000000000E+00  0.00000000000E+00  0.63335441339E+03  0.63335441339E+03  0.00000000000E+00 0. -1.
          1   -1    0    0  501    0 -0.00000000000E+00 -0.00000000000E+00 -0.16201388127E+04  0.16201388127E+04  0.00000000000E+00 0. -1.
         25    2    1    2    0    0  0.13086801169E+03 -0.24886838451E+02 -0.91774851827E+03  0.93575283384E+03  0.12500092818E+03 0.  0.
          2    1    1    2  501    0  0.14112694085E+02 -0.31970098626E+02 -0.68322369442E+03  0.68411685548E+03  0.00000000000E+00 0. -1.
          1    1    1    2  502    0 -0.14498070578E+03  0.56856937077E+02  0.61418781334E+03  0.63362353680E+03  0.00000000000E+00 0. -1.
         22    1    3    3    0    0  0.43018831014E+02 -0.15471434853E+02 -0.68930011981E+03  0.69081447603E+03  0.00000000000E+00 0. -1.
         22    1    3    3    0    0  0.87849180678E+02 -0.94154035982E+01 -0.22844839846E+03  0.24493835781E+03  0.00000000000E+00 0. -1.
</event>
<event>
 7    1  0.5194496E-006  0.5326027E+02  0.7818608E-02  0.1465664E+00
          2   -1    0    0  502    0  0.00000000000E+00  0.00000000000E+00  0.16822786575E+04  0.16822786575E+04  0.00000000000E+00 0. -1.
          1   -1    0    0  501    0 -0.00000000000E+00 -0.00000000000E+00 -0.10905280696E+02  0.10905280696E+02  0.00000000000E+00 0. -1.
         25    2    1    2    0    0 -0.59934286661E+01  0.36660412992E+02  0.64792722360E+03  0.66091951026E+03  0.12500001955E+03 0.  0.
          2    1    1    2  501    0  0.39359455505E+02  0.93679629235E+01  0.11264031581E+03  0.11968611537E+03  0.00000000000E+00 0. -1.
          1    1    1    2  502    0 -0.33366026839E+02 -0.46028375916E+02  0.91080583740E+03  0.91257831257E+03  0.00000000000E+00 0. -1.
         22    1    3    3    0    0 -0.29206549007E+02  0.77174833081E+02  0.45502851639E+03  0.46244991955E+03  0.00000000000E+00 0.  1.
         22    1    3    3    0    0  0.23213120341E+02 -0.40514420089E+02  0.19289870721E+03  0.19846959071E+03  0.00000000000E+00 0.  1.
</event>
<event>
 7    1  0.5194496E-006  0.3574935E+03  0.7818608E-02  0.1221863E+00
          2   -1    0    0  502    0  0.00000000000E+00  0.00000000000E+00  0.39385980181E+03  0.39385980181E+03  0.00000000000E+00 0. -1.
          1   -1    0    0  501    0 -0.00000000000E+00 -0.00000000000E+00 -0.12950860962E+04  0.12950860962E+04  0.00000000000E+00 0. -1.
         25    2    1    2    0    0 -0.16823790334E+03  0.30218458498E+03 -0.94494263458E+02  0.37970166770E+03  0.12499870042E+03 0.  0.
          2    1    1    2  501    0  0.21641657521E+03 -0.28840777952E+03 -0.10243353953E+04  0.10859457553E+04  0.00000000000E+00 0. -1.
          1    1    1    2  502    0 -0.48178671866E+02 -0.13776805462E+02  0.21760336434E+03  0.22329847506E+03  0.00000000000E+00 0. -1.
         22    1    3    3    0    0 -0.12881978424E+03  0.10391092471E+03 -0.46862579265E+02  0.17201197173E+03  0.00000000000E+00 0.  1.
         22    1    3    3    0    0 -0.39418119104E+02  0.19827366027E+03 -0.47631684193E+02  0.20768969596E+03  0.00000000000E+00 0.  1.
</event>
<event>
 7    1  0.5194496E-006  0.4838878E+02  0.7818608E-02  0.1460690E+00
          2   -1    0    0  502    0  0.00000000000E+00  0.00000000000E+00  0.24610001791E+04  0.24610001791E+04  0.00000000000E+00 0. -1.
          1   -1    0    0  501    0 -0.00000000000E+00 -0.00000000000E+00 -0.18094010799E+04  0.18094010799E+04  0.00000000000E+00 0. -1.
         25    2    1    2    0    0 -0.65896786779E+02 -0.67614614988E+02 -0.31480354995E+02  0.15978300675E+03  0.12500189530E+03 0.  0.
          2    1    1    2  501    0  0.31512427201E+02  0.33734140578E+02 -0.17132154100E+04  0.17138372345E+04  0.00000000000E+00 0. -1.
          1    1    1    2  502    0  0.34384359578E+02  0.33880474409E+02  0.23962948642E+04  0.23967810178E+04  0.00000000000E+00 0. -1.
         22    1    3    3    0    0  0.22700974831E+02 -0.43484032028E+02  0.21734651004E+02  0.53652496251E+02  0.00000000000E+00 0.  1.
         22    1    3    3    0    0 -0.88597761610E+02 -0.24130582959E+02 -0.53215005999E+02  0.10613051050E+03  0.00000000000E+00 0.  1.
</event>
<event>
 7    1  0.5194496E-006  0.1375223E+03  0.7818608E-02  0.1254098E+00
          2   -1    0    0  502    0  0.00000000000E+00  0.00000000000E+00  0.17303640714E+04  0.17303640714E+04  0.00000000000E+00 0. -1.
          1   -1    0    0  501    0 -0.00000000000E+00 -0.00000000000E+00 -0.15097410076E+04  0.15097410076E+04  0.00000000000E+00 0. -1.
         25    2    1    2    0    0  0.61852850022E+01 -0.17746243667E+03  0.10600245683E+03  0.24164713568E+03  0.12500257257E+03 0.  0.
          2    1    1    2  501    0  0.67536584430E+02  0.11948329355E+03 -0.14372336170E+04  0.14437721141E+04  0.00000000000E+00 0. -1.
          1    1    1    2  502    0 -0.73721869432E+02  0.57979143118E+02  0.15518542239E+04  0.15546858292E+04  0.00000000000E+00 0. -1.
         22    1    3    3    0    0 -0.18675910874E+02 -0.18763690866E+03  0.10231152696E+03  0.21453216003E+03  0.00000000000E+00 0. -1.
         22    1    3    3    0    0  0.24861195876E+02  0.10174471996E+02  0.36909298673E+01  0.27114975642E+02  0.00000000000E+00 0. -1.
</event>
<event>
 7    1  0.5194496E-006  0.5440090E+02  0.7818608E-02  0.1508351E+00
          2   -1    0    0  502    0  0.00000000000E+00  0.00000000000E+00  0.76972686531E+03  0.76972686531E+03  0.00000000000E+00 0. -1.
          1   -1    0    0  501    0 -0.00000000000E+00 -0.00000000000E+00 -0.16309699182E+04  0.16309699182E+04  0.00000000000E+00 0. -1.
         25    2    1    2    0    0 -0.81624616715E+02 -0.15681684775E+02  0.66199283940E+02  0.16406125463E+03  0.12500102713E+03 0.  0.
          2    1    1    2  501    0  0.53984675628E+02  0.57109801779E+01 -0.15812431728E+04  0.15821747476E+04  0.00000000000E+00 0. -1.
          1    1    1    2  502    0  0.27639941087E+02  0.99707045973E+01  0.65380083589E+03  0.65446078133E+03  0.00000000000E+00 0. -1.
         22    1    3    3    0    0 -0.68423158445E+02 -0.67778562114E+02  0.44682035519E+02  0.10617036494E+03  0.00000000000E+00 0. -1.
         22    1    3    3    0    0 -0.13201458270E+02  0.52096877339E+02  0.21517248420E+02  0.57890889685E+02  0.00000000000E+00 0. -1.
</event>
<event>
 7    1  0.5194496E-006  0.1669138E+03  0.7818608E-02  0.1255134E+00
          2   -1    0    0  502    0  0.00000000000E+00  0.00000000000E+00  0.15595408236E+04  0.15595408236E+04  0.00000000000E+00 0. -1.
          1   -1    0    0  501    0 -0.00000000000E+00 -0.00000000000E+00 -0.19132916981E+03  0.19132916981E+03  0.00000000000E+00 0. -1.
         25    2    1    2    0    0  0.12358900827E+03  0.75118122914E+02  0.18953339884E+03  0.26919415758E+03  0.12500243935E+03 0.  0.
          2    1    1    2  501    0 -0.17364311299E+03 -0.17286025883E+02 -0.99724686406E+02  0.20098694101E+03  0.00000000000E+00 0. -1.
          1    1    1    2  502    0  0.50054104716E+02 -0.57832097031E+02  0.12784029413E+04  0.12806888948E+04  0.00000000000E+00 0. -1.
         22    1    3    3    0    0 -0.20482555791E+02  0.36160260891E+02  0.48273389362E+02  0.63697878143E+02  0.00000000000E+00 0.  1.
         22    1    3    3    0    0  0.14407156406E+03  0.38957862023E+02  0.14126000948E+03  0.20549627943E+03  0.00000000000E+00 0.  1.
</event>
<event>
 7    1  0.5194496E-006  0.5123344E+02  0.7818608E-02  0.1450466E+00
          2   -1    0    0  502    0  0.00000000000E+00  0.00000000000E+00  0.20404809709E+04  0.20404809709E+04  0.00000000000E+00 0. -1.
          1   -1    0    0  501    0 -0.00000000000E+00 -0.00000000000E+00 -0.44778398370E+03  0.44778398370E+03  0.00000000000E+00 0. -1.
         25    2    1    2    0    0 -0.45934701444E+01  0.69584742413E-01  0.73910302235E+03  0.74961270152E+03  0.12499927928E+03 0.  0.
          2    1    1    2  501    0  0.48529276670E+02 -0.16715107091E+02 -0.44061313207E+03  0.44359262579E+03  0.00000000000E+00 0. -1.
          1    1    1    2  502    0 -0.43935806526E+02  0.16645522349E+02  0.12942070969E+04  0.12950596273E+04  0.00000000000E+00 0. -1.
         22    1    3    3    0    0  0.35712790217E+02 -0.48323950570E+02  0.29415908173E+03  0.30023353069E+03  0.00000000000E+00 0. -1.
         22    1    3    3    0    0 -0.40306260361E+02  0.48393535312E+02  0.44494394062E+03  0.44937917083E+03  0.00000000000E+00 0. -1.
</event>
<event>
 7    1  0.5194496E-006  0.6244649E+02  0.7818608E-02  0.1501517E+00
          2   -1    0    0  502    0  0.00000000000E+00  0.00000000000E+00  0.45628568198E+03  0.45628568198E+03  0.00000000000E+00 0. -1.
          1   -1    0    0  501    0 -0.00000000000E+00 -0.00000000000E+00 -0.12393632905E+04  0.12393632905E+04  0.00000000000E+00 0. -1.
         25    2    1    2    0    0  0.26881067087E+02 -0.31284350444E+02  0.40373710540E+02  0.13768246876E+03  0.12500049340E+03 0.  0.
          2    1    1    2  501    0 -0.64925153546E+00 -0.26811985529E+02 -0.11877904258E+04  0.11880931780E+04  0.00000000000E+00 0. -1.
          1    1    1    2  502    0 -0.26231815552E+02  0.58096335973E+02  0.36433910671E+03  0.36987332571E+03  0.00000000000E+00 0. -1.
         22    1    3    3    0    0 -0.17491582891E+02  0.37790757140E+02 -0.79824613657E+01  0.42400666112E+02  0.00000000000E+00 0. -1.
         22    1    3    3    0    0  0.44372649978E+02 -0.69075107584E+02  0.48356171905E+02  0.95281802645E+02  0.00000000000E+00 0. -1.
</event>
<event>
 7    1  0.5194496E-006  0.1007276E+03  0.7818608E-02  0.1311463E+00
          2   -1    0    0  502    0  0.00000000000E+00  0.00000000000E+00  0.23378698151E+04  0.23378698151E+04  0.00000000000E+00 0. -1.
          1   -1    0    0  501    0 -0.00000000000E+00 -0.00000000000E+00 -0.14625547735E+04  0.14625547735E+04  0.00000000000E+00 0. -1.
         25    2    1    2    0    0  0.13376748713E+03  0.11016707797E+03 -0.83532988213E+02  0.22941988673E+03  0.12500079451E+03 0.  0.
          2    1    1    2  501    0 -0.63432988374E+02 -0.38773396153E+02 -0.13039103119E+04  0.13060280325E+04  0.00000000000E+00 0. -1.
          1    1    1    2  502    0 -0.70334498753E+02 -0.71393681814E+02  0.22627583417E+04  0.22649766693E+04  0.00000000000E+00 0. -1.
         22    1    3    3    0    0  0.46933127181E+02  0.68857232376E+02  0.22462635006E+02  0.86305311823E+02  0.00000000000E+00 0. -1.
         22    1    3    3    0    0  0.86834359946E+02  0.41309845591E+02 -0.10599562322E+03  0.14311457491E+03  0.00000000000E+00 0. -1.
</event>
<event>
 7    1  0.5194496E-006  0.1886210E+03  0.7818608E-02  0.1352321E+00
          2   -1    0    0  502    0  0.00000000000E+00  0.00000000000E+00  0.38037468337E+03  0.38037468337E+03  0.00000000000E+00 0. -1.
          1   -1    0    0  501    0 -0.00000000000E+00 -0.00000000000E+00 -0.22850524823E+03  0.22850524823E+03  0.00000000000E+00 0. -1.
         25    2    1    2    0    0 -0.66750456458E+02  0.15350873794E+03 -0.82578818057E+02  0.22464329577E+03  0.12499917233E+03 0.  0.
          2    1    1    2  501    0 -0.20786523127E+02  0.18371881760E+02 -0.40065136825E+02  0.48732132848E+02  0.00000000000E+00 0. -1.
          1    1    1    2  502    0  0.87536979585E+02 -0.17188061970E+03  0.27451339002E+03  0.33550450299E+03  0.00000000000E+00 0. -1.
         22    1    3    3    0    0 -0.10134059512E+03  0.12907645438E+03 -0.79036485168E+02  0.18214668068E+03  0.00000000000E+00 0.  1.
         22    1    3    3    0    0  0.34590138657E+02  0.24432283554E+02 -0.35423328898E+01  0.42496615092E+02  0.00000000000E+00 0.  1.
</event>
<event>
 7    1  0.5194496E-006  0.7883197E+02  0.7818608E-02  0.1383711E+00
          2   -1    0    0  502    0  0.00000000000E+00  0.00000000000E+00  0.70321086525E+03  0.70321086525E+03  0.00000000000E+00 0. -1.
          1   -1    0    0  501    0 -0.00000000000E+00 -0.00000000000E+00 -0.61025419916E+03  0.61025419916E+03  0.00000000000E+00 0. -1.
         25    2    1    2    0    0  0.16634000967E+02 -0.69736418146E+02  0.20479387886E+03  0.25041001414E+03  0.12499913744E+03 0.  0.
          2    1    1    2  501    0  0.47612193489E+02  0.18685160762E+02 -0.58277812360E+03  0.58501828821E+03  0.00000000000E+00 0. -1.
          1    1    1    2  502    0 -0.64246194456E+02  0.51051257384E+02  0.47094091083E+03  0.47803676206E+03  0.00000000000E+00 0. -1.
         22    1    3    3    0    0  0.13853184686E+01  0.16419424373E+02  0.14141534097E+03  0.14237210143E+03  0.00000000000E+00 0. -1.
         22    1    3    3    0    0  0.15248682498E+02 -0.86155842519E+02  0.63378537886E+02  0.10803791271E+03  0.00000000000E+00 0. -1.
</event>
<event>
 7    1  0.5194496E-006  0.1099654E+03  0.7818608E-02  0.1352773E+00
          2   -1    0    0  502    0  0.00000000000E+00  0.00000000000E+00  0.10840677841E+03  0.10840677841E+03  0.00000000000E+00 0. -1.
          1   -1    0    0  501    0 -0.00000000000E+00 -0.00000000000E+00 -0.26888879943E+04  0.26888879943E+04  0.00000000000E+00 0. -1.
         25    2    1    2    0    0  0.62839706128E+02 -0.34424218119E+02 -0.64528122334E+03  0.66117152254E+03  0.12500427818E+03 0.  0.
          2    1    1    2  501    0  0.16640697687E+02 -0.44385209043E+02 -0.20041179208E+04  0.20046784281E+04  0.00000000000E+00 0. -1.
          1    1    1    2  502    0 -0.79480403815E+02  0.78809427161E+02  0.68917928287E+02  0.13144482203E+03  0.00000000000E+00 0. -1.
         22    1    3    3    0    0  0.17776729758E+02  0.47403601805E+02 -0.23431870057E+03  0.23972560777E+03  0.00000000000E+00 0.  1.
         22    1    3    3    0    0  0.45062976370E+02 -0.81827819924E+02 -0.41096252277E+03  0.42144591477E+03  0.00000000000E+00 0.  1.
</event>
<event>
 7    1  0.5194496E-006  0.5892957E+02  0.7818608E-02  0.1470780E+00
          2   -1    0    0  502    0  0.00000000000E+00  0.00000000000E+00  0.11175676581E+03  0.11175676581E+03  0.00000000000E+00 0. -1.
          1   -1    0    0  501    0 -0.00000000000E+00 -0.00000000000E+00 -0.27494912619E+03  0.27494912619E+03  0.00000000000E+00 0. -1.
         25    2    1    2    0    0  0.16244699627E+02 -0.70393997639E+02 -0.14710900489E+02  0.14511968582E+03  0.12499642975E+03 0.  0.
          2    1    1    2  501    0  0.22024262617E+02  0.27519811741E+02 -0.17484212025E+03  0.17835967929E+03  0.00000000000E+00 0. -1.
          1    1    1    2  502    0 -0.38268962244E+02  0.42874185898E+02  0.26360660366E+02  0.63226526890E+02  0.00000000000E+00 0. -1.
         22    1    3    3    0    0  0.40070395138E+01  0.13998107882E+02  0.40832626218E+02  0.43350971775E+02  0.00000000000E+00 0.  1.
         22    1    3    3    0    0  0.12237660113E+02 -0.84392105521E+02 -0.55543526707E+02  0.10176871405E+03  0.00000000000E+00 0.  1.
</event>
<event>
 7    1  0.5194496E-006  0.1235471E+03  0.7818608E-02  0.1264527E+00
          2   -1    0    0  502    0  0.00000000000E+00  0.00000000000E+00  0.36299231098E+04  0.36299231098E+04  0.00000000000E+00 0. -1.
          1   -1    0    0  501    0 -0.00000000000E+00 -0.00000000000E+00 -0.13934765282E+04  0.13934765282E+04  0.00000000000E+00 0. -1.
         25    2    1    2    0    0 -0.30994569030E+02  0.33287086260E+02 -0.19992135426E+03  0.24012932896E+03  0.12499941328E+03 0.  0.
          2    1    1    2  501    0  0.95451625231E+02 -0.10200630934E+03 -0.11686756258E+04  0.11769957597E+04  0.00000000000E+00 0. -1.
          1    1    1    2  502    0 -0.64457056201E+02  0.68719223085E+02  0.36050435616E+04  0.36062745493E+04  0.00000000000E+00 0. -1.
         22    1    3    3    0    0 -0.49564863438E+02 -0.34344441971E+02 -0.11618836545E+03  0.13090436451E+03  0.00000000000E+00 0. -1.
         22    1    3    3    0    0  0.18570294408E+02  0.67631528231E+02 -0.83732988804E+02  0.10922496445E+03  0.00000000000E+00 0. -1.
</event>
<event>
 7    1  0.5194496E-006  0.1078356E+03  0.7818608E-02  0.1266982E+00
          2   -1    0    0  502    0  0.00000000000E+00  0.00000000000E+00  0.15237965047E+03  0.15237965047E+03  0.00000000000E+00 0. -1.
          1   -1    0    0  501    0 -0.00000000000E+00 -0.00000000000E+00 -0.10811589153E+04  0.10811589153E+04  0.00000000000E+00 0. -1.
         25    2    1    2    0    0 -0.16435175733E+02  0.11888996043E+01 -0.72132653765E+03  0.73226244757E+03  0.12499915882E+03 0.  0.
          2    1    1    2  501    0 -0.34175409614E+01 -0.10778145886E+03 -0.32436788422E+03  0.34182312206E+03  0.00000000000E+00 0. -1.
          1    1    1    2  502    0  0.19852716695E+02  0.10659255926E+03  0.11691515702E+03  0.15945299618E+03  0.00000000000E+00 0. -1.
         22    1    3    3    0    0  0.47897102547E+02  0.21170268432E+02 -0.20601248039E+03  0.21256400159E+03  0.00000000000E+00 0. -1.
         22    1    3    3    0    0 -0.64332278281E+02 -0.19981368827E+02 -0.51531405727E+03  0.51969844597E+03  0.00000000000E+00 0. -1.
</event>
<event>
 7    1  0.5194496E-006  0.2224135E+03  0.7818608E-02  0.1175353E+00
          2   -1    0    0  502    0  0.00000000000E+00  0.00000000000E+00  0.86567815944E+03  0.86567815944E+03  0.00000000000E+00 0. -1.
          1   -1    0    0  501    0 -0.00000000000E+00 -0.00000000000E+00 -0.18716880548E+04  0.18716880548E+04  0.00000000000E+00 0. -1.
         25    2    1    2    0    0  0.28420774198E+03 -0.20798428959E+03  0.25820196469E+03  0.45423029851E+03  0.12500161677E+03 0.  0.
          2    1    1    2  501    0 -0.18608046903E+03  0.11723762129E+03 -0.17579361264E+04  0.17716404898E+04  0.00000000000E+00 0. -1.
          1    1    1    2  502    0 -0.98127272955E+02  0.90746668293E+02  0.49372426636E+03  0.51149542588E+03  0.00000000000E+00 0. -1.
         22    1    3    3    0    0  0.83160996963E+02 -0.16832696684E+01  0.80575833814E+02  0.11580608709E+03  0.00000000000E+00 0.  1.
         22    1    3    3    0    0  0.20104674502E+03 -0.20630101992E+03  0.17762613087E+03  0.33842421141E+03  0.00000000000E+00 0.  1.
</event>
<event>
 7    1  0.5194496E-006  0.3960607E+02  0.7818608E-02  0.1559575E+00
          2   -1    0    0  502    0  0.00000000000E+00  0.00000000000E+00  0.61843154015E+03  0.61843154015E+03  0.00000000000E+00 0. -1.
          1   -1    0    0  501    0 -0.00000000000E+00 -0.00000000000E+00 -0.29735437095E+03  0.29735437095E+03  0.00000000000E+00 0. -1.
         25    2    1    2    0    0  0.37479481030E+02  0.54252101344E+02  0.31507575752E+02  0.14479622345E+03  0.12500086798E+03 0.  0.
          2    1    1    2  501    0 -0.87230796016E+01 -0.27484384854E+02 -0.23911500563E+03  0.24084739867E+03  0.00000000000E+00 0. -1.
          1    1    1    2  502    0 -0.28756401429E+02 -0.26767716490E+02  0.52868459908E+03  0.53014228899E+03  0.00000000000E+00 0. -1.
         22    1    3    3    0    0  0.17633510578E+02 -0.37185208683E+02  0.30500389772E+02  0.51224547009E+02  0.00000000000E+00 0. -1.
         22    1    3    3    0    0  0.19845970453E+02  0.91437310027E+02  0.10071859795E+01  0.93571676440E+02  0.00000000000E+00 0. -1.
</event>
<event>
 7    1  0.6021834E-006  0.1081343E+03  0.7818608E-02  0.1296880E+00
          2   -1    0    0  502    0  0.00000000000E+00  0.00000000000E+00  0.80147780441E+03  0.80147780441E+03  0.00000000000E+00 0. -1.
          1   -1    0    0  501    0 -0.00000000000E+00 -0.00000000000E+00 -0.89697154089E+03  0.89697154089E+03  0.00000000000E+00 0. -1.
         25    2    1    2    0    0  0.28223544641E+01  0.11210011921E+03 -0.12850042823E+03  0.21144911761E+03  0.12499586741E+03 0.  0.
          2    1    1    2  501    0  0.71268632130E+02 -0.84265234012E+02 -0.72072433168E+03  0.72912509892E+03  0.00000000000E+00 0. -1.
          1    1    1    2  502    0 -0.74090986594E+02 -0.27834885197E+02  0.75373102344E+03  0.75787512878E+03  0.00000000000E+00 0. -1.
         22    1    3    3    0    0 -0.60568075626E+02  0.45311184260E+02 -0.63105999103E+02  0.98508691631E+02  0.00000000000E+00 0. -1.
         22    1    3    3    0    0  0.63390430090E+02  0.66788934949E+02 -0.65394429130E+02  0.11294042598E+03  0.00000000000E+00 0. -1.
</event>
<event>
 7    1  0.5194496E-006  0.1115282E+03  0.7818608E-02  0.1452745E+00
          2   -1    0    0  502    0  0.00000000000E+00  0.00000000000E+00  0.29552182134E+03  0.29552182134E+03  0.00000000000E+00 0. -1.
          1   -1    0    0  501    0 -0.00000000000E+00 -0.00000000000E+00 -0.17824533967E+04  0.17824533967E+04  0.00000000000E+00 0. -1.
         25    2    1    2    0    0 -0.43432358812E+02 -0.98546639118E+02 -0.74731835038E+02  0.18113189566E+03  0.12500442625E+03 0.  0.
          2    1    1    2  501    0  0.24914416291E+02  0.10891772058E+03 -0.16521662874E+04  0.16559399866E+04  0.00000000000E+00 0. -1.
          1    1    1    2  502    0  0.18517942521E+02 -0.10371081462E+02  0.23996654703E+03  0.24090333584E+03  0.00000000000E+00 0. -1.
         22    1    3    3    0    0 -0.40105115500E+02 -0.11666603142E+03 -0.22050072280E+02  0.12532194087E+03  0.00000000000E+00 0.  1.
         22    1    3    3    0    0 -0.33272433121E+01  0.18119392302E+02 -0.52681762758E+02  0.55809954782E+02  0.00000000000E+00 0.  1.
</event>
<event>
 7    1  0.5194496E-006  0.1654159E+03  0.7818608E-02  0.1228733E+00
          2   -1    0    0  502    0  0.00000000000E+00  0.00000000000E+00  0.19322227103E+04  0.19322227103E+04  0.00000000000E+00 0. -1.
          1   -1    0    0  501    0 -0.00000000000E+00 -0.00000000000E+00 -0.24474574683E+03  0.24474574683E+03  0.00000000000E+00 0. -1.
         25    2    1    2    0    0 -0.16476259038E+03  0.77707605998E+02  0.66243930895E+03  0.69830934148E+03  0.12499966058E+03 0.  0.
          2    1    1    2  501    0 -0.85464770199E+00 -0.10082018251E+03 -0.20968431599E+03  0.23266489206E+03  0.00000000000E+00 0. -1.
          1    1    1    2  502    0  0.16561723809E+03  0.23112576510E+02  0.12347219706E+04  0.12459942236E+04  0.00000000000E+00 0. -1.
         22    1    3    3    0    0 -0.14112740176E+03  0.71149313899E+02  0.34000496463E+03  0.37494338822E+03  0.00000000000E+00 0. -1.
         22    1    3    3    0    0 -0.23635188627E+02  0.65582920997E+01  0.32243434431E+03  0.32336595326E+03  0.00000000000E+00 0. -1.
</event>
<event>
 7    1  0.5194496E-006  0.4223184E+02  0.7818608E-02  0.1560877E+00
          2   -1    0    0  502    0  0.00000000000E+00  0.00000000000E+00  0.70900298142E+03  0.70900298142E+03  0.00000000000E+00 0. -1.
          1   -1    0    0  501    0 -0.00000000000E+00 -0.00000000000E+00 -0.39855082785E+02  0.39855082785E+02  0.00000000000E+00 0. -1.
         25    2    1    2    0    0 -0.41292452949E+01 -0.67633237543E+02  0.19436240717E+03  0.24080718863E+03  0.12498020359E+03 0.  0.
          2    1    1    2  501    0 -0.16216569304E+01  0.26771427662E+02 -0.43247289651E+01  0.27166935619E+02  0.00000000000E+00 0. -1.
          1    1    1    2  502    0  0.57509022254E+01  0.40861809880E+02  0.47911022043E+03  0.48088393995E+03  0.00000000000E+00 0. -1.
         22    1    3    3    0    0  0.45930350832E+02  0.67555595056E+01  0.35708219863E+02  0.58568862696E+02  0.00000000000E+00 0.  1.
         22    1    3    3    0    0 -0.50059596127E+02 -0.74388797048E+02  0.15865418731E+03  0.18223832594E+03  0.00000000000E+00 0.  1.
</event>
<event>
 7    1  0.5194496E-006  0.7117831E+02  0.7818608E-02  0.1464689E+00
          2   -1    0    0  502    0  0.00000000000E+00  0.00000000000E+00  0.11595055715E+04  0.11595055715E+04  0.00000000000E+00 0. -1.
          1   -1    0    0  501    0 -0.00000000000E+00 -0.00000000000E+00 -0.89462057322E+02  0.89462057322E+02  0.00000000000E+00 0. -1.
         25    2    1    2    0    0 -0.11431831255E+02 -0.52389266261E+02  0.70699876312E+03  0.71996303946E+03  0.12499682057E+03 0.  0.
          2    1    1    2  501    0  0.84177733376E+01 -0.29302559903E+02 -0.76275778418E+02  0.82143126907E+02  0.00000000000E+00 0. -1.
          1    1    1    2  502    0  0.30140579170E+01  0.81691826165E+02  0.43932052949E+03  0.44686146247E+03  0.00000000000E+00 0. -1.
         22    1    3    3    0    0 -0.49787384978E+01 -0.93416255166E+02  0.44887945695E+03  0.45852388317E+03  0.00000000000E+00 0. -1.
         22    1    3    3    0    0 -0.64530927569E+01  0.41026988904E+02  0.25811930617E+03  0.26143915629E+03  0.00000000000E+00 0. -1.
</event>
<event>
 7    1  0.5194496E-006  0.5871488E+02  0.7818608E-02  0.1457048E+00
          2   -1    0    0  502    0  0.00000000000E+00  0.00000000000E+00  0.12265930749E+04  0.12265930749E+04  0.00000000000E+00 0. -1.
          1   -1    0    0  501    0 -0.00000000000E+00 -0.00000000000E+00 -0.43190738906E+02  0.43190738906E+02  0.00000000000E+00 0. -1.
         25    2    1    2    0    0  0.20826100991E+02  0.14520984453E+02  0.27894806835E+03  0.30672771914E+03  0.12500113352E+03 0.  0.
          2    1    1    2  501    0 -0.39007351112E+02 -0.49098280880E+02  0.51661212937E+01  0.62919817509E+02  0.00000000000E+00 0. -1.
          1    1    1    2  502    0  0.18181250121E+02  0.34577296427E+02  0.89928814631E+03  0.90013627712E+03  0.00000000000E+00 0. -1.
         22    1    3    3    0    0 -0.42882795635E+02  0.32928977010E+02  0.17729919962E+03  0.18535980653E+03  0.00000000000E+00 0. -1.
         22    1    3    3    0    0  0.63708896626E+02 -0.18407992557E+02  0.10164886873E+03  0.12136791262E+03  0.00000000000E+00 0. -1.
</event>
<event>
 7    1  0.5194496E-006  0.1470487E+03  0.7818608E-02  0.1329254E+00
          2   -1    0    0  502    0  0.00000000000E+00  0.00000000000E+00  0.24075039754E+04  0.24075039754E+04  0.00000000000E+00 0. -1.
          1   -1    0    0  501    0 -0.00000000000E+00 -0.00000000000E+00 -0.53044982933E+02  0.53044982933E+02  0.00000000000E+00 0. -1.
         25    2    1    2    0    0  0.36291548457E+02 -0.14062845905E+03  0.12483707318E+04  0.12629916517E+04  0.12499995294E+03 0.  0.
          2    1    1    2  501    0 -0.77204524145E+02  0.12601217210E+03  0.75312079721E+02  0.16586595618E+03  0.00000000000E+00 0. -1.
          1    1    1    2  502    0  0.40912975688E+02  0.14616286948E+02  0.10307761810E+04  0.10316913505E+04  0.00000000000E+00 0. -1.
         22    1    3    3    0    0 -0.16038986061E+02 -0.12593265698E+03  0.65875889853E+03  0.67087969827E+03  0.00000000000E+00 0.  1.
         22    1    3    3    0    0  0.52330534519E+02 -0.14695802076E+02  0.58961183325E+03  0.59211195339E+03  0.00000000000E+00 0.  1.
</event>
<event>
 7    1  0.5194496E-006  0.1024224E+03  0.7818608E-02  0.1434546E+00
          2   -1    0    0  502    0  0.00000000000E+00  0.00000000000E+00  0.18142706758E+04  0.18142706758E+04  0.00000000000E+00 0. -1.
          1   -1    0    0  501    0 -0.00000000000E+00 -0.00000000000E+00 -0.31130563207E+03  0.31130563207E+03  0.00000000000E+00 0. -1.
         25    2    1    2    0    0 -0.86367702757E+02 -0.74124857483E+02  0.41277110269E+02  0.17401701914E+03  0.12499699414E+03 0.  0.
          2    1    1    2  501    0  0.89561662882E+02  0.47858765146E+02 -0.23430308715E+03  0.25536187951E+03  0.00000000000E+00 0. -1.
          1    1    1    2  502    0 -0.31939601249E+01  0.26266092337E+02  0.16959910207E+04  0.16961974092E+04  0.00000000000E+00 0. -1.
         22    1    3    3    0    0 -0.11192435646E+03 -0.61358917063E+02  0.58768926500E+02  0.14051962494E+03  0.00000000000E+00 0.  1.
         22    1    3    3    0    0  0.25556653703E+02 -0.12765940420E+02 -0.17491816230E+02  0.33497394202E+02  0.00000000000E+00 0.  1.
</event>
<event>
 7    1  0.5194496E-006  0.8515627E+02  0.7818608E-02  0.1480698E+00
          2   -1    0    0  502    0  0.00000000000E+00  0.00000000000E+00  0.24074387623E+04  0.24074387623E+04  0.00000000000E+00 0. -1.
          1   -1    0    0  501    0 -0.00000000000E+00 -0.00000000000E+00 -0.39075582026E+02  0.39075582026E+02  0.00000000000E+00 0. -1.
         25    2    1    2    0    0 -0.53703644855E+02  0.86350647157E+02  0.32245514265E+03  0.36047632400E+03  0.12500138161E+03 0.  0.
          2    1    1    2  501    0 -0.17698301360E+01 -0.22663250328E+02 -0.12470026562E+02  0.25927915007E+02  0.00000000000E+00 0. -1.
          1    1    1    2  502    0  0.55473474991E+02 -0.63687396829E+02  0.20583780642E+04  0.20601101054E+04  0.00000000000E+00 0. -1.
         22    1    3    3    0    0 -0.40904710238E+02 -0.25182741403E+02  0.11414150057E+03  0.12383718318E+03  0.00000000000E+00 0. -1.
         22    1    3    3    0    0 -0.12798934617E+02  0.11153338856E+03  0.20831364208E+03  0.23663914082E+03  0.00000000000E+00 0. -1.
</event>
<event>
 7    1  0.5194496E-006  0.9129281E+02  0.7818608E-02  0.1374238E+00
          2   -1    0    0  502    0  0.00000000000E+00  0.00000000000E+00  0.91351055518E+03  0.91351055518E+03  0.00000000000E+00 0. -1.
          1   -1    0    0  501    0 -0.00000000000E+00 -0.00000000000E+00 -0.17651371462E+04  0.17651371462E+04  0.00000000000E+00 0. -1.
         25    2    1    2    0    0  0.71637198631E+02 -0.10396390975E+03 -0.38795673811E+02  0.18185792814E+03  0.12500727563E+03 0.  0.
          2    1    1    2  501    0 -0.27184521406E+02  0.86613586000E+02 -0.16528877332E+04  0.16553787392E+04  0.00000000000E+00 0. -1.
          1    1    1    2  502    0 -0.44452677226E+02  0.17350323753E+02  0.84005681597E+03  0.84141103410E+03  0.00000000000E+00 0. -1.
         22    1    3    3    0    0  0.55465270044E+02  0.15119608471E+02 -0.11861078828E+02  0.58699948317E+02  0.00000000000E+00 0. -1.
         22    1    3    3    0    0  0.16171928587E+02 -0.11908351822E+03 -0.26934594983E+02  0.12315797982E+03  0.00000000000E+00 0. -1.
</event>
<event>
 7    1  0.5194496E-006  0.6485033E+02  0.7818608E-02  0.1411355E+00
          2   -1    0    0  502    0  0.00000000000E+00  0.00000000000E+00  0.77806825070E+02  0.77806825070E+02  0.00000000000E+00 0. -1.
          1   -1    0    0  501    0 -0.00000000000E+00 -0.00000000000E+00 -0.51324729544E+03  0.51324729544E+03  0.00000000000E+00 0. -1.
         25    2    1    2    0    0 -0.32798305135E+01 -0.22850124541E+02 -0.24687112971E+03  0.27767434664E+03  0.12499921048E+03 0.  0.
          2    1    1    2  501    0  0.29995811690E+02 -0.39892136979E+02 -0.22881556879E+03  0.23419584931E+03  0.00000000000E+00 0. -1.
          1    1    1    2  502    0 -0.26715981177E+02  0.62742261520E+02  0.40246228125E+02  0.79183924563E+02  0.00000000000E+00 0. -1.
         22    1    3    3    0    0 -0.55430399116E+02  0.20555000895E+02 -0.10838458826E+03  0.12345953256E+03  0.00000000000E+00 0. -1.
         22    1    3    3    0    0  0.52150568603E+02 -0.43405125436E+02 -0.13848654145E+03  0.15421481408E+03  0.00000000000E+00 0. -1.
</event>
<event>
 7    1  0.5194496E-006  0.3545344E+02  0.7818608E-02  0.1573277E+00
          2   -1    0    0  502    0  0.00000000000E+00  0.00000000000E+00  0.32908820094E+02  0.32908820094E+02  0.00000000000E+00 0. -1.
          1   -1    0    0  501    0 -0.00000000000E+00 -0.00000000000E+00 -0.15378132172E+04  0.15378132172E+04  0.00000000000E+00 0. -1.
         25    2    1    2    0    0 -0.42119219053E+02 -0.43600344979E+02 -0.19902708253E+03  0.24271407293E+03  0.12499329150E+03 0.  0.
          2    1    1    2  501    0  0.25122507747E+02  0.15567693348E+02 -0.12921158935E+04  0.12924538582E+04  0.00000000000E+00 0. -1.
          1    1    1    2  502    0  0.16996711306E+02  0.28032651631E+02 -0.13761421097E+02  0.35554106138E+02  0.00000000000E+00 0. -1.
         22    1    3    3    0    0 -0.74989456770E+02 -0.17871598841E+02 -0.60384577803E+02  0.97924000675E+02  0.00000000000E+00 0. -1.
         22    1    3    3    0    0  0.32870237717E+02 -0.25728746138E+02 -0.13864250473E+03  0.14479007225E+03  0.00000000000E+00 0. -1.
</event>
<event>
 7    1  0.5194496E-006  0.1070732E+03  0.7818608E-02  0.1333670E+00
          2   -1    0    0  502    0  0.00000000000E+00  0.00000000000E+00  0.26691656235E+04  0.26691656235E+04  0.00000000000E+00 0. -1.
          1   -1    0    0  501    0 -0.00000000000E+00 -0.00000000000E+00 -0.15620701850E+03  0.15620701850E+03  0.00000000000E+00 0. -1.
         25    2    1    2    0    0  0.13458600658E+03 -0.73400316236E+02  0.17304556498E+03  0.26280657102E+03  0.12498610572E+03 0.  0.
          2    1    1    2  501    0 -0.98185034838E+02  0.29022418285E+02 -0.87375075721E+02  0.13459942677E+03  0.00000000000E+00 0. -1.
          1    1    1    2  502    0 -0.36400971746E+02  0.44377897950E+02  0.24272881157E+04  0.24279666442E+04  0.00000000000E+00 0. -1.
         22    1    3    3    0    0  0.56844575268E+02  0.11366320468E+02  0.12570382299E+03  0.13842669574E+03  0.00000000000E+00 0.  1.
         22    1    3    3    0    0  0.77741431316E+02 -0.84766636704E+02  0.47341741986E+02  0.12437987528E+03  0.00000000000E+00 0.  1.
</event>
<event>
 7    1  0.5194496E-006  0.7280908E+02  0.7818608E-02  0.1403269E+00
          2   -1    0    0  502    0  0.00000000000E+00  0.00000000000E+00  0.74188795247E+03  0.74188795247E+03  0.00000000000E+00 0. -1.
          1   -1    0    0  501    0 -0.00000000000E+00 -0.00000000000E+00 -0.70478631899E+03  0.70478631899E+03  0.00000000000E+00 0. -1.
         25    2    1    2    0    0  0.18669349788E+02 -0.64861471961E+02  0.18819243193E+03  0.23579262447E+03  0.12500486050E+03 0.  0.
          2    1    1    2  501    0  0.28638082665E+02  0.67145031526E+02 -0.67796470803E+03  0.68188323074E+03  0.00000000000E+00 0. -1.
          1    1    1    2  502    0 -0.47307432454E+02 -0.22835595649E+01  0.52687390957E+03  0.52899841625E+03  0.00000000000E+00 0. -1.
         22    1    3    3    0    0  0.28977557683E+02 -0.91997092149E+02  0.84889533165E+02  0.12848889701E+03  0.00000000000E+00 0. -1.
         22    1    3    3    0    0 -0.10308207895E+02  0.27135620188E+02  0.10330289877E+03  0.10730372746E+03  0.00000000000E+00 0. -1.
</event>
<event>
 7    1  0.5194496E-006  0.7887075E+02  0.7818608E-02  0.1430839E+00
          2   -1    0    0  502    0  0.00000000000E+00  0.00000000000E+00  0.71942729540E+03  0.71942729540E+03  0.00000000000E+00 0. -1.
          1   -1    0    0  501    0 -0.00000000000E+00 -0.00000000000E+00 -0.14264208607E+03  0.14264208607E+03  0.00000000000E+00 0. -1.
         25    2    1    2    0    0  0.11330979577E+02 -0.61872903401E+02  0.16980885444E+03  0.22003775689E+03  0.12499968054E+03 0.  0.
          2    1    1    2  501    0 -0.46469337905E+02  0.65607935704E+02 -0.10309494792E+03  0.13073778673E+03  0.00000000000E+00 0. -1.
          1    1    1    2  502    0  0.35138358328E+02 -0.37350323033E+01  0.51007130280E+03  0.51129383786E+03  0.00000000000E+00 0. -1.
         22    1    3    3    0    0 -0.22363852407E+02  0.37863203549E+01 -0.10659973767E+02  0.25062185799E+02  0.00000000000E+00 0. -1.
         22    1    3    3    0    0  0.33694831984E+02 -0.65659223756E+02  0.18046882821E+03  0.19497557109E+03  0.00000000000E+00 0. -1.
</event>
<event>
 7    1  0.5194496E-006  0.1140337E+03  0.7818608E-02  0.1336313E+00
          2   -1    0    0  502    0  0.00000000000E+00  0.00000000000E+00  0.15948278512E+03  0.15948278512E+03  0.00000000000E+00 0. -1.
          1   -1    0    0  501    0 -0.00000000000E+00 -0.00000000000E+00 -0.55089265226E+03  0.55089265226E+03  0.00000000000E+00 0. -1.
         25    2    1    2    0    0  0.46054322194E+02 -0.55612171116E+02 -0.72075250409E+02  0.16134992259E+03  0.12500096652E+03 0.  0.
          2    1    1    2  501    0 -0.92824719159E+02  0.79821273561E+02 -0.41888194036E+03  0.43640571050E+03  0.00000000000E+00 0. -1.
          1    1    1    2  502    0  0.46770396965E+02 -0.24209102445E+02  0.99547323629E+02  0.11261980428E+03  0.00000000000E+00 0. -1.
         22    1    3    3    0    0 -0.29336618601E+02 -0.46654438166E+02 -0.64821561021E+02  0.85082951082E+02  0.00000000000E+00 0.  1.
         22    1    3    3    0    0  0.75390940795E+02 -0.89577329493E+01 -0.72536893873E+01  0.76266971510E+02  0.00000000000E+00 0.  1.
</event>
<event>
 7    1  0.5194496E-006  0.7844841E+02  0.7818608E-02  0.1411381E+00
          2   -1    0    0  502    0  0.00000000000E+00  0.00000000000E+00  0.20226135265E+04  0.20226135265E+04  0.00000000000E+00 0. -1.
          1   -1    0    0  501    0 -0.00000000000E+00 -0.00000000000E+00 -0.68836850269E+02  0.68836850269E+02  0.00000000000E+00 0. -1.
         25    2    1    2    0    0  0.91485120595E+02  0.15575485159E+02  0.99527544389E+03  0.10073777523E+04  0.12499841417E+03 0.  0.
          2    1    1    2  501    0 -0.63486446363E+02 -0.45869881034E+02 -0.37765029506E+02  0.86952701577E+02  0.00000000000E+00 0. -1.
          1    1    1    2  502    0 -0.27998674232E+02  0.30294395875E+02  0.99626626181E+03  0.99711992288E+03  0.00000000000E+00 0. -1.
         22    1    3    3    0    0 -0.16705023455E+02  0.37864023627E+02  0.18270967375E+03  0.18733810871E+03  0.00000000000E+00 0. -1.
         22    1    3    3    0    0  0.10819014405E+03 -0.22288538468E+02  0.81256577014E+03  0.82003964357E+03  0.00000000000E+00 0. -1.
</event>
<event>
 7    1  0.5194496E-006  0.2949656E+02  0.7818608E-02  0.1611751E+00
          2   -1    0    0  502    0  0.00000000000E+00  0.00000000000E+00  0.95582692992E+03  0.95582692992E+03  0.00000000000E+00 0. -1.
          1   -1    0    0  501    0 -0.00000000000E+00 -0.00000000000E+00 -0.82040975709E+02  0.82040975709E+02  0.00000000000E+00 0. -1.
         25    2    1    2    0    0  0.21850632323E+02  0.31871355312E+02  0.33332073723E+03  0.35808259056E+03  0.12500877719E+03 0.  0.
          2    1    1    2  501    0 -0.29142382117E+02 -0.47144560280E+01 -0.66191998424E+02  0.72476790674E+02  0.00000000000E+00 0. -1.
          1    1    1    2  502    0  0.72917497932E+01 -0.27156899284E+02  0.60665721541E+03  0.60730852439E+03  0.00000000000E+00 0. -1.
         22    1    3    3    0    0  0.48049452893E+02  0.50426539930E+02  0.31167424379E+03  0.31936252143E+03  0.00000000000E+00 0.  1.
         22    1    3    3    0    0 -0.26198820570E+02 -0.18555184617E+02  0.21646493437E+02  0.38720069131E+02  0.00000000000E+00 0.  1.
</event>
<event>
 7    1  0.5194496E-006  0.1843250E+03  0.7818608E-02  0.1348787E+00
          2   -1    0    0  502    0  0.00000000000E+00  0.00000000000E+00  0.54182356488E+03  0.54182356488E+03  0.00000000000E+00 0. -1.
          1   -1    0    0  501    0 -0.00000000000E+00 -0.00000000000E+00 -0.94656418212E+03  0.94656418212E+03  0.00000000000E+00 0. -1.
         25    2    1    2    0    0 -0.15931457281E+03  0.19478094030E+02 -0.10682145558E+02  0.20371433234E+03  0.12499956684E+03 0.  0.
          2    1    1    2  501    0  0.18342959203E+03 -0.36043189059E+02 -0.82845948883E+03  0.84928832050E+03  0.00000000000E+00 0. -1.
          1    1    1    2  502    0 -0.24115019218E+02  0.16565095030E+02  0.43440101714E+03  0.43538509416E+03  0.00000000000E+00 0. -1.
         22    1    3    3    0    0  0.97804071606E+01  0.17478710830E+01  0.27687891233E+02  0.29416504525E+02  0.00000000000E+00 0. -1.
         22    1    3    3    0    0 -0.16909497997E+03  0.17730222947E+02 -0.38370036791E+02  0.17429782781E+03  0.00000000000E+00 0. -1.
</event>
<event>
 7    1  0.5194496E-006  0.4126801E+02  0.7818608E-02  0.1609921E+00
          2   -1    0    0  502    0  0.00000000000E+00  0.00000000000E+00  0.55821416687E+03  0.55821416687E+03  0.00000000000E+00 0. -1.
          1   -1    0    0  501    0 -0.00000000000E+00 -0.00000000000E+00 -0.83748692069E+03  0.83748692069E+03  0.00000000000E+00 0. -1.
         25    2    1    2    0    0  0.28891563398E+02  0.36353982537E+02  0.45067170942E+01  0.13342533920E+03  0.12500270461E+03 0.  0.
          2    1    1    2  501    0 -0.37217273060E+02 -0.17820607536E+02 -0.77226562442E+03  0.77336724403E+03  0.00000000000E+00 0. -1.
          1    1    1    2  502    0  0.83257096615E+01 -0.18533375001E+02  0.48848615351E+03  0.48890850433E+03  0.00000000000E+00 0. -1.
         22    1    3    3    0    0  0.37533708664E+02  0.76398557425E+02  0.23449098989E+02  0.88291444128E+02  0.00000000000E+00 0.  1.
         22    1    3    3    0    0 -0.86421452662E+01 -0.40044574888E+02 -0.18942381895E+02  0.45133895075E+02  0.00000000000E+00 0.  1.
</event>
<event>
 7    1  0.5194496E-006  0.7115631E+02  0.7818608E-02  0.1372464E+00
          2   -1    0    0  502    0  0.00000000000E+00  0.00000000000E+00  0.12246293428E+04  0.12246293428E+04  0.00000000000E+00 0. -1.
          1   -1    0    0  501    0 -0.00000000000E+00 -0.00000000000E+00 -0.13055004716E+04  0.13055004716E+04  0.00000000000E+00 0. -1.
         25    2    1    2    0    0  0.31022032269E+02 -0.82254451783E+02  0.13863552626E+03  0.20633352011E+03  0.12500220421E+03 0.  0.
          2    1    1    2  501    0 -0.59786649242E+02  0.16879875021E+02 -0.12696790375E+04  0.12711979515E+04  0.00000000000E+00 0. -1.
          1    1    1    2  502    0  0.28764616973E+02  0.65374576762E+02  0.10501723824E+04  0.10525983428E+04  0.00000000000E+00 0. -1.
         22    1    3    3    0    0  0.51671038244E+02 -0.98614084623E+02  0.66833722193E+02  0.12985137774E+03  0.00000000000E+00 0.  1.
         22    1    3    3    0    0 -0.20649005975E+02  0.16359632840E+02  0.71801804068E+02  0.76482142373E+02  0.00000000000E+00 0.  1.
</event>
<event>
 7    1  0.5194496E-006  0.1573579E+03  0.7818608E-02  0.1344525E+00
          2   -1    0    0  502    0  0.00000000000E+00  0.00000000000E+00  0.27362504555E+04  0.27362504555E+04  0.00000000000E+00 0. -1.
          1   -1    0    0  501    0 -0.00000000000E+00 -0.00000000000E+00 -0.11309710013E+03  0.11309710013E+03  0.00000000000E+00 0. -1.
         25    2    1    2    0    0 -0.71552479365E+02  0.11629344126E+03  0.91408311854E+03  0.93264576963E+03  0.12504504080E+03 0.  0.
          2    1    1    2  501    0  0.10708187263E+03 -0.11737370149E+03 -0.42741484479E+02  0.16452947378E+03  0.00000000000E+00 0. -1.
          1    1    1    2  502    0 -0.35529393266E+02  0.10802602281E+01  0.17518117213E+04  0.17521723122E+04  0.00000000000E+00 0. -1.
         22    1    3    3    0    0 -0.56880575561E+02  0.71405451542E+02  0.23788722692E+03  0.25480280830E+03  0.00000000000E+00 0.  1.
         22    1    3    3    0    0 -0.14671903803E+02  0.44887989721E+02  0.67619589162E+03  0.67784296133E+03  0.00000000000E+00 0.  1.
</event>
<event>
 7    1  0.5194496E-006  0.4444136E+02  0.7818608E-02  0.1527761E+00
          2   -1    0    0  502    0  0.00000000000E+00  0.00000000000E+00  0.39254624328E+03  0.39254624328E+03  0.00000000000E+00 0. -1.
          1   -1    0    0  501    0 -0.00000000000E+00 -0.00000000000E+00 -0.52912492900E+03  0.52912492900E+03  0.00000000000E+00 0. -1.
         25    2    1    2    0    0  0.10372693322E+02 -0.71135601735E+02 -0.69999416592E+02  0.16029127438E+03  0.12500203086E+03 0.  0.
          2    1    1    2  501    0  0.73492780399E+01  0.30712319087E+02 -0.41197093164E+03  0.41317950935E+03  0.00000000000E+00 0. -1.
          1    1    1    2  502    0 -0.17721971362E+02  0.40423282648E+02  0.34539166251E+03  0.34820038854E+03  0.00000000000E+00 0. -1.
         22    1    3    3    0    0 -0.54199491508E+02 -0.50377273933E+02 -0.50948168603E+02  0.89839693302E+02  0.00000000000E+00 0.  1.
         22    1    3    3    0    0  0.64572184830E+02 -0.20758327802E+02 -0.19051247989E+02  0.70451581081E+02  0.00000000000E+00 0.  1.
</event>
<event>
 7    1  0.5194496E-006  0.9861047E+02  0.7818608E-02  0.1449732E+00
          2   -1    0    0  502    0  0.00000000000E+00  0.00000000000E+00  0.10999298064E+04  0.10999298064E+04  0.00000000000E+00 0. -1.
          1   -1    0    0  501    0 -0.00000000000E+00 -0.00000000000E+00 -0.29522128273E+03  0.29522128273E+03  0.00000000000E+00 0. -1.
         25    2    1    2    0    0 -0.82712124930E+02 -0.58349981613E+02  0.47751416390E+03  0.50387624325E+03  0.12500190327E+03 0.  0.
          2    1    1    2  501    0  0.18379367791E+02 -0.16264492164E+02 -0.27751226031E+03  0.27859538670E+03  0.00000000000E+00 0. -1.
          1    1    1    2  502    0  0.64332757139E+02  0.74614473776E+02  0.60470662006E+03  0.61267945917E+03  0.00000000000E+00 0. -1.
         22    1    3    3    0    0 -0.97032952136E+02 -0.77822728108E+02  0.45169375776E+03  0.46850722685E+03  0.00000000000E+00 0. -1.
         22    1    3    3    0    0  0.14320827207E+02  0.19472746495E+02  0.25820406140E+02  0.35369016401E+02  0.00000000000E+00 0. -1.
</event>
<event>
 7    1  0.5194496E-006  0.1366449E+03  0.7818608E-02  0.1283522E+00
          2   -1    0    0  502    0  0.00000000000E+00  0.00000000000E+00  0.25837129183E+03  0.25837129183E+03  0.00000000000E+00 0. -1.
          1   -1    0    0  501    0 -0.00000000000E+00 -0.00000000000E+00 -0.17382184391E+04  0.17382184391E+04  0.00000000000E+00 0. -1.
         25    2    1    2    0    0 -0.14367476023E+03 -0.87690300807E+01 -0.85440954661E+02  0.20891203437E+03  0.12499899503E+03 0.  0.
          2    1    1    2  501    0  0.19177738304E+02  0.68337016729E+02 -0.15659214929E+04  0.15675292200E+04  0.00000000000E+00 0. -1.
          1    1    1    2  502    0  0.12449702192E+03 -0.59567986648E+02  0.17151530031E+03  0.22014847658E+03  0.00000000000E+00 0. -1.
         22    1    3    3    0    0 -0.15721780414E+03 -0.35003379707E+02 -0.70456307894E+02  0.17580320205E+03  0.00000000000E+00 0.  1.
         22    1    3    3    0    0  0.13543043917E+02  0.26234349627E+02 -0.14984646767E+02  0.33108832320E+02  0.00000000000E+00 0.  1.
</event>
<event>
 7    1  0.5194496E-006  0.1252116E+03  0.7818608E-02  0.1310507E+00
          2   -1    0    0  502    0  0.00000000000E+00  0.00000000000E+00  0.13105902160E+04  0.13105902160E+04  0.00000000000E+00 0. -1.
          1   -1    0    0  501    0 -0.00000000000E+00 -0.00000000000E+00 -0.27651309044E+03  0.27651309044E+03  0.00000000000E+00 0. -1.
         25    2    1    2    0    0  0.71035870900E+02 -0.11546162481E+02  0.19435711403E+02  0.14554412196E+03  0.12500374289E+03 0.  0.
          2    1    1    2  501    0  0.56805759128E+02  0.20309968087E+02 -0.20577398529E+03  0.21443489011E+03  0.00000000000E+00 0. -1.
          1    1    1    2  502    0 -0.12784163003E+03 -0.87638056060E+01  0.12204153994E+04  0.12271242944E+04  0.00000000000E+00 0. -1.
         22    1    3    3    0    0  0.42633939384E+02 -0.41117650316E+02 -0.41339961411E+02  0.72230923878E+02  0.00000000000E+00 0. -1.
         22    1    3    3    0    0  0.28401931516E+02  0.29571487834E+02  0.60775672814E+02  0.73313198078E+02  0.00000000000E+00 0. -1.
</event>
<event>
 7    1  0.5194496E-006  0.1153525E+03  0.7818608E-02  0.1391866E+00
          2   -1    0    0  502    0  0.00000000000E+00  0.00000000000E+00  0.87685428375E+03  0.87685428375E+03  0.00000000000E+00 0. -1.
          1   -1    0    0  501    0 -0.00000000000E+00 -0.00000000000E+00 -0.57095642733E+03  0.57095642733E+03  0.00000000000E+00 0. -1.
         25    2    1    2    0    0  0.11825488561E+03  0.54495669745E+02  0.37903967029E+03  0.41981548761E+03  0.12497990234E+03 0.  0.
          2    1    1    2  501    0 -0.90295436190E+02 -0.71510802614E+02 -0.54396991712E+03  0.55603087272E+03  0.00000000000E+00 0. -1.
          1    1    1    2  502    0 -0.27959449422E+02  0.17015132869E+02  0.47082810326E+03  0.47196435074E+03  0.00000000000E+00 0. -1.
         22    1    3    3    0    0 -0.14287554089E+02 -0.14686759820E+02  0.12614421079E+02  0.24061561359E+02  0.00000000000E+00 0.  1.
         22    1    3    3    0    0  0.13254243970E+03  0.69182429565E+02  0.36642524921E+03  0.39575392625E+03  0.00000000000E+00 0.  1.
</event>
<event>
 7    1  0.5194496E-006  0.9309849E+02  0.7818608E-02  0.1371464E+00
          2   -1    0    0  502    0  0.00000000000E+00  0.00000000000E+00  0.16877749848E+04  0.16877749848E+04  0.00000000000E+00 0. -1.
          1   -1    0    0  501    0 -0.00000000000E+00 -0.00000000000E+00 -0.36391960785E+02  0.36391960785E+02  0.00000000000E+00 0. -1.
         25    2    1    2    0    0  0.53398814461E+02  0.11854489727E+03  0.57674090004E+03  0.60428194250E+03  0.12498909632E+03 0.  0.
          2    1    1    2  501    0 -0.48030853954E-01 -0.47875701632E+02  0.67745677882E+01  0.48352661586E+02  0.00000000000E+00 0. -1.
          1    1    1    2  502    0 -0.53350783607E+02 -0.70669195634E+02  0.10678675561E+04  0.10715323415E+04  0.00000000000E+00 0. -1.
         22    1    3    3    0    0  0.74264659805E+02  0.11865997728E+03  0.56084525005E+03  0.57805088392E+03  0.00000000000E+00 0. -1.
         22    1    3    3    0    0 -0.20865845344E+02 -0.11508001768E+00  0.15895649992E+02  0.26231058576E+02  0.00000000000E+00 0. -1.
</event>
<event>
 7    1  0.5194496E-006  0.1394825E+03  0.7818608E-02  0.1283655E+00
          2   -1    0    0  502    0  0.00000000000E+00  0.00000000000E+00  0.21310105717E+04  0.21310105717E+04  0.00000000000E+00 0. -1.
          1   -1    0    0  501    0 -0.00000000000E+00 -0.00000000000E+00 -0.14399567192E+04  0.14399567192E+04  0.00000000000E+00 0. -1.
         25    2    1    2    0    0 -0.16358534314E+03  0.94184732965E+02  0.17021919963E+03  0.28324949404E+03  0.12499908614E+03 0.  0.
          2    1    1    2  501    0  0.94546485517E+02 -0.10168912276E+03 -0.13793216614E+04  0.13862928843E+04  0.00000000000E+00 0. -1.
          1    1    1    2  502    0  0.69038857627E+02  0.75043897910E+01  0.19001563142E+04  0.19014249126E+04  0.00000000000E+00 0. -1.
         22    1    3    3    0    0 -0.14525106893E+03  0.20623478410E+02  0.86518007711E+02  0.17031901405E+03  0.00000000000E+00 0.  1.
         22    1    3    3    0    0 -0.18334274211E+02  0.73561254555E+02  0.83701191918E+02  0.11293047999E+03  0.00000000000E+00 0.  1.
</event>
<event>
 7    1  0.5194496E-006  0.8732947E+02  0.7818608E-02  0.1342500E+00
          2   -1    0    0  502    0  0.00000000000E+00  0.00000000000E+00  0.14321471128E+03  0.14321471128E+03  0.00000000000E+00 0. -1.
          1   -1    0    0  501    0 -0.00000000000E+00 -0.00000000000E+00 -0.22500412849E+04  0.22500412849E+04  0.00000000000E+00 0. -1.
         25    2    1    2    0    0 -0.10026235448E+03 -0.71578804151E+02 -0.22652287889E+03  0.28655509326E+03  0.12500056753E+03 0.  0.
          2    1    1    2  501    0  0.64821546836E+02 -0.67967895817E+01 -0.19765469583E+04  0.19776212751E+04  0.00000000000E+00 0. -1.
          1    1    1    2  502    0  0.35440807643E+02  0.78375593733E+02  0.96243263573E+02  0.12907962784E+03  0.00000000000E+00 0. -1.
         22    1    3    3    0    0  0.85103536090E+01 -0.41890085697E+02 -0.12314089647E+02  0.44484179234E+02  0.00000000000E+00 0.  1.
         22    1    3    3    0    0 -0.10877270809E+03 -0.29688718454E+02 -0.21420878924E+03  0.24207091403E+03  0.00000000000E+00 0.  1.
</event>
<event>
 7    1  0.5194496E-006  0.6474320E+02  0.7818608E-02  0.1382311E+00
          2   -1    0    0  502    0  0.00000000000E+00  0.00000000000E+00  0.22207595394E+03  0.22207595394E+03  0.00000000000E+00 0. -1.
          1   -1    0    0  501    0 -0.00000000000E+00 -0.00000000000E+00 -0.49609835824E+03  0.49609835824E+03  0.00000000000E+00 0. -1.
         25    2    1    2    0    0 -0.11041505144E+02 -0.11059411818E+02 -0.13663030357E+03  0.18583505913E+03  0.12499041533E+03 0.  0.
          2    1    1    2  501    0  0.38386267218E+02 -0.49941587308E+02 -0.32610661262E+03  0.33213429580E+03  0.00000000000E+00 0. -1.
          1    1    1    2  502    0 -0.27344762074E+02  0.61000999126E+02  0.18871451189E+03  0.20020495724E+03  0.00000000000E+00 0. -1.
         22    1    3    3    0    0  0.40489754724E+02 -0.38164219106E+02 -0.10677328183E+03  0.12040125236E+03  0.00000000000E+00 0. -1.
         22    1    3    3    0    0 -0.51531259868E+02  0.27104807288E+02 -0.29857021743E+02  0.65433806775E+02  0.00000000000E+00 0. -1.
</event>
<event>
 7    1  0.5194496E-006  0.7903473E+02  0.7818608E-02  0.1361537E+00
          2   -1    0    0  502    0  0.00000000000E+00  0.00000000000E+00  0.15052998567E+04  0.15052998567E+04  0.00000000000E+00 0. -1.
          1   -1    0    0  501    0 -0.00000000000E+00 -0.00000000000E+00 -0.55631063939E+02  0.55631063939E+02  0.00000000000E+00 0. -1.
         25    2    1    2    0    0 -0.30023725111E+02  0.26834538789E+02  0.94997314953E+02  0.16208127495E+03  0.12499733317E+03 0.  0.
          2    1    1    2  501    0  0.84019399665E+02  0.30879890546E+02  0.75116086254E+02  0.11685569552E+03  0.00000000000E+00 0. -1.
          1    1    1    2  502    0 -0.53995674554E+02 -0.57714429335E+02  0.12795553916E+04  0.12819939502E+04  0.00000000000E+00 0. -1.
         22    1    3    3    0    0 -0.26050054641E+02 -0.48216348836E+02  0.51722780620E+02  0.75356935161E+02  0.00000000000E+00 0.  1.
         22    1    3    3    0    0 -0.39736704707E+01  0.75050887625E+02  0.43274534333E+02  0.86724339790E+02  0.00000000000E+00 0.  1.
</event>
<event>
 7    1  0.5194496E-006  0.6558920E+02  0.7818608E-02  0.1413324E+00
          2   -1    0    0  502    0  0.00000000000E+00  0.00000000000E+00  0.73350652905E+02  0.73350652905E+02  0.00000000000E+00 0. -1.
          1   -1    0    0  501    0 -0.00000000000E+00 -0.00000000000E+00 -0.12449106730E+04  0.12449106730E+04  0.00000000000E+00 0. -1.
         25    2    1    2    0    0  0.35177878832E+02  0.32189899367E+01 -0.10438781935E+03  0.16664280908E+03  0.12500065573E+03 0.  0.
          2    1    1    2  501    0  0.30473860036E+02 -0.37857793294E+02 -0.10757930569E+04  0.10768902311E+04  0.00000000000E+00 0. -1.
          1    1    1    2  502    0 -0.65651738868E+02  0.34638803357E+02  0.86208561877E+01  0.74728285647E+02  0.00000000000E+00 0. -1.
         22    1    3    3    0    0  0.43827465625E+02 -0.95443302244E+01 -0.12957069784E+03  0.13711493982E+03  0.00000000000E+00 0.  1.
         22    1    3    3    0    0 -0.86495867933E+01  0.12763320161E+02  0.25182878499E+02  0.29527869254E+02  0.00000000000E+00 0.  1.
</event>
<event>
 7    1  0.5194496E-006  0.2524159E+03  0.7818608E-02  0.1163950E+00
          2   -1    0    0  502    0  0.00000000000E+00  0.00000000000E+00  0.15778387211E+04  0.15778387211E+04  0.00000000000E+00 0. -1.
          1   -1    0    0  501    0 -0.00000000000E+00 -0.00000000000E+00 -0.28325635035E+03  0.28325635035E+03  0.00000000000E+00 0. -1.
         25    2    1    2    0    0 -0.27741418107E+03  0.30376580714E+02  0.35590612442E+03  0.46922848420E+03  0.12499934589E+03 0.  0.
          2    1    1    2  501    0  0.20726713455E+03 -0.14476724378E+03 -0.15065434300E+03  0.29430248215E+03  0.00000000000E+00 0. -1.
          1    1    1    2  502    0  0.70147046517E+02  0.11439066306E+03  0.10893305894E+04  0.10975641051E+04  0.00000000000E+00 0. -1.
         22    1    3    3    0    0  0.82111909962E+00  0.10202524587E+02  0.66417996139E+02  0.67202053210E+02  0.00000000000E+00 0. -1.
         22    1    3    3    0    0 -0.27823530017E+03  0.20174056127E+02  0.28948812828E+03  0.40202643099E+03  0.00000000000E+00 0. -1.
</event>
<event>
 7    1  0.5194496E-006  0.9276058E+02  0.7818608E-02  0.1328527E+00
          2   -1    0    0  502    0  0.00000000000E+00  0.00000000000E+00  0.20512714271E+04  0.20512714271E+04  0.00000000000E+00 0. -1.
          1   -1    0    0  501    0 -0.00000000000E+00 -0.00000000000E+00 -0.55344294107E+02  0.55344294107E+02  0.00000000000E+00 0. -1.
         25    2    1    2    0    0 -0.85338856383E+02  0.98347762408E+02  0.17800622792E+03  0.25351301746E+03  0.12501051982E+03 0.  0.
          2    1    1    2  501    0 -0.20794681398E+01 -0.69283306910E+02  0.56910903625E+02  0.89684735354E+02  0.00000000000E+00 0. -1.
          1    1    1    2  502    0  0.87418324523E+02 -0.29064455499E+02  0.17610100014E+04  0.17634179684E+04  0.00000000000E+00 0. -1.
         22    1    3    3    0    0 -0.18023464257E+02  0.20618920491E+02 -0.17581075045E+02  0.32543499286E+02  0.00000000000E+00 0. -1.
         22    1    3    3    0    0 -0.67315392126E+02  0.77728841918E+02  0.19558730296E+03  0.22096951818E+03  0.00000000000E+00 0. -1.
</event>
<event>
 7    1  0.5194496E-006  0.5400413E+02  0.7818608E-02  0.1506947E+00
          2   -1    0    0  502    0  0.00000000000E+00  0.00000000000E+00  0.13393687166E+04  0.13393687166E+04  0.00000000000E+00 0. -1.
          1   -1    0    0  501    0 -0.00000000000E+00 -0.00000000000E+00 -0.42998946434E+04  0.42998946434E+04  0.00000000000E+00 0. -1.
         25    2    1    2    0    0  0.40182981697E+02  0.65693282578E+02 -0.14445232292E+04  0.14519653034E+04  0.12500241279E+03 0.  0.
          2    1    1    2  501    0 -0.14344956515E+02 -0.50679959356E+02 -0.28512399712E+04  0.28517264261E+04  0.00000000000E+00 0. -1.
          1    1    1    2  502    0 -0.25838025182E+02 -0.15013323222E+02  0.13352372736E+04  0.13355716305E+04  0.00000000000E+00 0. -1.
         22    1    3    3    0    0  0.36493903399E+02  0.10216137850E+03 -0.11671159447E+04  0.11721469109E+04  0.00000000000E+00 0.  1.
         22    1    3    3    0    0  0.36890782978E+01 -0.36468095924E+02 -0.27740728446E+03  0.27981839252E+03  0.00000000000E+00 0.  1.
</event>
<event>
 7    1  0.5194496E-006  0.1555913E+03  0.7818608E-02  0.1354024E+00
          2   -1    0    0  502    0  0.00000000000E+00  0.00000000000E+00  0.34986906212E+03  0.34986906212E+03  0.00000000000E+00 0. -1.
          1   -1    0    0  501    0 -0.00000000000E+00 -0.00000000000E+00 -0.22724574769E+03  0.22724574769E+03  0.00000000000E+00 0. -1.
         25    2    1    2    0    0  0.12652052878E+03 -0.10051323697E+03 -0.83129355447E+01  0.20446528827E+03  0.12500637664E+03 0.  0.
          2    1    1    2  501    0 -0.98394899616E+02  0.11805563551E+03 -0.70087543630E+02  0.16891108051E+03  0.00000000000E+00 0. -1.
          1    1    1    2  502    0 -0.28125629168E+02 -0.17542398541E+02  0.20102379360E+03  0.20373844104E+03  0.00000000000E+00 0. -1.
         22    1    3    3    0    0  0.70837938643E+02 -0.20955289430E+02  0.51829745731E+02  0.90241122826E+02  0.00000000000E+00 0.  1.
         22    1    3    3    0    0  0.55682590141E+02 -0.79557947536E+02 -0.60142681275E+02  0.11422416545E+03  0.00000000000E+00 0.  1.
</event>
<event>
 7    1  0.5194496E-006  0.9057904E+02  0.7818608E-02  0.1324228E+00
          2   -1    0    0  502    0  0.00000000000E+00  0.00000000000E+00  0.25942459187E+04  0.25942459187E+04  0.00000000000E+00 0. -1.
          1   -1    0    0  501    0 -0.00000000000E+00 -0.00000000000E+00 -0.11963618039E+04  0.11963618039E+04  0.00000000000E+00 0. -1.
         25    2    1    2    0    0  0.63723864687E+02  0.10471390222E+02  0.10787567439E+04  0.10878934542E+04  0.12500269653E+03 0.  0.
          2    1    1    2  501    0  0.25935749603E+01  0.73689498761E+02 -0.11887500298E+04  0.11910346352E+04  0.00000000000E+00 0. -1.
          1    1    1    2  502    0 -0.66317439647E+02 -0.84160888983E+02  0.15078774007E+04  0.15116796333E+04  0.00000000000E+00 0. -1.
         22    1    3    3    0    0  0.60529124660E+02  0.37134714501E+02  0.10281823214E+04  0.10306316743E+04  0.00000000000E+00 0.  1.
         22    1    3    3    0    0  0.31947400270E+01 -0.26663324279E+02  0.50574422514E+02  0.57261779906E+02  0.00000000000E+00 0.  1.
</event>
<event>
 7    1  0.5194496E-006  0.3743036E+02  0.7818608E-02  0.1531478E+00
          2   -1    0    0  502    0  0.00000000000E+00  0.00000000000E+00  0.14361802626E+04  0.14361802626E+04  0.00000000000E+00 0. -1.
          1   -1    0    0  501    0 -0.00000000000E+00 -0.00000000000E+00 -0.34887178353E+02  0.34887178353E+02  0.00000000000E+00 0. -1.
         25    2    1    2    0    0 -0.77873396250E+01 -0.35375538534E+01  0.18586412961E+03  0.22415118589E+03  0.12500049006E+03 0.  0.
          2    1    1    2  501    0  0.38364633981E+02 -0.16551135035E+02  0.12755210720E+02  0.43686160416E+02  0.00000000000E+00 0. -1.
          1    1    1    2  502    0 -0.30577294356E+02  0.20088688888E+02  0.12026737439E+04  0.12032300946E+04  0.00000000000E+00 0. -1.
         22    1    3    3    0    0 -0.54506287090E+02  0.10474745179E+02  0.15912579171E+03  0.16852795971E+03  0.00000000000E+00 0.  1.
         22    1    3    3    0    0  0.46718947465E+02 -0.14012299033E+02  0.26738337899E+02  0.55623226174E+02  0.00000000000E+00 0.  1.
</event>
<event>
 7    1  0.5194496E-006  0.8508987E+02  0.7818608E-02  0.1451898E+00
          2   -1    0    0  502    0  0.00000000000E+00  0.00000000000E+00  0.14029904797E+04  0.14029904797E+04  0.00000000000E+00 0. -1.
          1   -1    0    0  501    0 -0.00000000000E+00 -0.00000000000E+00 -0.78242710345E+02  0.78242710345E+02  0.00000000000E+00 0. -1.
         25    2    1    2    0    0  0.29733579115E+02 -0.10553766375E+03  0.31949424320E+03  0.36018053870E+03  0.12502465685E+03 0.  0.
          2    1    1    2  501    0 -0.15316953286E+02  0.81543034597E+02 -0.27888996855E+02  0.87530975631E+02  0.00000000000E+00 0. -1.
          1    1    1    2  502    0 -0.14416625830E+02  0.23994629154E+02  0.10331425230E+04  0.10335216757E+04  0.00000000000E+00 0. -1.
         22    1    3    3    0    0  0.20263851563E+02  0.25495252805E+01  0.19063162335E+03  0.19172255887E+03  0.00000000000E+00 0.  1.
         22    1    3    3    0    0  0.94697275524E+01 -0.10808718903E+03  0.12886261986E+03  0.16845797983E+03  0.00000000000E+00 0.  1.
</event>
<event>
 7    1  0.5194496E-006  0.1217892E+03  0.7818608E-02  0.1302353E+00
          2   -1    0    0  502    0  0.00000000000E+00  0.00000000000E+00  0.41307449509E+03  0.41307449509E+03  0.00000000000E+00 0. -1.
          1   -1    0    0  501    0 -0.00000000000E+00 -0.00000000000E+00 -0.51374263885E+03  0.51374263885E+03  0.00000000000E+00 0. -1.
         25    2    1    2    0    0 -0.75802855152E+02  0.14930508138E+03 -0.12678104767E+03  0.24441117422E+03  0.12500123143E+03 0.  0.
          2    1    1    2  501    0  0.79892584819E+02 -0.82617057274E+02 -0.31473989822E+03  0.33506657069E+03  0.00000000000E+00 0. -1.
          1    1    1    2  502    0 -0.40897296674E+01 -0.66688024102E+02  0.34085280214E+03  0.34733938903E+03  0.00000000000E+00 0. -1.
         22    1    3    3    0    0 -0.25993593320E+02  0.13461930464E+03 -0.39212510416E+02  0.14260310322E+03  0.00000000000E+00 0.  1.
         22    1    3    3    0    0 -0.49809261832E+02  0.14685776737E+02 -0.87568537258E+02  0.10180807100E+03  0.00000000000E+00 0.  1.
</event>
<event>
 7    1  0.5194496E-006  0.1121620E+03  0.7818608E-02  0.1428319E+00
          2   -1    0    0  502    0  0.00000000000E+00  0.00000000000E+00  0.20205501249E+04  0.20205501249E+04  0.00000000000E+00 0. -1.
          1   -1    0    0  501    0 -0.00000000000E+00 -0.00000000000E+00 -0.57216878797E+03  0.57216878797E+03  0.00000000000E+00 0. -1.
         25    2    1    2    0    0 -0.12245421017E+03 -0.55470224567E+02  0.51781244264E+03  0.54938749280E+03  0.12499964836E+03 0.  0.
          2    1    1    2  501    0  0.97127403083E+02  0.55635735005E+02 -0.55064219352E+03  0.56190381092E+03  0.00000000000E+00 0. -1.
          1    1    1    2  502    0  0.25326807088E+02 -0.16551043800E+00  0.14812110878E+04  0.14814276092E+04  0.00000000000E+00 0. -1.
         22    1    3    3    0    0 -0.76128593355E+02  0.28429946669E+02  0.31109303103E+03  0.32153180021E+03  0.00000000000E+00 0.  1.
         22    1    3    3    0    0 -0.46325616816E+02 -0.83900171236E+02  0.20671941161E+03  0.22785569259E+03  0.00000000000E+00 0.  1.
</event>
<event>
 7    1  0.5194496E-006  0.1538729E+03  0.7818608E-02  0.1207325E+00
          2   -1    0    0  502    0  0.00000000000E+00  0.00000000000E+00  0.12620594874E+04  0.12620594874E+04  0.00000000000E+00 0. -1.
          1   -1    0    0  501    0 -0.00000000000E+00 -0.00000000000E+00 -0.22870553721E+03  0.22870553721E+03  0.00000000000E+00 0. -1.
         25    2    1    2    0    0 -0.22913438946E+03  0.85178304232E+02  0.33337459688E+03  0.43188225652E+03  0.12500299877E+03 0.  0.
          2    1    1    2  501    0  0.14687657093E+03  0.22881619645E+02 -0.14226711048E+03  0.20575768839E+03  0.00000000000E+00 0. -1.
          1    1    1    2  502    0  0.82257818530E+02 -0.10805992388E+03  0.84224646383E+03  0.85312507975E+03  0.00000000000E+00 0. -1.
         22    1    3    3    0    0 -0.24230730767E+03  0.92620943649E+02  0.31630010621E+03  0.40906873230E+03  0.00000000000E+00 0. -1.
         22    1    3    3    0    0  0.13172918210E+02 -0.74426394175E+01  0.17074490676E+02  0.22813524224E+02  0.00000000000E+00 0. -1.
</event>
<event>
 7    1  0.5194496E-006  0.1297460E+03  0.7818608E-02  0.1408074E+00
          2   -1    0    0  502    0  0.00000000000E+00  0.00000000000E+00  0.10963391208E+04  0.10963391208E+04  0.00000000000E+00 0. -1.
          1   -1    0    0  501    0 -0.00000000000E+00 -0.00000000000E+00 -0.30376466534E+03  0.30376466534E+03  0.00000000000E+00 0. -1.
         25    2    1    2    0    0  0.66258709174E+02  0.82170759007E+02  0.95561632884E+03  0.96952049173E+03  0.12500066305E+03 0.  0.
          2    1    1    2  501    0 -0.75270289507E+02 -0.10612591630E+03 -0.28111695245E+03  0.30976614978E+03  0.00000000000E+00 0. -1.
          1    1    1    2  502    0  0.90115803331E+01  0.23955157293E+02  0.11807507909E+03  0.12081714466E+03  0.00000000000E+00 0. -1.
         22    1    3    3    0    0  0.64687574804E+02  0.96695648049E+02  0.94319920275E+03  0.95034691916E+03  0.00000000000E+00 0.  1.
         22    1    3    3    0    0  0.15711343693E+01 -0.14524889043E+02  0.12417126095E+02  0.19173572577E+02  0.00000000000E+00 0.  1.
</event>
<event>
 7    1  0.5194496E-006  0.1011722E+03  0.7818608E-02  0.1350372E+00
          2   -1    0    0  502    0  0.00000000000E+00  0.00000000000E+00  0.15762456445E+03  0.15762456445E+03  0.00000000000E+00 0. -1.
          1   -1    0    0  501    0 -0.00000000000E+00 -0.00000000000E+00 -0.53527270344E+03  0.53527270344E+03  0.00000000000E+00 0. -1.
         25    2    1    2    0    0  0.14668137462E+03 -0.26780411727E+02 -0.80805510022E+02  0.21069118818E+03  0.12501452000E+03 0.  0.
          2    1    1    2  501    0 -0.94486358411E+02  0.20382398688E+02 -0.37541579265E+03  0.38765981411E+03  0.00000000000E+00 0. -1.
          1    1    1    2  502    0 -0.52195016212E+02  0.63980130394E+01  0.78573163688E+02  0.94546265607E+02  0.00000000000E+00 0. -1.
         22    1    3    3    0    0  0.78005950823E+02  0.25828711367E+02  0.12878137953E+02  0.83173896938E+02  0.00000000000E+00 0.  1.
         22    1    3    3    0    0  0.68675423799E+02 -0.52609123094E+02 -0.93683647976E+02  0.12751729124E+03  0.00000000000E+00 0.  1.
</event>
<event>
 7    1  0.5194496E-006  0.1004866E+03  0.7818608E-02  0.1396674E+00
          2   -1    0    0  502    0  0.00000000000E+00  0.00000000000E+00  0.16226355297E+04  0.16226355297E+04  0.00000000000E+00 0. -1.
          1   -1    0    0  501    0 -0.00000000000E+00 -0.00000000000E+00 -0.62247465524E+03  0.62247465524E+03  0.00000000000E+00 0. -1.
         25    2    1    2    0    0  0.92000805779E+01  0.90630050095E+02  0.30969544836E+02  0.15773795981E+03  0.12499481508E+03 0.  0.
          2    1    1    2  501    0 -0.35518711456E+02  0.67642055522E+01 -0.55683848893E+03  0.55801114334E+03  0.00000000000E+00 0. -1.
          1    1    1    2  502    0  0.26318630878E+02 -0.97394255647E+02  0.15260298185E+04  0.15293610818E+04  0.00000000000E+00 0. -1.
         22    1    3    3    0    0  0.13330899928E+02  0.20227082879E+02 -0.46834000482E+02  0.52728278711E+02  0.00000000000E+00 0.  1.
         22    1    3    3    0    0 -0.41308193498E+01  0.70402967216E+02  0.77803545318E+02  0.10500968110E+03  0.00000000000E+00 0.  1.
</event>
<event>
 7    1  0.5194496E-006  0.6578728E+02  0.7818608E-02  0.1403319E+00
          2   -1    0    0  502    0  0.00000000000E+00  0.00000000000E+00  0.24521837916E+03  0.24521837916E+03  0.00000000000E+00 0. -1.
          1   -1    0    0  501    0 -0.00000000000E+00 -0.00000000000E+00 -0.84493374082E+03  0.84493374082E+03  0.00000000000E+00 0. -1.
         25    2    1    2    0    0 -0.16008457761E+02  0.14011558226E+01  0.22630800689E+02  0.12804612668E+03  0.12500169383E+03 0.  0.
          2    1    1    2  501    0  0.58669942357E+02 -0.31822694609E+02 -0.78673880809E+03  0.78956494235E+03  0.00000000000E+00 0. -1.
          1    1    1    2  502    0 -0.42661484596E+02  0.30421538786E+02  0.16439264574E+03  0.17254105095E+03  0.00000000000E+00 0. -1.
         22    1    3    3    0    0 -0.70947179552E+01  0.36237417883E+02 -0.40864204224E+02  0.55076026224E+02  0.00000000000E+00 0.  1.
         22    1    3    3    0    0 -0.89137398059E+01 -0.34836262060E+02  0.63495004913E+02  0.72970100456E+02  0.00000000000E+00 0.  1.
</event>
<event>
 7    1  0.5194496E-006  0.5044505E+02  0.7818608E-02  0.1516451E+00
          2   -1    0    0  502    0  0.00000000000E+00  0.00000000000E+00  0.27203545023E+04  0.27203545023E+04  0.00000000000E+00 0. -1.
          1   -1    0    0  501    0 -0.00000000000E+00 -0.00000000000E+00 -0.76321994258E+01  0.76321994258E+01  0.00000000000E+00 0. -1.
         25    2    1    2    0    0  0.29582689283E+02  0.12636229732E+02  0.11440074884E+04  0.11512660933E+04  0.12500269738E+03 0.  0.
          2    1    1    2  501    0  0.26030436155E+01  0.29887129352E+02  0.60178145103E+02  0.67241545825E+02  0.00000000000E+00 0. -1.
          1    1    1    2  502    0 -0.32185732899E+02 -0.42523359084E+02  0.15085366694E+04  0.15094790626E+04  0.00000000000E+00 0. -1.
         22    1    3    3    0    0 -0.32003893482E+02 -0.23640169555E+02  0.16810233203E+03  0.17274692718E+03  0.00000000000E+00 0. -1.
         22    1    3    3    0    0  0.61586582765E+02  0.36276399288E+02  0.97590515635E+03  0.97851916615E+03  0.00000000000E+00 0. -1.
</event>
<event>
 7    1  0.5194496E-006  0.1818363E+03  0.7818608E-02  0.1229870E+00
          2   -1    0    0  502    0  0.00000000000E+00  0.00000000000E+00  0.61746905579E+03  0.61746905579E+03  0.00000000000E+00 0. -1.
          1   -1    0    0  501    0 -0.00000000000E+00 -0.00000000000E+00 -0.20718784707E+04  0.20718784707E+04  0.00000000000E+00 0. -1.
         25    2    1    2    0    0  0.11416150489E+03  0.67868820352E+02 -0.28966703418E+02  0.18466805321E+03  0.12499677594E+03 0.  0.
          2    1    1    2  501    0 -0.98384684807E+02 -0.15713303298E+03 -0.19568418329E+04  0.19656043079E+04  0.00000000000E+00 0. -1.
          1    1    1    2  502    0 -0.15776820078E+02  0.89264212625E+02  0.53139912140E+03  0.53907516538E+03  0.00000000000E+00 0. -1.
         22    1    3    3    0    0  0.13156770318E+03  0.27481917321E+02 -0.38201634862E+02  0.13973074538E+03  0.00000000000E+00 0. -1.
         22    1    3    3    0    0 -0.17406198295E+02  0.40386903030E+02  0.92349314439E+01  0.44937307821E+02  0.00000000000E+00 0. -1.
</event>
<event>
 7    1  0.5194496E-006  0.7530681E+02  0.7818608E-02  0.1426719E+00
          2   -1    0    0  502    0  0.00000000000E+00  0.00000000000E+00  0.11088120219E+02  0.11088120219E+02  0.00000000000E+00 0. -1.
          1   -1    0    0  501    0 -0.00000000000E+00 -0.00000000000E+00 -0.36538531750E+04  0.36538531750E+04  0.00000000000E+00 0. -1.
         25    2    1    2    0    0  0.14498617157E+02  0.55992139654E+02 -0.67180024910E+03  0.68577351692E+03  0.12499764884E+03 0.  0.
          2    1    1    2  501    0  0.18742427548E+02 -0.74782847576E+02 -0.28728529036E+04  0.28738871861E+04  0.00000000000E+00 0. -1.
          1    1    1    2  502    0 -0.33241044705E+02  0.18790707922E+02 -0.98111902074E+02  0.10528059216E+03  0.00000000000E+00 0. -1.
         22    1    3    3    0    0  0.37933125941E+01  0.27921911664E+02 -0.64469569300E+03  0.64531121092E+03  0.00000000000E+00 0. -1.
         22    1    3    3    0    0  0.10705304563E+02  0.28070227990E+02 -0.27104556101E+02  0.40462305997E+02  0.00000000000E+00 0. -1.
</event>
<event>
 7    1  0.5194496E-006  0.1241227E+03  0.7818608E-02  0.1274548E+00
          2   -1    0    0  502    0  0.00000000000E+00  0.00000000000E+00  0.43030571766E+03  0.43030571766E+03  0.00000000000E+00 0. -1.
          1   -1    0    0  501    0 -0.00000000000E+00 -0.00000000000E+00 -0.11633356874E+04  0.11633356874E+04  0.00000000000E+00 0. -1.
         25    2    1    2    0    0 -0.18917073064E+03 -0.83462911526E+02  0.13290507943E+02  0.24197809599E+03  0.12500055362E+03 0.  0.
          2    1    1    2  501    0  0.10971740926E+03  0.52941444890E+02 -0.10393795880E+04  0.10464944503E+04  0.00000000000E+00 0. -1.
          1    1    1    2  502    0  0.79453321377E+02  0.30521466636E+02  0.29305911036E+03  0.30516885878E+03  0.00000000000E+00 0. -1.
         22    1    3    3    0    0 -0.14300132676E+03 -0.13925197944E+02 -0.31732846888E+02  0.14714028736E+03  0.00000000000E+00 0. -1.
         22    1    3    3    0    0 -0.46169403879E+02 -0.69537713582E+02  0.45023354831E+02  0.94837808626E+02  0.00000000000E+00 0. -1.
</event>
<event>
 7    1  0.8119424E-006  0.6380025E+02  0.7818608E-02  0.1399656E+00
          2   -1    0    0  502    0  0.00000000000E+00  0.00000000000E+00  0.18091692744E+04  0.18091692744E+04  0.00000000000E+00 0. -1.
          1   -1    0    0  501    0 -0.00000000000E+00 -0.00000000000E+00 -0.68684338938E+03  0.68684338938E+03  0.00000000000E+00 0. -1.
         25    2    1    2    0    0  0.17790032250E+02 -0.52908280504E+01 -0.56215769350E+02  0.13831088609E+03  0.12500084151E+03 0.  0.
          2    1    1    2  501    0 -0.27802868230E+02  0.59997299420E+02 -0.58728673987E+03  0.59099779208E+03  0.00000000000E+00 0. -1.
          1    1    1    2  502    0  0.10012835980E+02 -0.54706471369E+02  0.17658283942E+04  0.17667039856E+04  0.00000000000E+00 0. -1.
         22    1    3    3    0    0 -0.94766602370E+01 -0.14599107966E+02  0.36921847013E+02  0.40818670109E+02  0.00000000000E+00 0. -1.
         22    1    3    3    0    0  0.27266692487E+02  0.93082799159E+01 -0.93137616363E+02  0.97492215976E+02  0.00000000000E+00 0. -1.
</event>
<event>
 7    1  0.5194496E-006  0.1090295E+03  0.7818608E-02  0.1265149E+00
          2   -1    0    0  502    0  0.00000000000E+00  0.00000000000E+00  0.12114539512E+04  0.12114539512E+04  0.00000000000E+00 0. -1.
          1   -1    0    0  501    0 -0.00000000000E+00 -0.00000000000E+00 -0.20476796718E+03  0.20476796718E+03  0.00000000000E+00 0. -1.
         25    2    1    2    0    0  0.30273919928E+02  0.77834991723E+01  0.21905422545E+03  0.25414045644E+03  0.12500209929E+03 0.  0.
          2    1    1    2  501    0 -0.56949361576E+02  0.97932403062E+02 -0.16669482472E+03  0.20154689267E+03  0.00000000000E+00 0. -1.
          1    1    1    2  502    0  0.26675441649E+02 -0.10571590223E+03  0.95432658331E+03  0.96053456928E+03  0.00000000000E+00 0. -1.
         22    1    3    3    0    0 -0.19910328618E+02 -0.23132323893E+02  0.35568463216E+01  0.30727459220E+02  0.00000000000E+00 0.  1.
         22    1    3    3    0    0  0.50184248546E+02  0.30915823065E+02  0.21549737913E+03  0.22341299722E+03  0.00000000000E+00 0.  1.
</event>
<event>
 7    1  0.5194496E-006  0.3678481E+02  0.7818608E-02  0.1563516E+00
          2   -1    0    0  502    0  0.00000000000E+00  0.00000000000E+00  0.17060649220E+04  0.17060649220E+04  0.00000000000E+00 0. -1.
          1   -1    0    0  501    0 -0.00000000000E+00 -0.00000000000E+00 -0.10134048037E+03  0.10134048037E+03  0.00000000000E+00 0. -1.
         25    2    1    2    0    0  0.33207653785E+02 -0.39875859925E+02  0.13506791084E+03  0.19122175111E+03  0.12501833900E+03 0.  0.
          2    1    1    2  501    0 -0.35314304183E+02  0.96665729187E+01 -0.68530820929E+02  0.77698237619E+02  0.00000000000E+00 0. -1.
          1    1    1    2  502    0  0.21066503978E+01  0.30209287006E+02  0.15381873517E+04  0.15384854136E+04  0.00000000000E+00 0. -1.
         22    1    3    3    0    0  0.11751240723E+02  0.45255543767E+02  0.57136381520E+02  0.73829005096E+02  0.00000000000E+00 0. -1.
         22    1    3    3    0    0  0.21456413063E+02 -0.85131403692E+02  0.77931529317E+02  0.11739274602E+03  0.00000000000E+00 0. -1.
</event>
<event>
 7    1  0.5194496E-006  0.4315580E+02  0.7818608E-02  0.1575228E+00
          2   -1    0    0  502    0  0.00000000000E+00  0.00000000000E+00  0.18688144781E+04  0.18688144781E+04  0.00000000000E+00 0. -1.
          1   -1    0    0  501    0 -0.00000000000E+00 -0.00000000000E+00 -0.21454275717E+02  0.21454275717E+02  0.00000000000E+00 0. -1.
         25    2    1    2    0    0  0.18435016982E+02 -0.54819736670E+02  0.35872424355E+03  0.38425611733E+03  0.12499850966E+03 0.  0.
          2    1    1    2  501    0 -0.26356708918E+02  0.32178396296E+02  0.41770255322E+02  0.58948108730E+02  0.00000000000E+00 0. -1.
          1    1    1    2  502    0  0.79216919357E+01  0.22641340374E+02  0.14468657035E+04  0.14470645278E+04  0.00000000000E+00 0. -1.
         22    1    3    3    0    0 -0.18973066988E+02 -0.84651266522E+02  0.26795855470E+03  0.28165155996E+03  0.00000000000E+00 0.  1.
         22    1    3    3    0    0  0.37408083970E+02  0.29831529852E+02  0.90765688858E+02  0.10260455737E+03  0.00000000000E+00 0.  1.
</event>
<event>
 7    1  0.5194496E-006  0.7333182E+02  0.7818608E-02  0.1414525E+00
          2   -1    0    0  502    0  0.00000000000E+00  0.00000000000E+00  0.23945383929E+03  0.23945383929E+03  0.00000000000E+00 0. -1.
          1   -1    0    0  501    0 -0.00000000000E+00 -0.00000000000E+00 -0.30351024543E+03  0.30351024543E+03  0.00000000000E+00 0. -1.
         25    2    1    2    0    0 -0.22566226135E+02  0.95651613291E+02 -0.65717439572E+02  0.17205468828E+03  0.12500227281E+03 0.  0.
          2    1    1    2  501    0 -0.11976743938E+02 -0.69934662858E+02 -0.17512560078E+03  0.18895310400E+03  0.00000000000E+00 0. -1.
          1    1    1    2  502    0  0.34542970073E+02 -0.25716950433E+02  0.17678663421E+03  0.18195629243E+03  0.00000000000E+00 0. -1.
         22    1    3    3    0    0 -0.22657738767E+01 -0.10687688761E+02 -0.62813022375E+02  0.63756067964E+02  0.00000000000E+00 0. -1.
         22    1    3    3    0    0 -0.20300452258E+02  0.10633930205E+03 -0.29044171972E+01  0.10829862031E+03  0.00000000000E+00 0. -1.
</event>
<event>
 7    1  0.5194496E-006  0.8803921E+02  0.7818608E-02  0.1329444E+00
          2   -1    0    0  502    0  0.00000000000E+00  0.00000000000E+00  0.31561310697E+04  0.31561310697E+04  0.00000000000E+00 0. -1.
          1   -1    0    0  501    0 -0.00000000000E+00 -0.00000000000E+00 -0.43362293805E+02  0.43362293805E+02  0.00000000000E+00 0. -1.
         25    2    1    2    0    0 -0.13523674399E+03 -0.40311522731E+02  0.29617876124E+03  0.35108847611E+03  0.12500905430E+03 0.  0.
          2    1    1    2  501    0  0.62794951925E+02  0.39759202876E+02  0.74076989592E+02  0.10493522091E+03  0.00000000000E+00 0. -1.
          1    1    1    2  502    0  0.72441792064E+02  0.55231985481E+00  0.27425130251E+04  0.27434696665E+04  0.00000000000E+00 0. -1.
         22    1    3    3    0    0 -0.10999326182E+03 -0.28544406442E+02  0.95358328829E+02  0.14834591893E+03  0.00000000000E+00 0. -1.
         22    1    3    3    0    0 -0.25243482165E+02 -0.11767116289E+02  0.20082043241E+03  0.20274255718E+03  0.00000000000E+00 0. -1.
</event>
<event>
 7    1  0.5194496E-006  0.5022902E+02  0.7818608E-02  0.1484728E+00
          2   -1    0    0  502    0  0.00000000000E+00  0.00000000000E+00  0.45861906102E+03  0.45861906102E+03  0.00000000000E+00 0. -1.
          1   -1    0    0  501    0 -0.00000000000E+00 -0.00000000000E+00 -0.97628914841E+03  0.97628914841E+03  0.00000000000E+00 0. -1.
         25    2    1    2    0    0  0.28078064065E+02  0.31638319823E+02 -0.43707752041E+02  0.13901219516E+03  0.12499864740E+03 0.  0.
          2    1    1    2  501    0  0.43711120253E+01 -0.50358037206E+02 -0.88335144853E+03  0.88479648516E+03  0.00000000000E+00 0. -1.
          1    1    1    2  502    0 -0.32449176090E+02  0.18719717384E+02  0.40938911318E+03  0.41109952912E+03  0.00000000000E+00 0. -1.
         22    1    3    3    0    0 -0.29606390594E+02 -0.27604320473E+02 -0.38970544455E+02  0.56189324680E+02  0.00000000000E+00 0. -1.
         22    1    3    3    0    0  0.57684454659E+02  0.59242640295E+02 -0.47372075854E+01  0.82822870478E+02  0.00000000000E+00 0. -1.
</event>
<event>
 7    1  0.5691590E-006  0.1324763E+03  0.7818608E-02  0.1346693E+00
          2   -1    0    0  502    0  0.00000000000E+00  0.00000000000E+00  0.12942542345E+04  0.12942542345E+04  0.00000000000E+00 0. -1.
          1   -1    0    0  501    0 -0.00000000000E+00 -0.00000000000E+00 -0.43750452614E+03  0.43750452614E+03  0.00000000000E+00 0. -1.
         25    2    1    2    0    0 -0.19509952263E+02  0.91501226068E+02 -0.56735549339E+02  0.16612234229E+03  0.12499838975E+03 0.  0.
          2    1    1    2  501    0  0.35395640821E+01  0.41291714548E+02 -0.32113219421E+03  0.32379533716E+03  0.00000000000E+00 0. -1.
          1    1    1    2  502    0  0.15970388181E+02 -0.13279294062E+03  0.12346174519E+04  0.12418410812E+04  0.00000000000E+00 0. -1.
         22    1    3    3    0    0  0.48878931794E+01  0.98919553472E-01 -0.70372393821E+02  0.70542009448E+02  0.00000000000E+00 0.  1.
         22    1    3    3    0    0 -0.24397845443E+02  0.91402306515E+02  0.13636844482E+02  0.95580332840E+02  0.00000000000E+00 0.  1.
</event>
<event>
 7    1  0.5194496E-006  0.5327880E+02  0.7818608E-02  0.1530233E+00
          2   -1    0    0  502    0  0.00000000000E+00  0.00000000000E+00  0.19781541514E+04  0.19781541514E+04  0.00000000000E+00 0. -1.
          1   -1    0    0  501    0 -0.00000000000E+00 -0.00000000000E+00 -0.64082963306E+03  0.64082963306E+03  0.00000000000E+00 0. -1.
         25    2    1    2    0    0  0.34790797527E+02  0.35879044134E+02  0.25561224884E+03  0.28889353828E+03  0.12499659717E+03 0.  0.
          2    1    1    2  501    0 -0.20602411877E+02  0.15719819350E+02 -0.62350007995E+03  0.62403839769E+03  0.00000000000E+00 0. -1.
          1    1    1    2  502    0 -0.14188385649E+02 -0.51598863483E+02  0.17052123494E+04  0.17060518484E+04  0.00000000000E+00 0. -1.
         22    1    3    3    0    0  0.52250343212E+02 -0.25388858928E+02  0.18444617379E+03  0.19337808446E+03  0.00000000000E+00 0.  1.
         22    1    3    3    0    0 -0.17459545685E+02  0.61267903062E+02  0.71166075056E+02  0.95515453829E+02  0.00000000000E+00 0.  1.
</event>
<event>
 7    1  0.5194496E-006  0.1308083E+03  0.7818608E-02  0.1314402E+00
          2   -1    0    0  502    0  0.00000000000E+00  0.00000000000E+00  0.14806832556E+04  0.14806832556E+04  0.00000000000E+00 0. -1.
          1   -1    0    0  501    0 -0.00000000000E+00 -0.00000000000E+00 -0.31963267755E+03  0.31963267755E+03  0.00000000000E+00 0. -1.
         25    2    1    2    0    0  0.13661316117E+03  0.10436000198E+03  0.49307964938E+03  0.53694168367E+03  0.12499866084E+03 0.  0.
          2    1    1    2  501    0 -0.11920300990E+03 -0.51399842320E+02 -0.28269498012E+03  0.31107515675E+03  0.00000000000E+00 0. -1.
          1    1    1    2  502    0 -0.17410151268E+02 -0.52960159664E+02  0.95066590882E+03  0.95229909276E+03  0.00000000000E+00 0. -1.
         22    1    3    3    0    0  0.14186860282E+03  0.54654431306E+02  0.43227245302E+03  0.45822841572E+03  0.00000000000E+00 0.  1.
         22    1    3    3    0    0 -0.52554416459E+01  0.49705570677E+02  0.60807196353E+02  0.78713267951E+02  0.00000000000E+00 0.  1.
</event>
<event>
 7    1  0.5194496E-006  0.3101644E+02  0.7818608E-02  0.1642987E+00
          2   -1    0    0  502    0  0.00000000000E+00  0.00000000000E+00  0.97696566540E+03  0.97696566540E+03  0.00000000000E+00 0. -1.
          1   -1    0    0  501    0 -0.00000000000E+00 -0.00000000000E+00 -0.14201006979E+04  0.14201006979E+04  0.00000000000E+00 0. -1.
         25    2    1    2    0    0 -0.19150294754E+02  0.18244012498E+01  0.29749421675E+03  0.32326259192E+03  0.12500332840E+03 0.  0.
          2    1    1    2  501    0  0.23714208511E+02  0.20006395789E+02 -0.14068588728E+04  0.14072009478E+04  0.00000000000E+00 0. -1.
          1    1    1    2  502    0 -0.45639137564E+01 -0.21830797038E+02  0.66622962358E+03  0.66660282354E+03  0.00000000000E+00 0. -1.
         22    1    3    3    0    0 -0.41547580288E+02  0.41681355596E+02  0.25194085201E+03  0.25872326866E+03  0.00000000000E+00 0.  1.
         22    1    3    3    0    0  0.22397285533E+02 -0.39856954346E+02  0.45553364733E+02  0.64539323265E+02  0.00000000000E+00 0.  1.
</event>
<event>
 7    1  0.5194496E-006  0.8879689E+02  0.7818608E-02  0.1355684E+00
          2   -1    0    0  502    0  0.00000000000E+00  0.00000000000E+00  0.34262869759E+03  0.34262869759E+03  0.00000000000E+00 0. -1.
          1   -1    0    0  501    0 -0.00000000000E+00 -0.00000000000E+00 -0.23523267972E+04  0.23523267972E+04  0.00000000000E+00 0. -1.
         25    2    1    2    0    0 -0.12535590006E+03 -0.24140382697E+02 -0.17559579342E+04  0.17650238940E+04  0.12499688026E+03 0.  0.
          2    1    1    2  501    0  0.70104514675E+02  0.90629038483E+01 -0.58727574834E+03  0.59151465223E+03  0.00000000000E+00 0. -1.
          1    1    1    2  502    0  0.55251385389E+02  0.15077478848E+02  0.33353558295E+03  0.33841694852E+03  0.00000000000E+00 0. -1.
         22    1    3    3    0    0 -0.14374704412E+03 -0.41291132888E+02 -0.13432407842E+04  0.13515413330E+04  0.00000000000E+00 0.  1.
         22    1    3    3    0    0  0.18391144059E+02  0.17150750191E+02 -0.41271715000E+03  0.41348256108E+03  0.00000000000E+00 0.  1.
</event>
<event>
 7    1  0.5194496E-006  0.6809045E+02  0.7818608E-02  0.1424649E+00
          2   -1    0    0  502    0  0.00000000000E+00  0.00000000000E+00  0.25206417423E+04  0.25206417423E+04  0.00000000000E+00 0. -1.
          1   -1    0    0  501    0 -0.00000000000E+00 -0.00000000000E+00 -0.11144520690E+03  0.11144520690E+03  0.00000000000E+00 0. -1.
         25    2    1    2    0    0 -0.43646676638E+02 -0.49354603719E+02  0.77620785701E+03  0.78896373759E+03  0.12499693056E+03 0.  0.
          2    1    1    2  501    0  0.50655434770E+01  0.68122441367E+02 -0.93669369976E+02  0.11593221131E+03  0.00000000000E+00 0. -1.
          1    1    1    2  502    0  0.38581133161E+02 -0.18767837649E+02  0.17266580484E+04  0.17271910003E+04  0.00000000000E+00 0. -1.
         22    1    3    3    0    0 -0.74209340219E+02 -0.26589565138E+01  0.58756784876E+03  0.59224156653E+03  0.00000000000E+00 0. -1.
         22    1    3    3    0    0  0.30562663581E+02 -0.46695647205E+02  0.18864000825E+03  0.19672217106E+03  0.00000000000E+00 0. -1.
</event>
<event>
 7    1  0.5194496E-006  0.7809011E+02  0.7818608E-02  0.1362097E+00
          2   -1    0    0  502    0  0.00000000000E+00  0.00000000000E+00  0.92022701301E+02  0.92022701301E+02  0.00000000000E+00 0. -1.
          1   -1    0    0  501    0 -0.00000000000E+00 -0.00000000000E+00 -0.82300401371E+03  0.82300401371E+03  0.00000000000E+00 0. -1.
         25    2    1    2    0    0 -0.12329191783E+03 -0.43444224402E+02 -0.35220635324E+03  0.39593289404E+03  0.12500097473E+03 0.  0.
          2    1    1    2  501    0  0.70265025779E+02  0.11896391898E+02 -0.43185898257E+03  0.43769953029E+03  0.00000000000E+00 0. -1.
          1    1    1    2  502    0  0.53026892051E+02  0.31547832504E+02  0.53084023398E+02  0.81394290687E+02  0.00000000000E+00 0. -1.
         22    1    3    3    0    0 -0.16947030782E+02 -0.68980927940E+02 -0.12495544801E+03  0.14373390087E+03  0.00000000000E+00 0. -1.
         22    1    3    3    0    0 -0.10634488705E+03  0.25536703538E+02 -0.22725090522E+03  0.25219899317E+03  0.00000000000E+00 0. -1.
</event>
<event>
 7    1  0.5194496E-006  0.9819884E+02  0.7818608E-02  0.1425467E+00
          2   -1    0    0  502    0  0.00000000000E+00  0.00000000000E+00  0.22185967882E+03  0.22185967882E+03  0.00000000000E+00 0. -1.
          1   -1    0    0  501    0 -0.00000000000E+00 -0.00000000000E+00 -0.78499492348E+03  0.78499492348E+03  0.00000000000E+00 0. -1.
         25    2    1    2    0    0  0.48218215292E+02  0.94681125455E+02 -0.27377378456E+03  0.31916570632E+03  0.12500060469E+03 0.  0.
          2    1    1    2  501    0 -0.18662646267E+02 -0.95378204960E+02 -0.48255598726E+03  0.49224544405E+03  0.00000000000E+00 0. -1.
          1    1    1    2  502    0 -0.29555569025E+02  0.69707950489E+00  0.19319452715E+03  0.19544345193E+03  0.00000000000E+00 0. -1.
         22    1    3    3    0    0  0.22902315498E+02  0.22773741703E+02  0.26652719782E+01  0.32407762050E+02  0.00000000000E+00 0. -1.
         22    1    3    3    0    0  0.25315899794E+02  0.71907383751E+02 -0.27643905654E+03  0.28675794427E+03  0.00000000000E+00 0. -1.
</event>
<event>
 7    1  0.5194496E-006  0.2766843E+02  0.7818608E-02  0.1662915E+00
          2   -1    0    0  502    0  0.00000000000E+00  0.00000000000E+00  0.11199571479E+03  0.11199571479E+03  0.00000000000E+00 0. -1.
          1   -1    0    0  501    0 -0.00000000000E+00 -0.00000000000E+00 -0.16729285516E+04  0.16729285516E+04  0.00000000000E+00 0. -1.
         25    2    1    2    0    0  0.13924249264E+02  0.31377932414E+02 -0.16995785336E+03  0.21374983458E+03  0.12499944202E+03 0.  0.
          2    1    1    2  501    0 -0.24966406755E+02 -0.11946352041E+02 -0.14795572808E+04  0.14798161318E+04  0.00000000000E+00 0. -1.
          1    1    1    2  502    0  0.11042157492E+02 -0.19431580373E+02  0.88582297394E+02  0.91358299949E+02  0.00000000000E+00 0. -1.
         22    1    3    3    0    0  0.17781012912E+02  0.59911031559E+02 -0.27267740707E+02  0.68183764973E+02  0.00000000000E+00 0. -1.
         22    1    3    3    0    0 -0.38567636482E+01 -0.28533099145E+02 -0.14269011265E+03  0.14556606961E+03  0.00000000000E+00 0. -1.
</event>
<event>
 7    1  0.5194496E-006  0.7666117E+02  0.7818608E-02  0.1356688E+00
          2   -1    0    0  502    0  0.00000000000E+00  0.00000000000E+00  0.37832842793E+03  0.37832842793E+03  0.00000000000E+00 0. -1.
          1   -1    0    0  501    0 -0.00000000000E+00 -0.00000000000E+00 -0.83687965465E+03  0.83687965465E+03  0.00000000000E+00 0. -1.
         25    2    1    2    0    0  0.56619736553E+02  0.10018558339E+03  0.16917558125E+03  0.23976606793E+03  0.12499777739E+03 0.  0.
          2    1    1    2  501    0  0.57102336300E+01 -0.65529445497E+02 -0.79285115490E+03  0.79557505543E+03  0.00000000000E+00 0. -1.
          1    1    1    2  502    0 -0.62329970183E+02 -0.34656137888E+02  0.16512434692E+03  0.17986695923E+03  0.00000000000E+00 0. -1.
         22    1    3    3    0    0  0.94357840344E+02  0.57408568034E+02  0.12989996330E+03  0.17050849299E+03  0.00000000000E+00 0. -1.
         22    1    3    3    0    0 -0.37738103791E+02  0.42777015351E+02  0.39275617954E+02  0.69257574935E+02  0.00000000000E+00 0. -1.
</event>
<event>
 7    1  0.5194496E-006  0.6214191E+02  0.7818608E-02  0.1458341E+00
          2   -1    0    0  502    0  0.00000000000E+00  0.00000000000E+00  0.13832764675E+04  0.13832764675E+04  0.00000000000E+00 0. -1.
          1   -1    0    0  501    0 -0.00000000000E+00 -0.00000000000E+00 -0.51723670636E+02  0.51723670636E+02  0.00000000000E+00 0. -1.
         25    2    1    2    0    0 -0.86232324104E+02  0.15716740898E+02  0.48966376676E+03  0.51291214077E+03  0.12500092000E+03 0.  0.
          2    1    1    2  501    0  0.52892065603E+02 -0.30732226925E+02 -0.16151605969E+02  0.63268592136E+02  0.00000000000E+00 0. -1.
          1    1    1    2  502    0  0.33340258501E+02  0.15015486027E+02  0.85804063602E+03  0.85881940519E+03  0.00000000000E+00 0. -1.
         22    1    3    3    0    0 -0.10593883844E+03  0.38810423984E+02  0.29396422570E+03  0.31487180327E+03  0.00000000000E+00 0. -1.
         22    1    3    3    0    0  0.19706514339E+02 -0.23093683086E+02  0.19569954106E+03  0.19804033750E+03  0.00000000000E+00 0. -1.
</event>
<event>
 7    1  0.5194496E-006  0.7998260E+02  0.7818608E-02  0.1467961E+00
          2   -1    0    0  502    0  0.00000000000E+00  0.00000000000E+00  0.12015163004E+03  0.12015163004E+03  0.00000000000E+00 0. -1.
          1   -1    0    0  501    0 -0.00000000000E+00 -0.00000000000E+00 -0.19030686359E+04  0.19030686359E+04  0.00000000000E+00 0. -1.
         25    2    1    2    0    0  0.14366323690E+02  0.97809445942E+02 -0.41977553702E+03  0.44900930787E+03  0.12499911239E+03 0.  0.
          2    1    1    2  501    0 -0.26384615961E+02 -0.74191424311E+02 -0.14659391674E+04  0.14680525052E+04  0.00000000000E+00 0. -1.
          1    1    1    2  502    0  0.12018292271E+02 -0.23618021632E+02  0.10279769856E+03  0.10615845291E+03  0.00000000000E+00 0. -1.
         22    1    3    3    0    0  0.48773809637E+02  0.96711602599E+02 -0.38551155832E+03  0.40043873462E+03  0.00000000000E+00 0. -1.
         22    1    3    3    0    0 -0.34407485947E+02  0.10978433438E+01 -0.34263978698E+02  0.48570573246E+02  0.00000000000E+00 0. -1.
</event>
<event>
 7    1  0.5194496E-006  0.1005073E+03  0.7818608E-02  0.1428282E+00
          2   -1    0    0  502    0  0.00000000000E+00  0.00000000000E+00  0.24090120212E+03  0.24090120212E+03  0.00000000000E+00 0. -1.
          1   -1    0    0  501    0 -0.00000000000E+00 -0.00000000000E+00 -0.33426702647E+04  0.33426702647E+04  0.00000000000E+00 0. -1.
         25    2    1    2    0    0  0.40052805638E+02  0.72362407880E+02 -0.38988884493E+03  0.41770680979E+03  0.12500048895E+03 0.  0.
          2    1    1    2  501    0 -0.27867711023E+02 -0.97874172170E+02 -0.29371074486E+04  0.29388698725E+04  0.00000000000E+00 0. -1.
          1    1    1    2  502    0 -0.12185094616E+02  0.25511764290E+02  0.22522723093E+03  0.22699478453E+03  0.00000000000E+00 0. -1.
         22    1    3    3    0    0  0.60730510068E+00  0.27435664789E+02 -0.46221766519E+01  0.27828924501E+02  0.00000000000E+00 0. -1.
         22    1    3    3    0    0  0.39445500538E+02  0.44926743091E+02 -0.38526666827E+03  0.38987788529E+03  0.00000000000E+00 0. -1.
</event>
<event>
 7    1  0.5194496E-006  0.8067815E+02  0.7818608E-02  0.1435688E+00
          2   -1    0    0  502    0  0.00000000000E+00  0.00000000000E+00  0.43134271675E+03  0.43134271675E+03  0.00000000000E+00 0. -1.
          1   -1    0    0  501    0 -0.00000000000E+00 -0.00000000000E+00 -0.89936978754E+03  0.89936978754E+03  0.00000000000E+00 0. -1.
         25    2    1    2    0    0  0.27039576813E+02  0.47623760992E+02 -0.49013654453E+03  0.50878261888E+03  0.12500703844E+03 0.  0.
          2    1    1    2  501    0  0.32536136618E+02  0.71078229905E+01 -0.39532652973E+03  0.39672684109E+03  0.00000000000E+00 0. -1.
          1    1    1    2  502    0 -0.59575713431E+02 -0.54731583983E+02  0.41743600347E+03  0.42520304433E+03  0.00000000000E+00 0. -1.
         22    1    3    3    0    0  0.46959212548E+02  0.21556905447E+02 -0.46391723662E+03  0.46678589337E+03  0.00000000000E+00 0.  1.
         22    1    3    3    0    0 -0.19919635735E+02  0.26066855545E+02 -0.26219307912E+02  0.41996725506E+02  0.00000000000E+00 0.  1.
</event>
<event>
 7    1  0.5194496E-006  0.6109833E+02  0.7818608E-02  0.1478343E+00
          2   -1    0    0  502    0  0.00000000000E+00  0.00000000000E+00  0.18672644069E+04  0.18672644069E+04  0.00000000000E+00 0. -1.
          1   -1    0    0  501    0 -0.00000000000E+00 -0.00000000000E+00 -0.18899856268E+03  0.18899856268E+03  0.00000000000E+00 0. -1.
         25    2    1    2    0    0  0.47134963984E+02 -0.12377553466E+02  0.74589315035E+02  0.15350412465E+03  0.12500016683E+03 0.  0.
          2    1    1    2  501    0 -0.43534149610E+02  0.44390627026E+02 -0.14292351325E+03  0.15586173549E+03  0.00000000000E+00 0. -1.
          1    1    1    2  502    0 -0.36008143745E+01 -0.32013073561E+02  0.17466000424E+04  0.17468971094E+04  0.00000000000E+00 0. -1.
         22    1    3    3    0    0  0.82876272268E+01  0.69062064448E+01  0.10175706225E+03  0.10232731879E+03  0.00000000000E+00 0. -1.
         22    1    3    3    0    0  0.38847336758E+02 -0.19283759910E+02 -0.27167747216E+02  0.51176805862E+02  0.00000000000E+00 0. -1.
</event>
<event>
 7    1  0.5194496E-006  0.1113287E+03  0.7818608E-02  0.1399007E+00
          2   -1    0    0  502    0  0.00000000000E+00  0.00000000000E+00  0.11872882246E+04  0.11872882246E+04  0.00000000000E+00 0. -1.
          1   -1    0    0  501    0 -0.00000000000E+00 -0.00000000000E+00 -0.68066867180E+02  0.68066867180E+02  0.00000000000E+00 0. -1.
         25    2    1    2    0    0  0.83306018362E+02  0.30453873968E+02  0.19097823008E+03  0.24487999003E+03  0.12500477597E+03 0.  0.
          2    1    1    2  501    0  0.29601796175E+02 -0.12250373884E+02 -0.30916359225E+02  0.44521447245E+02  0.00000000000E+00 0. -1.
          1    1    1    2  502    0 -0.11290781454E+03 -0.18203500084E+02  0.95915948658E+03  0.96595365453E+03  0.00000000000E+00 0. -1.
         22    1    3    3    0    0  0.76016485377E+02  0.64876265006E+02  0.78662638811E+02  0.12718194272E+03  0.00000000000E+00 0. -1.
         22    1    3    3    0    0  0.72895329850E+01 -0.34422391038E+02  0.11231559127E+03  0.11769804730E+03  0.00000000000E+00 0. -1.
</event>
<event>
 7    1  0.5194496E-006  0.2398472E+03  0.7818608E-02  0.1231174E+00
          2   -1    0    0  502    0  0.00000000000E+00  0.00000000000E+00  0.81805569694E+03  0.81805569694E+03  0.00000000000E+00 0. -1.
          1   -1    0    0  501    0 -0.00000000000E+00 -0.00000000000E+00 -0.12086282255E+04  0.12086282255E+04  0.00000000000E+00 0. -1.
         25    2    1    2    0    0 -0.29283122727E+03 -0.49612576707E+02 -0.15324293563E+03  0.35682042889E+03  0.12500354283E+03 0.  0.
          2    1    1    2  501    0  0.57620746624E+02  0.35739640890E+02 -0.93295585683E+03  0.93541653993E+03  0.00000000000E+00 0. -1.
          1    1    1    2  502    0  0.23521048065E+03  0.13872935818E+02  0.69562626394E+03  0.73444695359E+03  0.00000000000E+00 0. -1.
         22    1    3    3    0    0 -0.85954159561E+02 -0.25995167329E+02  0.12530036752E+02  0.90669002924E+02  0.00000000000E+00 0.  1.
         22    1    3    3    0    0 -0.20687706771E+03 -0.23617409379E+02 -0.16577297239E+03  0.26615142597E+03  0.00000000000E+00 0.  1.
</event>
<event>
 7    1  0.5194496E-006  0.9811659E+02  0.7818608E-02  0.1374629E+00
          2   -1    0    0  502    0  0.00000000000E+00  0.00000000000E+00  0.13300958610E+04  0.13300958610E+04  0.00000000000E+00 0. -1.
          1   -1    0    0  501    0 -0.00000000000E+00 -0.00000000000E+00 -0.17405623459E+04  0.17405623459E+04  0.00000000000E+00 0. -1.
         25    2    1    2    0    0 -0.42779175910E+02 -0.90467342734E+02  0.27236685386E+03  0.31594986542E+03  0.12500486544E+03 0.  0.
          2    1    1    2  501    0 -0.80618308397E+00  0.98151203039E+02 -0.17168957828E+04  0.17196992288E+04  0.00000000000E+00 0. -1.
          1    1    1    2  502    0  0.43585358994E+02 -0.76838603049E+01  0.10340624441E+04  0.10350091127E+04  0.00000000000E+00 0. -1.
         22    1    3    3    0    0 -0.75506496039E+01 -0.10618934669E+03  0.24911048197E+03  0.27090445158E+03  0.00000000000E+00 0. -1.
         22    1    3    3    0    0 -0.35228526306E+02  0.15722003959E+02  0.23256371895E+02  0.45045413839E+02  0.00000000000E+00 0. -1.
</event>
<event>
 7    1  0.5194496E-006  0.4955878E+02  0.7818608E-02  0.1510332E+00
          2   -1    0    0  502    0  0.00000000000E+00  0.00000000000E+00  0.20145100317E+04  0.20145100317E+04  0.00000000000E+00 0. -1.
          1   -1    0    0  501    0 -0.00000000000E+00 -0.00000000000E+00 -0.12114711600E+04  0.12114711600E+04  0.00000000000E+00 0. -1.
         25    2    1    2    0    0  0.42728146626E+01 -0.26245449589E+02  0.22066696584E+03  0.25500222447E+03  0.12500057642E+03 0.  0.
          2    1    1    2  501    0  0.21713047013E+02  0.44616108261E+02 -0.11936455477E+04  0.11946764194E+04  0.00000000000E+00 0. -1.
          1    1    1    2  502    0 -0.25985861676E+02 -0.18370658672E+02  0.17760174535E+04  0.17763025478E+04  0.00000000000E+00 0. -1.
         22    1    3    3    0    0  0.20651761426E+01 -0.68949767825E+02  0.69570324491E+02  0.97971248259E+02  0.00000000000E+00 0. -1.
         22    1    3    3    0    0  0.22076385200E+01  0.42704318236E+02  0.15109664135E+03  0.15703097621E+03  0.00000000000E+00 0. -1.
</event>
<event>
 7    1  0.5194496E-006  0.4729370E+02  0.7818608E-02  0.1491166E+00
          2   -1    0    0  502    0  0.00000000000E+00  0.00000000000E+00  0.41624022897E+03  0.41624022897E+03  0.00000000000E+00 0. -1.
          1   -1    0    0  501    0 -0.00000000000E+00 -0.00000000000E+00 -0.74222753473E+03  0.74222753473E+03  0.00000000000E+00 0. -1.
         25    2    1    2    0    0 -0.71050232749E+02  0.83383316974E+00  0.17004384856E+03  0.22268653791E+03  0.12500221150E+03 0.  0.
          2    1    1    2  501    0  0.41318855511E+02  0.22890906078E+02 -0.71347431265E+03  0.71503624818E+03  0.00000000000E+00 0. -1.
          1    1    1    2  502    0  0.29731377238E+02 -0.23724739247E+02  0.21744315832E+03  0.22074497762E+03  0.00000000000E+00 0. -1.
         22    1    3    3    0    0 -0.73331425190E+01  0.28889183253E+02 -0.85459752376E+01  0.31006347431E+02  0.00000000000E+00 0.  1.
         22    1    3    3    0    0 -0.63717090230E+02 -0.28055350083E+02  0.17858982380E+03  0.19168019048E+03  0.00000000000E+00 0.  1.
</event>
<event>
 7    1  0.5194496E-006  0.1118416E+03  0.7818608E-02  0.1301907E+00
          2   -1    0    0  502    0  0.00000000000E+00  0.00000000000E+00  0.21319286444E+04  0.21319286444E+04  0.00000000000E+00 0. -1.
          1   -1    0    0  501    0 -0.00000000000E+00 -0.00000000000E+00 -0.20211483298E+03  0.20211483298E+03  0.00000000000E+00 0. -1.
         25    2    1    2    0    0  0.16757895952E+03 -0.99886321017E+01  0.14329332290E+03  0.25365521982E+03  0.12500205480E+03 0.  0.
          2    1    1    2  501    0 -0.65515556033E+02 -0.32322416903E+02 -0.13616819849E+03  0.15452768359E+03  0.00000000000E+00 0. -1.
          1    1    1    2  502    0 -0.10206340349E+03  0.42311049005E+02  0.19226886870E+04  0.19258605740E+04  0.00000000000E+00 0. -1.
         22    1    3    3    0    0  0.79950001443E+02  0.57592517189E+02  0.63430607869E+02  0.11718507918E+03  0.00000000000E+00 0. -1.
         22    1    3    3    0    0  0.87628958080E+02 -0.67581149291E+02  0.79862715033E+02  0.13647014064E+03  0.00000000000E+00 0. -1.
</event>
<event>
 7    1  0.5194496E-006  0.4335643E+02  0.7818608E-02  0.1548294E+00
          2   -1    0    0  502    0  0.00000000000E+00  0.00000000000E+00  0.10329029900E+03  0.10329029900E+03  0.00000000000E+00 0. -1.
          1   -1    0    0  501    0 -0.00000000000E+00 -0.00000000000E+00 -0.34690190770E+04  0.34690190770E+04  0.00000000000E+00 0. -1.
         25    2    1    2    0    0 -0.65142900517E+02  0.24340234188E+02 -0.11278262141E+04  0.11368610699E+04  0.12500031447E+03 0.  0.
          2    1    1    2  501    0  0.41282190212E+02 -0.91048230922E+01 -0.23344516070E+04  0.23348343459E+04  0.00000000000E+00 0. -1.
          1    1    1    2  502    0  0.23860710305E+02 -0.15235411096E+02  0.96549043166E+02  0.10061396018E+03  0.00000000000E+00 0. -1.
         22    1    3    3    0    0  0.24639432752E+02  0.17275805860E+02 -0.64536532169E+03  0.64606652409E+03  0.00000000000E+00 0.  1.
         22    1    3    3    0    0 -0.89782333269E+02  0.70644283280E+01 -0.48246089240E+03  0.49079454582E+03  0.00000000000E+00 0.  1.
</event>
<event>
 7    1  0.5194496E-006  0.1284031E+03  0.7818608E-02  0.1324077E+00
          2   -1    0    0  502    0  0.00000000000E+00  0.00000000000E+00  0.30419995027E+03  0.30419995027E+03  0.00000000000E+00 0. -1.
          1   -1    0    0  501    0 -0.00000000000E+00 -0.00000000000E+00 -0.45534632162E+03  0.45534632162E+03  0.00000000000E+00 0. -1.
         25    2    1    2    0    0  0.69689468277E+02 -0.15414904574E+03  0.12138973733E+03  0.24285560815E+03  0.12499931116E+03 0.  0.
          2    1    1    2  501    0 -0.27806073672E+02  0.12318830505E+03 -0.37828645322E+03  0.39880970014E+03  0.00000000000E+00 0. -1.
          1    1    1    2  502    0 -0.41883394605E+02  0.30960740691E+02  0.10575034454E+03  0.11788096360E+03  0.00000000000E+00 0. -1.
         22    1    3    3    0    0 -0.23952682025E+02 -0.14282004598E+02 -0.96832794172E+01  0.29520713606E+02  0.00000000000E+00 0.  1.
         22    1    3    3    0    0  0.93642150302E+02 -0.13986704114E+03  0.13107301674E+03  0.21333489454E+03  0.00000000000E+00 0.  1.
</event>
<event>
 7    1  0.5194496E-006  0.2202746E+03  0.7818608E-02  0.1283161E+00
          2   -1    0    0  502    0  0.00000000000E+00  0.00000000000E+00  0.67627797185E+03  0.67627797185E+03  0.00000000000E+00 0. -1.
          1   -1    0    0  501    0 -0.00000000000E+00 -0.00000000000E+00 -0.54667119718E+03  0.54667119718E+03  0.00000000000E+00 0. -1.
         25    2    1    2    0    0 -0.12038396015E+03  0.14355951763E+03  0.86236713242E+02  0.24117174285E+03  0.12500162349E+03 0.  0.
          2    1    1    2  501    0 -0.25392114998E+02  0.36154194634E+02 -0.44192893749E+03  0.44413181724E+03  0.00000000000E+00 0. -1.
          1    1    1    2  502    0  0.14577607515E+03 -0.17971371227E+03  0.48529899891E+03  0.53764560894E+03  0.00000000000E+00 0. -1.
         22    1    3    3    0    0 -0.60239317067E+00  0.72572053205E+02 -0.80424673565E+01  0.73018813090E+02  0.00000000000E+00 0.  1.
         22    1    3    3    0    0 -0.11978156698E+03  0.70987464428E+02  0.94279180598E+02  0.16815292976E+03  0.00000000000E+00 0.  1.
</event>
<event>
 7    1  0.5194496E-006  0.5136827E+02  0.7818608E-02  0.1498310E+00
          2   -1    0    0  502    0  0.00000000000E+00  0.00000000000E+00  0.25824798434E+04  0.25824798434E+04  0.00000000000E+00 0. -1.
          1   -1    0    0  501    0 -0.00000000000E+00 -0.00000000000E+00 -0.83371518329E+03  0.83371518329E+03  0.00000000000E+00 0. -1.
         25    2    1    2    0    0 -0.27975348226E+02  0.77551523948E+02  0.77110005314E+02  0.16842704980E+03  0.12499943683E+03 0.  0.
          2    1    1    2  501    0  0.23194207496E+01 -0.33249673987E+02 -0.78743769870E+03  0.78814278521E+03  0.00000000000E+00 0. -1.
          1    1    1    2  502    0  0.25655927477E+02 -0.44301849961E+02  0.24590923535E+04  0.24596251917E+04  0.00000000000E+00 0. -1.
         22    1    3    3    0    0  0.40011098826E+02  0.12162905004E+02 -0.65691125343E+01  0.42331755537E+02  0.00000000000E+00 0. -1.
         22    1    3    3    0    0 -0.67986447052E+02  0.65388618944E+02  0.83679117849E+02  0.12609529426E+03  0.00000000000E+00 0. -1.
</event>
<event>
 7    1  0.5194496E-006  0.1101391E+03  0.7818608E-02  0.1326152E+00
          2   -1    0    0  502    0  0.00000000000E+00  0.00000000000E+00  0.11507765799E+03  0.11507765799E+03  0.00000000000E+00 0. -1.
          1   -1    0    0  501    0 -0.00000000000E+00 -0.00000000000E+00 -0.10518108606E+04  0.10518108606E+04  0.00000000000E+00 0. -1.
         25    2    1    2    0    0 -0.97726929442E+02 -0.10848947528E+03 -0.15203167301E+03  0.24506946018E+03  0.12499956692E+03 0.  0.
          2    1    1    2  501    0  0.38583824866E+02  0.10100332990E+03 -0.83612670483E+03  0.84308851891E+03  0.00000000000E+00 0. -1.
          1    1    1    2  502    0  0.59143104577E+02  0.74861453793E+01  0.51425175273E+02  0.78730539459E+02  0.00000000000E+00 0. -1.
         22    1    3    3    0    0 -0.45879659107E+01 -0.50555541839E+00  0.20626078329E+02  0.21136227779E+02  0.00000000000E+00 0. -1.
         22    1    3    3    0    0 -0.93138963532E+02 -0.10798391987E+03 -0.17265775134E+03  0.22393323240E+03  0.00000000000E+00 0. -1.
</event>
<event>
 7    1  0.5194496E-006  0.2357120E+03  0.7818608E-02  0.1245496E+00
          2   -1    0    0  502    0  0.00000000000E+00  0.00000000000E+00  0.78031109011E+02  0.78031109011E+02  0.00000000000E+00 0. -1.
          1   -1    0    0  501    0 -0.00000000000E+00 -0.00000000000E+00 -0.21931172320E+04  0.21931172320E+04  0.00000000000E+00 0. -1.
         25    2    1    2    0    0  0.27646067123E+03  0.47293831442E+02 -0.82629324127E+03  0.88150600824E+03  0.12500045113E+03 0.  0.
          2    1    1    2  501    0 -0.59546056113E+02  0.31963451252E+01 -0.10884386285E+04  0.10900709140E+04  0.00000000000E+00 0. -1.
          1    1    1    2  502    0 -0.21691461512E+03 -0.50490176568E+02 -0.20035425318E+03  0.29957141878E+03  0.00000000000E+00 0. -1.
         22    1    3    3    0    0  0.34700127414E+01  0.29659867127E+02 -0.13037751527E+03  0.13375367358E+03  0.00000000000E+00 0. -1.
         22    1    3    3    0    0  0.27299065849E+03  0.17633964316E+02 -0.69591572599E+03  0.74775233467E+03  0.00000000000E+00 0. -1.
</event>
<event>
 7    1  0.5194496E-006  0.8705254E+02  0.7818608E-02  0.1382010E+00
          2   -1    0    0  502    0  0.00000000000E+00  0.00000000000E+00  0.19571256815E+03  0.19571256815E+03  0.00000000000E+00 0. -1.
          1   -1    0    0  501    0 -0.00000000000E+00 -0.00000000000E+00 -0.11334646787E+04  0.11334646787E+04  0.00000000000E+00 0. -1.
         25    2    1    2    0    0  0.17598272923E+02  0.44094871729E+02 -0.23992373678E+03  0.27466088611E+03  0.12498458291E+03 0.  0.
          2    1    1    2  501    0 -0.49790339105E+02 -0.78286206739E+02 -0.87057267471E+03  0.87550247858E+03  0.00000000000E+00 0. -1.
          1    1    1    2  502    0  0.32192066182E+02  0.34191335010E+02  0.17274430092E+03  0.17901388219E+03  0.00000000000E+00 0. -1.
         22    1    3    3    0    0  0.21602948277E+02 -0.38375976395E+02 -0.12948426859E+03  0.13676833972E+03  0.00000000000E+00 0.  1.
         22    1    3    3    0    0 -0.40046753539E+01  0.82470848124E+02 -0.11043946819E+03  0.13789254639E+03  0.00000000000E+00 0.  1.
</event>
<event>
 7    1  0.5194496E-006  0.4776303E+03  0.7818608E-02  0.1241737E+00
          2   -1    0    0  502    0  0.00000000000E+00  0.00000000000E+00  0.27469256954E+04  0.27469256954E+04  0.00000000000E+00 0. -1.
          1   -1    0    0  501    0 -0.00000000000E+00 -0.00000000000E+00 -0.31359564835E+03  0.31359564835E+03  0.00000000000E+00 0. -1.
         25    2    1    2    0    0  0.33368523246E+03 -0.32794843029E+03  0.67635528441E+03  0.83185238216E+03  0.12500363058E+03 0.  0.
          2    1    1    2  501    0  0.28599683709E+02  0.10787050307E+02 -0.20561623139E+03  0.20787577294E+03  0.00000000000E+00 0. -1.
          1    1    1    2  502    0 -0.36228491617E+03  0.31716137999E+03  0.19625909940E+04  0.20207931886E+04  0.00000000000E+00 0. -1.
         22    1    3    3    0    0  0.10652060772E+03 -0.19177622326E+03  0.31231055867E+03  0.38165775865E+03  0.00000000000E+00 0.  1.
         22    1    3    3    0    0  0.22716462474E+03 -0.13617220703E+03  0.36404472574E+03  0.45019462351E+03  0.00000000000E+00 0.  1.
</event>
<event>
 7    1  0.5194496E-006  0.8238239E+02  0.7818608E-02  0.1459261E+00
          2   -1    0    0  502    0  0.00000000000E+00  0.00000000000E+00  0.15046715433E+03  0.15046715433E+03  0.00000000000E+00 0. -1.
          1   -1    0    0  501    0 -0.00000000000E+00 -0.00000000000E+00 -0.19453423614E+04  0.19453423614E+04  0.00000000000E+00 0. -1.
         25    2    1    2    0    0  0.55791453281E+02 -0.11629569436E+02 -0.25779363929E+03  0.29211661498E+03  0.12500649241E+03 0.  0.
          2    1    1    2  501    0 -0.83187261965E+02  0.11311472158E+02 -0.16679125177E+04  0.16700240228E+04  0.00000000000E+00 0. -1.
          1    1    1    2  502    0  0.27395808684E+02  0.31809727728E+00  0.13083094985E+03  0.13366887805E+03  0.00000000000E+00 0. -1.
         22    1    3    3    0    0  0.61660768652E+02  0.76863996066E+00 -0.39151028235E+02  0.73044125089E+02  0.00000000000E+00 0. -1.
         22    1    3    3    0    0 -0.58693153710E+01 -0.12398209396E+02 -0.21864261106E+03  0.21907248989E+03  0.00000000000E+00 0. -1.
</event>
<event>
 7    1  0.6731083E-006  0.9974445E+02  0.7818608E-02  0.1312159E+00
          2   -1    0    0  502    0  0.00000000000E+00  0.00000000000E+00  0.80469376608E+03  0.80469376608E+03  0.00000000000E+00 0. -1.
          1   -1    0    0  501    0 -0.00000000000E+00 -0.00000000000E+00 -0.22337652744E+04  0.22337652744E+04  0.00000000000E+00 0. -1.
         25    2    1    2    0    0  0.40666465514E+02 -0.65736247204E+02 -0.25062903704E+03  0.29054234439E+03  0.12499969626E+03 0.  0.
          2    1    1    2  501    0 -0.10058013696E+03  0.21279480954E+02 -0.19600561673E+04  0.19627504577E+04  0.00000000000E+00 0. -1.
          1    1    1    2  502    0  0.59913671443E+02  0.44456766250E+02  0.78161369602E+03  0.78516623838E+03  0.00000000000E+00 0. -1.
         22    1    3    3    0    0 -0.89500726317E+01  0.20654553389E+02 -0.18846200910E+01  0.22589071887E+02  0.00000000000E+00 0. -1.
         22    1    3    3    0    0  0.49616538146E+02 -0.86390800593E+02 -0.24874441695E+03  0.26795327251E+03  0.00000000000E+00 0. -1.
</event>
<event>
 7    1  0.5194496E-006  0.5489190E+02  0.7818608E-02  0.1423180E+00
          2   -1    0    0  502    0  0.00000000000E+00  0.00000000000E+00  0.14888986280E+03  0.14888986280E+03  0.00000000000E+00 0. -1.
          1   -1    0    0  501    0 -0.00000000000E+00 -0.00000000000E+00 -0.38608328057E+03  0.38608328057E+03  0.00000000000E+00 0. -1.
         25    2    1    2    0    0 -0.12519281345E+02 -0.57769540266E+02 -0.24675697745E+03  0.28285739828E+03  0.12500099861E+03 0.  0.
          2    1    1    2  501    0  0.54928423761E+02  0.22918635874E+02 -0.10746908740E+03  0.12284950286E+03  0.00000000000E+00 0. -1.
          1    1    1    2  502    0 -0.42409142416E+02  0.34850904392E+02  0.11703264708E+03  0.12926624223E+03  0.00000000000E+00 0. -1.
         22    1    3    3    0    0 -0.24779749105E+02 -0.41231518101E+02 -0.15289435033E+02  0.50476141634E+02  0.00000000000E+00 0.  1.
         22    1    3    3    0    0  0.12260467761E+02 -0.16538022165E+02 -0.23146754242E+03  0.23238125665E+03  0.00000000000E+00 0.  1.
</event>
<event>
 7    1  0.5194496E-006  0.1209574E+03  0.7818608E-02  0.1324692E+00
          2   -1    0    0  502    0  0.00000000000E+00  0.00000000000E+00  0.85591383762E+03  0.85591383762E+03  0.00000000000E+00 0. -1.
          1   -1    0    0  501    0 -0.00000000000E+00 -0.00000000000E+00 -0.33097482482E+03  0.33097482482E+03  0.00000000000E+00 0. -1.
         25    2    1    2    0    0 -0.27010017099E+02  0.96423502392E+02 -0.13143108882E+03  0.20716635521E+03  0.12496693476E+03 0.  0.
          2    1    1    2  501    0  0.78150947242E+02 -0.11663480289E+03 -0.13005438196E+03  0.19137761120E+03  0.00000000000E+00 0. -1.
          1    1    1    2  502    0 -0.51140930143E+02  0.20211300498E+02  0.78642448358E+03  0.78834469605E+03  0.00000000000E+00 0. -1.
         22    1    3    3    0    0  0.74128093415E+01  0.90662463975E+02 -0.14378458196E+03  0.17014299317E+03  0.00000000000E+00 0. -1.
         22    1    3    3    0    0 -0.34422826440E+02  0.57610384176E+01  0.12353493135E+02  0.37023362036E+02  0.00000000000E+00 0. -1.
</event>
<event>
 7    1  0.5194496E-006  0.6040057E+02  0.7818608E-02  0.1483168E+00
          2   -1    0    0  502    0  0.00000000000E+00  0.00000000000E+00  0.41039386192E+02  0.41039386192E+02  0.00000000000E+00 0. -1.
          1   -1    0    0  501    0 -0.00000000000E+00 -0.00000000000E+00 -0.81193180823E+03  0.81193180823E+03  0.00000000000E+00 0. -1.
         25    2    1    2    0    0  0.72690336117E+00 -0.30254660178E+02 -0.73102100973E+02  0.14793317732E+03  0.12499773972E+03 0.  0.
          2    1    1    2  501    0 -0.32686540299E+01  0.61648325456E+02 -0.57373455774E+03  0.57704639578E+03  0.00000000000E+00 0. -1.
          1    1    1    2  502    0  0.25417506688E+01 -0.31393665279E+02 -0.12405576332E+03  0.12799162132E+03  0.00000000000E+00 0. -1.
         22    1    3    3    0    0 -0.12861190104E+02 -0.77565941765E+02 -0.52675474293E+02  0.94639268408E+02  0.00000000000E+00 0. -1.
         22    1    3    3    0    0  0.13588093465E+02  0.47311281588E+02 -0.20426626680E+02  0.53293908911E+02  0.00000000000E+00 0. -1.
</event>
<event>
 7    1  0.5194496E-006  0.3353120E+02  0.7818608E-02  0.1631358E+00
          2   -1    0    0  502    0  0.00000000000E+00  0.00000000000E+00  0.14329953225E+03  0.14329953225E+03  0.00000000000E+00 0. -1.
          1   -1    0    0  501    0 -0.00000000000E+00 -0.00000000000E+00 -0.38344910890E+03  0.38344910890E+03  0.00000000000E+00 0. -1.
         25    2    1    2    0    0 -0.29049353938E+02  0.36431648008E+02  0.51625165317E+02  0.14304219253E+03  0.12499912483E+03 0.  0.
          2    1    1    2  501    0  0.59569684424E-01 -0.22053582554E+02 -0.33163342931E+03  0.33236590603E+03  0.00000000000E+00 0. -1.
          1    1    1    2  502    0  0.28989784254E+02 -0.14378065454E+02  0.39858687342E+02  0.51340542595E+02  0.00000000000E+00 0. -1.
         22    1    3    3    0    0 -0.59402231836E+02  0.27890945812E+02  0.78000129444E+02  0.10193404828E+03  0.00000000000E+00 0. -1.
         22    1    3    3    0    0  0.30352877898E+02  0.85407021963E+01 -0.26374964127E+02  0.41108144247E+02  0.00000000000E+00 0. -1.
</event>
<event>
 7    1  0.5194496E-006  0.7730191E+02  0.7818608E-02  0.1339680E+00
          2   -1    0    0  502    0  0.00000000000E+00  0.00000000000E+00  0.10583356914E+04  0.10583356914E+04  0.00000000000E+00 0. -1.
          1   -1    0    0  501    0 -0.00000000000E+00 -0.00000000000E+00 -0.96945650724E+03  0.96945650724E+03  0.00000000000E+00 0. -1.
         25    2    1    2    0    0 -0.12276598194E+03  0.89870199489E+02  0.44364353363E+03  0.48537953809E+03  0.12500228793E+03 0.  0.
          2    1    1    2  501    0  0.58958679772E+02 -0.49604729651E+02 -0.94461693672E+03  0.94775414125E+03  0.00000000000E+00 0. -1.
          1    1    1    2  502    0  0.63807302170E+02 -0.40265469838E+02  0.58985258724E+03  0.59465851927E+03  0.00000000000E+00 0. -1.
         22    1    3    3    0    0 -0.12699628065E+03  0.22455156795E+02  0.27624492679E+03  0.30486644444E+03  0.00000000000E+00 0. -1.
         22    1    3    3    0    0  0.42302987102E+01  0.67415042694E+02  0.16739860683E+03  0.18051309365E+03  0.00000000000E+00 0. -1.
</event>
<event>
 7    1  0.5194496E-006  0.1298309E+03  0.7818608E-02  0.1299597E+00
          2   -1    0    0  502    0  0.00000000000E+00  0.00000000000E+00  0.36229256185E+04  0.36229256185E+04  0.00000000000E+00 0. -1.
          1   -1    0    0  501    0 -0.00000000000E+00 -0.00000000000E+00 -0.31474147407E+03  0.31474147407E+03  0.00000000000E+00 0. -1.
         25    2    1    2    0    0 -0.10202739023E+03 -0.15869294057E+03  0.22894345310E+03  0.32192181190E+03  0.12500204204E+03 0.  0.
          2    1    1    2  501    0  0.56331026513E+02  0.11347793011E+03 -0.25296664012E+03  0.28291791421E+03  0.00000000000E+00 0. -1.
          1    1    1    2  502    0  0.45696363722E+02  0.45215010453E+02  0.33322073314E+04  0.33328273665E+04  0.00000000000E+00 0. -1.
         22    1    3    3    0    0 -0.10201254781E+03 -0.17741194026E+03  0.22205191975E+03  0.30197452131E+03  0.00000000000E+00 0. -1.
         22    1    3    3    0    0 -0.14842424753E-01  0.18718999692E+02  0.68915333518E+01  0.19947290586E+02  0.00000000000E+00 0. -1.
</event>
<event>
 7    1  0.5194496E-006  0.8717211E+02  0.7818608E-02  0.1429405E+00
          2   -1    0    0  502    0  0.00000000000E+00  0.00000000000E+00  0.48359162288E+03  0.48359162288E+03  0.00000000000E+00 0. -1.
          1   -1    0    0  501    0 -0.00000000000E+00 -0.00000000000E+00 -0.14189432320E+04  0.14189432320E+04  0.00000000000E+00 0. -1.
         25    2    1    2    0    0 -0.28388322992E+02 -0.54554399424E+02  0.12439148261E+03  0.18676275881E+03  0.12500003102E+03 0.  0.
          2    1    1    2  501    0 -0.46647536159E+01 -0.31982217477E+02 -0.13810245677E+04  0.13814027214E+04  0.00000000000E+00 0. -1.
          1    1    1    2  502    0  0.33053076608E+02  0.86536616901E+02  0.32128147594E+03  0.33436937467E+03  0.00000000000E+00 0. -1.
         22    1    3    3    0    0  0.16963292526E+02  0.32727339292E+02  0.15399900756E+02  0.39949830710E+02  0.00000000000E+00 0.  1.
         22    1    3    3    0    0 -0.45351615518E+02 -0.87281738716E+02  0.10899158185E+03  0.14681292810E+03  0.00000000000E+00 0.  1.
</event>
<event>
 7    1  0.5194496E-006  0.1667440E+03  0.7818608E-02  0.1321882E+00
          2   -1    0    0  502    0  0.00000000000E+00  0.00000000000E+00  0.36148223703E+02  0.36148223703E+02  0.00000000000E+00 0. -1.
          1   -1    0    0  501    0 -0.00000000000E+00 -0.00000000000E+00 -0.45143427351E+04  0.45143427351E+04  0.00000000000E+00 0. -1.
         25    2    1    2    0    0 -0.19900405693E+03  0.20670489993E+02 -0.92188075234E+03  0.95159030359E+03  0.12502040042E+03 0.  0.
          2    1    1    2  501    0  0.15957494284E+03 -0.31536801531E+02 -0.35542282739E+04  0.35579484756E+04  0.00000000000E+00 0. -1.
          1    1    1    2  502    0  0.39429114086E+02  0.10866311539E+02 -0.20854851538E+01  0.40952179581E+02  0.00000000000E+00 0. -1.
         22    1    3    3    0    0 -0.21317896812E+03  0.19912511176E+02 -0.77520262180E+03  0.80422688676E+03  0.00000000000E+00 0.  1.
         22    1    3    3    0    0  0.14174911197E+02  0.75797881652E+00 -0.14667813054E+03  0.14736341683E+03  0.00000000000E+00 0.  1.
</event>
<event>
 7    1  0.5194496E-006  0.9838041E+02  0.7818608E-02  0.1355106E+00
          2   -1    0    0  502    0  0.00000000000E+00  0.00000000000E+00  0.44447518108E+03  0.44447518108E+03  0.00000000000E+00 0. -1.
          1   -1    0    0  501    0 -0.00000000000E+00 -0.00000000000E+00 -0.61771487651E+03  0.61771487651E+03  0.00000000000E+00 0. -1.
         25    2    1    2    0    0 -0.13247063471E+01 -0.72720216125E+02 -0.16133934972E+03  0.21666754528E+03  0.12499781890E+03 0.  0.
          2    1    1    2  501    0  0.50009265810E+02 -0.14052010641E+02 -0.42115517391E+03  0.42434663447E+03  0.00000000000E+00 0. -1.
          1    1    1    2  502    0 -0.48684559463E+02  0.86772226766E+02  0.40925482820E+03  0.42117587784E+03  0.00000000000E+00 0. -1.
         22    1    3    3    0    0 -0.29479869486E+02  0.23191969463E+02 -0.17212901298E+02  0.41270014824E+02  0.00000000000E+00 0. -1.
         22    1    3    3    0    0  0.28155163139E+02 -0.95912185588E+02 -0.14412644842E+03  0.17539753046E+03  0.00000000000E+00 0. -1.
</event>
<event>
 7    1  0.5194496E-006  0.2127317E+03  0.7818608E-02  0.1184974E+00
          2   -1    0    0  502    0  0.00000000000E+00  0.00000000000E+00  0.47228327900E+03  0.47228327900E+03  0.00000000000E+00 0. -1.
          1   -1    0    0  501    0 -0.00000000000E+00 -0.00000000000E+00 -0.78261661361E+03  0.78261661361E+03  0.00000000000E+00 0. -1.
         25    2    1    2    0    0 -0.11972458313E+03  0.90402124695E+02 -0.14899601402E+03  0.24562316913E+03  0.12499763622E+03 0.  0.
          2    1    1    2  501    0  0.37558188894E+02  0.11966441495E+03 -0.54770690036E+03  0.56188347410E+03  0.00000000000E+00 0. -1.
          1    1    1    2  502    0  0.82166394236E+02 -0.21006653964E+03  0.38636957978E+03  0.44739324939E+03  0.00000000000E+00 0. -1.
         22    1    3    3    0    0 -0.46083562914E+02  0.32305414144E+02  0.13611298531E+02  0.57901658021E+02  0.00000000000E+00 0.  1.
         22    1    3    3    0    0 -0.73641020216E+02  0.58096710552E+02 -0.16260731255E+03  0.18772151111E+03  0.00000000000E+00 0.  1.
</event>
<event>
 7    1  0.5194496E-006  0.7986058E+02  0.7818608E-02  0.1384300E+00
          2   -1    0    0  502    0  0.00000000000E+00  0.00000000000E+00  0.89713997381E+03  0.89713997381E+03  0.00000000000E+00 0. -1.
          1   -1    0    0  501    0 -0.00000000000E+00 -0.00000000000E+00 -0.31056629328E+04  0.31056629328E+04  0.00000000000E+00 0. -1.
         25    2    1    2    0    0 -0.91388235751E+02  0.87138344229E+02  0.47183658723E+03  0.50418252216E+03  0.12500139973E+03 0.  0.
          2    1    1    2  501    0  0.67167855699E+02 -0.43113176483E+02 -0.30874294713E+04  0.30884609447E+04  0.00000000000E+00 0. -1.
          1    1    1    2  502    0  0.24220380052E+02 -0.44025167746E+02  0.40706992501E+03  0.41015943979E+03  0.00000000000E+00 0. -1.
         22    1    3    3    0    0 -0.25658519525E+01 -0.22029774533E+02  0.16651587522E+03  0.16798640202E+03  0.00000000000E+00 0.  1.
         22    1    3    3    0    0 -0.88822383798E+02  0.10916811876E+03  0.30532071201E+03  0.33619612014E+03  0.00000000000E+00 0.  1.
</event>
<event>
 7    1  0.5194496E-006  0.1793494E+03  0.7818608E-02  0.1347599E+00
          2   -1    0    0  502    0  0.00000000000E+00  0.00000000000E+00  0.46727856889E+03  0.46727856889E+03  0.00000000000E+00 0. -1.
          1   -1    0    0  501    0 -0.00000000000E+00 -0.00000000000E+00 -0.18369827763E+04  0.18369827763E+04  0.00000000000E+00 0. -1.
         25    2    1    2    0    0 -0.81431845691E+02 -0.13623734882E+03 -0.46116380031E+03  0.50347689712E+03  0.12500069805E+03 0.  0.
          2    1    1    2  501    0 -0.29884892390E+02 -0.54365213791E+01 -0.13362910762E+04  0.13366362643E+04  0.00000000000E+00 0. -1.
          1    1    1    2  502    0  0.11131673808E+03  0.14167387020E+03  0.42775066907E+03  0.46414818384E+03  0.00000000000E+00 0. -1.
         22    1    3    3    0    0  0.43628797960E+01  0.21081142888E+02 -0.33896294732E+02  0.40154801732E+02  0.00000000000E+00 0.  1.
         22    1    3    3    0    0 -0.85794725487E+02 -0.15731849171E+03 -0.42726750558E+03  0.46332209539E+03  0.00000000000E+00 0.  1.
</event>
<event>
 7    1  0.5194496E-006  0.2944512E+02  0.7818608E-02  0.1645043E+00
          2   -1    0    0  502    0  0.00000000000E+00  0.00000000000E+00  0.55970876110E+03  0.55970876110E+03  0.00000000000E+00 0. -1.
          1   -1    0    0  501    0 -0.00000000000E+00 -0.00000000000E+00 -0.25361124961E+03  0.25361124961E+03  0.00000000000E+00 0. -1.
         25    2    1    2    0    0 -0.35000701058E+02 -0.14089445971E+01 -0.27551490975E+02  0.13270887767E+03  0.12500210941E+03 0.  0.
          2    1    1    2  501    0  0.12032193026E+02  0.19859015541E+02 -0.17227364194E+03  0.17383141797E+03  0.00000000000E+00 0. -1.
          1    1    1    2  502    0  0.22968508032E+02 -0.18450070944E+02  0.50592264440E+03  0.50677971506E+03  0.00000000000E+00 0. -1.
         22    1    3    3    0    0 -0.25200402225E+02 -0.62789985014E+02 -0.14149876756E+02  0.69122076810E+02  0.00000000000E+00 0. -1.
         22    1    3    3    0    0 -0.98002988332E+01  0.61381040416E+02 -0.13401614219E+02  0.63586800859E+02  0.00000000000E+00 0. -1.
</event>
<event>
 7    1  0.5194496E-006  0.4692699E+02  0.7818608E-02  0.1572036E+00
          2   -1    0    0  502    0  0.00000000000E+00  0.00000000000E+00  0.76104767254E+02  0.76104767254E+02  0.00000000000E+00 0. -1.
          1   -1    0    0  501    0 -0.00000000000E+00 -0.00000000000E+00 -0.53510610960E+03  0.53510610960E+03  0.00000000000E+00 0. -1.
         25    2    1    2    0    0 -0.45867515866E+02  0.39057161893E+02 -0.22926372473E+03  0.26798459778E+03  0.12499839304E+03 0.  0.
          2    1    1    2  501    0  0.42759486763E+02 -0.16770608715E+02 -0.28231975898E+03  0.28603159499E+03  0.00000000000E+00 0. -1.
          1    1    1    2  502    0  0.31080291026E+01 -0.22286553179E+02  0.52582141361E+02  0.57194684085E+02  0.00000000000E+00 0. -1.
         22    1    3    3    0    0 -0.32983449407E+02  0.82429004357E+02 -0.11643813117E+03  0.14642502205E+03  0.00000000000E+00 0.  1.
         22    1    3    3    0    0 -0.12884066459E+02 -0.43371842463E+02 -0.11282559357E+03  0.12155957573E+03  0.00000000000E+00 0.  1.
</event>
<event>
 7    1  0.5194496E-006  0.3890035E+02  0.7818608E-02  0.1591802E+00
          2   -1    0    0  502    0  0.00000000000E+00  0.00000000000E+00  0.66046649299E+02  0.66046649299E+02  0.00000000000E+00 0. -1.
          1   -1    0    0  501    0 -0.00000000000E+00 -0.00000000000E+00 -0.45435064414E+03  0.45435064414E+03  0.00000000000E+00 0. -1.
         25    2    1    2    0    0 -0.82497149694E+01 -0.16146607536E+02 -0.27011242216E+03  0.29817087077E+03  0.12496550258E+03 0.  0.
          2    1    1    2  501    0  0.59520416141E+01 -0.23285105880E+02 -0.16169237317E+03  0.16346879365E+03  0.00000000000E+00 0. -1.
          1    1    1    2  502    0  0.22976733553E+01  0.39431713416E+02  0.43500800488E+02  0.58757629027E+02  0.00000000000E+00 0. -1.
         22    1    3    3    0    0  0.21130046247E+02 -0.50604408893E+02 -0.23374732213E+03  0.24009393091E+03  0.00000000000E+00 0. -1.
         22    1    3    3    0    0 -0.29379761216E+02  0.34457801357E+02 -0.36365100027E+02  0.58076939859E+02  0.00000000000E+00 0. -1.
</event>
<event>
 7    1  0.5194496E-006  0.1857864E+03  0.7818608E-02  0.1227248E+00
          2   -1    0    0  502    0  0.00000000000E+00  0.00000000000E+00  0.18359181177E+04  0.18359181177E+04  0.00000000000E+00 0. -1.
          1   -1    0    0  501    0 -0.00000000000E+00 -0.00000000000E+00 -0.16529750877E+03  0.16529750877E+03  0.00000000000E+00 0. -1.
         25    2    1    2    0    0 -0.12275371494E+03 -0.23157400230E+01  0.20681308479E+03  0.27105653043E+03  0.12500461377E+03 0.  0.
          2    1    1    2  501    0  0.20319368403E+03  0.45208526853E+02 -0.49615162306E+02  0.21399333742E+03  0.00000000000E+00 0. -1.
          1    1    1    2  502    0 -0.80439969082E+02 -0.42892786830E+02  0.15134226865E+04  0.15161657587E+04  0.00000000000E+00 0. -1.
         22    1    3    3    0    0 -0.10457677841E+02  0.49950809591E+02  0.67910632242E+02  0.84948810328E+02  0.00000000000E+00 0.  1.
         22    1    3    3    0    0 -0.11229603710E+03 -0.52266549614E+02  0.13890245255E+03  0.18610772010E+03  0.00000000000E+00 0.  1.
</event>
<event>
 7    1  0.5194496E-006  0.7437164E+02  0.7818608E-02  0.1439541E+00
          2   -1    0    0  502    0  0.00000000000E+00  0.00000000000E+00  0.39641682623E+03  0.39641682623E+03  0.00000000000E+00 0. -1.
          1   -1    0    0  501    0 -0.00000000000E+00 -0.00000000000E+00 -0.22334343742E+04  0.22334343742E+04  0.00000000000E+00 0. -1.
         25    2    1    2    0    0  0.64464768598E+02  0.45785105672E+02 -0.76511217064E+02  0.16652769872E+03  0.12500210323E+03 0.  0.
          2    1    1    2  501    0 -0.29034085426E+02  0.19721771303E+02 -0.21078212774E+04  0.21081134846E+04  0.00000000000E+00 0. -1.
          1    1    1    2  502    0 -0.35430683172E+02 -0.65506876975E+02  0.34731494648E+03  0.35521001715E+03  0.00000000000E+00 0. -1.
         22    1    3    3    0    0 -0.12945874409E+02 -0.24225428466E+02  0.11714669037E+02  0.29861354946E+02  0.00000000000E+00 0.  1.
         22    1    3    3    0    0  0.77410643007E+02  0.70010534138E+02 -0.88225886100E+02  0.13666634377E+03  0.00000000000E+00 0.  1.
</event>
<event>
 7    1  0.5194496E-006  0.8279741E+02  0.7818608E-02  0.1354724E+00
          2   -1    0    0  502    0  0.00000000000E+00  0.00000000000E+00  0.84415791036E+03  0.84415791036E+03  0.00000000000E+00 0. -1.
          1   -1    0    0  501    0 -0.00000000000E+00 -0.00000000000E+00 -0.15332548360E+03  0.15332548360E+03  0.00000000000E+00 0. -1.
         25    2    1    2    0    0 -0.10593210849E+03  0.32037773273E+02  0.30923418473E+02  0.16979200238E+03  0.12500014295E+03 0.  0.
          2    1    1    2  501    0  0.51470101024E+02 -0.61505553424E+02 -0.63092495215E+02  0.10204296817E+03  0.00000000000E+00 0. -1.
          1    1    1    2  502    0  0.54462007469E+02  0.29467780150E+02  0.72300150351E+03  0.72564842341E+03  0.00000000000E+00 0. -1.
         22    1    3    3    0    0 -0.11602350754E+03  0.10189496570E+01 -0.11141563055E+02  0.11656168748E+03  0.00000000000E+00 0. -1.
         22    1    3    3    0    0  0.10091399051E+02  0.31018823616E+02  0.42064981529E+02  0.53230314900E+02  0.00000000000E+00 0. -1.
</event>
<event>
 7    1  0.5194496E-006  0.2803512E+03  0.7818608E-02  0.1314394E+00
          2   -1    0    0  502    0  0.00000000000E+00  0.00000000000E+00  0.19914637439E+04  0.19914637439E+04  0.00000000000E+00 0. -1.
          1   -1    0    0  501    0 -0.00000000000E+00 -0.00000000000E+00 -0.56316337140E+03  0.56316337140E+03  0.00000000000E+00 0. -1.
         25    2    1    2    0    0  0.23186617386E+03 -0.10872620295E+03 -0.11741055660E+03  0.30820690372E+03  0.12499178740E+03 0.  0.
          2    1    1    2  501    0  0.25385045649E+02 -0.56834284607E+01 -0.33940256577E+03  0.34039800756E+03  0.00000000000E+00 0. -1.
          1    1    1    2  502    0 -0.25725121951E+03  0.11440963141E+03  0.18851134949E+04  0.19060222040E+04  0.00000000000E+00 0. -1.
         22    1    3    3    0    0  0.16331190880E+03 -0.11107294971E+03 -0.13268106118E+03  0.23793327575E+03  0.00000000000E+00 0. -1.
         22    1    3    3    0    0  0.68554265060E+02  0.23467467665E+01  0.15270504587E+02  0.70273627974E+02  0.00000000000E+00 0. -1.
</event>
<event>
 7    1  0.5194496E-006  0.7105244E+02  0.7818608E-02  0.1432750E+00
          2   -1    0    0  502    0  0.00000000000E+00  0.00000000000E+00  0.25708095925E+03  0.25708095925E+03  0.00000000000E+00 0. -1.
          1   -1    0    0  501    0 -0.00000000000E+00 -0.00000000000E+00 -0.13504419738E+03  0.13504419738E+03  0.00000000000E+00 0. -1.
         25    2    1    2    0    0  0.39113692739E+02  0.79598702100E+02  0.15550628266E+03  0.21833975214E+03  0.12499683629E+03 0.  0.
          2    1    1    2  501    0 -0.54729794361E+02 -0.44231169534E+02 -0.84371970649E+02  0.10986526376E+03  0.00000000000E+00 0. -1.
          1    1    1    2  502    0  0.15616101622E+02 -0.35367532567E+02  0.50902449864E+02  0.63920140737E+02  0.00000000000E+00 0. -1.
         22    1    3    3    0    0 -0.38902971250E+02  0.61252423089E+02  0.83211684991E+02  0.11040600086E+03  0.00000000000E+00 0.  1.
         22    1    3    3    0    0  0.78016663989E+02  0.18346279011E+02  0.72294597669E+02  0.10793375128E+03  0.00000000000E+00 0.  1.
</event>
<event>
 7    1  0.5194496E-006  0.1266635E+03  0.7818608E-02  0.1291772E+00
          2   -1    0    0  502    0  0.00000000000E+00  0.00000000000E+00  0.92279340711E+03  0.92279340711E+03  0.00000000000E+00 0. -1.
          1   -1    0    0  501    0 -0.00000000000E+00 -0.00000000000E+00 -0.59729144452E+03  0.59729144452E+03  0.00000000000E+00 0. -1.
         25    2    1    2    0    0 -0.40430212833E+02 -0.41470168511E+02 -0.13006690208E+03  0.18946461951E+03  0.12500026417E+03 0.  0.
          2    1    1    2  501    0 -0.45135671342E+02 -0.54620189073E+02 -0.42997690234E+03  0.43577600947E+03  0.00000000000E+00 0. -1.
          1    1    1    2  502    0  0.85565884174E+02  0.96090357584E+02  0.88554576701E+03  0.89484422266E+03  0.00000000000E+00 0. -1.
         22    1    3    3    0    0 -0.13956396202E+02  0.19252297237E+02  0.16283959341E+02  0.28820119286E+02  0.00000000000E+00 0. -1.
         22    1    3    3    0    0 -0.26473816631E+02 -0.60722465748E+02 -0.14635086142E+03  0.16064450023E+03  0.00000000000E+00 0. -1.
</event>
<event>
 7    1  0.5194496E-006  0.1124994E+03  0.7818608E-02  0.1266749E+00
          2   -1    0    0  502    0  0.00000000000E+00  0.00000000000E+00  0.11315896791E+04  0.11315896791E+04  0.00000000000E+00 0. -1.
          1   -1    0    0  501    0 -0.00000000000E+00 -0.00000000000E+00 -0.52574349583E+03  0.52574349583E+03  0.00000000000E+00 0. -1.
         25    2    1    2    0    0  0.10592802904E+03 -0.17707806425E+03  0.27441087607E+03  0.36538081811E+03  0.12499770062E+03 0.  0.
          2    1    1    2  501    0 -0.56864016097E+02  0.83780720962E+02 -0.47143768707E+03  0.48218898611E+03  0.00000000000E+00 0. -1.
          1    1    1    2  502    0 -0.49064012938E+02  0.93297343289E+02  0.80287299430E+03  0.80976337075E+03  0.00000000000E+00 0. -1.
         22    1    3    3    0    0  0.42130733475E+02 -0.24074144964E+01  0.10756229700E+03  0.11554411315E+03  0.00000000000E+00 0.  1.
         22    1    3    3    0    0  0.63797295561E+02 -0.17467064975E+03  0.16684857908E+03  0.24983670496E+03  0.00000000000E+00 0.  1.
</event>
<event>
 7    1  0.5194496E-006  0.5228122E+02  0.7818608E-02  0.1435061E+00
          2   -1    0    0  502    0  0.00000000000E+00  0.00000000000E+00  0.18908896451E+04  0.18908896451E+04  0.00000000000E+00 0. -1.
          1   -1    0    0  501    0 -0.00000000000E+00 -0.00000000000E+00 -0.12812705013E+03  0.12812705013E+03  0.00000000000E+00 0. -1.
         25    2    1    2    0    0 -0.29537367673E+01 -0.62438476790E+01  0.27539542908E+02  0.12818380028E+03  0.12499980014E+03 0.  0.
          2    1    1    2  501    0  0.48738580920E+02  0.31484181122E+02 -0.66554999903E+02  0.88296494512E+02  0.00000000000E+00 0. -1.
          1    1    1    2  502    0 -0.45784844153E+02 -0.25240333443E+02  0.18017780519E+04  0.18025364004E+04  0.00000000000E+00 0. -1.
         22    1    3    3    0    0 -0.55278342629E+02  0.77615574422E+01  0.44539490108E+02  0.71412205657E+02  0.00000000000E+00 0. -1.
         22    1    3    3    0    0  0.52324605862E+02 -0.14005405121E+02 -0.16999947201E+02  0.56771594623E+02  0.00000000000E+00 0. -1.
</event>
<event>
 7    1  0.5194496E-006  0.1150578E+03  0.7818608E-02  0.1271493E+00
          2   -1    0    0  502    0  0.00000000000E+00  0.00000000000E+00  0.16578623243E+04  0.16578623243E+04  0.00000000000E+00 0. -1.
          1   -1    0    0  501    0 -0.00000000000E+00 -0.00000000000E+00 -0.35137174085E+03  0.35137174085E+03  0.00000000000E+00 0. -1.
         25    2    1    2    0    0 -0.69934543994E+02  0.85306011821E+02  0.36812957251E+03  0.40411893755E+03  0.12499910974E+03 0.  0.
          2    1    1    2  501    0  0.88094932543E+02  0.34359959368E+02 -0.32371793773E+03  0.33724564809E+03  0.00000000000E+00 0. -1.
          1    1    1    2  502    0 -0.18160388549E+02 -0.11966597119E+03  0.12620789486E+04  0.12678694795E+04  0.00000000000E+00 0. -1.
         22    1    3    3    0    0  0.14411926324E+02  0.50417061405E+02  0.47506807263E+02  0.70756486893E+02  0.00000000000E+00 0.  1.
         22    1    3    3    0    0 -0.84346470318E+02  0.34888950415E+02  0.32062276524E+03  0.33336245066E+03  0.00000000000E+00 0.  1.
</event>
<event>
 7    1  0.5194496E-006  0.2065159E+03  0.7818608E-02  0.1347113E+00
          2   -1    0    0  502    0  0.00000000000E+00  0.00000000000E+00  0.13273710245E+04  0.13273710245E+04  0.00000000000E+00 0. -1.
          1   -1    0    0  501    0 -0.00000000000E+00 -0.00000000000E+00 -0.12226088676E+04  0.12226088676E+04  0.00000000000E+00 0. -1.
         25    2    1    2    0    0  0.13262389677E+03 -0.12510737732E+03  0.75922287663E+02  0.23373000456E+03  0.12499826964E+03 0.  0.
          2    1    1    2  501    0 -0.14645284532E+03  0.14770075430E+03 -0.11340959618E+04  0.11530124021E+04  0.00000000000E+00 0. -1.
          1    1    1    2  502    0  0.13828948554E+02 -0.22593376984E+02  0.11629358311E+04  0.11632374855E+04  0.00000000000E+00 0. -1.
         22    1    3    3    0    0  0.10902719583E+03 -0.20829917659E+02  0.58284203894E+02  0.12537090301E+03  0.00000000000E+00 0.  1.
         22    1    3    3    0    0  0.23596700944E+02 -0.10427745966E+03  0.17638083769E+02  0.10835910154E+03  0.00000000000E+00 0.  1.
</event>
<event>
 7    1  0.5194496E-006  0.6088690E+02  0.7818608E-02  0.1490001E+00
          2   -1    0    0  502    0  0.00000000000E+00  0.00000000000E+00  0.33139364512E+03  0.33139364512E+03  0.00000000000E+00 0. -1.
          1   -1    0    0  501    0 -0.00000000000E+00 -0.00000000000E+00 -0.18720785295E+04  0.18720785295E+04  0.00000000000E+00 0. -1.
         25    2    1    2    0    0 -0.28622076551E+02  0.65734282891E+02 -0.22526195801E+03  0.26741083536E+03  0.12500154370E+03 0.  0.
          2    1    1    2  501    0  0.29378688758E+02 -0.49074406869E+01 -0.16226229538E+04  0.16228963123E+04  0.00000000000E+00 0. -1.
          1    1    1    2  502    0 -0.75661220682E+00 -0.60826842204E+02  0.30720002747E+03  0.31316502690E+03  0.00000000000E+00 0. -1.
         22    1    3    3    0    0  0.35639117241E+02  0.10461795266E+02 -0.14843877957E+03  0.15301525126E+03  0.00000000000E+00 0. -1.
         22    1    3    3    0    0 -0.64261193793E+02  0.55272487626E+02 -0.76823178441E+02  0.11439558410E+03  0.00000000000E+00 0. -1.
</event>
<event>
 7    1  0.5194496E-006  0.1293629E+03  0.7818608E-02  0.1383535E+00
          2   -1    0    0  502    0  0.00000000000E+00  0.00000000000E+00  0.43751337233E+03  0.43751337233E+03  0.00000000000E+00 0. -1.
          1   -1    0    0  501    0 -0.00000000000E+00 -0.00000000000E+00 -0.42619651658E+03  0.42619651658E+03  0.00000000000E+00 0. -1.
         25    2    1    2    0    0  0.11779383066E+03 -0.32237151579E+02  0.92187689442E+02  0.19757934416E+03  0.12499762666E+03 0.  0.
          2    1    1    2  501    0 -0.18297317210E+01 -0.31159197873E+02 -0.35786442449E+03  0.35922303635E+03  0.00000000000E+00 0. -1.
          1    1    1    2  502    0 -0.11596409894E+03  0.63396349452E+02  0.27699359080E+03  0.30690750840E+03  0.00000000000E+00 0. -1.
         22    1    3    3    0    0  0.25612328079E+02  0.39176193529E+02 -0.32173873706E+01  0.46916064099E+02  0.00000000000E+00 0.  1.
         22    1    3    3    0    0  0.92181502579E+02 -0.71413345108E+02  0.95405076813E+02  0.15066328006E+03  0.00000000000E+00 0.  1.
</event>
<event>
 7    1  0.5194496E-006  0.4579943E+02  0.7818608E-02  0.1562320E+00
          2   -1    0    0  502    0  0.00000000000E+00  0.00000000000E+00  0.35439773064E+03  0.35439773064E+03  0.00000000000E+00 0. -1.
          1   -1    0    0  501    0 -0.00000000000E+00 -0.00000000000E+00 -0.15427213901E+03  0.15427213901E+03  0.00000000000E+00 0. -1.
         25    2    1    2    0    0  0.13722916141E+02  0.25476752041E+02  0.83012664743E+02  0.15281697663E+03  0.12499817006E+03 0.  0.
          2    1    1    2  501    0 -0.38202171257E+02 -0.26634255474E+02 -0.11415565152E+03  0.12328950575E+03  0.00000000000E+00 0. -1.
          1    1    1    2  502    0  0.24479255116E+02  0.11575034336E+01  0.23126857840E+03  0.23256338728E+03  0.00000000000E+00 0. -1.
         22    1    3    3    0    0 -0.49841729431E+02  0.19400900738E+02  0.76322086822E+01  0.54026322764E+02  0.00000000000E+00 0. -1.
         22    1    3    3    0    0  0.63564645572E+02  0.60758513027E+01  0.75380456061E+02  0.98790653868E+02  0.00000000000E+00 0. -1.
</event>
<event>
 7    1  0.5194496E-006  0.5047300E+02  0.7818608E-02  0.1462673E+00
          2   -1    0    0  502    0  0.00000000000E+00  0.00000000000E+00  0.79093628572E+03  0.79093628572E+03  0.00000000000E+00 0. -1.
          1   -1    0    0  501    0 -0.00000000000E+00 -0.00000000000E+00 -0.56254322904E+03  0.56254322904E+03  0.00000000000E+00 0. -1.
         25    2    1    2    0    0  0.52057061437E+02 -0.20800520224E+02  0.23611402886E+03  0.27297914504E+03  0.12500071887E+03 0.  0.
          2    1    1    2  501    0 -0.17486738859E+02  0.47410301970E+02 -0.54204651210E+03  0.54439686264E+03  0.00000000000E+00 0. -1.
          1    1    1    2  502    0 -0.34570322578E+02 -0.26609781746E+02  0.53432553993E+03  0.53610350708E+03  0.00000000000E+00 0. -1.
         22    1    3    3    0    0 -0.36876546199E+02  0.16510021362E+02  0.75619887943E+02  0.85736969374E+02  0.00000000000E+00 0.  1.
         22    1    3    3    0    0  0.88933607636E+02 -0.37310541586E+02  0.16049414091E+03  0.18724217567E+03  0.00000000000E+00 0.  1.
</event>
<event>
 7    1  0.5194496E-006  0.9735774E+02  0.7818608E-02  0.1413874E+00
          2   -1    0    0  502    0  0.00000000000E+00  0.00000000000E+00  0.95079519664E+03  0.95079519664E+03  0.00000000000E+00 0. -1.
          1   -1    0    0  501    0 -0.00000000000E+00 -0.00000000000E+00 -0.45752234220E+02  0.45752234220E+02  0.00000000000E+00 0. -1.
         25    2    1    2    0    0 -0.28316320067E+02  0.97884165156E+02  0.43927963753E+03  0.46794752047E+03  0.12500063278E+03 0.  0.
          2    1    1    2  501    0  0.55548356363E+02 -0.79959995461E+02  0.46190903759E+02  0.10776279673E+03  0.00000000000E+00 0. -1.
          1    1    1    2  502    0 -0.27232036296E+02 -0.17924169695E+02  0.41957242113E+03  0.42083711366E+03  0.00000000000E+00 0. -1.
         22    1    3    3    0    0 -0.13238202642E+02  0.14915969564E+02  0.32659542758E+03  0.32720377362E+03  0.00000000000E+00 0. -1.
         22    1    3    3    0    0 -0.15078117425E+02  0.82968195592E+02  0.11268420996E+03  0.14074374685E+03  0.00000000000E+00 0. -1.
</event>
<event>
 7    1  0.5194496E-006  0.2069926E+03  0.7818608E-02  0.1193221E+00
          2   -1    0    0  502    0  0.00000000000E+00  0.00000000000E+00  0.97311202499E+02  0.97311202499E+02  0.00000000000E+00 0. -1.
          1   -1    0    0  501    0 -0.00000000000E+00 -0.00000000000E+00 -0.26014281496E+04  0.26014281496E+04  0.00000000000E+00 0. -1.
         25    2    1    2    0    0  0.17922654121E+03 -0.70657824458E+01 -0.37268683299E+03  0.43207956726E+03  0.12500079440E+03 0.  0.
          2    1    1    2  501    0 -0.18652356655E+03 -0.11036432870E+03 -0.21378696221E+04  0.21488270863E+04  0.00000000000E+00 0. -1.
          1    1    1    2  502    0  0.72970253334E+01  0.11743011115E+03  0.64395079400E+01  0.11783269854E+03  0.00000000000E+00 0. -1.
         22    1    3    3    0    0  0.48902363844E+02  0.45504530484E+02 -0.19128813544E+03  0.20261602662E+03  0.00000000000E+00 0.  1.
         22    1    3    3    0    0  0.13032417737E+03 -0.52570312930E+02 -0.18139869755E+03  0.22946354064E+03  0.00000000000E+00 0.  1.
</event>
<event>
 7    1  0.5194496E-006  0.9604759E+02  0.7818608E-02  0.1474922E+00
          2   -1    0    0  502    0  0.00000000000E+00  0.00000000000E+00  0.14042259671E+04  0.14042259671E+04  0.00000000000E+00 0. -1.
          1   -1    0    0  501    0 -0.00000000000E+00 -0.00000000000E+00 -0.74587362194E+02  0.74587362194E+02  0.00000000000E+00 0. -1.
         25    2    1    2    0    0 -0.11500047809E+03  0.14553677510E+02  0.72105960099E+02  0.18509620684E+03  0.12499766725E+03 0.  0.
          2    1    1    2  501    0  0.20942169262E+02  0.15087897688E+01 -0.95361000824E+01  0.23060531319E+02  0.00000000000E+00 0. -1.
          1    1    1    2  502    0  0.94058308824E+02 -0.16062467279E+02  0.12670687449E+04  0.12706565911E+04  0.00000000000E+00 0. -1.
         22    1    3    3    0    0 -0.77945461388E+02  0.49948423359E+02 -0.47790643090E+01  0.92699403465E+02  0.00000000000E+00 0. -1.
         22    1    3    3    0    0 -0.37055016697E+02 -0.35394745849E+02  0.76885024408E+02  0.92396803377E+02  0.00000000000E+00 0. -1.
</event>
<event>
 7    1  0.5194496E-006  0.2438528E+02  0.7818608E-02  0.1688537E+00
          2   -1    0    0  502    0  0.00000000000E+00  0.00000000000E+00  0.62863333471E+02  0.62863333471E+02  0.00000000000E+00 0. -1.
          1   -1    0    0  501    0 -0.00000000000E+00 -0.00000000000E+00 -0.12774053615E+04  0.12774053615E+04  0.00000000000E+00 0. -1.
         25    2    1    2    0    0  0.14933302822E+02  0.35638185108E+02 -0.90137553948E+03  0.91082015662E+03  0.12498964267E+03 0.  0.
          2    1    1    2  501    0  0.33946184750E+01 -0.23391885012E+02 -0.36882626407E+03  0.36958289569E+03  0.00000000000E+00 0. -1.
          1    1    1    2  502    0 -0.18327921297E+02 -0.12246300096E+02  0.55659775496E+02  0.59865642679E+02  0.00000000000E+00 0. -1.
         22    1    3    3    0    0  0.62597513596E+02  0.34382768479E+02 -0.33980833316E+03  0.34723238150E+03  0.00000000000E+00 0. -1.
         22    1    3    3    0    0 -0.47664210774E+02  0.12554166294E+01 -0.56156720632E+03  0.56358777513E+03  0.00000000000E+00 0. -1.
</event>
<event>
 7    1  0.5194496E-006  0.8350351E+02  0.7818608E-02  0.1341256E+00
          2   -1    0    0  502    0  0.00000000000E+00  0.00000000000E+00  0.26641301559E+03  0.26641301559E+03  0.00000000000E+00 0. -1.
          1   -1    0    0  501    0 -0.00000000000E+00 -0.00000000000E+00 -0.40036433763E+03  0.40036433763E+03  0.00000000000E+00 0. -1.
         25    2    1    2    0    0  0.49289082657E+02  0.37431243447E+02  0.71495971041E+02  0.15674055427E+03  0.12500166328E+03 0.  0.
          2    1    1    2  501    0 -0.13728256535E-01 -0.85588284186E+02 -0.34443448921E+03  0.35490910377E+03  0.00000000000E+00 0. -1.
          1    1    1    2  502    0 -0.49275354400E+02  0.48157040739E+02  0.13898719613E+03  0.15512769518E+03  0.00000000000E+00 0. -1.
         22    1    3    3    0    0  0.18995819536E+02 -0.45928701860E+02  0.16449208951E+02  0.52353254813E+02  0.00000000000E+00 0.  1.
         22    1    3    3    0    0  0.30293263120E+02  0.83359945307E+02  0.55046762090E+02  0.10438729946E+03  0.00000000000E+00 0.  1.
</event>
<event>
 7    1  0.5194496E-006  0.1036671E+03  0.7818608E-02  0.1291809E+00
          2   -1    0    0  502    0  0.00000000000E+00  0.00000000000E+00  0.90533440025E+03  0.90533440025E+03  0.00000000000E+00 0. -1.
          1   -1    0    0  501    0 -0.00000000000E+00 -0.00000000000E+00 -0.62875964999E+03  0.62875964999E+03  0.00000000000E+00 0. -1.
         25    2    1    2    0    0  0.33596159152E+02 -0.11368049296E+03  0.53198688545E+02  0.18029845522E+03  0.12500190440E+03 0.  0.
          2    1    1    2  501    0  0.58439077641E+02  0.63833990675E+02 -0.55838852700E+03  0.56505544086E+03  0.00000000000E+00 0. -1.
          1    1    1    2  502    0 -0.92035236793E+02  0.49846502282E+02  0.78176458872E+03  0.78874015416E+03  0.00000000000E+00 0. -1.
         22    1    3    3    0    0  0.28994436595E+02 -0.91250801522E+02  0.93576542195E+02  0.13388037713E+03  0.00000000000E+00 0. -1.
         22    1    3    3    0    0  0.46017225570E+01 -0.22429691434E+02 -0.40377853650E+02  0.46418078091E+02  0.00000000000E+00 0. -1.
</event>
<event>
 7    1  0.5194496E-006  0.1172712E+03  0.7818608E-02  0.1271850E+00
          2   -1    0    0  502    0  0.00000000000E+00  0.00000000000E+00  0.14020675355E+04  0.14020675355E+04  0.00000000000E+00 0. -1.
          1   -1    0    0  501    0 -0.00000000000E+00 -0.00000000000E+00 -0.52197626703E+03  0.52197626703E+03  0.00000000000E+00 0. -1.
         25    2    1    2    0    0 -0.37231872106E+02  0.11325544009E+03  0.46691252222E+03  0.49784158338E+03  0.12500372686E+03 0.  0.
          2    1    1    2  501    0  0.92436993758E+02 -0.18443641531E+01 -0.49803517864E+03  0.50654421195E+03  0.00000000000E+00 0. -1.
          1    1    1    2  502    0 -0.55205121652E+02 -0.11141107593E+03  0.91121392491E+03  0.91965800722E+03  0.00000000000E+00 0. -1.
         22    1    3    3    0    0 -0.54652599197E+02  0.73231541898E+02  0.43307851786E+03  0.44261356505E+03  0.00000000000E+00 0. -1.
         22    1    3    3    0    0  0.17420727091E+02  0.40023898187E+02  0.33834004359E+02  0.55228018338E+02  0.00000000000E+00 0. -1.
</event>
<event>
 7    1  0.5194496E-006  0.1890343E+03  0.7818608E-02  0.1337983E+00
          2   -1    0    0  502    0  0.00000000000E+00  0.00000000000E+00  0.59162823211E+03  0.59162823211E+03  0.00000000000E+00 0. -1.
          1   -1    0    0  501    0 -0.00000000000E+00 -0.00000000000E+00 -0.18493116617E+04  0.18493116617E+04  0.00000000000E+00 0. -1.
         25    2    1    2    0    0  0.95788025295E+02  0.18317810172E+03 -0.26799261445E+02  0.24304912925E+03  0.12500046429E+03 0.  0.
          2    1    1    2  501    0 -0.10787668618E+03 -0.15429453826E+03 -0.17087048821E+04  0.17190452461E+04  0.00000000000E+00 0. -1.
          1    1    1    2  502    0  0.12088660882E+02 -0.28883563465E+02  0.47782071391E+03  0.47884551852E+03  0.00000000000E+00 0. -1.
         22    1    3    3    0    0  0.59919899641E+02  0.13725762826E+03 -0.74937119464E+02  0.16746827390E+03  0.00000000000E+00 0. -1.
         22    1    3    3    0    0  0.35868125654E+02  0.45920473459E+02  0.48137858019E+02  0.75580855349E+02  0.00000000000E+00 0. -1.
</event>
<event>
 7    1  0.5194496E-006  0.3451951E+03  0.7818608E-02  0.1265212E+00
          2   -1    0    0  502    0  0.00000000000E+00  0.00000000000E+00  0.10970554928E+04  0.10970554928E+04  0.00000000000E+00 0. -1.
          1   -1    0    0  501    0 -0.00000000000E+00 -0.00000000000E+00 -0.63202373902E+03  0.63202373902E+03  0.00000000000E+00 0. -1.
         25    2    1    2    0    0 -0.26466639361E+03 -0.18539962907E+03  0.22351266695E+03  0.41231447928E+03  0.12499598062E+03 0.  0.
          2    1    1    2  501    0 -0.18900782695E+02 -0.27654907402E+02 -0.49666369406E+03  0.49779198315E+03  0.00000000000E+00 0. -1.
          1    1    1    2  502    0  0.28356717631E+03  0.21305453647E+03  0.73818278095E+03  0.81897276944E+03  0.00000000000E+00 0. -1.
         22    1    3    3    0    0 -0.27388474823E+03 -0.18308727761E+03  0.19630894553E+03  0.38349838152E+03  0.00000000000E+00 0.  1.
         22    1    3    3    0    0  0.92183546144E+01 -0.23123514565E+01  0.27203721418E+02  0.28816097759E+02  0.00000000000E+00 0.  1.
</event>
<event>
 7    1  0.5194496E-006  0.7898132E+02  0.7818608E-02  0.1493395E+00
          2   -1    0    0  502    0  0.00000000000E+00  0.00000000000E+00  0.81190911842E+03  0.81190911842E+03  0.00000000000E+00 0. -1.
          1   -1    0    0  501    0 -0.00000000000E+00 -0.00000000000E+00 -0.24725637250E+03  0.24725637250E+03  0.00000000000E+00 0. -1.
         25    2    1    2    0    0 -0.14206191577E+02  0.99746153042E+02  0.20468345530E+03  0.26013657332E+03  0.12499843592E+03 0.  0.
          2    1    1    2  501    0  0.11073191246E+02 -0.77539518852E+02 -0.21231667598E+03  0.22630369738E+03  0.00000000000E+00 0. -1.
          1    1    1    2  502    0  0.31330003310E+01 -0.22206634190E+02  0.57228596661E+03  0.57272522021E+03  0.00000000000E+00 0. -1.
         22    1    3    3    0    0 -0.17980320253E+02  0.12682844375E+03  0.13918339507E+03  0.18915803848E+03  0.00000000000E+00 0. -1.
         22    1    3    3    0    0  0.37741286757E+01 -0.27082290711E+02  0.65500060232E+02  0.70978534838E+02  0.00000000000E+00 0. -1.
</event>
<event>
 7    1  0.5194496E-006  0.3777986E+02  0.7818608E-02  0.1598251E+00
          2   -1    0    0  502    0  0.00000000000E+00  0.00000000000E+00  0.19359216811E+02  0.19359216811E+02  0.00000000000E+00 0. -1.
          1   -1    0    0  501    0 -0.00000000000E+00 -0.00000000000E+00 -0.10053092025E+04  0.10053092025E+04  0.00000000000E+00 0. -1.
         25    2    1    2    0    0 -0.34800369798E+01  0.15063935401E+02 -0.29631768394E+03  0.32197539255E+03  0.12499980315E+03 0.  0.
          2    1    1    2  501    0  0.11432803049E+01 -0.38747808627E+02 -0.67189272362E+03  0.67301005328E+03  0.00000000000E+00 0. -1.
          1    1    1    2  502    0  0.23367566749E+01  0.23683873227E+02 -0.17739578148E+02  0.29682973497E+02  0.00000000000E+00 0. -1.
         22    1    3    3    0    0  0.54027955006E+02  0.19109192522E+02 -0.82010536602E+02  0.10004953411E+03  0.00000000000E+00 0.  1.
         22    1    3    3    0    0 -0.57507991986E+02 -0.40452571212E+01 -0.21430714734E+03  0.22192585845E+03  0.00000000000E+00 0.  1.
</event>
<event>
 7    1  0.5194496E-006  0.5937123E+02  0.7818608E-02  0.1462076E+00
          2   -1    0    0  502    0  0.00000000000E+00  0.00000000000E+00  0.15238928746E+04  0.15238928746E+04  0.00000000000E+00 0. -1.
          1   -1    0    0  501    0 -0.00000000000E+00 -0.00000000000E+00 -0.19113870719E+03  0.19113870719E+03  0.00000000000E+00 0. -1.
         25    2    1    2    0    0 -0.21354390467E+02 -0.26734686690E+02  0.51630224266E+03  0.53231926217E+03  0.12500015054E+03 0.  0.
          2    1    1    2  501    0 -0.37108246396E+02  0.32212972528E+01 -0.18023084414E+03  0.18403954979E+03  0.00000000000E+00 0. -1.
          1    1    1    2  502    0  0.58462636863E+02  0.23513389437E+02  0.99668276889E+03  0.99867276983E+03  0.00000000000E+00 0. -1.
         22    1    3    3    0    0 -0.41448764877E+02  0.67682549330E+01  0.46941240826E+03  0.47128740532E+03  0.00000000000E+00 0.  1.
         22    1    3    3    0    0  0.20094374410E+02 -0.33502941623E+02  0.46889834401E+02  0.61031856849E+02  0.00000000000E+00 0.  1.
</event>
<event>
 7    1  0.5194496E-006  0.8066837E+02  0.7818608E-02  0.1382182E+00
          2   -1    0    0  502    0  0.00000000000E+00  0.00000000000E+00  0.10099748147E+04  0.10099748147E+04  0.00000000000E+00 0. -1.
          1   -1    0    0  501    0 -0.00000000000E+00 -0.00000000000E+00 -0.51115587585E+03  0.51115587585E+03  0.00000000000E+00 0. -1.
         25    2    1    2    0    0  0.10381123998E+02 -0.11289623860E+03 -0.31554411650E+03  0.35783164227E+03  0.12498826475E+03 0.  0.
          2    1    1    2  501    0  0.14977139036E+02  0.69100792781E+02 -0.16662532922E+03  0.18100617281E+03  0.00000000000E+00 0. -1.
          1    1    1    2  502    0 -0.25358263034E+02  0.43795445821E+02  0.98098838459E+03  0.98229287551E+03  0.00000000000E+00 0. -1.
         22    1    3    3    0    0  0.11432710645E+02  0.21544123673E+02 -0.15119258683E+02  0.28695785765E+02  0.00000000000E+00 0.  1.
         22    1    3    3    0    0 -0.10515866474E+01 -0.13444036228E+03 -0.30042485781E+03  0.32913585650E+03  0.00000000000E+00 0.  1.
</event>
<event>
 7    1  0.5194496E-006  0.1552401E+03  0.7818608E-02  0.1247864E+00
          2   -1    0    0  502    0  0.00000000000E+00  0.00000000000E+00  0.59066126219E+03  0.59066126219E+03  0.00000000000E+00 0. -1.
          1   -1    0    0  501    0 -0.00000000000E+00 -0.00000000000E+00 -0.21110792235E+04  0.21110792235E+04  0.00000000000E+00 0. -1.
         25    2    1    2    0    0  0.13569095318E+03 -0.96234715428E+02 -0.14482449560E+03  0.25352196753E+03  0.12500439299E+03 0.  0.
          2    1    1    2  501    0 -0.74706704050E+02 -0.47286462273E+02 -0.18995204830E+04  0.19015770209E+04  0.00000000000E+00 0. -1.
          1    1    1    2  502    0 -0.60984249127E+02  0.14352117770E+03  0.52392701728E+03  0.54664149726E+03  0.00000000000E+00 0. -1.
         22    1    3    3    0    0  0.15579852207E+02 -0.73519184585E+02 -0.95938964611E+02  0.12186913977E+03  0.00000000000E+00 0. -1.
         22    1    3    3    0    0  0.12011110097E+03 -0.22715530843E+02 -0.48885530991E+02  0.13165282776E+03  0.00000000000E+00 0. -1.
</event>
<event>
 7    1  0.5194496E-006  0.2600264E+03  0.7818608E-02  0.1184301E+00
          2   -1    0    0  502    0  0.00000000000E+00  0.00000000000E+00  0.80609549394E+03  0.80609549394E+03  0.00000000000E+00 0. -1.
          1   -1    0    0  501    0 -0.00000000000E+00 -0.00000000000E+00 -0.79468464024E+03  0.79468464024E+03  0.00000000000E+00 0. -1.
         25    2    1    2    0    0 -0.30320685596E+03 -0.35292262083E+02  0.69288669793E+02  0.33705555754E+03  0.12500235135E+03 0.  0.
          2    1    1    2  501    0  0.23149776344E+03  0.10975875271E+03 -0.63117014626E+03  0.68118569553E+03  0.00000000000E+00 0. -1.
          1    1    1    2  502    0  0.71709092523E+02 -0.74466490631E+02  0.57329233017E+03  0.58253888111E+03  0.00000000000E+00 0. -1.
         22    1    3    3    0    0 -0.27246710061E+03 -0.17176033103E+01  0.90126713110E+02  0.28699145543E+03  0.00000000000E+00 0.  1.
         22    1    3    3    0    0 -0.30739755359E+02 -0.33574658773E+02 -0.20838043317E+02  0.50064102114E+02  0.00000000000E+00 0.  1.
</event>
<event>
 7    1  0.5194496E-006  0.6491845E+02  0.7818608E-02  0.1442609E+00
          2   -1    0    0  502    0  0.00000000000E+00  0.00000000000E+00  0.83838787185E+03  0.83838787185E+03  0.00000000000E+00 0. -1.
          1   -1    0    0  501    0 -0.00000000000E+00 -0.00000000000E+00 -0.65495233599E+03  0.65495233599E+03  0.00000000000E+00 0. -1.
         25    2    1    2    0    0  0.19643137204E+02 -0.84169144220E+02  0.31960095081E+03  0.35389047545E+03  0.12499361254E+03 0.  0.
          2    1    1    2  501    0 -0.40353768553E+02  0.50769603644E+02 -0.63538472408E+03  0.63868593760E+03  0.00000000000E+00 0. -1.
          1    1    1    2  502    0  0.20710631349E+02  0.33399540576E+02  0.49921930913E+03  0.50076379479E+03  0.00000000000E+00 0. -1.
         22    1    3    3    0    0 -0.33879349503E+02 -0.71578388595E+02  0.26429315786E+03  0.27590242718E+03  0.00000000000E+00 0. -1.
         22    1    3    3    0    0  0.53522486707E+02 -0.12590755624E+02  0.55307792952E+02  0.77988048262E+02  0.00000000000E+00 0. -1.
</event>
<event>
 7    1  0.5194496E-006  0.1395461E+03  0.7818608E-02  0.1264452E+00
          2   -1    0    0  502    0  0.00000000000E+00  0.00000000000E+00  0.45663001315E+03  0.45663001315E+03  0.00000000000E+00 0. -1.
          1   -1    0    0  501    0 -0.00000000000E+00 -0.00000000000E+00 -0.68476832567E+03  0.68476832567E+03  0.00000000000E+00 0. -1.
         25    2    1    2    0    0  0.12205668105E+03  0.16735885194E+02  0.29548698971E+03  0.34367909262E+03  0.12499933749E+03 0.  0.
          2    1    1    2  501    0  0.51390638615E+02  0.65783467570E+02 -0.58895120421E+03  0.59483777897E+03  0.00000000000E+00 0. -1.
          1    1    1    2  502    0 -0.17344731967E+03 -0.82519352763E+02  0.65325901982E+02  0.20288146724E+03  0.00000000000E+00 0. -1.
         22    1    3    3    0    0  0.65855530563E+02  0.31755402241E+02  0.27077938201E+03  0.28047607776E+03  0.00000000000E+00 0.  1.
         22    1    3    3    0    0  0.56201150488E+02 -0.15019517047E+02  0.24707607705E+02  0.63203014857E+02  0.00000000000E+00 0.  1.
</event>
<event>
 7    1  0.5194496E-006  0.8010889E+02  0.7818608E-02  0.1361664E+00
          2   -1    0    0  502    0  0.00000000000E+00  0.00000000000E+00  0.93921226150E+02  0.93921226150E+02  0.00000000000E+00 0. -1.
          1   -1    0    0  501    0 -0.00000000000E+00 -0.00000000000E+00 -0.75972573257E+03  0.75972573257E+03  0.00000000000E+00 0. -1.
         25    2    1    2    0    0  0.38808354780E+02 -0.45853368159E+02 -0.32298153142E+03  0.35149740939E+03  0.12499895758E+03 0.  0.
          2    1    1    2  501    0  0.43696114192E+02  0.41648980393E+02 -0.39816444535E+03  0.40271443170E+03  0.00000000000E+00 0. -1.
          1    1    1    2  502    0 -0.82504468972E+02  0.42043877663E+01  0.55341470348E+02  0.99435117625E+02  0.00000000000E+00 0. -1.
         22    1    3    3    0    0  0.38312448390E+02 -0.45192844295E+02 -0.47294163288E+02  0.75808803963E+02  0.00000000000E+00 0. -1.
         22    1    3    3    0    0  0.49590639042E+00 -0.66052386396E+00 -0.27568736813E+03  0.27568860542E+03  0.00000000000E+00 0. -1.
</event>
<event>
 7    1  0.5194496E-006  0.4905716E+02  0.7818608E-02  0.1574670E+00
          2   -1    0    0  502    0  0.00000000000E+00  0.00000000000E+00  0.23091861544E+03  0.23091861544E+03  0.00000000000E+00 0. -1.
          1   -1    0    0  501    0 -0.00000000000E+00 -0.00000000000E+00 -0.94273285075E+03  0.94273285075E+03  0.00000000000E+00 0. -1.
         25    2    1    2    0    0  0.46867898797E+02 -0.26633070805E+02 -0.42913260100E+03  0.45020938608E+03  0.12501112620E+03 0.  0.
          2    1    1    2  501    0 -0.48632205224E+02  0.55318140633E+01 -0.50135868567E+03  0.50374221984E+03  0.00000000000E+00 0. -1.
          1    1    1    2  502    0  0.17643064270E+01  0.21101256742E+02  0.21867705136E+03  0.21969986027E+03  0.00000000000E+00 0. -1.
         22    1    3    3    0    0  0.89782022520E+02 -0.12686937965E+02 -0.30118775293E+03  0.31454066904E+03  0.00000000000E+00 0.  1.
         22    1    3    3    0    0 -0.42914123723E+02 -0.13946132840E+02 -0.12794484806E+03  0.13566871703E+03  0.00000000000E+00 0.  1.
</event>
<event>
 7    1  0.5194496E-006  0.9966581E+02  0.7818608E-02  0.1385844E+00
          2   -1    0    0  502    0  0.00000000000E+00  0.00000000000E+00  0.78584560309E+03  0.78584560309E+03  0.00000000000E+00 0. -1.
          1   -1    0    0  501    0 -0.00000000000E+00 -0.00000000000E+00 -0.13858266128E+04  0.13858266128E+04  0.00000000000E+00 0. -1.
         25    2    1    2    0    0  0.92466229684E+02 -0.62695837075E+02  0.19117757499E+03  0.25427065610E+03  0.12499571894E+03 0.  0.
          2    1    1    2  501    0 -0.96891147958E+02  0.23180150580E+02 -0.13517427108E+04  0.13554090048E+04  0.00000000000E+00 0. -1.
          1    1    1    2  502    0  0.44249182738E+01  0.39515686496E+02  0.56058412615E+03  0.56199255500E+03  0.00000000000E+00 0. -1.
         22    1    3    3    0    0  0.92251634618E+02 -0.60368898546E+02  0.20899986862E+03  0.23629581690E+03  0.00000000000E+00 0.  1.
         22    1    3    3    0    0  0.21459506619E+00 -0.23269385291E+01 -0.17822293629E+02  0.17974839197E+02  0.00000000000E+00 0.  1.
</event>
<event>
 7    1  0.5194496E-006  0.3988378E+02  0.7818608E-02  0.1521418E+00
          2   -1    0    0  502    0  0.00000000000E+00  0.00000000000E+00  0.13631891391E+04  0.13631891391E+04  0.00000000000E+00 0. -1.
          1   -1    0    0  501    0 -0.00000000000E+00 -0.00000000000E+00 -0.12663218503E+03  0.12663218503E+03  0.00000000000E+00 0. -1.
         25    2    1    2    0    0  0.58491939523E+02  0.23450328780E+02  0.83312357873E+03  0.84480473190E+03  0.12501564980E+03 0.  0.
          2    1    1    2  501    0 -0.20991664136E+02 -0.30107530032E+02 -0.11729187000E+03  0.12290035027E+03  0.00000000000E+00 0. -1.
          1    1    1    2  502    0 -0.37500275387E+02  0.66572012518E+01  0.52072524530E+03  0.52211624192E+03  0.00000000000E+00 0. -1.
         22    1    3    3    0    0  0.69554556591E+02 -0.17921316482E+02  0.25007596666E+03  0.26018646972E+03  0.00000000000E+00 0. -1.
         22    1    3    3    0    0 -0.11062617068E+02  0.41371645263E+02  0.58304761207E+03  0.58461826218E+03  0.00000000000E+00 0. -1.
</event>
<event>
 7    1  0.5194496E-006  0.1433270E+03  0.7818608E-02  0.1308306E+00
          2   -1    0    0  502    0  0.00000000000E+00  0.00000000000E+00  0.11479304932E+04  0.11479304932E+04  0.00000000000E+00 0. -1.
          1   -1    0    0  501    0 -0.00000000000E+00 -0.00000000000E+00 -0.10177449329E+03  0.10177449329E+03  0.00000000000E+00 0. -1.
         25    2    1    2    0    0 -0.90604970716E+02  0.23500584567E+02  0.73822359788E+03  0.75455920109E+03  0.12499587708E+03 0.  0.
          2    1    1    2  501    0  0.14349958542E+03 -0.33145637403E+02 -0.32227643836E+02  0.15076267880E+03  0.00000000000E+00 0. -1.
          1    1    1    2  502    0 -0.52894614699E+02  0.96450528359E+01  0.34016004589E+03  0.34438310662E+03  0.00000000000E+00 0. -1.
         22    1    3    3    0    0  0.27763340843E+02  0.95247494474E+01  0.26231520823E+03  0.26395225404E+03  0.00000000000E+00 0.  1.
         22    1    3    3    0    0 -0.11836831156E+03  0.13975835119E+02  0.47590838965E+03  0.49060694705E+03  0.00000000000E+00 0.  1.
</event>
<event>
 7    1  0.5194496E-006  0.9073276E+02  0.7818608E-02  0.1357064E+00
          2   -1    0    0  502    0  0.00000000000E+00  0.00000000000E+00  0.22556466766E+03  0.22556466766E+03  0.00000000000E+00 0. -1.
          1   -1    0    0  501    0 -0.00000000000E+00 -0.00000000000E+00 -0.57483772487E+03  0.57483772487E+03  0.00000000000E+00 0. -1.
         25    2    1    2    0    0 -0.10102223920E+02 -0.47556652468E+02 -0.13912205963E+03  0.19324619312E+03  0.12500181421E+03 0.  0.
          2    1    1    2  501    0  0.34871224312E+02 -0.43048635796E+02 -0.39550211104E+03  0.39936337734E+03  0.00000000000E+00 0. -1.
          1    1    1    2  502    0 -0.24769000392E+02  0.90605288264E+02  0.18535111346E+03  0.20779282207E+03  0.00000000000E+00 0. -1.
         22    1    3    3    0    0  0.11805328500E+02  0.34395799595E+02 -0.85440939665E+02  0.92857907480E+02  0.00000000000E+00 0.  1.
         22    1    3    3    0    0 -0.21907552420E+02 -0.81952452062E+02 -0.53681119965E+02  0.10038828564E+03  0.00000000000E+00 0.  1.
</event>
<event>
 7    1  0.5194496E-006  0.1477958E+03  0.7818608E-02  0.1249314E+00
          2   -1    0    0  502    0  0.00000000000E+00  0.00000000000E+00  0.61869918604E+02  0.61869918604E+02  0.00000000000E+00 0. -1.
          1   -1    0    0  501    0 -0.00000000000E+00 -0.00000000000E+00 -0.26313406383E+04  0.26313406383E+04  0.00000000000E+00 0. -1.
         25    2    1    2    0    0 -0.50022654885E+02  0.39632166046E+02 -0.12192909286E+04  0.12273408978E+04  0.12498934452E+03 0.  0.
          2    1    1    2  501    0 -0.77179037334E+02  0.49203745224E+02 -0.12993994921E+04  0.13026191510E+04  0.00000000000E+00 0. -1.
          1    1    1    2  502    0  0.12720169222E+03 -0.88835911271E+02 -0.50780298933E+02  0.16325050810E+03  0.00000000000E+00 0. -1.
         22    1    3    3    0    0  0.12689497994E+01  0.90529874802E+01 -0.30529003961E+01  0.96377910715E+01  0.00000000000E+00 0.  1.
         22    1    3    3    0    0 -0.51291604684E+02  0.30579178566E+02 -0.12162380282E+04  0.12177031067E+04  0.00000000000E+00 0.  1.
</event>
<event>
 7    1  0.5194496E-006  0.3785494E+02  0.7818608E-02  0.1611200E+00
          2   -1    0    0  502    0  0.00000000000E+00  0.00000000000E+00  0.22749798937E+04  0.22749798937E+04  0.00000000000E+00 0. -1.
          1   -1    0    0  501    0 -0.00000000000E+00 -0.00000000000E+00 -0.41513264179E+02  0.41513264179E+02  0.00000000000E+00 0. -1.
         25    2    1    2    0    0  0.18671477526E+02 -0.51397929306E+02  0.43463858436E+03  0.45555020083E+03  0.12499966100E+03 0.  0.
          2    1    1    2  501    0  0.42098812306E+01  0.21575060158E+02 -0.26950006848E+02  0.34777998647E+02  0.00000000000E+00 0. -1.
          1    1    1    2  502    0 -0.22881358757E+02  0.29822869148E+02  0.18257780520E+04  0.18261649584E+04  0.00000000000E+00 0. -1.
         22    1    3    3    0    0  0.55693901959E+02  0.24152383254E+01  0.99012270930E+02  0.11362690652E+03  0.00000000000E+00 0. -1.
         22    1    3    3    0    0 -0.37022424433E+02 -0.53813167632E+02  0.33562631343E+03  0.34192329430E+03  0.00000000000E+00 0. -1.
</event>
<event>
 7    1  0.5194496E-006  0.5888177E+02  0.7818608E-02  0.1441982E+00
          2   -1    0    0  502    0  0.00000000000E+00  0.00000000000E+00  0.23344584550E+04  0.23344584550E+04  0.00000000000E+00 0. -1.
          1   -1    0    0  501    0 -0.00000000000E+00 -0.00000000000E+00 -0.55852260835E+02  0.55852260835E+02  0.00000000000E+00 0. -1.
         25    2    1    2    0    0  0.22391533333E+02 -0.17938463985E+02  0.98880521534E+03  0.99708810819E+03  0.12500308933E+03 0.  0.
          2    1    1    2  501    0  0.20894296663E+00 -0.43531195045E+02 -0.41599458608E+02  0.60212320630E+02  0.00000000000E+00 0. -1.
          1    1    1    2  502    0 -0.22600476299E+02  0.61469659029E+02  0.13314004375E+04  0.13330102871E+04  0.00000000000E+00 0. -1.
         22    1    3    3    0    0  0.39887712249E+02  0.46583447336E+02  0.45619774707E+03  0.46030145729E+03  0.00000000000E+00 0. -1.
         22    1    3    3    0    0 -0.17496178917E+02 -0.64521911321E+02  0.53260746827E+03  0.53678665090E+03  0.00000000000E+00 0. -1.
</event>
<event>
 7    1  0.5194496E-006  0.1242288E+03  0.7818608E-02  0.1362632E+00
          2   -1    0    0  502    0  0.00000000000E+00  0.00000000000E+00  0.12577735147E+04  0.12577735147E+04  0.00000000000E+00 0. -1.
          1   -1    0    0  501    0 -0.00000000000E+00 -0.00000000000E+00 -0.67618931749E+03  0.67618931749E+03  0.00000000000E+00 0. -1.
         25    2    1    2    0    0  0.39525875970E+01 -0.11476122270E+03  0.38450242168E+03  0.42030169701E+03  0.12500257215E+03 0.  0.
          2    1    1    2  501    0 -0.37648098344E+02 -0.85751628109E+01 -0.65293832032E+03  0.65407901882E+03  0.00000000000E+00 0. -1.
          1    1    1    2  502    0  0.33695510747E+02  0.12333638551E+03  0.85002009582E+03  0.85958211634E+03  0.00000000000E+00 0. -1.
         22    1    3    3    0    0  0.32057462146E+02 -0.17843561855E+00  0.21479061693E+02  0.38588376615E+02  0.00000000000E+00 0.  1.
         22    1    3    3    0    0 -0.28104874549E+02 -0.11458278708E+03  0.36302335999E+03  0.38171332039E+03  0.00000000000E+00 0.  1.
</event>
<event>
 7    1  0.5194496E-006  0.9317895E+02  0.7818608E-02  0.1342962E+00
          2   -1    0    0  502    0  0.00000000000E+00  0.00000000000E+00  0.22201517146E+03  0.22201517146E+03  0.00000000000E+00 0. -1.
          1   -1    0    0  501    0 -0.00000000000E+00 -0.00000000000E+00 -0.11051276190E+04  0.11051276190E+04  0.00000000000E+00 0. -1.
         25    2    1    2    0    0 -0.71217011894E+02 -0.13150855759E+03 -0.26984591300E+03  0.33287845941E+03  0.12499955387E+03 0.  0.
          2    1    1    2  501    0  0.44072901413E+02  0.77056929644E+02 -0.79637758347E+03  0.80130983178E+03  0.00000000000E+00 0. -1.
          1    1    1    2  502    0  0.27144110480E+02  0.54451627949E+02  0.18311104897E+03  0.19295449923E+03  0.00000000000E+00 0. -1.
         22    1    3    3    0    0 -0.94113979873E+02 -0.12335025758E+03 -0.17017880658E+03  0.23029015060E+03  0.00000000000E+00 0.  1.
         22    1    3    3    0    0  0.22896967979E+02 -0.81583000138E+01 -0.99667106421E+02  0.10258830881E+03  0.00000000000E+00 0.  1.
</event>
<event>
 7    1  0.5194496E-006  0.1346735E+03  0.7818608E-02  0.1242722E+00
          2   -1    0    0  502    0  0.00000000000E+00  0.00000000000E+00  0.41552923737E+03  0.41552923737E+03  0.00000000000E+00 0. -1.
          1   -1    0    0  501    0 -0.00000000000E+00 -0.00000000000E+00 -0.12483173207E+04  0.12483173207E+04  0.00000000000E+00 0. -1.
         25    2    1    2    0    0  0.10983705010E+03  0.10602629757E+02 -0.27097663742E+02  0.16892596629E+03  0.12500042150E+03 0.  0.
          2    1    1    2  501    0 -0.38120640731E+01 -0.10726413694E+03 -0.11327247294E+04  0.11377985056E+04  0.00000000000E+00 0. -1.
          1    1    1    2  502    0 -0.10602498603E+03  0.96661507180E+02  0.32703430978E+03  0.35712208614E+03  0.00000000000E+00 0. -1.
         22    1    3    3    0    0 -0.21605102944E+02 -0.16532406835E+02 -0.21362187023E+02  0.34589651392E+02  0.00000000000E+00 0. -1.
         22    1    3    3    0    0  0.13144215304E+03  0.27135036593E+02 -0.57354767186E+01  0.13433631490E+03  0.00000000000E+00 0. -1.
</event>
<event>
 7    1  0.5194496E-006  0.2258870E+03  0.7818608E-02  0.1332326E+00
          2   -1    0    0  502    0  0.00000000000E+00  0.00000000000E+00  0.37591774835E+03  0.37591774835E+03  0.00000000000E+00 0. -1.
          1   -1    0    0  501    0 -0.00000000000E+00 -0.00000000000E+00 -0.35876094925E+03  0.35876094925E+03  0.00000000000E+00 0. -1.
         25    2    1    2    0    0 -0.12081497322E+03  0.21641517185E+03 -0.89072159538E+02  0.29152769340E+03  0.12499104790E+03 0.  0.
          2    1    1    2  501    0  0.17197399001E+02 -0.21496416448E+02 -0.12233314096E+03  0.12539235953E+03  0.00000000000E+00 0. -1.
          1    1    1    2  502    0  0.10361757422E+03 -0.19491875540E+03  0.22856209959E+03  0.31775864467E+03  0.00000000000E+00 0. -1.
         22    1    3    3    0    0 -0.39166300344E+02  0.23304576128E+02 -0.66549369052E+02  0.80659288816E+02  0.00000000000E+00 0. -1.
         22    1    3    3    0    0 -0.81648672878E+02  0.19311059572E+03 -0.22522790487E+02  0.21086840459E+03  0.00000000000E+00 0. -1.
</event>
<event>
 7    1  0.5194496E-006  0.1105660E+03  0.7818608E-02  0.1262213E+00
          2   -1    0    0  502    0  0.00000000000E+00  0.00000000000E+00  0.40907835224E+04  0.40907835224E+04  0.00000000000E+00 0. -1.
          1   -1    0    0  501    0 -0.00000000000E+00 -0.00000000000E+00 -0.27709673979E+02  0.27709673979E+02  0.00000000000E+00 0. -1.
         25    2    1    2    0    0  0.38619302650E+00  0.32556981779E+02  0.10931476350E+04  0.11007529942E+04  0.12500118445E+03 0.  0.
          2    1    1    2  501    0  0.41237940935E+01  0.11048911885E+03  0.11608990097E+03  0.16031754791E+03  0.00000000000E+00 0. -1.
          1    1    1    2  502    0 -0.45099871200E+01 -0.14304610063E+03  0.28538363124E+04  0.28574226543E+04  0.00000000000E+00 0. -1.
         22    1    3    3    0    0 -0.21825507074E+02 -0.26016614106E+02  0.99554441294E+02  0.10518699421E+03  0.00000000000E+00 0. -1.
         22    1    3    3    0    0  0.22211700100E+02  0.58573595885E+02  0.99359319367E+03  0.99556599995E+03  0.00000000000E+00 0. -1.
</event>
<event>
 7    1  0.5194496E-006  0.4507112E+02  0.7818608E-02  0.1542923E+00
          2   -1    0    0  502    0  0.00000000000E+00  0.00000000000E+00  0.42583291957E+03  0.42583291957E+03  0.00000000000E+00 0. -1.
          1   -1    0    0  501    0 -0.00000000000E+00 -0.00000000000E+00 -0.16998181185E+04  0.16998181185E+04  0.00000000000E+00 0. -1.
         25    2    1    2    0    0 -0.64774494049E+02 -0.11994570888E+01 -0.94924844380E+03  0.95963258271E+03  0.12499964788E+03 0.  0.
          2    1    1    2  501    0  0.40847928593E+02 -0.13715338499E+02 -0.74428133012E+03  0.74552757303E+03  0.00000000000E+00 0. -1.
          1    1    1    2  502    0  0.23926565455E+02  0.14914795587E+02  0.41954457503E+03  0.42049088230E+03  0.00000000000E+00 0. -1.
         22    1    3    3    0    0  0.26506639157E+02  0.28370021753E+02 -0.41707814960E+03  0.41888141869E+03  0.00000000000E+00 0. -1.
         22    1    3    3    0    0 -0.91281133206E+02 -0.29569478842E+02 -0.53217029420E+03  0.54075116402E+03  0.00000000000E+00 0. -1.
</event>
<event>
 7    1  0.5194496E-006  0.1754589E+03  0.7818608E-02  0.1256452E+00
          2   -1    0    0  502    0  0.00000000000E+00  0.00000000000E+00  0.50603095669E+03  0.50603095669E+03  0.00000000000E+00 0. -1.
          1   -1    0    0  501    0 -0.00000000000E+00 -0.00000000000E+00 -0.14256082861E+04  0.14256082861E+04  0.00000000000E+00 0. -1.
         25    2    1    2    0    0 -0.58735784875E+02 -0.20233895854E+03  0.18813213235E+03  0.30888363634E+03  0.12499782002E+03 0.  0.
          2    1    1    2  501    0  0.99956830933E+02  0.14352949949E+03 -0.13544906351E+04  0.13657367849E+04  0.00000000000E+00 0. -1.
          1    1    1    2  502    0 -0.41221046058E+02  0.58809459050E+02  0.24678117330E+03  0.25701882150E+03  0.00000000000E+00 0. -1.
         22    1    3    3    0    0 -0.93334057949E+02 -0.12028674634E+03  0.92197133508E+02  0.17799005350E+03  0.00000000000E+00 0. -1.
         22    1    3    3    0    0  0.34598273073E+02 -0.82052212204E+02  0.95934998843E+02  0.13089358285E+03  0.00000000000E+00 0. -1.
</event>
<event>
 7    1  0.5194496E-006  0.3912666E+02  0.7818608E-02  0.1541651E+00
          2   -1    0    0  502    0  0.00000000000E+00  0.00000000000E+00  0.55193253273E+03  0.55193253273E+03  0.00000000000E+00 0. -1.
          1   -1    0    0  501    0 -0.00000000000E+00 -0.00000000000E+00 -0.12792649488E+03  0.12792649488E+03  0.00000000000E+00 0. -1.
         25    2    1    2    0    0 -0.10786232920E+02 -0.18625802874E+02  0.14347875307E+03  0.19151704492E+03  0.12501744903E+03 0.  0.
          2    1    1    2  501    0  0.27259391181E+02 -0.18146907916E+02 -0.10023749032E+03  0.10545112204E+03  0.00000000000E+00 0. -1.
          1    1    1    2  502    0 -0.16473158262E+02  0.36772710790E+02  0.38076477511E+03  0.38289086064E+03  0.00000000000E+00 0. -1.
         22    1    3    3    0    0 -0.30869366997E+02  0.37489613283E+02  0.16574520230E+02  0.51313776355E+02  0.00000000000E+00 0. -1.
         22    1    3    3    0    0  0.20083134077E+02 -0.56115416158E+02  0.12690423284E+03  0.14020326857E+03  0.00000000000E+00 0. -1.
</event>
<event>
 7    1  0.5194496E-006  0.1638049E+03  0.7818608E-02  0.1232693E+00
          2   -1    0    0  502    0  0.00000000000E+00  0.00000000000E+00  0.77067728547E+03  0.77067728547E+03  0.00000000000E+00 0. -1.
          1   -1    0    0  501    0 -0.00000000000E+00 -0.00000000000E+00 -0.20929430731E+03  0.20929430731E+03  0.00000000000E+00 0. -1.
         25    2    1    2    0    0 -0.10214384392E+03 -0.19463093023E+03  0.30160800905E+03  0.39358255756E+03  0.12500109855E+03 0.  0.
          2    1    1    2  501    0 -0.12038365779E+02  0.96997270115E+02 -0.13346563283E+03  0.16542813487E+03  0.00000000000E+00 0. -1.
          1    1    1    2  502    0  0.11418220970E+03  0.97633660120E+02  0.39324060194E+03  0.42096090034E+03  0.00000000000E+00 0. -1.
         22    1    3    3    0    0 -0.83277187254E+02 -0.65515070460E+02  0.67701661002E+02  0.12574112007E+03  0.00000000000E+00 0.  1.
         22    1    3    3    0    0 -0.18866656666E+02 -0.12911585977E+03  0.23390634804E+03  0.26784143749E+03  0.00000000000E+00 0.  1.
</event>
<event>
 7    1  0.5194496E-006  0.6010364E+02  0.7818608E-02  0.1534731E+00
          2   -1    0    0  502    0  0.00000000000E+00  0.00000000000E+00  0.14608925255E+03  0.14608925255E+03  0.00000000000E+00 0. -1.
          1   -1    0    0  501    0 -0.00000000000E+00 -0.00000000000E+00 -0.26240818136E+03  0.26240818136E+03  0.00000000000E+00 0. -1.
         25    2    1    2    0    0  0.52907467288E+02  0.23900119172E+02 -0.20609950526E+03  0.24793752740E+03  0.12500238250E+03 0.  0.
          2    1    1    2  501    0 -0.47025428736E+02 -0.45413061631E+02 -0.26985531742E+01  0.65429498728E+02  0.00000000000E+00 0. -1.
          1    1    1    2  502    0 -0.58820385524E+01  0.21512942459E+02  0.92479129620E+02  0.95130407789E+02  0.00000000000E+00 0. -1.
         22    1    3    3    0    0  0.54050305755E+02  0.84399379809E+01 -0.15707825112E+02  0.56915761218E+02  0.00000000000E+00 0.  1.
         22    1    3    3    0    0 -0.11428384667E+01  0.15460181191E+02 -0.19039168015E+03  0.19102176618E+03  0.00000000000E+00 0.  1.
</event>
<event>
 7    1  0.5194496E-006  0.1016843E+03  0.7818608E-02  0.1325269E+00
          2   -1    0    0  502    0  0.00000000000E+00  0.00000000000E+00  0.75803403713E+03  0.75803403713E+03  0.00000000000E+00 0. -1.
          1   -1    0    0  501    0 -0.00000000000E+00 -0.00000000000E+00 -0.14886093037E+04  0.14886093037E+04  0.00000000000E+00 0. -1.
         25    2    1    2    0    0 -0.69328342342E+02 -0.12066251727E+03  0.51002028511E+03  0.54324205648E+03  0.12500151428E+03 0.  0.
          2    1    1    2  501    0  0.83943561986E+02  0.57246148057E+02 -0.14656289125E+04  0.14691466067E+04  0.00000000000E+00 0. -1.
          1    1    1    2  502    0 -0.14615219644E+02  0.63416369215E+02  0.22503336077E+03  0.23425467762E+03  0.00000000000E+00 0. -1.
         22    1    3    3    0    0 -0.95390840937E+02 -0.59722611918E+02  0.23807041922E+03  0.26333197189E+03  0.00000000000E+00 0. -1.
         22    1    3    3    0    0  0.26062498595E+02 -0.60939905354E+02  0.27194986589E+03  0.27991008459E+03  0.00000000000E+00 0. -1.
</event>
<event>
 7    1  0.5194496E-006  0.1339464E+03  0.7818608E-02  0.1382470E+00
          2   -1    0    0  502    0  0.00000000000E+00  0.00000000000E+00  0.13400442075E+04  0.13400442075E+04  0.00000000000E+00 0. -1.
          1   -1    0    0  501    0 -0.00000000000E+00 -0.00000000000E+00 -0.76538507901E+03  0.76538507901E+03  0.00000000000E+00 0. -1.
         25    2    1    2    0    0  0.14538636441E+03  0.55050757756E+02  0.12362068577E+04  0.12521982625E+04  0.12500125127E+03 0.  0.
          2    1    1    2  501    0 -0.11679184634E+03 -0.65391136580E+02 -0.74888450089E+03  0.76075247734E+03  0.00000000000E+00 0. -1.
          1    1    1    2  502    0 -0.28594518068E+02  0.10340378824E+02  0.87336771684E+02  0.92478546625E+02  0.00000000000E+00 0. -1.
         22    1    3    3    0    0 -0.44098709030E+01  0.31998252094E+02  0.47221103428E+03  0.47331447897E+03  0.00000000000E+00 0.  1.
         22    1    3    3    0    0  0.14979623531E+03  0.23052505662E+02  0.76399582337E+03  0.77888378354E+03  0.00000000000E+00 0.  1.
</event>
<event>
 7    1  0.5194496E-006  0.8201200E+02  0.7818608E-02  0.1475509E+00
          2   -1    0    0  502    0  0.00000000000E+00  0.00000000000E+00  0.15739375008E+04  0.15739375008E+04  0.00000000000E+00 0. -1.
          1   -1    0    0  501    0 -0.00000000000E+00 -0.00000000000E+00 -0.50431656072E+03  0.50431656072E+03  0.00000000000E+00 0. -1.
         25    2    1    2    0    0 -0.38805662336E+02  0.87899118577E+02  0.77102992449E+02  0.17550671592E+03  0.12500240562E+03 0.  0.
          2    1    1    2  501    0  0.23260299103E+02 -0.76540555705E+01 -0.45363044863E+03  0.45429088700E+03  0.00000000000E+00 0. -1.
          1    1    1    2  502    0  0.15545363233E+02 -0.80245063007E+02  0.14461483963E+04  0.14484564586E+04  0.00000000000E+00 0. -1.
         22    1    3    3    0    0 -0.22150782515E+02  0.21412600767E+02 -0.33421388350E+02  0.45454876932E+02  0.00000000000E+00 0.  1.
         22    1    3    3    0    0 -0.16654879821E+02  0.66486517811E+02  0.11052438080E+03  0.13005183899E+03  0.00000000000E+00 0.  1.
</event>
<event>
 7    1  0.5194496E-006  0.2942992E+02  0.7818608E-02  0.1665670E+00
          2   -1    0    0  502    0  0.00000000000E+00  0.00000000000E+00  0.24693974216E+03  0.24693974216E+03  0.00000000000E+00 0. -1.
          1   -1    0    0  501    0 -0.00000000000E+00 -0.00000000000E+00 -0.48008318126E+03  0.48008318126E+03  0.00000000000E+00 0. -1.
         25    2    1    2    0    0 -0.15040561787E+02  0.83657336483E+01 -0.75044891989E+02  0.14681561812E+03  0.12500754342E+03 0.  0.
          2    1    1    2  501    0  0.28865204890E+02  0.70322398786E+01 -0.36804566642E+03  0.36924282664E+03  0.00000000000E+00 0. -1.
          1    1    1    2  502    0 -0.13824643102E+02 -0.15397973527E+02  0.20994711932E+03  0.21096447866E+03  0.00000000000E+00 0. -1.
         22    1    3    3    0    0 -0.83839798979E+01 -0.51262929920E+02 -0.69208715372E+02  0.86533377297E+02  0.00000000000E+00 0.  1.
         22    1    3    3    0    0 -0.66565818892E+01  0.59628663568E+02 -0.58361766161E+01  0.60282240825E+02  0.00000000000E+00 0.  1.
</event>
<event>
 7    1  0.5194496E-006  0.9336269E+02  0.7818608E-02  0.1335810E+00
          2   -1    0    0  502    0  0.00000000000E+00  0.00000000000E+00  0.67843219973E+02  0.67843219973E+02  0.00000000000E+00 0. -1.
          1   -1    0    0  501    0 -0.00000000000E+00 -0.00000000000E+00 -0.10238765205E+04  0.10238765205E+04  0.00000000000E+00 0. -1.
         25    2    1    2    0    0  0.13981635828E+03  0.31991357553E+02 -0.53505894256E+03  0.56787785280E+03  0.12500049075E+03 0.  0.
          2    1    1    2  501    0 -0.50142587389E+02 -0.40740994706E+02 -0.42857952393E+03  0.43342186845E+03  0.00000000000E+00 0. -1.
          1    1    1    2  502    0 -0.89673770888E+02  0.87496371529E+01  0.76051659166E+01  0.90420019267E+02  0.00000000000E+00 0. -1.
         22    1    3    3    0    0  0.16362160502E+03  0.26095068631E+02 -0.46996485751E+03  0.49831711744E+03  0.00000000000E+00 0.  1.
         22    1    3    3    0    0 -0.23805246747E+02  0.58962889224E+01 -0.65094085050E+02  0.69560735363E+02  0.00000000000E+00 0.  1.
</event>
<event>
 7    1  0.5194496E-006  0.7715381E+02  0.7818608E-02  0.1371567E+00
          2   -1    0    0  502    0  0.00000000000E+00  0.00000000000E+00  0.32724846958E+03  0.32724846958E+03  0.00000000000E+00 0. -1.
          1   -1    0    0  501    0 -0.00000000000E+00 -0.00000000000E+00 -0.10231399853E+04  0.10231399853E+04  0.00000000000E+00 0. -1.
         25    2    1    2    0    0 -0.61117765310E+02 -0.38411051464E+02 -0.35170660813E+03  0.38017521794E+03  0.12499947207E+03 0.  0.
          2    1    1    2  501    0  0.44132836001E+02 -0.37201566661E+02 -0.65110598572E+03  0.65365944376E+03  0.00000000000E+00 0. -1.
          1    1    1    2  502    0  0.16984929309E+02  0.75612618124E+02  0.30692107808E+03  0.31655379324E+03  0.00000000000E+00 0. -1.
         22    1    3    3    0    0 -0.93322098067E+02 -0.20157039716E+01 -0.19661280053E+03  0.21764574515E+03  0.00000000000E+00 0. -1.
         22    1    3    3    0    0  0.32204332757E+02 -0.36395347492E+02 -0.15509380760E+03  0.16252947278E+03  0.00000000000E+00 0. -1.
</event>
<event>
 7    1  0.5194496E-006  0.1709349E+03  0.7818608E-02  0.1253321E+00
          2   -1    0    0  502    0  0.00000000000E+00  0.00000000000E+00  0.87374610473E+03  0.87374610473E+03  0.00000000000E+00 0. -1.
          1   -1    0    0  501    0 -0.00000000000E+00 -0.00000000000E+00 -0.11966864745E+03  0.11966864745E+03  0.00000000000E+00 0. -1.
         25    2    1    2    0    0 -0.13123773492E+03 -0.10665965186E+03  0.20738918863E+03  0.29535567450E+03  0.12500029799E+03 0.  0.
          2    1    1    2  501    0 -0.39024543200E+02  0.65263453288E+02 -0.39890011920E+02  0.85868774057E+02  0.00000000000E+00 0. -1.
          1    1    1    2  502    0  0.17026227812E+03  0.41396198568E+02  0.58657828058E+03  0.61219030363E+03  0.00000000000E+00 0. -1.
         22    1    3    3    0    0 -0.11513191124E+03 -0.98087627728E+02  0.22426546908E+03  0.27050238506E+03  0.00000000000E+00 0.  1.
         22    1    3    3    0    0 -0.16105823677E+02 -0.85720241276E+01 -0.16876280456E+02  0.24853289440E+02  0.00000000000E+00 0.  1.
</event>
<event>
 7    1  0.5194496E-006  0.2185092E+03  0.7818608E-02  0.1230141E+00
          2   -1    0    0  502    0  0.00000000000E+00  0.00000000000E+00  0.12058492227E+04  0.12058492227E+04  0.00000000000E+00 0. -1.
          1   -1    0    0  501    0 -0.00000000000E+00 -0.00000000000E+00 -0.88964318299E+03  0.88964318299E+03  0.00000000000E+00 0. -1.
         25    2    1    2    0    0 -0.26201697532E+03 -0.11766104360E+03  0.87450714573E+02  0.32522268297E+03  0.12500059801E+03 0.  0.
          2    1    1    2  501    0  0.68623691642E+02  0.30811027822E+02 -0.75763216243E+03  0.76135735633E+03  0.00000000000E+00 0. -1.
          1    1    1    2  502    0  0.19339328368E+03  0.86850015775E+02  0.98638748761E+03  0.10089123664E+04  0.00000000000E+00 0. -1.
         22    1    3    3    0    0 -0.22481330625E+03 -0.12925937217E+03  0.37736945914E+02  0.26205549994E+03  0.00000000000E+00 0. -1.
         22    1    3    3    0    0 -0.37203669072E+02  0.11598328574E+02  0.49713768659E+02  0.63167183033E+02  0.00000000000E+00 0. -1.
</event>
<event>
 7    1  0.5194496E-006  0.2804527E+03  0.7818608E-02  0.1277307E+00
          2   -1    0    0  502    0  0.00000000000E+00  0.00000000000E+00  0.27318036464E+03  0.27318036464E+03  0.00000000000E+00 0. -1.
          1   -1    0    0  501    0 -0.00000000000E+00 -0.00000000000E+00 -0.15273249586E+04  0.15273249586E+04  0.00000000000E+00 0. -1.
         25    2    1    2    0    0  0.26103846378E+03 -0.14785334528E+03 -0.37459755864E+02  0.32715364094E+03  0.12499832073E+03 0.  0.
          2    1    1    2  501    0 -0.23867179446E+02  0.27862452243E+02 -0.12068139617E+04  0.12073714824E+04  0.00000000000E+00 0. -1.
          1    1    1    2  502    0 -0.23717128434E+03  0.11999089304E+03 -0.98708764320E+01  0.26598019988E+03  0.00000000000E+00 0. -1.
         22    1    3    3    0    0  0.84300779032E+02 -0.10497370019E+03  0.20700264552E+02  0.13621527091E+03  0.00000000000E+00 0.  1.
         22    1    3    3    0    0  0.17673768475E+03 -0.42879645091E+02 -0.58160020415E+02  0.19093837003E+03  0.00000000000E+00 0.  1.
</event>
<event>
 7    1  0.5194496E-006  0.3347507E+02  0.7818608E-02  0.1590032E+00
          2   -1    0    0  502    0  0.00000000000E+00  0.00000000000E+00  0.30314314308E+03  0.30314314308E+03  0.00000000000E+00 0. -1.
          1   -1    0    0  501    0 -0.00000000000E+00 -0.00000000000E+00 -0.24589525704E+04  0.24589525704E+04  0.00000000000E+00 0. -1.
         25    2    1    2    0    0 -0.17916215451E+02 -0.18137074729E+02 -0.22963474080E+04  0.22998887201E+04  0.12500705008E+03 0.  0.
          2    1    1    2  501    0 -0.15071785513E+02  0.23871805975E+02 -0.15865453320E+03  0.16114677392E+03  0.00000000000E+00 0. -1.
          1    1    1    2  502    0  0.32988000964E+02 -0.57347312461E+01  0.29919251388E+03  0.30106021941E+03  0.00000000000E+00 0. -1.
         22    1    3    3    0    0  0.40191263659E+01  0.19277289485E+02 -0.20251122671E+04  0.20252080045E+04  0.00000000000E+00 0. -1.
         22    1    3    3    0    0 -0.21935341817E+02 -0.37414364214E+02 -0.27123514086E+03  0.27468071558E+03  0.00000000000E+00 0. -1.
</event>
<event>
 7    1  0.5194496E-006  0.4979080E+02  0.7818608E-02  0.1557589E+00
          2   -1    0    0  502    0  0.00000000000E+00  0.00000000000E+00  0.53056170028E+02  0.53056170028E+02  0.00000000000E+00 0. -1.
          1   -1    0    0  501    0 -0.00000000000E+00 -0.00000000000E+00 -0.87981585622E+03  0.87981585622E+03  0.00000000000E+00 0. -1.
         25    2    1    2    0    0 -0.42563572304E+02  0.28271460219E+02 -0.47214062263E+03  0.49107257279E+03  0.12499828423E+03 0.  0.
          2    1    1    2  501    0  0.25134242589E+02 -0.43626242812E+02 -0.39339212594E+03  0.39660098835E+03  0.00000000000E+00 0. -1.
          1    1    1    2  502    0  0.17429329715E+02  0.15354782592E+02  0.38773062370E+02  0.45198465110E+02  0.00000000000E+00 0. -1.
         22    1    3    3    0    0 -0.21319104900E+02 -0.42933069777E+02 -0.92012373831E+02  0.10374984170E+03  0.00000000000E+00 0. -1.
         22    1    3    3    0    0 -0.21244467404E+02  0.71204529996E+02 -0.38012824880E+03  0.38732273109E+03  0.00000000000E+00 0. -1.
</event>
<event>
 7    1  0.5194496E-006  0.2070063E+03  0.7818608E-02  0.1181505E+00
          2   -1    0    0  502    0  0.00000000000E+00  0.00000000000E+00  0.28419430543E+04  0.28419430543E+04  0.00000000000E+00 0. -1.
          1   -1    0    0  501    0 -0.00000000000E+00 -0.00000000000E+00 -0.58811574506E+03  0.58811574506E+03  0.00000000000E+00 0. -1.
         25    2    1    2    0    0 -0.78569089848E+02 -0.10540444197E+03  0.40553387612E+03  0.44425889183E+03  0.12500016008E+03 0.  0.
          2    1    1    2  501    0  0.46791618664E+02 -0.12554786718E+03 -0.55514338219E+03  0.57108309143E+03  0.00000000000E+00 0. -1.
          1    1    1    2  502    0  0.31777471184E+02  0.23095230914E+03  0.24034368153E+04  0.24147168161E+04  0.00000000000E+00 0. -1.
         22    1    3    3    0    0 -0.89437262878E+02 -0.29447441476E+02  0.14693656517E+03  0.17451799330E+03  0.00000000000E+00 0. -1.
         22    1    3    3    0    0  0.10868173030E+02 -0.75957000492E+02  0.25859731095E+03  0.26974089852E+03  0.00000000000E+00 0. -1.
</event>
<event>
 7    1  0.1238090E-005  0.8246849E+02  0.7818608E-02  0.1412735E+00
          2   -1    0    0  502    0  0.00000000000E+00  0.00000000000E+00  0.22455626515E+04  0.22455626515E+04  0.00000000000E+00 0. -1.
          1   -1    0    0  501    0 -0.00000000000E+00 -0.00000000000E+00 -0.78734690379E+03  0.78734690379E+03  0.00000000000E+00 0. -1.
         25    2    1    2    0    0  0.35614684127E+02 -0.96912893298E+02 -0.82616509917E+02  0.18196233305E+03  0.12499715327E+03 0.  0.
          2    1    1    2  501    0 -0.36008598473E+02  0.14529009710E+02 -0.65370846479E+03  0.65486064794E+03  0.00000000000E+00 0. -1.
          1    1    1    2  502    0  0.39391434522E+00  0.82383883588E+02  0.21945407224E+04  0.21960865743E+04  0.00000000000E+00 0. -1.
         22    1    3    3    0    0 -0.19821452078E+02 -0.10049169544E+03 -0.72518124836E+02  0.12550039540E+03  0.00000000000E+00 0.  1.
         22    1    3    3    0    0  0.55436136205E+02  0.35788021440E+01 -0.10098385081E+02  0.56461937652E+02  0.00000000000E+00 0.  1.
</event>
<event>
 7    1  0.5194496E-006  0.1057109E+03  0.7818608E-02  0.1315145E+00
          2   -1    0    0  502    0  0.00000000000E+00  0.00000000000E+00  0.13122004515E+04  0.13122004515E+04  0.00000000000E+00 0. -1.
          1   -1    0    0  501    0 -0.00000000000E+00 -0.00000000000E+00 -0.26509220094E+04  0.26509220094E+04  0.00000000000E+00 0. -1.
         25    2    1    2    0    0  0.35599244879E+02 -0.46232338228E+02  0.43070855426E+03  0.45226016638E+03  0.12499865617E+03 0.  0.
          2    1    1    2  501    0  0.53827126580E+02 -0.42404998542E+02 -0.26351465754E+04  0.26360373703E+04  0.00000000000E+00 0. -1.
          1    1    1    2  502    0 -0.89426371459E+02  0.88637336769E+02  0.86571646325E+03  0.87482492427E+03  0.00000000000E+00 0. -1.
         22    1    3    3    0    0  0.93943676777E+01  0.27856092208E+02  0.28671097156E+03  0.28821415168E+03  0.00000000000E+00 0.  1.
         22    1    3    3    0    0  0.26204877201E+02 -0.74088430436E+02  0.14399758271E+03  0.16404601470E+03  0.00000000000E+00 0.  1.
</event>
<event>
 7    1  0.5194496E-006  0.6538159E+02  0.7818608E-02  0.1409972E+00
          2   -1    0    0  502    0  0.00000000000E+00  0.00000000000E+00  0.29660833968E+03  0.29660833968E+03  0.00000000000E+00 0. -1.
          1   -1    0    0  501    0 -0.00000000000E+00 -0.00000000000E+00 -0.53006149626E+03  0.53006149626E+03  0.00000000000E+00 0. -1.
         25    2    1    2    0    0  0.14063057589E+02  0.39739455499E+02  0.36804305416E+01  0.13196805367E+03  0.12500011084E+03 0.  0.
          2    1    1    2  501    0 -0.61864525631E+02 -0.24931943717E+02 -0.46075080582E+03  0.46555356986E+03  0.00000000000E+00 0. -1.
          1    1    1    2  502    0  0.47801468042E+02 -0.14807511782E+02  0.22361721870E+03  0.22914821241E+03  0.00000000000E+00 0. -1.
         22    1    3    3    0    0  0.40432950957E+02  0.23779635175E+02 -0.50942102881E+02  0.69248771960E+02  0.00000000000E+00 0.  1.
         22    1    3    3    0    0 -0.26369893368E+02  0.15959820324E+02  0.54622533422E+02  0.62719281712E+02  0.00000000000E+00 0.  1.
</event>
<event>
 7    1  0.5194496E-006  0.1481462E+03  0.7818608E-02  0.1322745E+00
          2   -1    0    0  502    0  0.00000000000E+00  0.00000000000E+00  0.33210383150E+03  0.33210383150E+03  0.00000000000E+00 0. -1.
          1   -1    0    0  501    0 -0.00000000000E+00 -0.00000000000E+00 -0.24896860616E+03  0.24896860616E+03  0.00000000000E+00 0. -1.
         25    2    1    2    0    0  0.14571324850E+03 -0.11055434192E+03  0.63562871004E+02  0.23049643965E+03  0.12503502235E+03 0.  0.
          2    1    1    2  501    0 -0.37921714254E+02  0.25469560528E+02 -0.13576267140E+03  0.14324195570E+03  0.00000000000E+00 0. -1.
          1    1    1    2  502    0 -0.10779153424E+03  0.85084781393E+02  0.15533502574E+03  0.20733404231E+03  0.00000000000E+00 0. -1.
         22    1    3    3    0    0  0.60734062127E+01 -0.23344119587E+02  0.61267425936E+02  0.65844754257E+02  0.00000000000E+00 0.  1.
         22    1    3    3    0    0  0.13963984229E+03 -0.87210222334E+02  0.22954450681E+01  0.16465168539E+03  0.00000000000E+00 0.  1.
</event>
<event>
 7    1  0.5194496E-006  0.8284067E+02  0.7818608E-02  0.1390760E+00
          2   -1    0    0  502    0  0.00000000000E+00  0.00000000000E+00  0.22405760944E+03  0.22405760944E+03  0.00000000000E+00 0. -1.
          1   -1    0    0  501    0 -0.00000000000E+00 -0.00000000000E+00 -0.16881350800E+04  0.16881350800E+04  0.00000000000E+00 0. -1.
         25    2    1    2    0    0  0.11126000243E+02 -0.53132896821E+02 -0.40851385158E+03  0.43064529401E+03  0.12499963887E+03 0.  0.
          2    1    1    2  501    0  0.22458953484E+02  0.84538616030E+02 -0.12645453182E+04  0.12675669781E+04  0.00000000000E+00 0. -1.
          1    1    1    2  502    0 -0.33584953727E+02 -0.31405719209E+02  0.20898169930E+03  0.21398041723E+03  0.00000000000E+00 0. -1.
         22    1    3    3    0    0  0.60522875909E+02 -0.41677344699E+02 -0.32277125534E+03  0.33103066752E+03  0.00000000000E+00 0. -1.
         22    1    3    3    0    0 -0.49396875666E+02 -0.11455552122E+02 -0.85742596243E+02  0.99614626488E+02  0.00000000000E+00 0. -1.
</event>
<event>
 7    1  0.5194496E-006  0.1404821E+03  0.7818608E-02  0.1243974E+00
          2   -1    0    0  502    0  0.00000000000E+00  0.00000000000E+00  0.14560207194E+04  0.14560207194E+04  0.00000000000E+00 0. -1.
          1   -1    0    0  501    0 -0.00000000000E+00 -0.00000000000E+00 -0.10020166916E+04  0.10020166916E+04  0.00000000000E+00 0. -1.
         25    2    1    2    0    0  0.32499926155E+02  0.57791901058E+02  0.15944179203E+03  0.21317230460E+03  0.12499838949E+03 0.  0.
          2    1    1    2  501    0  0.98543929680E+02  0.24733595113E+02 -0.96776007794E+03  0.97307873538E+03  0.00000000000E+00 0. -1.
          1    1    1    2  502    0 -0.13104385583E+03 -0.82525496171E+02  0.12623223138E+04  0.12717863710E+04  0.00000000000E+00 0. -1.
         22    1    3    3    0    0  0.35070600624E+02 -0.11823483587E+02 -0.22845956578E+01  0.37080468843E+02  0.00000000000E+00 0.  1.
         22    1    3    3    0    0 -0.25706744693E+01  0.69615384645E+02  0.16172638769E+03  0.17609183576E+03  0.00000000000E+00 0.  1.
</event>
<event>
 7    1  0.5194496E-006  0.6870703E+02  0.7818608E-02  0.1449765E+00
          2   -1    0    0  502    0  0.00000000000E+00  0.00000000000E+00  0.47488121386E+03  0.47488121386E+03  0.00000000000E+00 0. -1.
          1   -1    0    0  501    0 -0.00000000000E+00 -0.00000000000E+00 -0.13406443865E+04  0.13406443865E+04  0.00000000000E+00 0. -1.
         25    2    1    2    0    0 -0.48364594671E+02 -0.88489589334E+02 -0.16648960848E+03  0.23132931843E+03  0.12499968959E+03 0.  0.
          2    1    1    2  501    0  0.23526229489E+02  0.63525500881E+02 -0.11400271732E+04  0.11420380591E+04  0.00000000000E+00 0. -1.
          1    1    1    2  502    0  0.24838365182E+02  0.24964088453E+02  0.44075360907E+03  0.44215822282E+03  0.00000000000E+00 0. -1.
         22    1    3    3    0    0 -0.51576618595E+02 -0.84427475387E+01 -0.68418571018E+01  0.52708999045E+02  0.00000000000E+00 0. -1.
         22    1    3    3    0    0  0.32120239247E+01 -0.80046841795E+02 -0.15964775138E+03  0.17862031939E+03  0.00000000000E+00 0. -1.
</event>
<event>
 7    1  0.5194496E-006  0.1894675E+03  0.7818608E-02  0.1235702E+00
          2   -1    0    0  502    0  0.00000000000E+00  0.00000000000E+00  0.14302656388E+04  0.14302656388E+04  0.00000000000E+00 0. -1.
          1   -1    0    0  501    0 -0.00000000000E+00 -0.00000000000E+00 -0.35152164766E+04  0.35152164766E+04  0.00000000000E+00 0. -1.
         25    2    1    2    0    0 -0.98703937586E+02 -0.12766348903E+03 -0.13699429787E+03  0.24583147627E+03  0.12500097339E+03 0.  0.
          2    1    1    2  501    0  0.17031294367E+03  0.87842901454E+02 -0.33198181162E+04  0.33253443729E+04  0.00000000000E+00 0. -1.
          1    1    1    2  502    0 -0.71609006087E+02  0.39820587572E+02  0.13718615763E+04  0.13743062662E+04  0.00000000000E+00 0. -1.
         22    1    3    3    0    0 -0.12272592829E+03 -0.13024802013E+03 -0.11225695456E+03  0.21125298594E+03  0.00000000000E+00 0.  1.
         22    1    3    3    0    0  0.24021990706E+02  0.25845311090E+01 -0.24737343318E+02  0.34578490322E+02  0.00000000000E+00 0.  1.
</event>
<event>
 7    1  0.5194496E-006  0.4136738E+02  0.7818608E-02  0.1502403E+00
          2   -1    0    0  502    0  0.00000000000E+00  0.00000000000E+00  0.73472367833E+03  0.73472367833E+03  0.00000000000E+00 0. -1.
          1   -1    0    0  501    0 -0.00000000000E+00 -0.00000000000E+00 -0.56996238817E+02  0.56996238817E+02  0.00000000000E+00 0. -1.
         25    2    1    2    0    0  0.21430116762E+01  0.23173952489E+02  0.26874264146E+03  0.29730251592E+03  0.12499821624E+03 0.  0.
          2    1    1    2  501    0  0.39232020993E+02 -0.89553459588E+01 -0.31909824070E+02  0.51357439234E+02  0.00000000000E+00 0. -1.
          1    1    1    2  502    0 -0.41375032669E+02 -0.14218606530E+02  0.44089462213E+03  0.44305996199E+03  0.00000000000E+00 0. -1.
         22    1    3    3    0    0  0.35209260011E+02 -0.17850756700E+02  0.22401430372E+02  0.45389047004E+02  0.00000000000E+00 0. -1.
         22    1    3    3    0    0 -0.33066248334E+02  0.41024709189E+02  0.24634121108E+03  0.25191346892E+03  0.00000000000E+00 0. -1.
</event>
<event>
 7    1  0.5194496E-006  0.6974620E+02  0.7818608E-02  0.1388783E+00
          2   -1    0    0  502    0  0.00000000000E+00  0.00000000000E+00  0.12653121957E+04  0.12653121957E+04  0.00000000000E+00 0. -1.
          1   -1    0    0  501    0 -0.00000000000E+00 -0.00000000000E+00 -0.54284705964E+03  0.54284705964E+03  0.00000000000E+00 0. -1.
         25    2    1    2    0    0  0.18099886404E+02 -0.10957578846E+03 -0.38955236154E+03  0.42392298279E+03  0.12500077460E+03 0.  0.
          2    1    1    2  501    0 -0.46280435496E+01  0.55747107090E+02 -0.12971600309E+03  0.14126358410E+03  0.00000000000E+00 0. -1.
          1    1    1    2  502    0 -0.13471842854E+02  0.53828681370E+02  0.12417335007E+04  0.12429726884E+04  0.00000000000E+00 0. -1.
         22    1    3    3    0    0 -0.16516888985E+02 -0.12641569559E+03 -0.27599345501E+03  0.30401664909E+03  0.00000000000E+00 0.  1.
         22    1    3    3    0    0  0.34616775389E+02  0.16839907127E+02 -0.11355890653E+03  0.11990633370E+03  0.00000000000E+00 0.  1.
</event>
<event>
 7    1  0.5194496E-006  0.1715061E+03  0.7818608E-02  0.1252327E+00
          2   -1    0    0  502    0  0.00000000000E+00  0.00000000000E+00  0.15791979775E+04  0.15791979775E+04  0.00000000000E+00 0. -1.
          1   -1    0    0  501    0 -0.00000000000E+00 -0.00000000000E+00 -0.46539671016E+02  0.46539671016E+02  0.00000000000E+00 0. -1.
         25    2    1    2    0    0 -0.29835294529E+02 -0.21795984341E+03  0.56434951771E+03  0.61847804848E+03  0.12501232006E+03 0.  0.
          2    1    1    2  501    0  0.37125717109E+02  0.14176776685E+03  0.29278346371E+03  0.32741193505E+03  0.00000000000E+00 0. -1.
          1    1    1    2  502    0 -0.72904225805E+01  0.76192076558E+02  0.67552532504E+03  0.67984766496E+03  0.00000000000E+00 0. -1.
         22    1    3    3    0    0  0.39325004200E+02 -0.45638036197E+02  0.83019851352E+02  0.10257476308E+03  0.00000000000E+00 0.  1.
         22    1    3    3    0    0 -0.69160298729E+02 -0.17232180722E+03  0.48132966636E+03  0.51590328539E+03  0.00000000000E+00 0.  1.
</event>
<event>
 7    1  0.5194496E-006  0.1812070E+03  0.7818608E-02  0.1343285E+00
          2   -1    0    0  502    0  0.00000000000E+00  0.00000000000E+00  0.25470359754E+04  0.25470359754E+04  0.00000000000E+00 0. -1.
          1   -1    0    0  501    0 -0.00000000000E+00 -0.00000000000E+00 -0.58890210850E+03  0.58890210850E+03  0.00000000000E+00 0. -1.
         25    2    1    2    0    0 -0.16640951875E+03  0.30405238444E+02  0.16107710295E+04  0.16244460463E+04  0.12500016578E+03 0.  0.
          2    1    1    2  501    0  0.17065111132E+03 -0.61314449581E+02 -0.56766959847E+03  0.59592787865E+03  0.00000000000E+00 0. -1.
          1    1    1    2  502    0 -0.42415925752E+01  0.30909211137E+02  0.91503243586E+03  0.91556415893E+03  0.00000000000E+00 0. -1.
         22    1    3    3    0    0 -0.67434686495E+02 -0.46626564291E+02  0.77365661814E+03  0.77798845508E+03  0.00000000000E+00 0.  1.
         22    1    3    3    0    0 -0.98974832254E+02  0.77031802735E+02  0.83711441134E+03  0.84645759121E+03  0.00000000000E+00 0.  1.
</event>
<event>
 7    1  0.5194496E-006  0.5686900E+02  0.7818608E-02  0.1510404E+00
          2   -1    0    0  502    0  0.00000000000E+00  0.00000000000E+00  0.31722502888E+03  0.31722502888E+03  0.00000000000E+00 0. -1.
          1   -1    0    0  501    0 -0.00000000000E+00 -0.00000000000E+00 -0.15136926191E+04  0.15136926191E+04  0.00000000000E+00 0. -1.
         25    2    1    2    0    0 -0.33291468560E+02  0.83623653585E+01  0.51041044128E+02  0.13931215961E+03  0.12499775437E+03 0.  0.
          2    1    1    2  501    0 -0.25655822999E+02 -0.10494881716E+02 -0.14655063740E+04  0.14657685001E+04  0.00000000000E+00 0. -1.
          1    1    1    2  502    0  0.58947291559E+02  0.21325163575E+01  0.21799773959E+03  0.22583698828E+03  0.00000000000E+00 0. -1.
         22    1    3    3    0    0 -0.22125656942E+02 -0.34543180719E+02  0.77496601765E+02  0.87684088149E+02  0.00000000000E+00 0.  1.
         22    1    3    3    0    0 -0.11165811618E+02  0.42905546078E+02 -0.26455557637E+02  0.51628071465E+02  0.00000000000E+00 0.  1.
</event>
<event>
 7    1  0.5194496E-006  0.8054563E+02  0.7818608E-02  0.1444639E+00
          2   -1    0    0  502    0  0.00000000000E+00  0.00000000000E+00  0.27866016674E+04  0.27866016674E+04  0.00000000000E+00 0. -1.
          1   -1    0    0  501    0 -0.00000000000E+00 -0.00000000000E+00 -0.76350324325E+03  0.76350324325E+03  0.00000000000E+00 0. -1.
         25    2    1    2    0    0 -0.10391097884E+03  0.23256837457E+02  0.44638391705E+03  0.47562308619E+03  0.12498138544E+03 0.  0.
          2    1    1    2  501    0  0.30436159228E+02  0.68636460317E+01 -0.74788042805E+03  0.74853096401E+03  0.00000000000E+00 0. -1.
          1    1    1    2  502    0  0.73474819611E+02 -0.30120483489E+02  0.23245949352E+04  0.23259508604E+04  0.00000000000E+00 0. -1.
         22    1    3    3    0    0  0.41531686451E+01  0.45120439792E+02  0.20941589781E+03  0.21426180516E+03  0.00000000000E+00 0. -1.
         22    1    3    3    0    0 -0.10806414748E+03 -0.21863602335E+02  0.23696801924E+03  0.26136128102E+03  0.00000000000E+00 0. -1.
</event>
<event>
 7    1  0.5194496E-006  0.5864285E+02  0.7818608E-02  0.1457706E+00
          2   -1    0    0  502    0  0.00000000000E+00  0.00000000000E+00  0.41170674258E+03  0.41170674258E+03  0.00000000000E+00 0. -1.
          1   -1    0    0  501    0 -0.00000000000E+00 -0.00000000000E+00 -0.47344804930E+03  0.47344804930E+03  0.00000000000E+00 0. -1.
         25    2    1    2    0    0  0.40407428757E+02  0.19401998065E+02  0.10799927887E+02  0.13323384587E+03  0.12500168565E+03 0.  0.
          2    1    1    2  501    0  0.17233464998E+02 -0.34904311103E+02 -0.40867697460E+03  0.41052670171E+03  0.00000000000E+00 0. -1.
          1    1    1    2  502    0 -0.57640893755E+02  0.15502313039E+02  0.33613573999E+03  0.34139424430E+03  0.00000000000E+00 0. -1.
         22    1    3    3    0    0 -0.10544106784E+02  0.67607463949E+01 -0.50787218890E+02  0.52308961778E+02  0.00000000000E+00 0.  1.
         22    1    3    3    0    0  0.50951535541E+02  0.12641251670E+02  0.61587146777E+02  0.80924884096E+02  0.00000000000E+00 0.  1.
</event>
<event>
 7    1  0.5194496E-006  0.4356295E+03  0.7818608E-02  0.1254791E+00
          2   -1    0    0  502    0  0.00000000000E+00  0.00000000000E+00  0.14758681911E+04  0.14758681911E+04  0.00000000000E+00 0. -1.
          1   -1    0    0  501    0 -0.00000000000E+00 -0.00000000000E+00 -0.26668258177E+03  0.26668258177E+03  0.00000000000E+00 0. -1.
         25    2    1    2    0    0 -0.12910844753E+03 -0.39394182328E+03  0.27450851682E+03  0.51267857279E+03  0.12500096734E+03 0.  0.
          2    1    1    2  501    0 -0.12960668938E+02 -0.26394944396E+02 -0.99914551890E+02  0.10415176287E+03  0.00000000000E+00 0. -1.
          1    1    1    2  502    0  0.14206911647E+03  0.42033676767E+03  0.10345916444E+04  0.11257204372E+04  0.00000000000E+00 0. -1.
         22    1    3    3    0    0 -0.73274239602E+02 -0.61471553010E+02  0.53900797350E+02  0.10978689345E+03  0.00000000000E+00 0.  1.
         22    1    3    3    0    0 -0.55834207932E+02 -0.33247027027E+03  0.22060771947E+03  0.40289167933E+03  0.00000000000E+00 0.  1.
</event>
<event>
 7    1  0.5194496E-006  0.1016771E+03  0.7818608E-02  0.1465701E+00
          2   -1    0    0  502    0  0.00000000000E+00  0.00000000000E+00  0.43664974464E+03  0.43664974464E+03  0.00000000000E+00 0. -1.
          1   -1    0    0  501    0 -0.00000000000E+00 -0.00000000000E+00 -0.84359861303E+03  0.84359861303E+03  0.00000000000E+00 0. -1.
         25    2    1    2    0    0 -0.13332112064E+02 -0.90178371514E+02 -0.48750562834E+03  0.51146762710E+03  0.12501004763E+03 0.  0.
          2    1    1    2  501    0  0.45774080831E+01  0.10947253579E+03 -0.33511346305E+03  0.35257087497E+03  0.00000000000E+00 0. -1.
          1    1    1    2  502    0  0.87547039805E+01 -0.19294164274E+02  0.41567022300E+03  0.41620985561E+03  0.00000000000E+00 0. -1.
         22    1    3    3    0    0 -0.27801556991E+02 -0.73346880532E+00 -0.31844532236E+03  0.31965745398E+03  0.00000000000E+00 0.  1.
         22    1    3    3    0    0  0.14469444927E+02 -0.89444902709E+02 -0.16906030597E+03  0.19181017312E+03  0.00000000000E+00 0.  1.
</event>
<event>
 7    1  0.5194496E-006  0.5050060E+02  0.7818608E-02  0.1509004E+00
          2   -1    0    0  502    0  0.00000000000E+00  0.00000000000E+00  0.10158035919E+04  0.10158035919E+04  0.00000000000E+00 0. -1.
          1   -1    0    0  501    0 -0.00000000000E+00 -0.00000000000E+00 -0.50911618209E+02  0.50911618209E+02  0.00000000000E+00 0. -1.
         25    2    1    2    0    0 -0.64618610483E+02  0.10956617023E+02  0.38024829217E+03  0.40559726488E+03  0.12499906119E+03 0.  0.
          2    1    1    2  501    0  0.17221826475E+02 -0.26390607236E+02 -0.30560548692E+02  0.43897637678E+02  0.00000000000E+00 0. -1.
          1    1    1    2  502    0  0.47396784008E+02  0.15433990212E+02  0.61520423018E+03  0.61722030752E+03  0.00000000000E+00 0. -1.
         22    1    3    3    0    0 -0.93273194790E+02  0.95626989887E+01  0.35566604640E+03  0.36781744200E+03  0.00000000000E+00 0. -1.
         22    1    3    3    0    0  0.28654584307E+02  0.13939180347E+01  0.24582245775E+02  0.37779822877E+02  0.00000000000E+00 0. -1.
</event>
<event>
 7    1  0.5194496E-006  0.8508751E+02  0.7818608E-02  0.1394710E+00
          2   -1    0    0  502    0  0.00000000000E+00  0.00000000000E+00  0.23056231026E+04  0.23056231026E+04  0.00000000000E+00 0. -1.
          1   -1    0    0  501    0 -0.00000000000E+00 -0.00000000000E+00 -0.25880623353E+03  0.25880623353E+03  0.00000000000E+00 0. -1.
         25    2    1    2    0    0 -0.38941986192E+02 -0.29531519041E+02  0.22523786337E+03  0.26219467538E+03  0.12500145517E+03 0.  0.
          2    1    1    2  501    0 -0.43354758476E+02  0.12925014311E+01 -0.23744455834E+03  0.24137361895E+03  0.00000000000E+00 0. -1.
          1    1    1    2  502    0  0.82296744668E+02  0.28239017610E+02  0.20590235640E+04  0.20608610418E+04  0.00000000000E+00 0. -1.
         22    1    3    3    0    0 -0.81089887188E+02  0.54560692563E+00  0.11890073683E+03  0.14392099468E+03  0.00000000000E+00 0.  1.
         22    1    3    3    0    0  0.42147900996E+02 -0.30077125967E+02  0.10633712654E+03  0.11827368070E+03  0.00000000000E+00 0.  1.
</event>
<event>
 7    1  0.5194496E-006  0.7695720E+02  0.7818608E-02  0.1429501E+00
          2   -1    0    0  502    0  0.00000000000E+00  0.00000000000E+00  0.93796104574E+02  0.93796104574E+02  0.00000000000E+00 0. -1.
          1   -1    0    0  501    0 -0.00000000000E+00 -0.00000000000E+00 -0.48001092290E+03  0.48001092290E+03  0.00000000000E+00 0. -1.
         25    2    1    2    0    0 -0.42185150758E+02  0.36153795216E+02 -0.18889420144E+03  0.23320894225E+03  0.12497482768E+03 0.  0.
          2    1    1    2  501    0 -0.34143054525E+02 -0.13138993645E+02 -0.24499290691E+03  0.24770931707E+03  0.00000000000E+00 0. -1.
          1    1    1    2  502    0  0.76328205283E+02 -0.23014801572E+02  0.47672290026E+02  0.92888768156E+02  0.00000000000E+00 0. -1.
         22    1    3    3    0    0 -0.51285163585E+02 -0.35156787034E+02 -0.64875824253E+02  0.89861227741E+02  0.00000000000E+00 0. -1.
         22    1    3    3    0    0  0.91000128271E+01  0.71310582250E+02 -0.12401837719E+03  0.14334771451E+03  0.00000000000E+00 0. -1.
</event>
<event>
 7    1  0.5194496E-006  0.1382510E+03  0.7818608E-02  0.1303191E+00
          2   -1    0    0  502    0  0.00000000000E+00  0.00000000000E+00  0.49615316082E+03  0.49615316082E+03  0.00000000000E+00 0. -1.
          1   -1    0    0  501    0 -0.00000000000E+00 -0.00000000000E+00 -0.28541010824E+03  0.28541010824E+03  0.00000000000E+00 0. -1.
         25    2    1    2    0    0  0.13071829115E+03 -0.12277819793E+03 -0.14369701913E+01  0.21860852573E+03  0.12500346040E+03 0.  0.
          2    1    1    2  501    0 -0.13724041036E+02  0.56771883105E+02 -0.15837571281E+03  0.16880243606E+03  0.00000000000E+00 0. -1.
          1    1    1    2  502    0 -0.11699425011E+03  0.66006314823E+02  0.37055573558E+03  0.39415230727E+03  0.00000000000E+00 0. -1.
         22    1    3    3    0    0  0.26060260888E+02 -0.88497677530E+02 -0.41843244264E+02  0.10130070689E+03  0.00000000000E+00 0.  1.
         22    1    3    3    0    0  0.10465803026E+03 -0.34280520399E+02  0.40406274072E+02  0.11730781884E+03  0.00000000000E+00 0.  1.
</event>
<event>
 7    1  0.5194496E-006  0.1184643E+03  0.7818608E-02  0.1254331E+00
          2   -1    0    0  502    0  0.00000000000E+00  0.00000000000E+00  0.12852861439E+04  0.12852861439E+04  0.00000000000E+00 0. -1.
          1   -1    0    0  501    0 -0.00000000000E+00 -0.00000000000E+00 -0.43502867898E+03  0.43502867898E+03  0.00000000000E+00 0. -1.
         25    2    1    2    0    0  0.16437532018E+03  0.21784054202E+02  0.41449614666E+03  0.46360116086E+03  0.12500075942E+03 0.  0.
          2    1    1    2  501    0 -0.78595047860E+02 -0.88428883336E+02 -0.39835589552E+03  0.41555296709E+03  0.00000000000E+00 0. -1.
          1    1    1    2  502    0 -0.85780272325E+02  0.66644829133E+02  0.83411721378E+03  0.84116069493E+03  0.00000000000E+00 0. -1.
         22    1    3    3    0    0  0.87278151220E+01  0.32758176433E+02  0.17152103996E+03  0.17483918333E+03  0.00000000000E+00 0.  1.
         22    1    3    3    0    0  0.15564750506E+03 -0.10974122231E+02  0.24297510670E+03  0.28876197753E+03  0.00000000000E+00 0.  1.
</event>
<event>
 7    1  0.5194496E-006  0.9955306E+02  0.7818608E-02  0.1324089E+00
          2   -1    0    0  502    0  0.00000000000E+00  0.00000000000E+00  0.79621878862E+03  0.79621878862E+03  0.00000000000E+00 0. -1.
          1   -1    0    0  501    0 -0.00000000000E+00 -0.00000000000E+00 -0.22342988794E+03  0.22342988794E+03  0.00000000000E+00 0. -1.
         25    2    1    2    0    0  0.86376351447E+02 -0.13355404793E+03  0.19048932919E+03  0.27786575644E+03  0.12500254500E+03 0.  0.
          2    1    1    2  501    0 -0.35610386792E+02  0.89567766820E+02 -0.16461550368E+03  0.19075835120E+03  0.00000000000E+00 0. -1.
          1    1    1    2  502    0 -0.50765964655E+02  0.43986281111E+02  0.54691507518E+03  0.55102456892E+03  0.00000000000E+00 0. -1.
         22    1    3    3    0    0  0.11390048799E+03 -0.11801196093E+03  0.12876993191E+03  0.20852299502E+03  0.00000000000E+00 0. -1.
         22    1    3    3    0    0 -0.27524136542E+02 -0.15542087002E+02  0.61719397278E+02  0.69342761419E+02  0.00000000000E+00 0. -1.
</event>
<event>
 7    1  0.5194496E-006  0.8459393E+02  0.7818608E-02  0.1327511E+00
          2   -1    0    0  502    0  0.00000000000E+00  0.00000000000E+00  0.31373201123E+04  0.31373201123E+04  0.00000000000E+00 0. -1.
          1   -1    0    0  501    0 -0.00000000000E+00 -0.00000000000E+00 -0.37869999949E+03  0.37869999949E+03  0.00000000000E+00 0. -1.
         25    2    1    2    0    0  0.14382356124E+03  0.56052093886E+02  0.57462419237E+02  0.20676870211E+03  0.12499725016E+03 0.  0.
          2    1    1    2  501    0 -0.67823993484E+02 -0.45780389936E+02 -0.29804211739E+03  0.30907125705E+03  0.00000000000E+00 0. -1.
          1    1    1    2  502    0 -0.75999567757E+02 -0.10271703950E+02  0.29991998110E+04  0.30001801526E+04  0.00000000000E+00 0. -1.
         22    1    3    3    0    0  0.31006863168E+02  0.49762569442E+02 -0.28117534545E+02  0.65025645940E+02  0.00000000000E+00 0.  1.
         22    1    3    3    0    0  0.11281669807E+03  0.62895244439E+01  0.85579953782E+02  0.14174305617E+03  0.00000000000E+00 0.  1.
</event>
<event>
 7    1  0.5194496E-006  0.4234634E+02  0.7818608E-02  0.1599894E+00
          2   -1    0    0  502    0  0.00000000000E+00  0.00000000000E+00  0.16177696785E+04  0.16177696785E+04  0.00000000000E+00 0. -1.
          1   -1    0    0  501    0 -0.00000000000E+00 -0.00000000000E+00 -0.21483715408E+02  0.21483715408E+02  0.00000000000E+00 0. -1.
         25    2    1    2    0    0 -0.10508789583E+02 -0.20051800219E+02  0.67337714520E+03  0.68525520244E+03  0.12500161379E+03 0.  0.
          2    1    1    2  501    0  0.25039246411E+02  0.35245463837E+02  0.14875961936E+02  0.45721994985E+02  0.00000000000E+00 0. -1.
          1    1    1    2  502    0 -0.14530456828E+02 -0.15193663618E+02  0.90803285599E+03  0.90827619651E+03  0.00000000000E+00 0. -1.
         22    1    3    3    0    0  0.10452209763E+02 -0.57472214567E+02  0.57467920633E+03  0.57764045420E+03  0.00000000000E+00 0. -1.
         22    1    3    3    0    0 -0.20960999346E+02  0.37420414348E+02  0.98697938865E+02  0.10761474824E+03  0.00000000000E+00 0. -1.
</event>
<event>
 7    1  0.5194496E-006  0.1825612E+03  0.7818608E-02  0.1293090E+00
          2   -1    0    0  502    0  0.00000000000E+00  0.00000000000E+00  0.15908675666E+04  0.15908675666E+04  0.00000000000E+00 0. -1.
          1   -1    0    0  501    0 -0.00000000000E+00 -0.00000000000E+00 -0.23810028038E+03  0.23810028038E+03  0.00000000000E+00 0. -1.
         25    2    1    2    0    0  0.21112814454E+03  0.31883771493E+01  0.15396377746E+03  0.28967976860E+03  0.12499705757E+03 0.  0.
          2    1    1    2  501    0 -0.17382433295E+03 -0.34277386582E+02 -0.12357981457E+03  0.21601344525E+03  0.00000000000E+00 0. -1.
          1    1    1    2  502    0 -0.37303811586E+02  0.31089009433E+02  0.13223833233E+04  0.13232746331E+04  0.00000000000E+00 0. -1.
         22    1    3    3    0    0  0.18297065194E+03  0.48616914235E+02  0.10161254546E+03  0.21486501161E+03  0.00000000000E+00 0.  1.
         22    1    3    3    0    0  0.28157492599E+02 -0.45428537085E+02  0.52351231999E+02  0.74814756987E+02  0.00000000000E+00 0.  1.
</event>
<event>
 7    1  0.5194496E-006  0.3333308E+02  0.7818608E-02  0.1568365E+00
          2   -1    0    0  502    0  0.00000000000E+00  0.00000000000E+00  0.10083578497E+04  0.10083578497E+04  0.00000000000E+00 0. -1.
          1   -1    0    0  501    0 -0.00000000000E+00 -0.00000000000E+00 -0.32358210934E+03  0.32358210934E+03  0.00000000000E+00 0. -1.
         25    2    1    2    0    0 -0.16530562222E+02 -0.21924439078E+02  0.40494746357E+03  0.42469016541E+03  0.12500139128E+03 0.  0.
          2    1    1    2  501    0 -0.17380355054E+02  0.27361317349E+02 -0.31237458255E+03  0.31405190375E+03  0.00000000000E+00 0. -1.
          1    1    1    2  502    0  0.33910917276E+02 -0.54368782705E+01  0.59220285936E+03  0.59319788991E+03  0.00000000000E+00 0. -1.
         22    1    3    3    0    0 -0.46493840189E+02  0.23662462727E+02  0.82146510940E+02  0.97312067995E+02  0.00000000000E+00 0. -1.
         22    1    3    3    0    0  0.29963277968E+02 -0.45586901805E+02  0.32280095263E+03  0.32737809741E+03  0.00000000000E+00 0. -1.
</event>
<event>
 7    1  0.5194496E-006  0.9454761E+02  0.7818608E-02  0.1323488E+00
          2   -1    0    0  502    0  0.00000000000E+00  0.00000000000E+00  0.21490268111E+04  0.21490268111E+04  0.00000000000E+00 0. -1.
          1   -1    0    0  501    0 -0.00000000000E+00 -0.00000000000E+00 -0.10117192499E+03  0.10117192499E+03  0.00000000000E+00 0. -1.
         25    2    1    2    0    0 -0.76341628189E+01  0.64504538388E+02  0.17791444527E+03  0.22692972845E+03  0.12499774360E+03 0.  0.
          2    1    1    2  501    0  0.78734365024E+02 -0.65418227274E+02 -0.41535473658E+02  0.11047099288E+03  0.00000000000E+00 0. -1.
          1    1    1    2  502    0 -0.71100202205E+02  0.91368888574E+00  0.19114759145E+04  0.19127980148E+04  0.00000000000E+00 0. -1.
         22    1    3    3    0    0  0.47471457419E+02  0.39813240889E+01  0.25761482117E+02  0.54157586466E+02  0.00000000000E+00 0.  1.
         22    1    3    3    0    0 -0.55105620238E+02  0.60523214299E+02  0.15215296315E+03  0.17277214198E+03  0.00000000000E+00 0.  1.
</event>
<event>
 7    1  0.5194496E-006  0.6480742E+02  0.7818608E-02  0.1400356E+00
          2   -1    0    0  502    0  0.00000000000E+00  0.00000000000E+00  0.20055367229E+03  0.20055367229E+03  0.00000000000E+00 0. -1.
          1   -1    0    0  501    0 -0.00000000000E+00 -0.00000000000E+00 -0.19812735556E+04  0.19812735556E+04  0.00000000000E+00 0. -1.
         25    2    1    2    0    0 -0.36792269336E+02  0.97027971308E+02 -0.19820740896E+03  0.25628016599E+03  0.12500099285E+03 0.  0.
          2    1    1    2  501    0 -0.10187653104E+02 -0.53487050891E+02 -0.17476106128E+04  0.17484586089E+04  0.00000000000E+00 0. -1.
          1    1    1    2  502    0  0.46979922440E+02 -0.43540920417E+02  0.16509813848E+03  0.17708845302E+03  0.00000000000E+00 0. -1.
         22    1    3    3    0    0 -0.44078348538E+02  0.84280189397E+02 -0.50199130604E+02  0.10754535717E+03  0.00000000000E+00 0.  1.
         22    1    3    3    0    0  0.72860792018E+01  0.12747781911E+02 -0.14800827835E+03  0.14873480882E+03  0.00000000000E+00 0.  1.
</event>
<event>
 7    1  0.5194496E-006  0.1505845E+03  0.7818608E-02  0.1262407E+00
          2   -1    0    0  502    0  0.00000000000E+00  0.00000000000E+00  0.17633018522E+04  0.17633018522E+04  0.00000000000E+00 0. -1.
          1   -1    0    0  501    0 -0.00000000000E+00 -0.00000000000E+00 -0.18931078921E+03  0.18931078921E+03  0.00000000000E+00 0. -1.
         25    2    1    2    0    0 -0.43687028339E+02  0.70688972973E+02  0.43342084285E+03  0.45867669015E+03  0.12500076691E+03 0.  0.
          2    1    1    2  501    0  0.44385426289E+02 -0.14960545806E+03 -0.14077340586E+03  0.21016424754E+03  0.00000000000E+00 0. -1.
          1    1    1    2  502    0 -0.69839794992E+00  0.78916485086E+02  0.12813436260E+04  0.12837717037E+04  0.00000000000E+00 0. -1.
         22    1    3    3    0    0  0.23003420350E+02 -0.22582857244E+02  0.13964515223E+03  0.14331751928E+03  0.00000000000E+00 0.  1.
         22    1    3    3    0    0 -0.66690448689E+02  0.93271830217E+02  0.29377569062E+03  0.31535917088E+03  0.00000000000E+00 0.  1.
</event>
<event>
 7    1  0.5194496E-006  0.3833178E+02  0.7818608E-02  0.1543437E+00
          2   -1    0    0  502    0  0.00000000000E+00  0.00000000000E+00  0.34572224779E+03  0.34572224779E+03  0.00000000000E+00 0. -1.
          1   -1    0    0  501    0 -0.00000000000E+00 -0.00000000000E+00 -0.83860980122E+03  0.83860980122E+03  0.00000000000E+00 0. -1.
         25    2    1    2    0    0  0.20198721262E+02 -0.13256525539E+02  0.10650991010E+03  0.16598801169E+03  0.12499574100E+03 0.  0.
          2    1    1    2  501    0  0.12402967693E+01  0.38397988561E+02 -0.80710805018E+03  0.80802187380E+03  0.00000000000E+00 0. -1.
          1    1    1    2  502    0 -0.21439018032E+02 -0.25141463022E+02  0.20771058666E+03  0.21032216352E+03  0.00000000000E+00 0. -1.
         22    1    3    3    0    0 -0.21063217936E+02  0.27054071603E+02  0.10259304588E+03  0.10817076778E+03  0.00000000000E+00 0. -1.
         22    1    3    3    0    0  0.41261939198E+02 -0.40310597142E+02  0.39168642215E+01  0.57817243913E+02  0.00000000000E+00 0. -1.
</event>
<event>
 7    1  0.5194496E-006  0.7053995E+02  0.7818608E-02  0.1383996E+00
          2   -1    0    0  502    0  0.00000000000E+00  0.00000000000E+00  0.33655502627E+02  0.33655502627E+02  0.00000000000E+00 0. -1.
          1   -1    0    0  501    0 -0.00000000000E+00 -0.00000000000E+00 -0.14303790243E+04  0.14303790243E+04  0.00000000000E+00 0. -1.
         25    2    1    2    0    0 -0.94141125163E+02 -0.72588275723E+02 -0.38197100064E+03  0.41911594202E+03  0.12499887321E+03 0.  0.
          2    1    1    2  501    0  0.48315137493E+02  0.30295277182E+02 -0.96070689038E+03  0.96239798709E+03  0.00000000000E+00 0. -1.
          1    1    1    2  502    0  0.45825987670E+02  0.42292998541E+02 -0.54045630646E+02  0.82520597814E+02  0.00000000000E+00 0. -1.
         22    1    3    3    0    0 -0.11106122195E+03 -0.80194588622E+02 -0.24333993959E+03  0.27924915983E+03  0.00000000000E+00 0.  1.
         22    1    3    3    0    0  0.16920096791E+02  0.76063128985E+01 -0.13863106105E+03  0.13986678219E+03  0.00000000000E+00 0.  1.
</event>
<event>
 7    1  0.5194496E-006  0.4069572E+02  0.7818608E-02  0.1520225E+00
          2   -1    0    0  502    0  0.00000000000E+00  0.00000000000E+00  0.32803185913E+03  0.32803185913E+03  0.00000000000E+00 0. -1.
          1   -1    0    0  501    0 -0.00000000000E+00 -0.00000000000E+00 -0.15474141684E+03  0.15474141684E+03  0.00000000000E+00 0. -1.
         25    2    1    2    0    0 -0.23916019079E+02  0.42040514297E+02 -0.47741976137E+02  0.14228020858E+03  0.12499992263E+03 0.  0.
          2    1    1    2  501    0 -0.12267121876E+02 -0.39705222064E+02 -0.51151369757E+02  0.65904852373E+02  0.00000000000E+00 0. -1.
          1    1    1    2  502    0  0.36183140956E+02 -0.23352922326E+01  0.27218378818E+03  0.27458821502E+03  0.00000000000E+00 0. -1.
         22    1    3    3    0    0 -0.29680110241E+02 -0.41097095654E+02 -0.18017960413E+02  0.53800809590E+02  0.00000000000E+00 0. -1.
         22    1    3    3    0    0  0.57640911613E+01  0.83137609951E+02 -0.29724015724E+02  0.88479398992E+02  0.00000000000E+00 0. -1.
</event>
<event>
 7    1  0.5194496E-006  0.7562002E+02  0.7818608E-02  0.1345776E+00
          2   -1    0    0  502    0  0.00000000000E+00  0.00000000000E+00  0.22505638652E+04  0.22505638652E+04  0.00000000000E+00 0. -1.
          1   -1    0    0  501    0 -0.00000000000E+00 -0.00000000000E+00 -0.20990487289E+04  0.20990487289E+04  0.00000000000E+00 0. -1.
         25    2    1    2    0    0  0.48241025504E+02  0.13027249018E+03  0.10610212160E+03  0.21489710944E+03  0.12499995680E+03 0.  0.
          2    1    1    2  501    0 -0.49213462566E+02 -0.57102574030E+02 -0.20433154784E+04  0.20447055565E+04  0.00000000000E+00 0. -1.
          1    1    1    2  502    0  0.97243706245E+00 -0.73169916147E+02  0.20887284931E+04  0.20900099282E+04  0.00000000000E+00 0. -1.
         22    1    3    3    0    0 -0.12985111520E+02  0.80402757639E+02  0.10877392052E+03  0.13588591664E+03  0.00000000000E+00 0. -1.
         22    1    3    3    0    0  0.61226137024E+02  0.49869732538E+02 -0.26717989138E+01  0.79011192800E+02  0.00000000000E+00 0. -1.
</event>
<event>
 7    1  0.5194496E-006  0.1377100E+03  0.7818608E-02  0.1279098E+00
          2   -1    0    0  502    0  0.00000000000E+00  0.00000000000E+00  0.83229567183E+03  0.83229567183E+03  0.00000000000E+00 0. -1.
          1   -1    0    0  501    0 -0.00000000000E+00 -0.00000000000E+00 -0.18128964298E+03  0.18128964298E+03  0.00000000000E+00 0. -1.
         25    2    1    2    0    0 -0.99284367532E+02 -0.11181559852E+03 -0.10153698950E+03  0.21976917817E+03  0.12501447007E+03 0.  0.
          2    1    1    2  501    0  0.25844279730E+02  0.11064965640E+03  0.15724062294E+03  0.19399970814E+03  0.00000000000E+00 0. -1.
          1    1    1    2  502    0  0.73440087801E+02  0.11659421171E+01  0.59530239541E+03  0.59981642850E+03  0.00000000000E+00 0. -1.
         22    1    3    3    0    0 -0.11792572102E+03 -0.48662327063E+02 -0.53867157228E+02  0.13847804296E+03  0.00000000000E+00 0.  1.
         22    1    3    3    0    0  0.18641353488E+02 -0.63153271453E+02 -0.47669832277E+02  0.81291135214E+02  0.00000000000E+00 0.  1.
</event>
<event>
 7    1  0.5194496E-006  0.1364974E+03  0.7818608E-02  0.1225204E+00
          2   -1    0    0  502    0  0.00000000000E+00  0.00000000000E+00  0.37047890692E+03  0.37047890692E+03  0.00000000000E+00 0. -1.
          1   -1    0    0  501    0 -0.00000000000E+00 -0.00000000000E+00 -0.41378360147E+04  0.41378360147E+04  0.00000000000E+00 0. -1.
         25    2    1    2    0    0 -0.16892544392E+03 -0.12149793983E+03 -0.44160847929E+03  0.50392509309E+03  0.12499958194E+03 0.  0.
          2    1    1    2  501    0  0.33385841933E+02  0.12226637593E+03 -0.36503898535E+04  0.36525894601E+04  0.00000000000E+00 0. -1.
          1    1    1    2  502    0  0.13553960198E+03 -0.76843610679E+00  0.32464122507E+03  0.35180036841E+03  0.00000000000E+00 0. -1.
         22    1    3    3    0    0  0.13968130080E+01  0.19764245945E+02 -0.55127774616E+02  0.58580270044E+02  0.00000000000E+00 0. -1.
         22    1    3    3    0    0 -0.17032225692E+03 -0.14126218577E+03 -0.38648070467E+03  0.44534482305E+03  0.00000000000E+00 0. -1.
</event>
<event>
 7    1  0.5194496E-006  0.1119038E+03  0.7818608E-02  0.1352417E+00
          2   -1    0    0  502    0  0.00000000000E+00  0.00000000000E+00  0.13388663293E+04  0.13388663293E+04  0.00000000000E+00 0. -1.
          1   -1    0    0  501    0 -0.00000000000E+00 -0.00000000000E+00 -0.74439684596E+02  0.74439684596E+02  0.00000000000E+00 0. -1.
         25    2    1    2    0    0 -0.68442923157E+02 -0.83343089711E+02  0.20785595433E+03  0.26544268471E+03  0.12500086714E+03 0.  0.
          2    1    1    2  501    0  0.38865170746E+02 -0.25931887449E+02 -0.29926174196E+02  0.55484594130E+02  0.00000000000E+00 0. -1.
          1    1    1    2  502    0  0.29577752411E+02  0.10927497716E+03  0.10864968646E+04  0.10923787351E+04  0.00000000000E+00 0. -1.
         22    1    3    3    0    0 -0.42539973516E+02 -0.16720033239E+02  0.18474910635E+03  0.19031931367E+03  0.00000000000E+00 0.  1.
         22    1    3    3    0    0 -0.25902949641E+02 -0.66623056471E+02  0.23106847979E+02  0.75123371045E+02  0.00000000000E+00 0.  1.
</event>
<event>
 7    1  0.5194496E-006  0.8443035E+02  0.7818608E-02  0.1476847E+00
          2   -1    0    0  502    0  0.00000000000E+00  0.00000000000E+00  0.44814622382E+03  0.44814622382E+03  0.00000000000E+00 0. -1.
          1   -1    0    0  501    0 -0.00000000000E+00 -0.00000000000E+00 -0.53685725666E+03  0.53685725666E+03  0.00000000000E+00 0. -1.
         25    2    1    2    0    0 -0.26774514740E+02  0.59708270839E+02  0.89209837826E+02  0.16692727599E+03  0.12499747221E+03 0.  0.
          2    1    1    2  501    0  0.20632378898E+02 -0.82454655901E+02 -0.49393003170E+03  0.50118992563E+03  0.00000000000E+00 0. -1.
          1    1    1    2  502    0  0.61421358416E+01  0.22746385061E+02  0.31600916103E+03  0.31688627885E+03  0.00000000000E+00 0. -1.
         22    1    3    3    0    0  0.43242089973E+02  0.27038304534E+02  0.71220051108E+02  0.87597054386E+02  0.00000000000E+00 0. -1.
         22    1    3    3    0    0 -0.70016604713E+02  0.32669966305E+02  0.17989786719E+02  0.79330221606E+02  0.00000000000E+00 0. -1.
</event>
<event>
 7    1  0.5194496E-006  0.1242808E+03  0.7818608E-02  0.1406598E+00
          2   -1    0    0  502    0  0.00000000000E+00  0.00000000000E+00  0.77722900658E+03  0.77722900658E+03  0.00000000000E+00 0. -1.
          1   -1    0    0  501    0 -0.00000000000E+00 -0.00000000000E+00 -0.71158811694E+02  0.71158811694E+02  0.00000000000E+00 0. -1.
         25    2    1    2    0    0  0.59359539777E+01  0.13164223336E+03  0.16606806696E+03  0.24610666787E+03  0.12499990381E+03 0.  0.
          2    1    1    2  501    0 -0.25207832180E+02 -0.97574168022E+01 -0.16895142960E+02  0.31876132788E+02  0.00000000000E+00 0. -1.
          1    1    1    2  502    0  0.19271878202E+02 -0.12188481656E+03  0.55689727089E+03  0.57040501761E+03  0.00000000000E+00 0. -1.
         22    1    3    3    0    0  0.59469141712E+02  0.93251618202E+02  0.13111197170E+03  0.17153073263E+03  0.00000000000E+00 0. -1.
         22    1    3    3    0    0 -0.53533187734E+02  0.38390615160E+02  0.34956095253E+02  0.74575935238E+02  0.00000000000E+00 0. -1.
</event>
<event>
 7    1  0.5194496E-006  0.8690994E+02  0.7818608E-02  0.1335096E+00
          2   -1    0    0  502    0  0.00000000000E+00  0.00000000000E+00  0.22347854346E+03  0.22347854346E+03  0.00000000000E+00 0. -1.
          1   -1    0    0  501    0 -0.00000000000E+00 -0.00000000000E+00 -0.10271235845E+04  0.10271235845E+04  0.00000000000E+00 0. -1.
         25    2    1    2    0    0 -0.10115180936E+03  0.32177229353E+01  0.10219426647E+03  0.19055067134E+03  0.12499539180E+03 0.  0.
          2    1    1    2  501    0  0.62052004355E+02 -0.61084695936E+02 -0.96475819393E+03  0.96867959826E+03  0.00000000000E+00 0. -1.
          1    1    1    2  502    0  0.39099805008E+02  0.57866973001E+02  0.58918886452E+02  0.91371858341E+02  0.00000000000E+00 0. -1.
         22    1    3    3    0    0 -0.56277063668E+02 -0.23716897751E+02  0.12050994076E+03  0.13510086956E+03  0.00000000000E+00 0.  1.
         22    1    3    3    0    0 -0.44874745695E+02  0.26934620687E+02 -0.18315674290E+02  0.55449801780E+02  0.00000000000E+00 0.  1.
</event>
<event>
 7    1  0.5194496E-006  0.1485671E+03  0.7818608E-02  0.1316832E+00
          2   -1    0    0  502    0  0.00000000000E+00  0.00000000000E+00  0.16408171969E+04  0.16408171969E+04  0.00000000000E+00 0. -1.
          1   -1    0    0  501    0 -0.00000000000E+00 -0.00000000000E+00 -0.48613499830E+03  0.48613499830E+03  0.00000000000E+00 0. -1.
         25    2    1    2    0    0 -0.11935098402E+03  0.32250822540E+02 -0.30171950415E+02  0.17837955178E+03  0.12499657979E+03 0.  0.
          2    1    1    2  501    0  0.13341506068E+03 -0.78168476428E+02 -0.36581867140E+03  0.39715637911E+03  0.00000000000E+00 0. -1.
          1    1    1    2  502    0 -0.14064076664E+02  0.45917653887E+02  0.15506728204E+04  0.15514162643E+04  0.00000000000E+00 0. -1.
         22    1    3    3    0    0 -0.70624291674E+02  0.70414664659E+02 -0.52347839988E+02  0.11263352931E+03  0.00000000000E+00 0. -1.
         22    1    3    3    0    0 -0.48726692345E+02 -0.38163842119E+02  0.22175889573E+02  0.65746022468E+02  0.00000000000E+00 0. -1.
</event>
<event>
 7    1  0.5194496E-006  0.9831415E+02  0.7818608E-02  0.1289664E+00
          2   -1    0    0  502    0  0.00000000000E+00  0.00000000000E+00  0.63861796917E+03  0.63861796917E+03  0.00000000000E+00 0. -1.
          1   -1    0    0  501    0 -0.00000000000E+00 -0.00000000000E+00 -0.12008320738E+03  0.12008320738E+03  0.00000000000E+00 0. -1.
         25    2    1    2    0    0 -0.13031401307E+03 -0.90508401231E+01  0.26853606566E+03  0.32373514527E+03  0.12501666293E+03 0.  0.
          2    1    1    2  501    0  0.64296519049E+02  0.74704465046E+02 -0.57206199981E+02  0.11396204972E+03  0.00000000000E+00 0. -1.
          1    1    1    2  502    0  0.66017494019E+02 -0.65653624923E+02  0.30720489611E+03  0.32100398156E+03  0.00000000000E+00 0. -1.
         22    1    3    3    0    0 -0.82115717415E+01 -0.22299783337E+01 -0.13709018067E+02  0.16135051602E+02  0.00000000000E+00 0.  1.
         22    1    3    3    0    0 -0.12210244133E+03 -0.68208617893E+01  0.28224508373E+03  0.30760009366E+03  0.00000000000E+00 0.  1.
</event>
<event>
 7    1  0.5194496E-006  0.9083533E+02  0.7818608E-02  0.1413199E+00
          2   -1    0    0  502    0  0.00000000000E+00  0.00000000000E+00  0.62617121409E+03  0.62617121409E+03  0.00000000000E+00 0. -1.
          1   -1    0    0  501    0 -0.00000000000E+00 -0.00000000000E+00 -0.37394851954E+03  0.37394851954E+03  0.00000000000E+00 0. -1.
         25    2    1    2    0    0 -0.12199785231E+02 -0.56459745203E+02  0.99913041469E+01  0.13806231119E+03  0.12499935209E+03 0.  0.
          2    1    1    2  501    0 -0.55338025642E+01 -0.34687194635E+02 -0.30499387457E+03  0.30700991510E+03  0.00000000000E+00 0. -1.
          1    1    1    2  502    0  0.17733587796E+02  0.91146939838E+02  0.54722526498E+03  0.55504750734E+03  0.00000000000E+00 0. -1.
         22    1    3    3    0    0  0.52140725326E+02 -0.20111746451E+02 -0.18492305157E+02  0.58865124928E+02  0.00000000000E+00 0.  1.
         22    1    3    3    0    0 -0.64340510557E+02 -0.36347998752E+02  0.28483609304E+02  0.79197186257E+02  0.00000000000E+00 0.  1.
</event>
<event>
 7    1  0.5194496E-006  0.9337001E+02  0.7818608E-02  0.1336522E+00
          2   -1    0    0  502    0  0.00000000000E+00  0.00000000000E+00  0.13051399065E+04  0.13051399065E+04  0.00000000000E+00 0. -1.
          1   -1    0    0  501    0 -0.00000000000E+00 -0.00000000000E+00 -0.49954565338E+03  0.49954565338E+03  0.00000000000E+00 0. -1.
         25    2    1    2    0    0 -0.80088498062E+02  0.59836519385E+02  0.12989946608E+03  0.20613144991E+03  0.12498690644E+03 0.  0.
          2    1    1    2  501    0  0.56136859524E+02  0.31155791613E+02 -0.45723662398E+03  0.46172216825E+03  0.00000000000E+00 0. -1.
          1    1    1    2  502    0  0.23951638538E+02 -0.90992310998E+02  0.11329314110E+04  0.11368319417E+04  0.00000000000E+00 0. -1.
         22    1    3    3    0    0  0.69644572360E+01 -0.16075272448E+02 -0.13415922234E+02  0.22065924369E+02  0.00000000000E+00 0. -1.
         22    1    3    3    0    0 -0.87052955298E+02  0.75911791833E+02  0.14331538831E+03  0.18406552554E+03  0.00000000000E+00 0. -1.
</event>
<event>
 7    1  0.5194496E-006  0.7532961E+02  0.7818608E-02  0.1437757E+00
          2   -1    0    0  502    0  0.00000000000E+00  0.00000000000E+00  0.35339994561E+02  0.35339994561E+02  0.00000000000E+00 0. -1.
          1   -1    0    0  501    0 -0.00000000000E+00 -0.00000000000E+00 -0.15410338026E+04  0.15410338026E+04  0.00000000000E+00 0. -1.
         25    2    1    2    0    0  0.50573267598E+01 -0.61931800035E+02 -0.11731471099E+04  0.11814229584E+04  0.12499976326E+03 0.  0.
          2    1    1    2  501    0 -0.18913982188E+00  0.96711096589E+02 -0.34452839272E+03  0.35784477831E+03  0.00000000000E+00 0. -1.
          1    1    1    2  502    0 -0.48681869379E+01 -0.34779296555E+02  0.11981694603E+02  0.37106060400E+02  0.00000000000E+00 0. -1.
         22    1    3    3    0    0 -0.18322373196E+02 -0.58160397208E+02 -0.11342210325E+04  0.11358590105E+04  0.00000000000E+00 0.  1.
         22    1    3    3    0    0  0.23379699956E+02 -0.37714028264E+01 -0.38926077435E+02  0.45563947961E+02  0.00000000000E+00 0.  1.
</event>
<event>
 7    1  0.5194496E-006  0.1208275E+03  0.7818608E-02  0.1380894E+00
          2   -1    0    0  502    0  0.00000000000E+00  0.00000000000E+00  0.12119927045E+03  0.12119927045E+03  0.00000000000E+00 0. -1.
          1   -1    0    0  501    0 -0.00000000000E+00 -0.00000000000E+00 -0.52131019469E+03  0.52131019469E+03  0.00000000000E+00 0. -1.
         25    2    1    2    0    0 -0.87369621940E+02  0.26066012251E+02 -0.83394728617E+01  0.15494487124E+03  0.12500191392E+03 0.  0.
          2    1    1    2  501    0  0.11647429714E+03 -0.43917191069E+02 -0.42321927888E+03  0.44114571242E+03  0.00000000000E+00 0. -1.
          1    1    1    2  502    0 -0.29104675203E+02  0.17851178817E+02  0.31447827499E+02  0.46418881485E+02  0.00000000000E+00 0. -1.
         22    1    3    3    0    0 -0.11102842501E+03  0.84801670653E+01 -0.33400301982E+02  0.11625319164E+03  0.00000000000E+00 0. -1.
         22    1    3    3    0    0  0.23658803074E+02  0.17585845186E+02  0.25060829120E+02  0.38691679596E+02  0.00000000000E+00 0. -1.
</event>
<event>
 7    1  0.5194496E-006  0.9844336E+02  0.7818608E-02  0.1297869E+00
          2   -1    0    0  502    0  0.00000000000E+00  0.00000000000E+00  0.33814206338E+02  0.33814206338E+02  0.00000000000E+00 0. -1.
          1   -1    0    0  501    0 -0.00000000000E+00 -0.00000000000E+00 -0.14558437860E+04  0.14558437860E+04  0.00000000000E+00 0. -1.
         25    2    1    2    0    0 -0.18483525620E+02 -0.58862036880E+02 -0.64623234770E+03  0.66109535082E+03  0.12499774222E+03 0.  0.
          2    1    1    2  501    0 -0.83938898082E+02  0.19374501536E+02 -0.67196407650E+03  0.67746352671E+03  0.00000000000E+00 0. -1.
          1    1    1    2  502    0  0.10242242370E+03  0.39487535344E+02 -0.10383315550E+03  0.15109911484E+03  0.00000000000E+00 0. -1.
         22    1    3    3    0    0 -0.52184213650E+01 -0.13829940993E+02 -0.17266835368E+01  0.14882225151E+02  0.00000000000E+00 0. -1.
         22    1    3    3    0    0 -0.13265104255E+02 -0.45032095887E+02 -0.64450566416E+03  0.64621312567E+03  0.00000000000E+00 0. -1.
</event>
<event>
 7    1  0.5194496E-006  0.1013584E+03  0.7818608E-02  0.1342785E+00
          2   -1    0    0  502    0  0.00000000000E+00  0.00000000000E+00  0.11470411394E+04  0.11470411394E+04  0.00000000000E+00 0. -1.
          1   -1    0    0  501    0 -0.00000000000E+00 -0.00000000000E+00 -0.31416434192E+02  0.31416434192E+02  0.00000000000E+00 0. -1.
         25    2    1    2    0    0 -0.96165114069E+02 -0.79855208528E+00  0.34387314038E+03  0.37831716232E+03  0.12500708693E+03 0.  0.
          2    1    1    2  501    0  0.94742742048E+02  0.56798626246E+02  0.22631499225E+03  0.25183476096E+03  0.00000000000E+00 0. -1.
          1    1    1    2  502    0  0.14223720212E+01 -0.56000074161E+02  0.54543657261E+03  0.54830565034E+03  0.00000000000E+00 0. -1.
         22    1    3    3    0    0 -0.90855370671E+02 -0.12603328909E+02  0.10635036651E+03  0.14044195504E+03  0.00000000000E+00 0.  1.
         22    1    3    3    0    0 -0.53097433980E+01  0.11804776824E+02  0.23752277387E+03  0.23787520728E+03  0.00000000000E+00 0.  1.
</event>
<event>
 7    1  0.5194496E-006  0.5482265E+02  0.7818608E-02  0.1462907E+00
          2   -1    0    0  502    0  0.00000000000E+00  0.00000000000E+00  0.12086330646E+04  0.12086330646E+04  0.00000000000E+00 0. -1.
          1   -1    0    0  501    0 -0.00000000000E+00 -0.00000000000E+00 -0.38093601674E+02  0.38093601674E+02  0.00000000000E+00 0. -1.
         25    2    1    2    0    0  0.27943040664E+02  0.68062222046E+02  0.40389510111E+03  0.42915726409E+03  0.12502569748E+03 0.  0.
          2    1    1    2  501    0 -0.44209884486E+02 -0.31414013109E+02  0.45541548526E+01  0.54425126847E+02  0.00000000000E+00 0. -1.
          1    1    1    2  502    0  0.16266843822E+02 -0.36648208937E+02  0.76209020697E+03  0.76314427534E+03  0.00000000000E+00 0. -1.
         22    1    3    3    0    0 -0.13178432116E+02  0.11038585825E+01  0.29270872810E+03  0.29300731916E+03  0.00000000000E+00 0. -1.
         22    1    3    3    0    0  0.41121472780E+02  0.66958363463E+02  0.11118637301E+03  0.13614994493E+03  0.00000000000E+00 0. -1.
</event>
<event>
 7    1  0.5194496E-006  0.1062025E+03  0.7818608E-02  0.1276480E+00
          2   -1    0    0  502    0  0.00000000000E+00  0.00000000000E+00  0.20869906749E+03  0.20869906749E+03  0.00000000000E+00 0. -1.
          1   -1    0    0  501    0 -0.00000000000E+00 -0.00000000000E+00 -0.21142586367E+04  0.21142586367E+04  0.00000000000E+00 0. -1.
         25    2    1    2    0    0 -0.19373223333E+03 -0.59061755495E+02 -0.22763429637E+02  0.23908546312E+03  0.12499286281E+03 0.  0.
          2    1    1    2  501    0  0.10112052849E+03  0.28097546578E+02 -0.19578808554E+04  0.19606917854E+04  0.00000000000E+00 0. -1.
          1    1    1    2  502    0  0.92611704840E+02  0.30964208917E+02  0.75084715835E+02  0.12318045567E+03  0.00000000000E+00 0. -1.
         22    1    3    3    0    0 -0.96474740176E+01  0.12319583275E+02  0.30767152661E+02  0.34517583488E+02  0.00000000000E+00 0.  1.
         22    1    3    3    0    0 -0.18408475931E+03 -0.71381338770E+02 -0.53530582298E+02  0.20456787963E+03  0.00000000000E+00 0.  1.
</event>
<event>
 7    1  0.5194496E-006  0.7668189E+02  0.7818608E-02  0.1349792E+00
          2   -1    0    0  502    0  0.00000000000E+00  0.00000000000E+00  0.16639416780E+03  0.16639416780E+03  0.00000000000E+00 0. -1.
          1   -1    0    0  501    0 -0.00000000000E+00 -0.00000000000E+00 -0.11581014583E+04  0.11581014583E+04  0.00000000000E+00 0. -1.
         25    2    1    2    0    0  0.75182774004E+02  0.67258517293E+02 -0.26902453148E+03  0.31333875813E+03  0.12502328244E+03 0.  0.
          2    1    1    2  501    0 -0.76751816313E+02  0.24483883354E+01 -0.85667460864E+03  0.86010942386E+03  0.00000000000E+00 0. -1.
          1    1    1    2  502    0  0.15690423088E+01 -0.69706905628E+02  0.13399184966E+03  0.15104744408E+03  0.00000000000E+00 0. -1.
         22    1    3    3    0    0  0.68301923543E+02 -0.28683475587E+01 -0.54163568767E+02  0.87218532200E+02  0.00000000000E+00 0. -1.
         22    1    3    3    0    0  0.68808504606E+01  0.70126864852E+02 -0.21486096271E+03  0.22612022593E+03  0.00000000000E+00 0. -1.
</event>
<event>
 7    1  0.6380207E-006  0.8459050E+02  0.7818608E-02  0.1350049E+00
          2   -1    0    0  502    0  0.00000000000E+00  0.00000000000E+00  0.67391354043E+03  0.67391354043E+03  0.00000000000E+00 0. -1.
          1   -1    0    0  501    0 -0.00000000000E+00 -0.00000000000E+00 -0.16272434441E+04  0.16272434441E+04  0.00000000000E+00 0. -1.
         25    2    1    2    0    0 -0.40579365977E+02  0.11746996767E+02 -0.26964624112E+03  0.30019733090E+03  0.12499866101E+03 0.  0.
          2    1    1    2  501    0  0.50594643642E+02 -0.74013794635E+02 -0.13393097893E+04  0.13423071822E+04  0.00000000000E+00 0. -1.
          1    1    1    2  502    0 -0.10015277665E+02  0.62266797869E+02  0.65562612678E+03  0.65865247135E+03  0.00000000000E+00 0. -1.
         22    1    3    3    0    0 -0.39582810851E+02  0.64982730375E+02 -0.18696369686E+03  0.20185385334E+03  0.00000000000E+00 0.  1.
         22    1    3    3    0    0 -0.99655512592E+00 -0.53235733609E+02 -0.82682544256E+02  0.98343477565E+02  0.00000000000E+00 0.  1.
</event>
<event>
 7    1  0.5194496E-006  0.1094802E+03  0.7818608E-02  0.1379615E+00
          2   -1    0    0  502    0  0.00000000000E+00  0.00000000000E+00  0.38154675055E+04  0.38154675055E+04  0.00000000000E+00 0. -1.
          1   -1    0    0  501    0 -0.00000000000E+00 -0.00000000000E+00 -0.40456901086E+02  0.40456901086E+02  0.00000000000E+00 0. -1.
         25    2    1    2    0    0 -0.12208748987E+03  0.10233910597E+02  0.16059150929E+04  0.16154251495E+04  0.12500015921E+03 0.  0.
          2    1    1    2  501    0  0.10076942189E+03 -0.41783479513E+02  0.48201103650E+02  0.11926307871E+03  0.00000000000E+00 0. -1.
          1    1    1    2  502    0  0.21318067971E+02  0.31549568916E+02  0.21208944079E+04  0.21212361784E+04  0.00000000000E+00 0. -1.
         22    1    3    3    0    0 -0.12756193997E+03  0.50881767678E+01  0.85554535881E+03  0.86501780274E+03  0.00000000000E+00 0. -1.
         22    1    3    3    0    0  0.54744501024E+01  0.51457338290E+01  0.75036973408E+03  0.75040734672E+03  0.00000000000E+00 0. -1.
</event>
<event>
 7    1  0.5194496E-006  0.1318452E+03  0.7818608E-02  0.1273539E+00
          2   -1    0    0  502    0  0.00000000000E+00  0.00000000000E+00  0.11360065789E+04  0.11360065789E+04  0.00000000000E+00 0. -1.
          1   -1    0    0  501    0 -0.00000000000E+00 -0.00000000000E+00 -0.15279835551E+03  0.15279835551E+03  0.00000000000E+00 0. -1.
         25    2    1    2    0    0  0.13585497629E+03  0.43361427528E+02  0.50420286265E+03  0.53868573706E+03  0.12500003449E+03 0.  0.
          2    1    1    2  501    0 -0.82286825251E+02 -0.10399714305E+03 -0.99620686709E+02  0.16586382545E+03  0.00000000000E+00 0. -1.
          1    1    1    2  502    0 -0.53568151041E+02  0.60635715526E+02  0.57862604749E+03  0.58425537194E+03  0.00000000000E+00 0. -1.
         22    1    3    3    0    0  0.79148059105E+02 -0.38936732452E+02  0.27020514638E+03  0.28423811413E+03  0.00000000000E+00 0.  1.
         22    1    3    3    0    0  0.56706917187E+02  0.82298159979E+02  0.23399771628E+03  0.25444762293E+03  0.00000000000E+00 0.  1.
</event>
<event>
 7    1  0.5194496E-006  0.1512328E+03  0.7818608E-02  0.1312953E+00
          2   -1    0    0  502    0  0.00000000000E+00  0.00000000000E+00  0.17716930560E+04  0.17716930560E+04  0.00000000000E+00 0. -1.
          1   -1    0    0  501    0 -0.00000000000E+00 -0.00000000000E+00 -0.13341388437E+04  0.13341388437E+04  0.00000000000E+00 0. -1.
         25    2    1    2    0    0  0.18620209532E+03 -0.70050114323E+02 -0.82423555934E+02  0.24899018417E+03  0.12499692164E+03 0.  0.
          2    1    1    2  501    0 -0.46886596345E+02  0.13724724511E+02 -0.11645752419E+04  0.11655995089E+04  0.00000000000E+00 0. -1.
          1    1    1    2  502    0 -0.13931549898E+03  0.56325389812E+02  0.16845530101E+04  0.16912422067E+04  0.00000000000E+00 0. -1.
         22    1    3    3    0    0  0.27322000193E+02 -0.68896794305E+02 -0.11533539419E+02  0.75008549456E+02  0.00000000000E+00 0.  1.
         22    1    3    3    0    0  0.15888009513E+03 -0.11533200179E+01 -0.70890016515E+02  0.17398163471E+03  0.00000000000E+00 0.  1.
</event>
<event>
 7    1  0.5194496E-006  0.4921161E+02  0.7818608E-02  0.1508561E+00
          2   -1    0    0  502    0  0.00000000000E+00  0.00000000000E+00  0.32465785446E+04  0.32465785446E+04  0.00000000000E+00 0. -1.
          1   -1    0    0  501    0 -0.00000000000E+00 -0.00000000000E+00 -0.59555637213E+01  0.59555637213E+01  0.00000000000E+00 0. -1.
         25    2    1    2    0    0 -0.26102943913E+02  0.87165565383E+01  0.11804245013E+04  0.11873434955E+04  0.12500092426E+03 0.  0.
          2    1    1    2  501    0 -0.61104802445E+01  0.31854826060E+02  0.12016663756E+03  0.12446721936E+03  0.00000000000E+00 0. -1.
          1    1    1    2  502    0  0.32213424157E+02 -0.40571382598E+02  0.19400318420E+04  0.19407233934E+04  0.00000000000E+00 0. -1.
         22    1    3    3    0    0  0.38751084079E+02  0.37608135699E+02  0.38710078600E+03  0.39084912294E+03  0.00000000000E+00 0.  1.
         22    1    3    3    0    0 -0.64854027991E+02 -0.28891579161E+02  0.79332371532E+03  0.79649437259E+03  0.00000000000E+00 0.  1.
</event>
<event>
 7    1  0.5194496E-006  0.3692047E+02  0.7818608E-02  0.1583016E+00
          2   -1    0    0  502    0  0.00000000000E+00  0.00000000000E+00  0.26294533116E+03  0.26294533116E+03  0.00000000000E+00 0. -1.
          1   -1    0    0  501    0 -0.00000000000E+00 -0.00000000000E+00 -0.91247319521E+02  0.91247319521E+02  0.00000000000E+00 0. -1.
         25    2    1    2    0    0 -0.44695026986E+02  0.25131367758E+02 -0.21469620796E+02  0.13680196600E+03  0.12499840880E+03 0.  0.
          2    1    1    2  501    0  0.32401753203E+02 -0.14067459050E+01  0.12499973852E+02  0.34757760154E+02  0.00000000000E+00 0. -1.
          1    1    1    2  502    0  0.12293273783E+02 -0.23724621853E+02  0.18066765859E+03  0.18263292453E+03  0.00000000000E+00 0. -1.
         22    1    3    3    0    0 -0.15354966639E+02 -0.49483362216E+02  0.57553786964E+01  0.52129670253E+02  0.00000000000E+00 0.  1.
         22    1    3    3    0    0 -0.29340060347E+02  0.74614729974E+02 -0.27224999493E+02  0.84672295750E+02  0.00000000000E+00 0.  1.
</event>
<event>
 7    1  0.5194496E-006  0.5992071E+02  0.7818608E-02  0.1527552E+00
          2   -1    0    0  502    0  0.00000000000E+00  0.00000000000E+00  0.29119198884E+03  0.29119198884E+03  0.00000000000E+00 0. -1.
          1   -1    0    0  501    0 -0.00000000000E+00 -0.00000000000E+00 -0.13395233995E+03  0.13395233995E+03  0.00000000000E+00 0. -1.
         25    2    1    2    0    0  0.19838074350E+02 -0.78241556766E+02  0.36412869042E+02  0.15318840701E+03  0.12500200243E+03 0.  0.
          2    1    1    2  501    0 -0.11477863694E+02  0.20453600145E+02 -0.69249465878E+02  0.73113470977E+02  0.00000000000E+00 0. -1.
          1    1    1    2  502    0 -0.83602106564E+01  0.57787956620E+02  0.19007624573E+03  0.19884245081E+03  0.00000000000E+00 0. -1.
         22    1    3    3    0    0 -0.46318158755E+02 -0.30729451667E+02 -0.14102078305E+02  0.57345790105E+02  0.00000000000E+00 0.  1.
         22    1    3    3    0    0  0.66156233105E+02 -0.47512105098E+02  0.50514947347E+02  0.95842616904E+02  0.00000000000E+00 0.  1.
</event>
<event>
 7    1  0.5194496E-006  0.6530109E+02  0.7818608E-02  0.1402045E+00
          2   -1    0    0  502    0  0.00000000000E+00  0.00000000000E+00  0.39611690983E+04  0.39611690983E+04  0.00000000000E+00 0. -1.
          1   -1    0    0  501    0 -0.00000000000E+00 -0.00000000000E+00 -0.14528398926E+03  0.14528398926E+03  0.00000000000E+00 0. -1.
         25    2    1    2    0    0 -0.66979054952E+02  0.31010769974E+02  0.58486242835E+02  0.15650891897E+03  0.12500615769E+03 0.  0.
          2    1    1    2  501    0  0.62628525343E+02  0.22131724026E+02 -0.84608182780E+02  0.10756714177E+03  0.00000000000E+00 0. -1.
          1    1    1    2  502    0  0.43505296090E+01 -0.53142494000E+02  0.38420070490E+04  0.38423770268E+04  0.00000000000E+00 0. -1.
         22    1    3    3    0    0  0.32341056021E+02 -0.10730791593E+02  0.32364074453E+00  0.34076363305E+02  0.00000000000E+00 0. -1.
         22    1    3    3    0    0 -0.99320110973E+02  0.41741561566E+02  0.58162602090E+02  0.12243255567E+03  0.00000000000E+00 0. -1.
</event>
<event>
 7    1  0.5194496E-006  0.8813581E+02  0.7818608E-02  0.1345966E+00
          2   -1    0    0  502    0  0.00000000000E+00  0.00000000000E+00  0.50724156144E+03  0.50724156144E+03  0.00000000000E+00 0. -1.
          1   -1    0    0  501    0 -0.00000000000E+00 -0.00000000000E+00 -0.32386323075E+03  0.32386323075E+03  0.00000000000E+00 0. -1.
         25    2    1    2    0    0  0.14664847192E+03  0.20036087525E+02 -0.12306275754E+03  0.22951392808E+03  0.12499992707E+03 0.  0.
          2    1    1    2  501    0 -0.59934305260E+02 -0.18356869729E+02 -0.13651805921E+03  0.15022075790E+03  0.00000000000E+00 0. -1.
          1    1    1    2  502    0 -0.86714166665E+02 -0.16792177965E+01  0.44295914744E+03  0.45137010621E+03  0.00000000000E+00 0. -1.
         22    1    3    3    0    0  0.16358075387E+03  0.24839357715E+01 -0.85144862742E+02  0.18443015108E+03  0.00000000000E+00 0.  1.
         22    1    3    3    0    0 -0.16932281948E+02  0.17552151754E+02 -0.37917894793E+02  0.45083777002E+02  0.00000000000E+00 0.  1.
</event>
<event>
 7    1  0.5194496E-006  0.1062617E+03  0.7818608E-02  0.1386231E+00
          2   -1    0    0  502    0  0.00000000000E+00  0.00000000000E+00  0.95131023394E+03  0.95131023394E+03  0.00000000000E+00 0. -1.
          1   -1    0    0  501    0 -0.00000000000E+00 -0.00000000000E+00 -0.21506199541E+03  0.21506199541E+03  0.00000000000E+00 0. -1.
         25    2    1    2    0    0  0.20840687180E+02  0.10218658943E+03  0.19125801093E+03  0.25116073999E+03  0.12500262903E+03 0.  0.
          2    1    1    2  501    0 -0.36976545823E+02  0.38653660892E+01 -0.17925253076E+03  0.18306740775E+03  0.00000000000E+00 0. -1.
          1    1    1    2  502    0  0.16135858644E+02 -0.10605195552E+03  0.72424275836E+03  0.73214408161E+03  0.00000000000E+00 0. -1.
         22    1    3    3    0    0 -0.18271768534E+02 -0.24237800826E+02  0.32247597921E+02  0.44285845209E+02  0.00000000000E+00 0. -1.
         22    1    3    3    0    0  0.39112455713E+02  0.12642439026E+03  0.15901041301E+03  0.20687489478E+03  0.00000000000E+00 0. -1.
</event>
<event>
 7    1  0.5194496E-006  0.2779638E+02  0.7818608E-02  0.1626759E+00
          2   -1    0    0  502    0  0.00000000000E+00  0.00000000000E+00  0.97962207666E+03  0.97962207666E+03  0.00000000000E+00 0. -1.
          1   -1    0    0  501    0 -0.00000000000E+00 -0.00000000000E+00 -0.23193198374E+03  0.23193198374E+03  0.00000000000E+00 0. -1.
         25    2    1    2    0    0 -0.16602433025E+02  0.12946408955E+02 -0.12741474741E+03  0.17972069761E+03  0.12498704335E+03 0.  0.
          2    1    1    2  501    0 -0.64733717338E+01 -0.28443058934E+02 -0.75439433641E+02  0.80882756452E+02  0.00000000000E+00 0. -1.
          1    1    1    2  502    0  0.23075804759E+02  0.15496649979E+02  0.95054427397E+03  0.95095060634E+03  0.00000000000E+00 0. -1.
         22    1    3    3    0    0  0.30134941148E+02  0.55235023477E+02 -0.73718464488E+02  0.96919732268E+02  0.00000000000E+00 0. -1.
         22    1    3    3    0    0 -0.46737374173E+02 -0.42288614521E+02 -0.53696282919E+02  0.82800965344E+02  0.00000000000E+00 0. -1.
</event>
<event>
 7    1  0.5194496E-006  0.2934850E+02  0.7818608E-02  0.1640839E+00
          2   -1    0    0  502    0  0.00000000000E+00  0.00000000000E+00  0.30686991968E+02  0.30686991968E+02  0.00000000000E+00 0. -1.
          1   -1    0    0  501    0 -0.00000000000E+00 -0.00000000000E+00 -0.92636044327E+03  0.92636044327E+03  0.00000000000E+00 0. -1.
         25    2    1    2    0    0 -0.15250756877E+02  0.25084871729E+02 -0.19680260846E+03  0.23498495218E+03  0.12499929872E+03 0.  0.
          2    1    1    2  501    0 -0.14306209419E+02 -0.19096368475E+02 -0.69029781605E+03  0.69071007938E+03  0.00000000000E+00 0. -1.
          1    1    1    2  502    0  0.29556966296E+02 -0.59885032540E+01 -0.85730267917E+01  0.31352403675E+02  0.00000000000E+00 0. -1.
         22    1    3    3    0    0 -0.35335234917E+01  0.26943907155E+02  0.91630530220E+01  0.28677891515E+02  0.00000000000E+00 0.  1.
         22    1    3    3    0    0 -0.11717233385E+02 -0.18590354257E+01 -0.20596566148E+03  0.20630706066E+03  0.00000000000E+00 0.  1.
</event>
<event>
 7    1  0.5194496E-006  0.1123957E+03  0.7818608E-02  0.1418364E+00
          2   -1    0    0  502    0  0.00000000000E+00  0.00000000000E+00  0.19875759701E+04  0.19875759701E+04  0.00000000000E+00 0. -1.
          1   -1    0    0  501    0 -0.00000000000E+00 -0.00000000000E+00 -0.24387549933E+02  0.24387549933E+02  0.00000000000E+00 0. -1.
         25    2    1    2    0    0  0.78127088459E+02  0.10406799861E+03  0.56762885144E+03  0.59561914515E+03  0.12500265119E+03 0.  0.
          2    1    1    2  501    0  0.39401040487E+00 -0.27272993880E+02  0.14435821799E+02  0.30860401656E+02  0.00000000000E+00 0. -1.
          1    1    1    2  502    0 -0.78521098864E+02 -0.76795004734E+02  0.13811237470E+04  0.13854839732E+04  0.00000000000E+00 0. -1.
         22    1    3    3    0    0  0.90497277083E+02  0.11916842652E+03  0.40383904059E+03  0.43067022389E+03  0.00000000000E+00 0.  1.
         22    1    3    3    0    0 -0.12370188624E+02 -0.15100427911E+02  0.16378981085E+03  0.16494892127E+03  0.00000000000E+00 0.  1.
</event>
<event>
 7    1  0.5194496E-006  0.1049202E+03  0.7818608E-02  0.1349173E+00
          2   -1    0    0  502    0  0.00000000000E+00  0.00000000000E+00  0.22875216802E+04  0.22875216802E+04  0.00000000000E+00 0. -1.
          1   -1    0    0  501    0 -0.00000000000E+00 -0.00000000000E+00 -0.73979023916E+02  0.73979023916E+02  0.00000000000E+00 0. -1.
         25    2    1    2    0    0 -0.56005801554E+02 -0.98967262204E+02  0.89583098899E+03  0.91162980342E+03  0.12499827539E+03 0.  0.
          2    1    1    2  501    0  0.51247515929E+01  0.10492474064E+03 -0.23528730304E+02  0.10765252169E+03  0.00000000000E+00 0. -1.
          1    1    1    2  502    0  0.50881049961E+02 -0.59574784331E+01  0.13412403976E+04  0.13422183790E+04  0.00000000000E+00 0. -1.
         22    1    3    3    0    0 -0.72003203143E+02 -0.55898470550E+01  0.45870051087E+03  0.46435101628E+03  0.00000000000E+00 0. -1.
         22    1    3    3    0    0  0.15997401589E+02 -0.93377415149E+02  0.43713047812E+03  0.44727878713E+03  0.00000000000E+00 0. -1.
</event>
<event>
 7    1  0.5194496E-006  0.8191709E+02  0.7818608E-02  0.1377488E+00
          2   -1    0    0  502    0  0.00000000000E+00  0.00000000000E+00  0.66252136103E+03  0.66252136103E+03  0.00000000000E+00 0. -1.
          1   -1    0    0  501    0 -0.00000000000E+00 -0.00000000000E+00 -0.69821147090E+02  0.69821147090E+02  0.00000000000E+00 0. -1.
         25    2    1    2    0    0  0.23315808299E+02 -0.67154580410E+02  0.51668645408E+03  0.53633511847E+03  0.12504840218E+03 0.  0.
          2    1    1    2  501    0 -0.11886524498E+02 -0.50398328053E+02 -0.61307369960E+01  0.52142754735E+02  0.00000000000E+00 0. -1.
          1    1    1    2  502    0 -0.11429283802E+02  0.11755290846E+03  0.82144496862E+02  0.14386463492E+03  0.00000000000E+00 0. -1.
         22    1    3    3    0    0 -0.27414195372E+02  0.22485706442E+01  0.32609185256E+03  0.32724988997E+03  0.00000000000E+00 0. -1.
         22    1    3    3    0    0  0.50730003671E+02 -0.69403151054E+02  0.19059460151E+03  0.20908522850E+03  0.00000000000E+00 0. -1.
</event>
<event>
 7    1  0.5194496E-006  0.1377431E+03  0.7818608E-02  0.1369046E+00
          2   -1    0    0  502    0  0.00000000000E+00  0.00000000000E+00  0.12024884780E+04  0.12024884780E+04  0.00000000000E+00 0. -1.
          1   -1    0    0  501    0 -0.00000000000E+00 -0.00000000000E+00 -0.24781166409E+03  0.24781166409E+03  0.00000000000E+00 0. -1.
         25    2    1    2    0    0  0.10685730241E+03  0.15091848766E+02  0.10834216718E+03  0.19750700040E+03  0.12499897215E+03 0.  0.
          2    1    1    2  501    0  0.32488000410E+02  0.58603585910E+01 -0.19712083779E+03  0.19986605181E+03  0.00000000000E+00 0. -1.
          1    1    1    2  502    0 -0.13934530282E+03 -0.20952207357E+02  0.10434554845E+04  0.10529270899E+04  0.00000000000E+00 0. -1.
         22    1    3    3    0    0  0.13289391495E+02  0.37408679226E+02 -0.13804703717E+02  0.42030786959E+02  0.00000000000E+00 0.  1.
         22    1    3    3    0    0  0.93567910917E+02 -0.22316830460E+02  0.12214687089E+03  0.15547621344E+03  0.00000000000E+00 0.  1.
</event>
<event>
 7    1  0.5194496E-006  0.7755561E+02  0.7818608E-02  0.1404585E+00
          2   -1    0    0  502    0  0.00000000000E+00  0.00000000000E+00  0.17170848873E+03  0.17170848873E+03  0.00000000000E+00 0. -1.
          1   -1    0    0  501    0 -0.00000000000E+00 -0.00000000000E+00 -0.11254368916E+04  0.11254368916E+04  0.00000000000E+00 0. -1.
         25    2    1    2    0    0 -0.12512893923E+02 -0.51137466954E+02 -0.56270215990E+03  0.57881811127E+03  0.12500028853E+03 0.  0.
          2    1    1    2  501    0 -0.89759838665E+01  0.89539697256E+02 -0.54798074216E+03  0.55532046554E+03  0.00000000000E+00 0. -1.
          1    1    1    2  502    0  0.21488877790E+02 -0.38402230302E+02  0.15695449922E+03  0.16300680350E+03  0.00000000000E+00 0. -1.
         22    1    3    3    0    0 -0.31475259047E+02 -0.28000037437E+02 -0.50592144496E+02  0.65835090288E+02  0.00000000000E+00 0. -1.
         22    1    3    3    0    0  0.18962365123E+02 -0.23137429517E+02 -0.51211001540E+03  0.51298302098E+03  0.00000000000E+00 0. -1.
</event>
<event>
 7    1  0.5194496E-006  0.5538468E+02  0.7818608E-02  0.1440582E+00
          2   -1    0    0  502    0  0.00000000000E+00  0.00000000000E+00  0.17106804070E+04  0.17106804070E+04  0.00000000000E+00 0. -1.
          1   -1    0    0  501    0 -0.00000000000E+00 -0.00000000000E+00 -0.23351280465E+04  0.23351280465E+04  0.00000000000E+00 0. -1.
         25    2    1    2    0    0 -0.20917018461E+02  0.64065351412E+01  0.37503949550E+03  0.39592659738E+03  0.12499872791E+03 0.  0.
          2    1    1    2  501    0  0.16364367030E+02 -0.52950558269E+02 -0.23239414208E+04  0.23246021770E+04  0.00000000000E+00 0. -1.
          1    1    1    2  502    0  0.45526514309E+01  0.46544023128E+02  0.13244542858E+04  0.13252796791E+04  0.00000000000E+00 0. -1.
         22    1    3    3    0    0  0.26098507817E+00 -0.54746221085E+02  0.24021391015E+03  0.24637357704E+03  0.00000000000E+00 0. -1.
         22    1    3    3    0    0 -0.21178003539E+02  0.61152756226E+02  0.13482558535E+03  0.14955302034E+03  0.00000000000E+00 0. -1.
</event>
<event>
 7    1  0.5194496E-006  0.5246215E+02  0.7818608E-02  0.1474482E+00
          2   -1    0    0  502    0  0.00000000000E+00  0.00000000000E+00  0.12227380658E+04  0.12227380658E+04  0.00000000000E+00 0. -1.
          1   -1    0    0  501    0 -0.00000000000E+00 -0.00000000000E+00 -0.18896131474E+03  0.18896131474E+03  0.00000000000E+00 0. -1.
         25    2    1    2    0    0 -0.37858699337E+02  0.37996538587E+02  0.39554074450E+03  0.41827602207E+03  0.12500132806E+03 0.  0.
          2    1    1    2  501    0  0.52533252989E+02 -0.23373534939E+01 -0.17323317631E+03  0.18103850216E+03  0.00000000000E+00 0. -1.
          1    1    1    2  502    0 -0.14674553652E+02 -0.35659185094E+02  0.81146918289E+03  0.81238485632E+03  0.00000000000E+00 0. -1.
         22    1    3    3    0    0 -0.40706210599E+02  0.27189860678E+02  0.40226561286E+03  0.40523315190E+03  0.00000000000E+00 0.  1.
         22    1    3    3    0    0  0.28475112616E+01  0.10806677910E+02 -0.67248683604E+01  0.13042870171E+02  0.00000000000E+00 0.  1.
</event>
<event>
 7    1  0.5194496E-006  0.7828805E+02  0.7818608E-02  0.1364909E+00
          2   -1    0    0  502    0  0.00000000000E+00  0.00000000000E+00  0.75652110093E+02  0.75652110093E+02  0.00000000000E+00 0. -1.
          1   -1    0    0  501    0 -0.00000000000E+00 -0.00000000000E+00 -0.92850283804E+03  0.92850283804E+03  0.00000000000E+00 0. -1.
         25    2    1    2    0    0 -0.25514856567E+02 -0.66037668563E+02 -0.12622517113E+03  0.19123076513E+03  0.12499772051E+03 0.  0.
          2    1    1    2  501    0  0.58911357787E+02 -0.11973783397E+02 -0.72557213966E+03  0.72805827336E+03  0.00000000000E+00 0. -1.
          1    1    1    2  502    0 -0.33396501221E+02  0.78011451960E+02 -0.10534171613E+01  0.84865909636E+02  0.00000000000E+00 0. -1.
         22    1    3    3    0    0 -0.37777367742E+02  0.25344345797E+02 -0.17665492265E+02  0.48800973293E+02  0.00000000000E+00 0.  1.
         22    1    3    3    0    0  0.12262511176E+02 -0.91382014360E+02 -0.10855967886E+03  0.14242979184E+03  0.00000000000E+00 0.  1.
</event>
<event>
 7    1  0.5194496E-006  0.7554204E+02  0.7818608E-02  0.1384716E+00
          2   -1    0    0  502    0  0.00000000000E+00  0.00000000000E+00  0.13078702787E+04  0.13078702787E+04  0.00000000000E+00 0. -1.
          1   -1    0    0  501    0 -0.00000000000E+00 -0.00000000000E+00 -0.27460870775E+03  0.27460870775E+03  0.00000000000E+00 0. -1.
         25    2    1    2    0    0  0.91154376653E+02 -0.82048177673E+02 -0.37853352717E+02  0.17915605512E+03  0.12499196746E+03 0.  0.
          2    1    1    2  501    0 -0.24901952850E+02  0.46719726316E+02 -0.16071320205E+03  0.16920866821E+03  0.00000000000E+00 0. -1.
          1    1    1    2  502    0 -0.66252423803E+02  0.35328451357E+02  0.12318281258E+04  0.12341142632E+04  0.00000000000E+00 0. -1.
         22    1    3    3    0    0  0.87314471855E+02 -0.84175014693E+02 -0.74441681477E+02  0.14230535491E+03  0.00000000000E+00 0.  1.
         22    1    3    3    0    0  0.38399047983E+01  0.21268370202E+01  0.36588328760E+02  0.36850700211E+02  0.00000000000E+00 0.  1.
</event>
<event>
 7    1  0.5194496E-006  0.1277751E+03  0.7818608E-02  0.1261696E+00
          2   -1    0    0  502    0  0.00000000000E+00  0.00000000000E+00  0.83304882649E+03  0.83304882649E+03  0.00000000000E+00 0. -1.
          1   -1    0    0  501    0 -0.00000000000E+00 -0.00000000000E+00 -0.10143801514E+04  0.10143801514E+04  0.00000000000E+00 0. -1.
         25    2    1    2    0    0  0.93704522939E+02 -0.73906651982E+02  0.11929419569E+03  0.20999798850E+03  0.12500127688E+03 0.  0.
          2    1    1    2  501    0  0.39076592025E+02  0.85116099366E+02 -0.96008545915E+03  0.96464284545E+03  0.00000000000E+00 0. -1.
          1    1    1    2  502    0 -0.13278111496E+03 -0.11209447384E+02  0.65945993850E+03  0.67278814398E+03  0.00000000000E+00 0. -1.
         22    1    3    3    0    0  0.99758323794E+02 -0.11563964210E+01  0.71545575162E+02  0.12276738062E+03  0.00000000000E+00 0. -1.
         22    1    3    3    0    0 -0.60538008544E+01 -0.72750255561E+02  0.47748620527E+02  0.87230607881E+02  0.00000000000E+00 0. -1.
</event>
<event>
 7    1  0.5194496E-006  0.9302870E+02  0.7818608E-02  0.1362613E+00
          2   -1    0    0  502    0  0.00000000000E+00  0.00000000000E+00  0.37679429753E+03  0.37679429753E+03  0.00000000000E+00 0. -1.
          1   -1    0    0  501    0 -0.00000000000E+00 -0.00000000000E+00 -0.13149464221E+04  0.13149464221E+04  0.00000000000E+00 0. -1.
         25    2    1    2    0    0  0.67019648125E+02 -0.19136792773E+02 -0.14146881106E+03  0.20122815365E+03  0.12498598020E+03 0.  0.
          2    1    1    2  501    0 -0.44115382201E+01 -0.51381472017E+02 -0.11365940970E+04  0.11377634458E+04  0.00000000000E+00 0. -1.
          1    1    1    2  502    0 -0.62608109905E+02  0.70518264790E+02  0.33991078344E+03  0.35274912019E+03  0.00000000000E+00 0. -1.
         22    1    3    3    0    0  0.43005869336E+01  0.49731893807E+02 -0.47092818060E+02  0.68625722746E+02  0.00000000000E+00 0.  1.
         22    1    3    3    0    0  0.62719061191E+02 -0.68868686579E+02 -0.94375992998E+02  0.13260243091E+03  0.00000000000E+00 0.  1.
</event>
<event>
 7    1  0.5194496E-006  0.6849184E+02  0.7818608E-02  0.1411774E+00
          2   -1    0    0  502    0  0.00000000000E+00  0.00000000000E+00  0.20289277811E+04  0.20289277811E+04  0.00000000000E+00 0. -1.
          1   -1    0    0  501    0 -0.00000000000E+00 -0.00000000000E+00 -0.35862722673E+02  0.35862722673E+02  0.00000000000E+00 0. -1.
         25    2    1    2    0    0  0.10199203788E+02  0.10581656905E+03  0.10399237033E+04  0.10527918060E+04  0.12501243165E+03 0.  0.
          2    1    1    2  501    0  0.14461767908E+02 -0.65684287086E+02  0.10371030405E+02  0.68052381095E+02  0.00000000000E+00 0. -1.
          1    1    1    2  502    0 -0.24660971696E+02 -0.40132281960E+02  0.94277032473E+03  0.94394631668E+03  0.00000000000E+00 0. -1.
         22    1    3    3    0    0  0.41650720278E+02  0.11673715385E+03  0.66961293929E+03  0.68098739640E+03  0.00000000000E+00 0. -1.
         22    1    3    3    0    0 -0.31451516490E+02 -0.10920584807E+02  0.37031076401E+03  0.37180440960E+03  0.00000000000E+00 0. -1.
</event>
<event>
 7    1  0.5194496E-006  0.6220429E+02  0.7818608E-02  0.1418051E+00
          2   -1    0    0  502    0  0.00000000000E+00  0.00000000000E+00  0.43775462439E+03  0.43775462439E+03  0.00000000000E+00 0. -1.
          1   -1    0    0  501    0 -0.00000000000E+00 -0.00000000000E+00 -0.30679814380E+03  0.30679814380E+03  0.00000000000E+00 0. -1.
         25    2    1    2    0    0 -0.22887096950E+02  0.10273807110E+03  0.87635703812E+02  0.18545110996E+03  0.12503266429E+03 0.  0.
          2    1    1    2  501    0 -0.37532472437E+01 -0.49260154482E+02 -0.25251031160E+03  0.25729770141E+03  0.00000000000E+00 0. -1.
          1    1    1    2  502    0  0.26640344193E+02 -0.53477916623E+02  0.29583108838E+03  0.30180395683E+03  0.00000000000E+00 0. -1.
         22    1    3    3    0    0 -0.41538570266E+02  0.10350237100E+03  0.10977741896E+03  0.15649049599E+03  0.00000000000E+00 0. -1.
         22    1    3    3    0    0  0.18651473317E+02 -0.76429989797E+00 -0.22141715149E+02  0.28960613961E+02  0.00000000000E+00 0. -1.
</event>
<event>
 7    1  0.5194496E-006  0.1118373E+03  0.7818608E-02  0.1399139E+00
          2   -1    0    0  502    0  0.00000000000E+00  0.00000000000E+00  0.26014280367E+03  0.26014280367E+03  0.00000000000E+00 0. -1.
          1   -1    0    0  501    0 -0.00000000000E+00 -0.00000000000E+00 -0.22962860283E+04  0.22962860283E+04  0.00000000000E+00 0. -1.
         25    2    1    2    0    0  0.65334094064E+02 -0.11995771763E+03 -0.12362475661E+03  0.22263563588E+03  0.12500059220E+03 0.  0.
          2    1    1    2  501    0 -0.67667965817E+02  0.88185903826E+02 -0.21204871901E+04  0.21233986038E+04  0.00000000000E+00 0. -1.
          1    1    1    2  502    0  0.23338717529E+01  0.31771813802E+02  0.20796872207E+03  0.21039459230E+03  0.00000000000E+00 0. -1.
         22    1    3    3    0    0  0.32165575072E+02 -0.94875411782E+02 -0.88618065351E+01  0.10057086852E+03  0.00000000000E+00 0. -1.
         22    1    3    3    0    0  0.33168518993E+02 -0.25082305847E+02 -0.11476295008E+03  0.12206476735E+03  0.00000000000E+00 0. -1.
</event>
<event>
 7    1  0.5194496E-006  0.6185568E+02  0.7818608E-02  0.1432518E+00
          2   -1    0    0  502    0  0.00000000000E+00  0.00000000000E+00  0.13058259133E+04  0.13058259133E+04  0.00000000000E+00 0. -1.
          1   -1    0    0  501    0 -0.00000000000E+00 -0.00000000000E+00 -0.55059223394E+02  0.55059223394E+02  0.00000000000E+00 0. -1.
         25    2    1    2    0    0  0.17523543332E+02  0.78454818666E+02  0.56881423017E+03  0.58790859929E+03  0.12499863810E+03 0.  0.
          2    1    1    2  501    0 -0.38956991990E+02 -0.21483189922E+02 -0.33029175622E+02  0.55408493179E+02  0.00000000000E+00 0. -1.
          1    1    1    2  502    0  0.21433448659E+02 -0.56971628744E+02  0.71498163534E+03  0.71756804422E+03  0.00000000000E+00 0. -1.
         22    1    3    3    0    0  0.47466310674E+02  0.10049750182E+03  0.44164857230E+03  0.45541877425E+03  0.00000000000E+00 0.  1.
         22    1    3    3    0    0 -0.29942767342E+02 -0.22042683158E+02  0.12716565787E+03  0.13248982504E+03  0.00000000000E+00 0.  1.
</event>
<event>
 7    1  0.5194496E-006  0.8801022E+02  0.7818608E-02  0.1437674E+00
          2   -1    0    0  502    0  0.00000000000E+00  0.00000000000E+00  0.95008729402E+03  0.95008729402E+03  0.00000000000E+00 0. -1.
          1   -1    0    0  501    0 -0.00000000000E+00 -0.00000000000E+00 -0.31991828999E+03  0.31991828999E+03  0.00000000000E+00 0. -1.
         25    2    1    2    0    0 -0.91924177996E+02 -0.45437569382E+02 -0.85395872577E+02  0.18284439185E+03  0.12499995747E+03 0.  0.
          2    1    1    2  501    0  0.55307231558E+01  0.29564426647E+02 -0.18242375349E+03  0.18488664111E+03  0.00000000000E+00 0. -1.
          1    1    1    2  502    0  0.86393454840E+02  0.15873142736E+02  0.89798863010E+03  0.90227455106E+03  0.00000000000E+00 0. -1.
         22    1    3    3    0    0  0.10542528760E+02  0.41280144236E+01  0.23017552718E+02  0.25651377134E+02  0.00000000000E+00 0.  1.
         22    1    3    3    0    0 -0.10246670676E+03 -0.49565583806E+02 -0.10841342529E+03  0.15719301472E+03  0.00000000000E+00 0.  1.
</event>
<event>
 7    1  0.5194496E-006  0.4042478E+02  0.7818608E-02  0.1520436E+00
          2   -1    0    0  502    0  0.00000000000E+00  0.00000000000E+00  0.26894647439E+04  0.26894647439E+04  0.00000000000E+00 0. -1.
          1   -1    0    0  501    0 -0.00000000000E+00 -0.00000000000E+00 -0.10250205978E+03  0.10250205978E+03  0.00000000000E+00 0. -1.
         25    2    1    2    0    0  0.53581400607E+02  0.20719166037E+01  0.10720980721E+04  0.10806913990E+04  0.12499745722E+03 0.  0.
          2    1    1    2  501    0 -0.28579234825E+02 -0.28595622769E+02 -0.93829306160E+02  0.10216859106E+03  0.00000000000E+00 0. -1.
          1    1    1    2  502    0 -0.25002165782E+02  0.26523706165E+02  0.16086939182E+04  0.16091068136E+04  0.00000000000E+00 0. -1.
         22    1    3    3    0    0  0.43219609719E+02  0.54868103472E+02  0.36999843809E+03  0.37653324904E+03  0.00000000000E+00 0.  1.
         22    1    3    3    0    0  0.10361790887E+02 -0.52796186868E+02  0.70209963402E+03  0.70415814996E+03  0.00000000000E+00 0.  1.
</event>
<event>
 7    1  0.5194496E-006  0.1126816E+03  0.7818608E-02  0.1285492E+00
          2   -1    0    0  502    0  0.00000000000E+00  0.00000000000E+00  0.32221155800E+03  0.32221155800E+03  0.00000000000E+00 0. -1.
          1   -1    0    0  501    0 -0.00000000000E+00 -0.00000000000E+00 -0.25445062240E+04  0.25445062240E+04  0.00000000000E+00 0. -1.
         25    2    1    2    0    0  0.97268513625E+02 -0.10677419488E+03  0.29521970629E+01  0.19103936619E+03  0.12500172611E+03 0.  0.
          2    1    1    2  501    0 -0.84394265502E+02 -0.38873260548E+01 -0.24359077987E+04  0.24373724187E+04  0.00000000000E+00 0. -1.
          1    1    1    2  502    0 -0.12874248123E+02  0.11066152094E+03  0.21066093564E+03  0.23830599716E+03  0.00000000000E+00 0. -1.
         22    1    3    3    0    0  0.49261394962E+02 -0.12713128498E+03 -0.11790229194E+02  0.13685049564E+03  0.00000000000E+00 0. -1.
         22    1    3    3    0    0  0.48007118664E+02  0.20357090092E+02  0.14742426257E+02  0.54188870549E+02  0.00000000000E+00 0. -1.
</event>
<event>
 7    1  0.5194496E-006  0.1018898E+03  0.7818608E-02  0.1354603E+00
          2   -1    0    0  502    0  0.00000000000E+00  0.00000000000E+00  0.13255036795E+03  0.13255036795E+03  0.00000000000E+00 0. -1.
          1   -1    0    0  501    0 -0.00000000000E+00 -0.00000000000E+00 -0.19274030213E+04  0.19274030213E+04  0.00000000000E+00 0. -1.
         25    2    1    2    0    0  0.52904533263E+02  0.29594900388E+01 -0.85688283373E+03  0.86757618802E+03  0.12503040849E+03 0.  0.
          2    1    1    2  501    0  0.49348143890E+02  0.10099667071E+02 -0.10435817057E+04  0.10447966401E+04  0.00000000000E+00 0. -1.
          1    1    1    2  502    0 -0.10225267715E+03 -0.13059157110E+02  0.10561188606E+03  0.14758056121E+03  0.00000000000E+00 0. -1.
         22    1    3    3    0    0  0.93273984174E+01  0.11990188472E+02 -0.76823015617E+03  0.76838033410E+03  0.00000000000E+00 0. -1.
         22    1    3    3    0    0  0.43577134846E+02 -0.90306984336E+01 -0.88652677560E+02  0.99195853916E+02  0.00000000000E+00 0. -1.
</event>
<event>
 7    1  0.5194496E-006  0.1032304E+03  0.7818608E-02  0.1338697E+00
          2   -1    0    0  502    0  0.00000000000E+00  0.00000000000E+00  0.19981804018E+03  0.19981804018E+03  0.00000000000E+00 0. -1.
          1   -1    0    0  501    0 -0.00000000000E+00 -0.00000000000E+00 -0.15888523040E+04  0.15888523040E+04  0.00000000000E+00 0. -1.
         25    2    1    2    0    0  0.12846915422E+03 -0.50503892932E+02 -0.18139766942E+03  0.25997023660E+03  0.12499777062E+03 0.  0.
          2    1    1    2  501    0 -0.53998437935E+02 -0.18198548149E+02 -0.13515206252E+04  0.13527213382E+04  0.00000000000E+00 0. -1.
          1    1    1    2  502    0 -0.74470716285E+02  0.68702441082E+02  0.14388403074E+03  0.17597876944E+03  0.00000000000E+00 0. -1.
         22    1    3    3    0    0  0.14306404041E+03 -0.32196358688E+02 -0.10578575132E+03  0.18081634426E+03  0.00000000000E+00 0. -1.
         22    1    3    3    0    0 -0.14594886188E+02 -0.18307534245E+02 -0.75611918099E+02  0.79153892334E+02  0.00000000000E+00 0. -1.
</event>
<event>
 7    1  0.5194496E-006  0.1060634E+03  0.7818608E-02  0.1365630E+00
          2   -1    0    0  502    0  0.00000000000E+00  0.00000000000E+00  0.12544145808E+04  0.12544145808E+04  0.00000000000E+00 0. -1.
          1   -1    0    0  501    0 -0.00000000000E+00 -0.00000000000E+00 -0.24361725245E+03  0.24361725245E+03  0.00000000000E+00 0. -1.
         25    2    1    2    0    0 -0.13832042129E+03 -0.50501348048E+02  0.18541066450E+03  0.26774042312E+03  0.12499957823E+03 0.  0.
          2    1    1    2  501    0  0.39708716039E+02  0.19200941161E+02 -0.19740894003E+03  0.20227641453E+03  0.00000000000E+00 0. -1.
          1    1    1    2  502    0  0.98611705255E+02  0.31300406887E+02  0.10227956038E+04  0.10280149956E+04  0.00000000000E+00 0. -1.
         22    1    3    3    0    0 -0.12007514149E+03 -0.46970975049E+02  0.62232715365E+02  0.14316851247E+03  0.00000000000E+00 0.  1.
         22    1    3    3    0    0 -0.18245279804E+02 -0.35303729989E+01  0.12317794914E+03  0.12457191065E+03  0.00000000000E+00 0.  1.
</event>
<event>
 7    1  0.5194496E-006  0.1041806E+03  0.7818608E-02  0.1449492E+00
          2   -1    0    0  502    0  0.00000000000E+00  0.00000000000E+00  0.46832945915E+03  0.46832945915E+03  0.00000000000E+00 0. -1.
          1   -1    0    0  501    0 -0.00000000000E+00 -0.00000000000E+00 -0.98623271719E+02  0.98623271719E+02  0.00000000000E+00 0. -1.
         25    2    1    2    0    0 -0.85918195996E+02  0.29779124168E+02  0.19713488538E+03  0.25051383351E+03  0.12500514032E+03 0.  0.
          2    1    1    2  501    0 -0.13449028348E+02  0.18991833043E+02 -0.57004250529E+02  0.61571508543E+02  0.00000000000E+00 0. -1.
          1    1    1    2  502    0  0.99367224344E+02 -0.48770957210E+02  0.22957555258E+03  0.25486738882E+03  0.00000000000E+00 0. -1.
         22    1    3    3    0    0 -0.11235666661E+03  0.40944269279E+01  0.11676973939E+03  0.16209860241E+03  0.00000000000E+00 0.  1.
         22    1    3    3    0    0  0.26438470618E+02  0.25684697240E+02  0.80365145989E+02  0.88415231101E+02  0.00000000000E+00 0.  1.
</event>
<event>
 7    1  0.5194496E-006  0.5617232E+02  0.7818608E-02  0.1559978E+00
          2   -1    0    0  502    0  0.00000000000E+00  0.00000000000E+00  0.42742512656E+04  0.42742512656E+04  0.00000000000E+00 0. -1.
          1   -1    0    0  501    0 -0.00000000000E+00 -0.00000000000E+00 -0.28035226698E+02  0.28035226698E+02  0.00000000000E+00 0. -1.
         25    2    1    2    0    0  0.40785976936E+02 -0.18040254742E+02  0.94812106178E+03  0.95736449348E+03  0.12499711552E+03 0.  0.
          2    1    1    2  501    0  0.15856693380E+02  0.12642032439E+02 -0.18732037957E+02  0.27606972944E+02  0.00000000000E+00 0. -1.
          1    1    1    2  502    0 -0.56642670316E+02  0.53982223029E+01  0.33168270151E+04  0.33173150259E+04  0.00000000000E+00 0. -1.
         22    1    3    3    0    0  0.55897583981E+02 -0.62813960428E+02  0.53820829986E+03  0.54473691592E+03  0.00000000000E+00 0. -1.
         22    1    3    3    0    0 -0.15111607045E+02  0.44773705686E+02  0.40991276191E+03  0.41262757756E+03  0.00000000000E+00 0. -1.
</event>
<event>
 7    1  0.5194496E-006  0.3011357E+03  0.7818608E-02  0.1158384E+00
          2   -1    0    0  502    0  0.00000000000E+00  0.00000000000E+00  0.40750607920E+03  0.40750607920E+03  0.00000000000E+00 0. -1.
          1   -1    0    0  501    0 -0.00000000000E+00 -0.00000000000E+00 -0.26454290590E+04  0.26454290590E+04  0.00000000000E+00 0. -1.
         25    2    1    2    0    0  0.15683558574E+03  0.32401501241E+03 -0.69877643918E+03  0.79592479550E+03  0.12499855566E+03 0.  0.
          2    1    1    2  501    0 -0.11638254363E+03 -0.29190868162E+02 -0.18340979782E+04  0.18380186062E+04  0.00000000000E+00 0. -1.
          1    1    1    2  502    0 -0.40453042112E+02 -0.29482414425E+03  0.29495143761E+03  0.41899173643E+03  0.00000000000E+00 0. -1.
         22    1    3    3    0    0  0.10868474960E+03  0.23385191172E+03 -0.60309961487E+03  0.65591785832E+03  0.00000000000E+00 0.  1.
         22    1    3    3    0    0  0.48150836141E+02  0.90163100696E+02 -0.95676824310E+02  0.14000693718E+03  0.00000000000E+00 0.  1.
</event>
<event>
 7    1  0.5194496E-006  0.6299984E+02  0.7818608E-02  0.1422560E+00
          2   -1    0    0  502    0  0.00000000000E+00  0.00000000000E+00  0.19254328007E+03  0.19254328007E+03  0.00000000000E+00 0. -1.
          1   -1    0    0  501    0 -0.00000000000E+00 -0.00000000000E+00 -0.19557226367E+04  0.19557226367E+04  0.00000000000E+00 0. -1.
         25    2    1    2    0    0 -0.36206399137E+02  0.31140171271E+02 -0.91066048847E+03  0.92044075694E+03  0.12501219210E+03 0.  0.
          2    1    1    2  501    0  0.34567216358E+02  0.32018242506E+02 -0.10343025554E+04  0.10353752153E+04  0.00000000000E+00 0. -1.
          1    1    1    2  502    0  0.16391827788E+01 -0.63158413777E+02  0.18178368732E+03  0.19244994447E+03  0.00000000000E+00 0. -1.
         22    1    3    3    0    0 -0.14416352414E+02  0.77170990801E+02 -0.66048093726E+03  0.66513025907E+03  0.00000000000E+00 0.  1.
         22    1    3    3    0    0 -0.21790046723E+02 -0.46030819530E+02 -0.25017955121E+03  0.25531049788E+03  0.00000000000E+00 0.  1.
</event>
<event>
 7    1  0.5194496E-006  0.8264127E+02  0.7818608E-02  0.1352133E+00
          2   -1    0    0  502    0  0.00000000000E+00  0.00000000000E+00  0.12119912210E+03  0.12119912210E+03  0.00000000000E+00 0. -1.
          1   -1    0    0  501    0 -0.00000000000E+00 -0.00000000000E+00 -0.35766731393E+03  0.35766731393E+03  0.00000000000E+00 0. -1.
         25    2    1    2    0    0  0.40132262950E+02 -0.79440658467E+02 -0.11201992154E+02  0.15385384540E+03  0.12499641742E+03 0.  0.
          2    1    1    2  501    0 -0.63237707048E+02 -0.47937582042E+01 -0.22896775007E+03  0.23758833785E+03  0.00000000000E+00 0. -1.
          1    1    1    2  502    0  0.23105444098E+02  0.84234416671E+02  0.37015503942E+01  0.87424252780E+02  0.00000000000E+00 0. -1.
         22    1    3    3    0    0  0.56467452847E+02 -0.19708169867E+01  0.30670828747E+02  0.64289634364E+02  0.00000000000E+00 0. -1.
         22    1    3    3    0    0 -0.16335189897E+02 -0.77469841480E+02 -0.41872820901E+02  0.89564211034E+02  0.00000000000E+00 0. -1.
</event>
<event>
 7    1  0.5194496E-006  0.1606540E+03  0.7818608E-02  0.1361583E+00
          2   -1    0    0  502    0  0.00000000000E+00  0.00000000000E+00  0.43011116348E+03  0.43011116348E+03  0.00000000000E+00 0. -1.
          1   -1    0    0  501    0 -0.00000000000E+00 -0.00000000000E+00 -0.59354074107E+03  0.59354074107E+03  0.00000000000E+00 0. -1.
         25    2    1    2    0    0 -0.13026344339E+03  0.55331125280E+02 -0.64301229678E+02  0.19946884659E+03  0.12499229781E+03 0.  0.
          2    1    1    2  501    0 -0.10195107828E+02  0.28343392745E+02 -0.44268474506E+03  0.44370831821E+03  0.00000000000E+00 0. -1.
          1    1    1    2  502    0  0.14045855122E+03 -0.83674518025E+02  0.34355639714E+03  0.38047473976E+03  0.00000000000E+00 0. -1.
         22    1    3    3    0    0 -0.11413063850E+02  0.22209406768E+02 -0.71644401163E+02  0.75871180256E+02  0.00000000000E+00 0. -1.
         22    1    3    3    0    0 -0.11885037954E+03  0.33121718512E+02  0.73431714857E+01  0.12359766633E+03  0.00000000000E+00 0. -1.
</event>
<event>
 7    1  0.5194496E-006  0.9201651E+02  0.7818608E-02  0.1399594E+00
          2   -1    0    0  502    0  0.00000000000E+00  0.00000000000E+00  0.16776193797E+04  0.16776193797E+04  0.00000000000E+00 0. -1.
          1   -1    0    0  501    0 -0.00000000000E+00 -0.00000000000E+00 -0.14066168816E+03  0.14066168816E+03  0.00000000000E+00 0. -1.
         25    2    1    2    0    0  0.98494000299E+02  0.70382124638E+02  0.77181033119E+03  0.79118290715E+03  0.12499797466E+03 0.  0.
          2    1    1    2  501    0 -0.37292088383E+02 -0.98866058478E+01 -0.12601601398E+03  0.13178953149E+03  0.00000000000E+00 0. -1.
          1    1    1    2  502    0 -0.61201911916E+02 -0.60495518790E+02  0.89116337428E+03  0.89530862918E+03  0.00000000000E+00 0. -1.
         22    1    3    3    0    0  0.84561448599E+02  0.12654851957E+02  0.65073412782E+03  0.65632742513E+03  0.00000000000E+00 0. -1.
         22    1    3    3    0    0  0.13932551700E+02  0.57727272681E+02  0.12107620336E+03  0.13485548201E+03  0.00000000000E+00 0. -1.
</event>
<event>
 7    1  0.5194496E-006  0.2288249E+03  0.7818608E-02  0.1198631E+00
          2   -1    0    0  502    0  0.00000000000E+00  0.00000000000E+00  0.30778166033E+04  0.30778166033E+04  0.00000000000E+00 0. -1.
          1   -1    0    0  501    0 -0.00000000000E+00 -0.00000000000E+00 -0.19848012000E+04  0.19848012000E+04  0.00000000000E+00 0. -1.
         25    2    1    2    0    0  0.18837839872E+03 -0.12026658174E+03  0.21983334436E+04  0.22131981007E+04  0.12500172857E+03 0.  0.
          2    1    1    2  501    0 -0.12081972986E+03  0.19442436460E+03 -0.19678272332E+04  0.19810962270E+04  0.00000000000E+00 0. -1.
          1    1    1    2  502    0 -0.67558668857E+02 -0.74157782862E+02  0.86250919289E+03  0.86832347562E+03  0.00000000000E+00 0. -1.
         22    1    3    3    0    0  0.16215291251E+03 -0.37069344344E+02  0.15823466273E+04  0.15910652257E+04  0.00000000000E+00 0.  1.
         22    1    3    3    0    0  0.26225486202E+02 -0.83197237393E+02  0.61598681624E+03  0.62213287505E+03  0.00000000000E+00 0.  1.
</event>
<event>
 7    1  0.5194496E-006  0.1649382E+03  0.7818608E-02  0.1254510E+00
          2   -1    0    0  502    0  0.00000000000E+00  0.00000000000E+00  0.32848271520E+03  0.32848271520E+03  0.00000000000E+00 0. -1.
          1   -1    0    0  501    0 -0.00000000000E+00 -0.00000000000E+00 -0.20345391544E+04  0.20345391544E+04  0.00000000000E+00 0. -1.
         25    2    1    2    0    0  0.12436900986E+03 -0.71219969432E+02 -0.72241838830E+03  0.74702933974E+03  0.12499828805E+03 0.  0.
          2    1    1    2  501    0 -0.10550848853E+03  0.14678232722E+03 -0.12886130722E+04  0.13012304725E+04  0.00000000000E+00 0. -1.
          1    1    1    2  502    0 -0.18860521326E+02 -0.75562357784E+02  0.30497502126E+03  0.31476205739E+03  0.00000000000E+00 0. -1.
         22    1    3    3    0    0  0.14526188243E+03 -0.79272703790E+02 -0.59162689283E+03  0.61433505221E+03  0.00000000000E+00 0.  1.
         22    1    3    3    0    0 -0.20892872576E+02  0.80527343582E+01 -0.13079149548E+03  0.13269428753E+03  0.00000000000E+00 0.  1.
</event>
<event>
 7    1  0.8140474E-006  0.1505638E+03  0.7818608E-02  0.1242511E+00
          2   -1    0    0  502    0  0.00000000000E+00  0.00000000000E+00  0.18895248596E+04  0.18895248596E+04  0.00000000000E+00 0. -1.
          1   -1    0    0  501    0 -0.00000000000E+00 -0.00000000000E+00 -0.71735960610E+03  0.71735960610E+03  0.00000000000E+00 0. -1.
         25    2    1    2    0    0 -0.14965898230E+03 -0.29253583664E+02 -0.26576592551E+03  0.33092148492E+03  0.12499567544E+03 0.  0.
          2    1    1    2  501    0  0.13973901994E+02  0.95188272128E+02 -0.41037950682E+03  0.42150612891E+03  0.00000000000E+00 0. -1.
          1    1    1    2  502    0  0.13568508031E+03 -0.65934688465E+02  0.18483106858E+04  0.18544568519E+04  0.00000000000E+00 0. -1.
         22    1    3    3    0    0 -0.55855587114E+02 -0.63193196141E+02 -0.18226100485E+03  0.20082903311E+03  0.00000000000E+00 0.  1.
         22    1    3    3    0    0 -0.93803395185E+02  0.33939612477E+02 -0.83504920655E+02  0.13009245181E+03  0.00000000000E+00 0.  1.
</event>
<event>
 7    1  0.5194496E-006  0.1411864E+03  0.7818608E-02  0.1256699E+00
          2   -1    0    0  502    0  0.00000000000E+00  0.00000000000E+00  0.20357113987E+03  0.20357113987E+03  0.00000000000E+00 0. -1.
          1   -1    0    0  501    0 -0.00000000000E+00 -0.00000000000E+00 -0.16201523331E+04  0.16201523331E+04  0.00000000000E+00 0. -1.
         25    2    1    2    0    0  0.58640452242E+02  0.96053903492E+02 -0.14253783427E+02  0.16880286773E+03  0.12500473109E+03 0.  0.
          2    1    1    2  501    0 -0.13462224524E+03 -0.49647610942E+02 -0.15090957416E+04  0.15159017090E+04  0.00000000000E+00 0. -1.
          1    1    1    2  502    0  0.75981792995E+02 -0.46406292550E+02  0.10676833174E+03  0.13901889626E+03  0.00000000000E+00 0. -1.
         22    1    3    3    0    0  0.88160250028E+02  0.67228842074E+02  0.22981854584E+02  0.11322593577E+03  0.00000000000E+00 0. -1.
         22    1    3    3    0    0 -0.29519797786E+02  0.28825061418E+02 -0.37235638011E+02  0.55576931952E+02  0.00000000000E+00 0. -1.
</event>
<event>
 7    1  0.5194496E-006  0.9168185E+02  0.7818608E-02  0.1443151E+00
          2   -1    0    0  502    0  0.00000000000E+00  0.00000000000E+00  0.14301002790E+04  0.14301002790E+04  0.00000000000E+00 0. -1.
          1   -1    0    0  501    0 -0.00000000000E+00 -0.00000000000E+00 -0.86206260733E+03  0.86206260733E+03  0.00000000000E+00 0. -1.
         25    2    1    2    0    0  0.10777029162E+03  0.40610857640E+01  0.70247432021E+02  0.17941809270E+03  0.12500088844E+03 0.  0.
          2    1    1    2  501    0 -0.89799734882E+02  0.17038881074E+02 -0.80474283931E+03  0.80991688047E+03  0.00000000000E+00 0. -1.
          1    1    1    2  502    0 -0.17970556738E+02 -0.21099966838E+02  0.13025330789E+04  0.13028279131E+04  0.00000000000E+00 0. -1.
         22    1    3    3    0    0  0.46832719407E+02 -0.50589221363E+02  0.69024908536E+02  0.97555168616E+02  0.00000000000E+00 0. -1.
         22    1    3    3    0    0  0.60937572212E+02  0.54650307128E+02  0.12225234849E+01  0.81862924086E+02  0.00000000000E+00 0. -1.
</event>
<event>
 7    1  0.5194496E-006  0.2920454E+02  0.7818608E-02  0.1633455E+00
          2   -1    0    0  502    0  0.00000000000E+00  0.00000000000E+00  0.88103807475E+03  0.88103807475E+03  0.00000000000E+00 0. -1.
          1   -1    0    0  501    0 -0.00000000000E+00 -0.00000000000E+00 -0.19484031920E+03  0.19484031920E+03  0.00000000000E+00 0. -1.
         25    2    1    2    0    0 -0.26958726198E+02  0.31639663364E+02  0.82356283917E+02  0.15535461222E+03  0.12499862728E+03 0.  0.
          2    1    1    2  501    0  0.20736616441E+01 -0.29081086538E+02 -0.15679172318E+03  0.15947932193E+03  0.00000000000E+00 0. -1.
          1    1    1    2  502    0  0.24885064554E+02 -0.25585768260E+01  0.76063319481E+03  0.76104445980E+03  0.00000000000E+00 0. -1.
         22    1    3    3    0    0 -0.14372901346E+02  0.41365871524E+01 -0.32929678741E+02  0.36167048378E+02  0.00000000000E+00 0. -1.
         22    1    3    3    0    0 -0.12585824852E+02  0.27503076211E+02  0.11528596266E+03  0.11918756384E+03  0.00000000000E+00 0. -1.
</event>
<event>
 7    1  0.5194496E-006  0.1321710E+03  0.7818608E-02  0.1282054E+00
          2   -1    0    0  502    0  0.00000000000E+00  0.00000000000E+00  0.53081763487E+03  0.53081763487E+03  0.00000000000E+00 0. -1.
          1   -1    0    0  501    0 -0.00000000000E+00 -0.00000000000E+00 -0.63816524154E+03  0.63816524154E+03  0.00000000000E+00 0. -1.
         25    2    1    2    0    0  0.12514289082E+03  0.14387837341E+03 -0.38292791726E+03  0.44566885208E+03  0.12500082574E+03 0.  0.
          2    1    1    2  501    0 -0.14929357154E+02 -0.72893807597E+02 -0.20871906788E+03  0.22158529326E+03  0.00000000000E+00 0. -1.
          1    1    1    2  502    0 -0.11021353367E+03 -0.70984565818E+02  0.48429937848E+03  0.50172873107E+03  0.00000000000E+00 0. -1.
         22    1    3    3    0    0  0.37867332642E+01  0.88999401609E+02 -0.20409838773E+03  0.22269123178E+03  0.00000000000E+00 0. -1.
         22    1    3    3    0    0  0.12135615756E+03  0.54878971806E+02 -0.17882952953E+03  0.22297762030E+03  0.00000000000E+00 0. -1.
</event>
<event>
 7    1  0.5194496E-006  0.1648074E+03  0.7818608E-02  0.1193283E+00
          2   -1    0    0  502    0  0.00000000000E+00  0.00000000000E+00  0.17696957569E+04  0.17696957569E+04  0.00000000000E+00 0. -1.
          1   -1    0    0  501    0 -0.00000000000E+00 -0.00000000000E+00 -0.26873712270E+03  0.26873712270E+03  0.00000000000E+00 0. -1.
         25    2    1    2    0    0  0.94466913870E+02  0.24604572271E+02  0.17457395036E+03  0.23585310830E+03  0.12498496613E+03 0.  0.
          2    1    1    2  501    0 -0.14208261429E+03  0.11517969129E+03 -0.19887131767E+03  0.27019184215E+03  0.00000000000E+00 0. -1.
          1    1    1    2  502    0  0.47615700416E+02 -0.13978426357E+03  0.15252560015E+04  0.15323879291E+04  0.00000000000E+00 0. -1.
         22    1    3    3    0    0  0.28128706869E+02  0.48314457339E+02  0.15187588638E+03  0.16183879572E+03  0.00000000000E+00 0.  1.
         22    1    3    3    0    0  0.66338207001E+02 -0.23709885068E+02  0.22698063983E+02  0.74014312579E+02  0.00000000000E+00 0.  1.
</event>
<event>
 7    1  0.5194496E-006  0.3834162E+02  0.7818608E-02  0.1574428E+00
          2   -1    0    0  502    0  0.00000000000E+00  0.00000000000E+00  0.88106510486E+02  0.88106510486E+02  0.00000000000E+00 0. -1.
          1   -1    0    0  501    0 -0.00000000000E+00 -0.00000000000E+00 -0.74572513809E+03  0.74572513809E+03  0.00000000000E+00 0. -1.
         25    2    1    2    0    0  0.35365727647E+01  0.55748407449E+02 -0.18685670588E+03  0.23164883073E+03  0.12500143985E+03 0.  0.
          2    1    1    2  501    0  0.14201845339E+02 -0.35216014754E+02 -0.53296675533E+03  0.53431771671E+03  0.00000000000E+00 0. -1.
          1    1    1    2  502    0 -0.17738418103E+02 -0.20532392695E+02  0.62204833612E+02  0.67865101129E+02  0.00000000000E+00 0. -1.
         22    1    3    3    0    0  0.24079786981E+02  0.54126148880E+02 -0.18538374146E+02  0.62073725920E+02  0.00000000000E+00 0. -1.
         22    1    3    3    0    0 -0.20543214217E+02  0.16222585694E+01 -0.16831833174E+03  0.16957510481E+03  0.00000000000E+00 0. -1.
</event>
<event>
 7    1  0.5194496E-006  0.1156130E+03  0.7818608E-02  0.1332459E+00
          2   -1    0    0  502    0  0.00000000000E+00  0.00000000000E+00  0.22058157961E+04  0.22058157961E+04  0.00000000000E+00 0. -1.
          1   -1    0    0  501    0 -0.00000000000E+00 -0.00000000000E+00 -0.55267010714E+03  0.55267010714E+03  0.00000000000E+00 0. -1.
         25    2    1    2    0    0  0.12475984415E+03 -0.20671918913E+02  0.37709972419E+03  0.41692055964E+03  0.12500481640E+03 0.  0.
          2    1    1    2  501    0 -0.13468386439E+02  0.52008542088E+02 -0.52955158331E+03  0.53226982375E+03  0.00000000000E+00 0. -1.
          1    1    1    2  502    0 -0.11129145771E+03 -0.31336623175E+02  0.18055975481E+04  0.18092955199E+04  0.00000000000E+00 0. -1.
         22    1    3    3    0    0  0.66019638542E+02  0.38435553734E+02  0.90398233400E+02  0.11835423552E+03  0.00000000000E+00 0.  1.
         22    1    3    3    0    0  0.58740205606E+02 -0.59107472647E+02  0.28670149079E+03  0.29856632412E+03  0.00000000000E+00 0.  1.
</event>
<event>
 7    1  0.5194496E-006  0.5459353E+02  0.7818608E-02  0.1525224E+00
          2   -1    0    0  502    0  0.00000000000E+00  0.00000000000E+00  0.13812846925E+04  0.13812846925E+04  0.00000000000E+00 0. -1.
          1   -1    0    0  501    0 -0.00000000000E+00 -0.00000000000E+00 -0.19399021899E+04  0.19399021899E+04  0.00000000000E+00 0. -1.
         25    2    1    2    0    0  0.12015475857E+02  0.27239417944E+02 -0.15586937021E+03  0.20200811282E+03  0.12500263808E+03 0.  0.
          2    1    1    2  501    0 -0.30129653269E+02 -0.46089629040E+02 -0.17604071245E+04  0.17612680926E+04  0.00000000000E+00 0. -1.
          1    1    1    2  502    0  0.18114177412E+02  0.18850211096E+02  0.13576589972E+04  0.13579106770E+04  0.00000000000E+00 0. -1.
         22    1    3    3    0    0  0.71076202240E+00 -0.33996766530E+02  0.16751875718E+00  0.34004608212E+02  0.00000000000E+00 0. -1.
         22    1    3    3    0    0  0.11304713834E+02  0.61236184473E+02 -0.15603688896E+03  0.16800350461E+03  0.00000000000E+00 0. -1.
</event>
<event>
 7    1  0.5194496E-006  0.6596979E+02  0.7818608E-02  0.1431729E+00
          2   -1    0    0  502    0  0.00000000000E+00  0.00000000000E+00  0.20800774867E+04  0.20800774867E+04  0.00000000000E+00 0. -1.
          1   -1    0    0  501    0 -0.00000000000E+00 -0.00000000000E+00 -0.22963321517E+02  0.22963321517E+02  0.00000000000E+00 0. -1.
         25    2    1    2    0    0  0.57590850237E+02 -0.64572322602E+02  0.42570344690E+03  0.45203366053E+03  0.12499885867E+03 0.  0.
          2    1    1    2  501    0 -0.58617038219E+02  0.22621985546E+02  0.94245473710E+02  0.11326923993E+03  0.00000000000E+00 0. -1.
          1    1    1    2  502    0  0.10261879814E+01  0.41950337057E+02  0.15371652445E+04  0.15377379077E+04  0.00000000000E+00 0. -1.
         22    1    3    3    0    0 -0.27778577391E+00 -0.19256348294E+02 -0.76913489826E+00  0.19273704445E+02  0.00000000000E+00 0.  1.
         22    1    3    3    0    0  0.57868636011E+02 -0.45315974308E+02  0.42647258180E+03  0.43275995608E+03  0.00000000000E+00 0.  1.
</event>
<event>
 7    1  0.5194496E-006  0.6675917E+02  0.7818608E-02  0.1472338E+00
          2   -1    0    0  502    0  0.00000000000E+00  0.00000000000E+00  0.30519457959E+04  0.30519457959E+04  0.00000000000E+00 0. -1.
          1   -1    0    0  501    0 -0.00000000000E+00 -0.00000000000E+00 -0.68329172134E+02  0.68329172134E+02  0.00000000000E+00 0. -1.
         25    2    1    2    0    0  0.39663595956E+02 -0.29351325516E+02  0.22938785435E+04  0.22978116428E+04  0.12499948972E+03 0.  0.
          2    1    1    2  501    0 -0.65667200326E+02  0.12902603870E+02 -0.49088684040E+02  0.82996128139E+02  0.00000000000E+00 0. -1.
          1    1    1    2  502    0  0.26003604370E+02  0.16448721646E+02  0.73882676439E+03  0.73946719716E+03  0.00000000000E+00 0. -1.
         22    1    3    3    0    0  0.26300796948E+02  0.24206531656E+02  0.19763412029E+03  0.20084056761E+03  0.00000000000E+00 0. -1.
         22    1    3    3    0    0  0.13362799008E+02 -0.53557857172E+02  0.20962444232E+04  0.20969710752E+04  0.00000000000E+00 0. -1.
</event>
<event>
 7    1  0.5194496E-006  0.9180814E+02  0.7818608E-02  0.1381106E+00
          2   -1    0    0  502    0  0.00000000000E+00  0.00000000000E+00  0.84681489634E+03  0.84681489634E+03  0.00000000000E+00 0. -1.
          1   -1    0    0  501    0 -0.00000000000E+00 -0.00000000000E+00 -0.37070234784E+03  0.37070234784E+03  0.00000000000E+00 0. -1.
         25    2    1    2    0    0 -0.11531963868E+03  0.72680723094E+01  0.13181059402E+03  0.21529355314E+03  0.12500334949E+03 0.  0.
          2    1    1    2  501    0  0.82829958533E+02 -0.38197716101E+02 -0.32186920665E+03  0.33454394888E+03  0.00000000000E+00 0. -1.
          1    1    1    2  502    0  0.32489680148E+02  0.30929643792E+02  0.66617116113E+03  0.66767974216E+03  0.00000000000E+00 0. -1.
         22    1    3    3    0    0 -0.17977875654E+02 -0.52576519617E+02  0.36346704215E+02  0.66397118427E+02  0.00000000000E+00 0.  1.
         22    1    3    3    0    0 -0.97341763027E+02  0.59844591926E+02  0.95463889807E+02  0.14889643471E+03  0.00000000000E+00 0.  1.
</event>
<event>
 7    1  0.5194496E-006  0.9325029E+02  0.7818608E-02  0.1439041E+00
          2   -1    0    0  502    0  0.00000000000E+00  0.00000000000E+00  0.12576541243E+04  0.12576541243E+04  0.00000000000E+00 0. -1.
          1   -1    0    0  501    0 -0.00000000000E+00 -0.00000000000E+00 -0.30223196363E+03  0.30223196363E+03  0.00000000000E+00 0. -1.
         25    2    1    2    0    0  0.23402648603E+02  0.64187849668E+02  0.12941478912E+03  0.19246151369E+03  0.12500193039E+03 0.  0.
          2    1    1    2  501    0 -0.43231873876E+02 -0.84094963788E+02 -0.26226473882E+03  0.27878979730E+03  0.00000000000E+00 0. -1.
          1    1    1    2  502    0  0.19829225273E+02  0.19907114120E+02  0.10882721104E+04  0.10886347769E+04  0.00000000000E+00 0. -1.
         22    1    3    3    0    0 -0.36411324483E+02  0.56667301589E+02  0.11026089190E+03  0.12920693442E+03  0.00000000000E+00 0.  1.
         22    1    3    3    0    0  0.59813973086E+02  0.75205480789E+01  0.19153897227E+02  0.63254579271E+02  0.00000000000E+00 0.  1.
</event>
<event>
 7    1  0.5194496E-006  0.8176889E+02  0.7818608E-02  0.1442410E+00
          2   -1    0    0  502    0  0.00000000000E+00  0.00000000000E+00  0.11509109672E+04  0.11509109672E+04  0.00000000000E+00 0. -1.
          1   -1    0    0  501    0 -0.00000000000E+00 -0.00000000000E+00 -0.11922627434E+03  0.11922627434E+03  0.00000000000E+00 0. -1.
         25    2    1    2    0    0 -0.15401591370E+02  0.73566804896E+02  0.57976178653E+02  0.15695898886E+03  0.12500241235E+03 0.  0.
          2    1    1    2  501    0  0.46490698926E+02 -0.70426414445E+02 -0.43877158398E+02  0.95112932703E+02  0.00000000000E+00 0. -1.
          1    1    1    2  502    0 -0.31089107556E+02 -0.31403904508E+01  0.10175856726E+04  0.10180653200E+04  0.00000000000E+00 0. -1.
         22    1    3    3    0    0 -0.34450146377E+02 -0.72608744840E+01 -0.22124042258E+02  0.41581319478E+02  0.00000000000E+00 0.  1.
         22    1    3    3    0    0  0.19048555007E+02  0.80827679380E+02  0.80100220911E+02  0.11537766938E+03  0.00000000000E+00 0.  1.
</event>
<event>
 7    1  0.5194496E-006  0.4566181E+02  0.7818608E-02  0.1475985E+00
          2   -1    0    0  502    0  0.00000000000E+00  0.00000000000E+00  0.14815969332E+04  0.14815969332E+04  0.00000000000E+00 0. -1.
          1   -1    0    0  501    0 -0.00000000000E+00 -0.00000000000E+00 -0.21110636189E+04  0.21110636189E+04  0.00000000000E+00 0. -1.
         25    2    1    2    0    0 -0.18365716637E+01 -0.13466600806E+01 -0.28152886826E+02  0.12818701227E+03  0.12503654902E+03 0.  0.
          2    1    1    2  501    0 -0.19468802823E+02 -0.39271657357E+02 -0.20322899043E+04  0.20327625421E+04  0.00000000000E+00 0. -1.
          1    1    1    2  502    0  0.21305374486E+02  0.40618317438E+02  0.14309761055E+04  0.14317109978E+04  0.00000000000E+00 0. -1.
         22    1    3    3    0    0  0.40731173231E+02  0.44204968509E+02 -0.26835853705E+02  0.65827583563E+02  0.00000000000E+00 0. -1.
         22    1    3    3    0    0 -0.42567744895E+02 -0.45551628590E+02 -0.13170331209E+01  0.62359428709E+02  0.00000000000E+00 0. -1.
</event>
<event>
 7    1  0.5194496E-006  0.5368225E+02  0.7818608E-02  0.1445202E+00
          2   -1    0    0  502    0  0.00000000000E+00  0.00000000000E+00  0.92867590871E+02  0.92867590871E+02  0.00000000000E+00 0. -1.
          1   -1    0    0  501    0 -0.00000000000E+00 -0.00000000000E+00 -0.50492324279E+03  0.50492324279E+03  0.00000000000E+00 0. -1.
         25    2    1    2    0    0 -0.43651883009E+01 -0.92933391912E+02 -0.52356479809E+02  0.16438280096E+03  0.12499933628E+03 0.  0.
          2    1    1    2  501    0 -0.63435130069E+01  0.46185079192E+02 -0.37889334566E+03  0.38175053253E+03  0.00000000000E+00 0. -1.
          1    1    1    2  502    0  0.10708701308E+02  0.46748312719E+02  0.19194173556E+02  0.51657500175E+02  0.00000000000E+00 0. -1.
         22    1    3    3    0    0  0.54884615620E+02 -0.34961234540E+02  0.22617412301E+01  0.65113166301E+02  0.00000000000E+00 0.  1.
         22    1    3    3    0    0 -0.59249803921E+02 -0.57972157372E+02 -0.54618221039E+02  0.99269634655E+02  0.00000000000E+00 0.  1.
</event>
<event>
 7    1  0.5194496E-006  0.1816236E+03  0.7818608E-02  0.1198411E+00
          2   -1    0    0  502    0  0.00000000000E+00  0.00000000000E+00  0.76146215967E+03  0.76146215967E+03  0.00000000000E+00 0. -1.
          1   -1    0    0  501    0 -0.00000000000E+00 -0.00000000000E+00 -0.12196389167E+04  0.12196389167E+04  0.00000000000E+00 0. -1.
         25    2    1    2    0    0  0.55693789303E+02  0.26656374792E+02  0.12007764164E+03  0.18399291154E+03  0.12498956352E+03 0.  0.
          2    1    1    2  501    0 -0.17885494500E+03 -0.56352487001E+02 -0.11735718524E+04  0.11884593333E+04  0.00000000000E+00 0. -1.
          1    1    1    2  502    0  0.12316115570E+03  0.29696112208E+02  0.59531745376E+03  0.60864883152E+03  0.00000000000E+00 0. -1.
         22    1    3    3    0    0  0.66448250866E+02 -0.25723807114E+02  0.10764932819E+03  0.12909477973E+03  0.00000000000E+00 0. -1.
         22    1    3    3    0    0 -0.10754461563E+02  0.52380181906E+02  0.12428313452E+02  0.54898131802E+02  0.00000000000E+00 0. -1.
</event>
<event>
 7    1  0.5194496E-006  0.7886738E+02  0.7818608E-02  0.1400042E+00
          2   -1    0    0  502    0  0.00000000000E+00  0.00000000000E+00  0.18813673906E+04  0.18813673906E+04  0.00000000000E+00 0. -1.
          1   -1    0    0  501    0 -0.00000000000E+00 -0.00000000000E+00 -0.94066442617E+03  0.94066442617E+03  0.00000000000E+00 0. -1.
         25    2    1    2    0    0 -0.49577487744E+02 -0.36415844929E+02  0.17238665521E+02  0.14038163312E+03  0.12500316107E+03 0.  0.
          2    1    1    2  501    0  0.79446725755E+02  0.29550522445E+01 -0.87701561936E+03  0.88061166876E+03  0.00000000000E+00 0. -1.
          1    1    1    2  502    0 -0.29869238011E+02  0.33460792685E+02  0.18004799182E+04  0.18010385149E+04  0.00000000000E+00 0. -1.
         22    1    3    3    0    0 -0.68275402467E+02 -0.59339615857E+02  0.43908719042E+02  0.10055195771E+03  0.00000000000E+00 0.  1.
         22    1    3    3    0    0  0.18697914723E+02  0.22923770928E+02 -0.26670053521E+02  0.39829675411E+02  0.00000000000E+00 0.  1.
</event>
<event>
 7    1  0.5194496E-006  0.2526119E+03  0.7818608E-02  0.1199941E+00
          2   -1    0    0  502    0  0.00000000000E+00  0.00000000000E+00  0.15222216403E+04  0.15222216403E+04  0.00000000000E+00 0. -1.
          1   -1    0    0  501    0 -0.00000000000E+00 -0.00000000000E+00 -0.14147193260E+04  0.14147193260E+04  0.00000000000E+00 0. -1.
         25    2    1    2    0    0 -0.17691464224E+03  0.28934781885E+03  0.41857815327E+03  0.55304084182E+03  0.12500220564E+03 0.  0.
          2    1    1    2  501    0  0.12086803816E+03 -0.21945944817E+03 -0.13338670628E+04  0.13571930126E+04  0.00000000000E+00 0. -1.
          1    1    1    2  502    0  0.56046604086E+02 -0.69888370680E+02  0.10227912238E+04  0.10267071119E+04  0.00000000000E+00 0. -1.
         22    1    3    3    0    0 -0.85915008209E+02  0.52984253551E+02  0.17277107517E+03  0.20009638721E+03  0.00000000000E+00 0.  1.
         22    1    3    3    0    0 -0.90999634032E+02  0.23636356530E+03  0.24580707809E+03  0.35294445460E+03  0.00000000000E+00 0.  1.
</event>
<event>
 7    1  0.5194496E-006  0.2685484E+03  0.7818608E-02  0.1217104E+00
          2   -1    0    0  502    0  0.00000000000E+00  0.00000000000E+00  0.19728396174E+04  0.19728396174E+04  0.00000000000E+00 0. -1.
          1   -1    0    0  501    0 -0.00000000000E+00 -0.00000000000E+00 -0.11503121995E+03  0.11503121995E+03  0.00000000000E+00 0. -1.
         25    2    1    2    0    0 -0.30394161480E+00  0.22373011963E+03  0.47806515204E+03  0.54242626494E+03  0.12499881793E+03 0.  0.
          2    1    1    2  501    0 -0.29019540765E+02  0.63840425447E+02 -0.50414032271E+02  0.86367287310E+02  0.00000000000E+00 0. -1.
          1    1    1    2  502    0  0.29323482380E+02 -0.28757054508E+03  0.14301572777E+04  0.14590772851E+04  0.00000000000E+00 0. -1.
         22    1    3    3    0    0  0.39703313574E+02  0.13028173965E+02  0.80970064893E+02  0.91116616675E+02  0.00000000000E+00 0.  1.
         22    1    3    3    0    0 -0.40007255188E+02  0.21070194567E+03  0.39709508715E+03  0.45130964826E+03  0.00000000000E+00 0.  1.
</event>
<event>
 7    1  0.5194496E-006  0.9968092E+02  0.7818608E-02  0.1313956E+00
          2   -1    0    0  502    0  0.00000000000E+00  0.00000000000E+00  0.50493143574E+03  0.50493143574E+03  0.00000000000E+00 0. -1.
          1   -1    0    0  501    0 -0.00000000000E+00 -0.00000000000E+00 -0.60895731546E+03  0.60895731546E+03  0.00000000000E+00 0. -1.
         25    2    1    2    0    0 -0.66254189560E+01  0.51227225655E+02  0.86707799493E+02  0.16065849716E+03  0.12499914156E+03 0.  0.
          2    1    1    2  501    0 -0.59789507963E+02 -0.82599047884E+02 -0.56382812186E+03  0.57297429172E+03  0.00000000000E+00 0. -1.
          1    1    1    2  502    0  0.66414926919E+02  0.31371822229E+02  0.37309444264E+03  0.38025596232E+03  0.00000000000E+00 0. -1.
         22    1    3    3    0    0  0.34370948691E+02  0.37449178328E+02  0.10266445850E+03  0.11455912932E+03  0.00000000000E+00 0. -1.
         22    1    3    3    0    0 -0.40996367647E+02  0.13778047328E+02 -0.15956659005E+02  0.46099367838E+02  0.00000000000E+00 0. -1.
</event>
<event>
 7    1  0.5194496E-006  0.2635642E+03  0.7818608E-02  0.1255919E+00
          2   -1    0    0  502    0  0.00000000000E+00  0.00000000000E+00  0.11916538012E+04  0.11916538012E+04  0.00000000000E+00 0. -1.
          1   -1    0    0  501    0 -0.00000000000E+00 -0.00000000000E+00 -0.10040947853E+04  0.10040947853E+04  0.00000000000E+00 0. -1.
         25    2    1    2    0    0  0.25542828505E+03 -0.13935260686E+03 -0.60078434112E+02  0.32233039313E+03  0.12499882499E+03 0.  0.
          2    1    1    2  501    0 -0.45255656370E+02 -0.16183637328E+02 -0.79603897430E+03  0.79748857870E+03  0.00000000000E+00 0. -1.
          1    1    1    2  502    0 -0.21017262868E+03  0.15553624418E+03  0.10436764243E+04  0.10759296147E+04  0.00000000000E+00 0. -1.
         22    1    3    3    0    0  0.22530103876E+03 -0.70395264762E+02 -0.70535238009E+02  0.24635598464E+03  0.00000000000E+00 0.  1.
         22    1    3    3    0    0  0.30127246289E+02 -0.68957342093E+02  0.10456803897E+02  0.75974408489E+02  0.00000000000E+00 0.  1.
</event>
<event>
 7    1  0.5194496E-006  0.1182063E+03  0.7818608E-02  0.1304167E+00
          2   -1    0    0  502    0  0.00000000000E+00  0.00000000000E+00  0.79666082172E+02  0.79666082172E+02  0.00000000000E+00 0. -1.
          1   -1    0    0  501    0 -0.00000000000E+00 -0.00000000000E+00 -0.80364341853E+03  0.80364341853E+03  0.00000000000E+00 0. -1.
         25    2    1    2    0    0 -0.85259375413E+02 -0.13930811710E+03 -0.37778301035E+03  0.43014038982E+03  0.12499935786E+03 0.  0.
          2    1    1    2  501    0  0.78452967192E+02  0.71948446703E+02 -0.36717162286E+03  0.38229105100E+03  0.00000000000E+00 0. -1.
          1    1    1    2  502    0  0.68064082212E+01  0.67359670397E+02  0.20977296846E+02  0.70878059876E+02  0.00000000000E+00 0. -1.
         22    1    3    3    0    0 -0.78300214241E+02 -0.15800457070E+03 -0.28427129859E+03  0.33452434756E+03  0.00000000000E+00 0. -1.
         22    1    3    3    0    0 -0.69591611719E+01  0.18696453600E+02 -0.93511711760E+02  0.95616042262E+02  0.00000000000E+00 0. -1.
</event>
<event>
 7    1  0.5194496E-006  0.4288167E+02  0.7818608E-02  0.1499590E+00
          2   -1    0    0  502    0  0.00000000000E+00  0.00000000000E+00  0.30900171656E+04  0.30900171656E+04  0.00000000000E+00 0. -1.
          1   -1    0    0  501    0 -0.00000000000E+00 -0.00000000000E+00 -0.10760390965E+03  0.10760390965E+03  0.00000000000E+00 0. -1.
         25    2    1    2    0    0  0.35520421971E+02 -0.59257348544E+01  0.29208827519E+03  0.31974662625E+03  0.12500211912E+03 0.  0.
          2    1    1    2  501    0 -0.15852152979E+02  0.40269069806E+02 -0.88633267453E+02  0.98634399864E+02  0.00000000000E+00 0. -1.
          1    1    1    2  502    0 -0.19668268992E+02 -0.34343334951E+02  0.27789582482E+04  0.27792400492E+04  0.00000000000E+00 0. -1.
         22    1    3    3    0    0 -0.45360050694E+02  0.10487110846E+02  0.12498653617E+03  0.13337596454E+03  0.00000000000E+00 0.  1.
         22    1    3    3    0    0  0.80880472666E+02 -0.16412845700E+02  0.16710173902E+03  0.18637066171E+03  0.00000000000E+00 0.  1.
</event>
<event>
 7    1  0.5194496E-006  0.6219709E+02  0.7818608E-02  0.1488356E+00
          2   -1    0    0  502    0  0.00000000000E+00  0.00000000000E+00  0.14660651121E+03  0.14660651121E+03  0.00000000000E+00 0. -1.
          1   -1    0    0  501    0 -0.00000000000E+00 -0.00000000000E+00 -0.14214840951E+03  0.14214840951E+03  0.00000000000E+00 0. -1.
         25    2    1    2    0    0 -0.39674256678E+02  0.45568391968E+02  0.19322951679E+01  0.13884975480E+03  0.12499998262E+03 0.  0.
          2    1    1    2  501    0  0.24557692841E+02  0.16335523230E+02 -0.56058789438E+02  0.63344435195E+02  0.00000000000E+00 0. -1.
          1    1    1    2  502    0  0.15116563837E+02 -0.61903915198E+02  0.58584595963E+02  0.86560730722E+02  0.00000000000E+00 0. -1.
         22    1    3    3    0    0  0.18162824938E+02  0.66770228181E+02 -0.22230301853E+02  0.72679693873E+02  0.00000000000E+00 0. -1.
         22    1    3    3    0    0 -0.57837081616E+02 -0.21201836213E+02  0.24162597021E+02  0.66170060930E+02  0.00000000000E+00 0. -1.
</event>
<event>
 7    1  0.5194496E-006  0.1166397E+03  0.7818608E-02  0.1322085E+00
          2   -1    0    0  502    0  0.00000000000E+00  0.00000000000E+00  0.10967567078E+04  0.10967567078E+04  0.00000000000E+00 0. -1.
          1   -1    0    0  501    0 -0.00000000000E+00 -0.00000000000E+00 -0.67271237596E+03  0.67271237596E+03  0.00000000000E+00 0. -1.
         25    2    1    2    0    0 -0.15840793987E+03 -0.46402953217E+02  0.24898637062E+03  0.32382988910E+03  0.12500109936E+03 0.  0.
          2    1    1    2  501    0  0.58260317934E+02 -0.34425962509E+01 -0.63007487184E+03  0.63277204446E+03  0.00000000000E+00 0. -1.
          1    1    1    2  502    0  0.10014762194E+03  0.49845549468E+02  0.80513283306E+03  0.81286715019E+03  0.00000000000E+00 0. -1.
         22    1    3    3    0    0 -0.15260075290E+03 -0.53364277389E+01  0.23462970870E+03  0.27994029265E+03  0.00000000000E+00 0. -1.
         22    1    3    3    0    0 -0.58071869742E+01 -0.41066525478E+02  0.14356661921E+02  0.43889596454E+02  0.00000000000E+00 0. -1.
</event>
<event>
 7    1  0.5194496E-006  0.1707044E+03  0.7818608E-02  0.1339549E+00
          2   -1    0    0  502    0  0.00000000000E+00  0.00000000000E+00  0.10815668321E+04  0.10815668321E+04  0.00000000000E+00 0. -1.
          1   -1    0    0  501    0 -0.00000000000E+00 -0.00000000000E+00 -0.11516363087E+04  0.11516363087E+04  0.00000000000E+00 0. -1.
         25    2    1    2    0    0  0.17854983193E+03 -0.21975785711E+02 -0.63630873496E+03  0.67296122271E+03  0.12500009378E+03 0.  0.
          2    1    1    2  501    0 -0.16475263827E+03 -0.93236167367E+01 -0.48301761802E+03  0.51042764518E+03  0.00000000000E+00 0. -1.
          1    1    1    2  502    0 -0.13797193658E+02  0.31299402447E+02  0.10492568763E+04  0.10498142729E+04  0.00000000000E+00 0. -1.
         22    1    3    3    0    0 -0.41759960358E+01 -0.15157504703E+02 -0.62729570656E+01  0.16927459410E+02  0.00000000000E+00 0.  1.
         22    1    3    3    0    0  0.18272582796E+03 -0.68182810072E+01 -0.63003577790E+03  0.65603376330E+03  0.00000000000E+00 0.  1.
</event>
<event>
 7    1  0.5194496E-006  0.5692294E+02  0.7818608E-02  0.1426316E+00
          2   -1    0    0  502    0  0.00000000000E+00  0.00000000000E+00  0.95368399039E+03  0.95368399039E+03  0.00000000000E+00 0. -1.
          1   -1    0    0  501    0 -0.00000000000E+00 -0.00000000000E+00 -0.13486369245E+03  0.13486369245E+03  0.00000000000E+00 0. -1.
         25    2    1    2    0    0  0.15884517324E+02 -0.10281880838E+03  0.35889764179E+03  0.39402594829E+03  0.12499962159E+03 0.  0.
          2    1    1    2  501    0 -0.10926867308E+02  0.49479980783E+02 -0.11051302978E+03  0.12157629160E+03  0.00000000000E+00 0. -1.
          1    1    1    2  502    0 -0.49576500159E+01  0.53338827593E+02  0.57043568593E+03  0.57294544296E+03  0.00000000000E+00 0. -1.
         22    1    3    3    0    0 -0.13267747501E+02 -0.53578965728E+02  0.32025664597E+03  0.32497855003E+03  0.00000000000E+00 0.  1.
         22    1    3    3    0    0  0.29152264825E+02 -0.49239842648E+02  0.38640995815E+02  0.69047398257E+02  0.00000000000E+00 0.  1.
</event>
<event>
 7    1  0.5194496E-006  0.6145384E+02  0.7818608E-02  0.1470070E+00
          2   -1    0    0  502    0  0.00000000000E+00  0.00000000000E+00  0.74599253696E+03  0.74599253696E+03  0.00000000000E+00 0. -1.
          1   -1    0    0  501    0 -0.00000000000E+00 -0.00000000000E+00 -0.93201475071E+02  0.93201475071E+02  0.00000000000E+00 0. -1.
         25    2    1    2    0    0 -0.78408053577E+02 -0.41743456794E+02  0.11392360317E+03  0.19103588187E+03  0.12500312697E+03 0.  0.
          2    1    1    2  501    0  0.44613160824E+02  0.38276933801E+02 -0.38191349418E+02  0.70100192227E+02  0.00000000000E+00 0. -1.
          1    1    1    2  502    0  0.33794892753E+02  0.34665229927E+01  0.57705880814E+03  0.57805793793E+03  0.00000000000E+00 0. -1.
         22    1    3    3    0    0 -0.91382242969E+02 -0.69977205383E+02  0.11087457349E+03  0.15981456333E+03  0.00000000000E+00 0.  1.
         22    1    3    3    0    0  0.12974189392E+02  0.28233748589E+02  0.30490296754E+01  0.31221318546E+02  0.00000000000E+00 0.  1.
</event>
<event>
 7    1  0.5194496E-006  0.4186016E+02  0.7818608E-02  0.1532015E+00
          2   -1    0    0  502    0  0.00000000000E+00  0.00000000000E+00  0.41995277599E+03  0.41995277599E+03  0.00000000000E+00 0. -1.
          1   -1    0    0  501    0 -0.00000000000E+00 -0.00000000000E+00 -0.15560775235E+04  0.15560775235E+04  0.00000000000E+00 0. -1.
         25    2    1    2    0    0 -0.28281998761E+00 -0.10839371094E+02 -0.68434764071E+02  0.14291917003E+03  0.12500000110E+03 0.  0.
          2    1    1    2  501    0  0.16390400057E+02 -0.28178779078E+02 -0.14490526996E+04  0.14494193372E+04  0.00000000000E+00 0. -1.
          1    1    1    2  502    0 -0.16107580069E+02  0.39018150173E+02  0.38136271616E+03  0.38369179227E+03  0.00000000000E+00 0. -1.
         22    1    3    3    0    0  0.85965273964E+01 -0.69094606247E+01  0.36195888814E+02  0.37838912464E+02  0.00000000000E+00 0. -1.
         22    1    3    3    0    0 -0.88793473840E+01 -0.39299104696E+01 -0.10463065288E+03  0.10508025756E+03  0.00000000000E+00 0. -1.
</event>
<event>
 7    1  0.5194496E-006  0.1893174E+03  0.7818608E-02  0.1240535E+00
          2   -1    0    0  502    0  0.00000000000E+00  0.00000000000E+00  0.34535665102E+03  0.34535665102E+03  0.00000000000E+00 0. -1.
          1   -1    0    0  501    0 -0.00000000000E+00 -0.00000000000E+00 -0.74889510763E+03  0.74889510763E+03  0.00000000000E+00 0. -1.
         25    2    1    2    0    0  0.93680578865E+02 -0.12154910599E+03 -0.18169931635E+03  0.26868142013E+03  0.12499931175E+03 0.  0.
          2    1    1    2  501    0 -0.40277447392E+02 -0.66867640082E+02 -0.48851342380E+03  0.49471094519E+03  0.00000000000E+00 0. -1.
          1    1    1    2  502    0 -0.53403131473E+02  0.18841674607E+03  0.26667428354E+03  0.33085939333E+03  0.00000000000E+00 0. -1.
         22    1    3    3    0    0  0.17966892749E+02 -0.11682475318E+03 -0.13571935223E+03  0.17997381688E+03  0.00000000000E+00 0.  1.
         22    1    3    3    0    0  0.75713686116E+02 -0.47243528083E+01 -0.45979964115E+02  0.88707603252E+02  0.00000000000E+00 0.  1.
</event>
<event>
 7    1  0.5194496E-006  0.9778464E+02  0.7818608E-02  0.1302104E+00
          2   -1    0    0  502    0  0.00000000000E+00  0.00000000000E+00  0.67302548620E+02  0.67302548620E+02  0.00000000000E+00 0. -1.
          1   -1    0    0  501    0 -0.00000000000E+00 -0.00000000000E+00 -0.23903608530E+04  0.23903608530E+04  0.00000000000E+00 0. -1.
         25    2    1    2    0    0  0.70539682843E+02 -0.10844792473E+03 -0.15472763267E+04  0.15577000607E+04  0.12501459327E+03 0.  0.
          2    1    1    2  501    0  0.10924292736E+02  0.90555492512E+02 -0.80608066407E+03  0.81122479892E+03  0.00000000000E+00 0. -1.
          1    1    1    2  502    0 -0.81463975578E+02  0.17892432214E+02  0.30298686397E+02  0.88738542049E+02  0.00000000000E+00 0. -1.
         22    1    3    3    0    0  0.62060217067E+02 -0.21534059512E+02 -0.28787605238E+03  0.29527581648E+03  0.00000000000E+00 0.  1.
         22    1    3    3    0    0  0.84794657759E+01 -0.86913865215E+02 -0.12594002744E+04  0.12624242442E+04  0.00000000000E+00 0.  1.
</event>
<event>
 7    1  0.1108565E-005  0.8074449E+02  0.7818608E-02  0.1353023E+00
          2   -1    0    0  502    0  0.00000000000E+00  0.00000000000E+00  0.16817627545E+04  0.16817627545E+04  0.00000000000E+00 0. -1.
          1   -1    0    0  501    0 -0.00000000000E+00 -0.00000000000E+00 -0.11258158351E+04  0.11258158351E+04  0.00000000000E+00 0. -1.
         25    2    1    2    0    0 -0.11437739669E+02  0.28938478581E+02 -0.12737154522E+03  0.18114812928E+03  0.12499150683E+03 0.  0.
          2    1    1    2  501    0 -0.64419697311E+02 -0.16826643783E+00 -0.96949205818E+03  0.97162995868E+03  0.00000000000E+00 0. -1.
          1    1    1    2  502    0  0.75857436980E+02 -0.28770212143E+02  0.16528105228E+04  0.16548005017E+04  0.00000000000E+00 0. -1.
         22    1    3    3    0    0  0.42483307697E+02  0.35830207668E+02 -0.17002012236E+02  0.58118014716E+02  0.00000000000E+00 0.  1.
         22    1    3    3    0    0 -0.53921047366E+02 -0.68917290868E+01 -0.11036953299E+03  0.12303011457E+03  0.00000000000E+00 0.  1.
</event>
<event>
 7    1  0.5194496E-006  0.8840949E+02  0.7818608E-02  0.1336576E+00
          2   -1    0    0  502    0  0.00000000000E+00  0.00000000000E+00  0.36142585477E+03  0.36142585477E+03  0.00000000000E+00 0. -1.
          1   -1    0    0  501    0 -0.00000000000E+00 -0.00000000000E+00 -0.39771737670E+03  0.39771737670E+03  0.00000000000E+00 0. -1.
         25    2    1    2    0    0  0.10005648222E+03 -0.10159079336E+03 -0.19430168906E+03  0.27149571051E+03  0.12499914208E+03 0.  0.
          2    1    1    2  501    0 -0.59488070011E+02  0.47300188224E+02 -0.15219983764E+03  0.17012033640E+03  0.00000000000E+00 0. -1.
          1    1    1    2  502    0 -0.40568412205E+02  0.54290605138E+02  0.31021000477E+03  0.31752718456E+03  0.00000000000E+00 0. -1.
         22    1    3    3    0    0  0.25792443761E+02  0.26700339415E+02 -0.64699603455E+02  0.74593545078E+02  0.00000000000E+00 0. -1.
         22    1    3    3    0    0  0.74264038455E+02 -0.12829113278E+03 -0.12960208561E+03  0.19690216543E+03  0.00000000000E+00 0. -1.
</event>
<event>
 7    1  0.5194496E-006  0.8373834E+02  0.7818608E-02  0.1374905E+00
          2   -1    0    0  502    0  0.00000000000E+00  0.00000000000E+00  0.28104474081E+03  0.28104474081E+03  0.00000000000E+00 0. -1.
          1   -1    0    0  501    0 -0.00000000000E+00 -0.00000000000E+00 -0.77853022330E+03  0.77853022330E+03  0.00000000000E+00 0. -1.
         25    2    1    2    0    0  0.61929609134E+02 -0.87166979583E+02 -0.18333410457E+03  0.24631220744E+03  0.12499980328E+03 0.  0.
          2    1    1    2  501    0 -0.10456479799E+02  0.81924625308E+02 -0.55795257320E+03  0.56403196376E+03  0.00000000000E+00 0. -1.
          1    1    1    2  502    0 -0.51473129335E+02  0.52423542751E+01  0.24380119527E+03  0.24923079291E+03  0.00000000000E+00 0. -1.
         22    1    3    3    0    0  0.91851435769E+02 -0.68848775028E+02 -0.17653744083E+03  0.21057613372E+03  0.00000000000E+00 0.  1.
         22    1    3    3    0    0 -0.29921826635E+02 -0.18318204555E+02 -0.67966637347E+01  0.35736073724E+02  0.00000000000E+00 0.  1.
</event>
<event>
 7    1  0.5194496E-006  0.8300032E+02  0.7818608E-02  0.1350472E+00
          2   -1    0    0  502    0  0.00000000000E+00  0.00000000000E+00  0.88164162881E+02  0.88164162881E+02  0.00000000000E+00 0. -1.
          1   -1    0    0  501    0 -0.00000000000E+00 -0.00000000000E+00 -0.33255540580E+04  0.33255540580E+04  0.00000000000E+00 0. -1.
         25    2    1    2    0    0 -0.97582606442E+02 -0.20334896066E+02 -0.58061258099E+03  0.60222210353E+03  0.12499847879E+03 0.  0.
          2    1    1    2  501    0  0.45783537774E+02 -0.44782688047E+02 -0.27112743821E+04  0.27120306776E+04  0.00000000000E+00 0. -1.
          1    1    1    2  502    0  0.51799068668E+02  0.65117584113E+02  0.54497067976E+02  0.99465439694E+02  0.00000000000E+00 0. -1.
         22    1    3    3    0    0  0.18206938437E+02 -0.38513840449E+02 -0.16265832511E+03  0.16814439996E+03  0.00000000000E+00 0. -1.
         22    1    3    3    0    0 -0.11578954488E+03  0.18178944383E+02 -0.41795425589E+03  0.43407770357E+03  0.00000000000E+00 0. -1.
</event>
<event>
 7    1  0.5194496E-006  0.1051683E+03  0.7818608E-02  0.1361797E+00
          2   -1    0    0  502    0  0.00000000000E+00  0.00000000000E+00  0.13563695842E+03  0.13563695842E+03  0.00000000000E+00 0. -1.
          1   -1    0    0  501    0 -0.00000000000E+00 -0.00000000000E+00 -0.27648659573E+04  0.27648659573E+04  0.00000000000E+00 0. -1.
         25    2    1    2    0    0 -0.33708267641E+00 -0.61099680848E+02 -0.10693903174E+03  0.17548333219E+03  0.12500063497E+03 0.  0.
          2    1    1    2  501    0  0.91667080684E+01  0.10617369926E+03 -0.26173111166E+04  0.26194797888E+04  0.00000000000E+00 0. -1.
          1    1    1    2  502    0 -0.88296253920E+01 -0.45074018413E+02  0.95021149468E+02  0.10553979471E+03  0.00000000000E+00 0. -1.
         22    1    3    3    0    0  0.24315909107E+02 -0.62035203637E+02 -0.92542683677E+00  0.66636974277E+02  0.00000000000E+00 0. -1.
         22    1    3    3    0    0 -0.24652991783E+02  0.93552278867E+00 -0.10601360491E+03  0.10884635792E+03  0.00000000000E+00 0. -1.
</event>
<event>
 7    1  0.5194496E-006  0.5119113E+02  0.7818608E-02  0.1474376E+00
          2   -1    0    0  502    0  0.00000000000E+00  0.00000000000E+00  0.49001466153E+02  0.49001466153E+02  0.00000000000E+00 0. -1.
          1   -1    0    0  501    0 -0.00000000000E+00 -0.00000000000E+00 -0.17513722304E+04  0.17513722304E+04  0.00000000000E+00 0. -1.
         25    2    1    2    0    0  0.22834721383E+02 -0.86725240567E+02 -0.73279124201E+03  0.74876661920E+03  0.12500301521E+03 0.  0.
          2    1    1    2  501    0 -0.13252731837E+02  0.37261429617E+02 -0.99457725675E+03  0.99536323455E+03  0.00000000000E+00 0. -1.
          1    1    1    2  502    0 -0.95819895462E+01  0.49463810950E+02  0.24997734547E+02  0.56243842772E+02  0.00000000000E+00 0. -1.
         22    1    3    3    0    0  0.26610014362E+02 -0.30107334478E+02 -0.52495164202E+02  0.66108144115E+02  0.00000000000E+00 0.  1.
         22    1    3    3    0    0 -0.37752929791E+01 -0.56617906089E+02 -0.68029607781E+03  0.68265847508E+03  0.00000000000E+00 0.  1.
</event>
<event>
 7    1  0.5194496E-006  0.1580976E+03  0.7818608E-02  0.1309557E+00
          2   -1    0    0  502    0  0.00000000000E+00  0.00000000000E+00  0.18781012675E+04  0.18781012675E+04  0.00000000000E+00 0. -1.
          1   -1    0    0  501    0 -0.00000000000E+00 -0.00000000000E+00 -0.49962938640E+03  0.49962938640E+03  0.00000000000E+00 0. -1.
         25    2    1    2    0    0  0.20203963822E+03 -0.22364262063E+02  0.59933986464E+02  0.24606866584E+03  0.12505010973E+03 0.  0.
          2    1    1    2  501    0 -0.47979097018E+02 -0.45285794243E+01 -0.40157396441E+03  0.40445537538E+03  0.00000000000E+00 0. -1.
          1    1    1    2  502    0 -0.15406054121E+03  0.26892841487E+02  0.17201118590E+04  0.17272066126E+04  0.00000000000E+00 0. -1.
         22    1    3    3    0    0  0.38328951243E+02  0.23294772989E+02 -0.29825463062E+02  0.53863839437E+02  0.00000000000E+00 0.  1.
         22    1    3    3    0    0  0.16371068698E+03 -0.45659035052E+02  0.89759449526E+02  0.19220482640E+03  0.00000000000E+00 0.  1.
</event>
<event>
 7    1  0.5194496E-006  0.1135807E+03  0.7818608E-02  0.1345528E+00
          2   -1    0    0  502    0  0.00000000000E+00  0.00000000000E+00  0.17436591797E+04  0.17436591797E+04  0.00000000000E+00 0. -1.
          1   -1    0    0  501    0 -0.00000000000E+00 -0.00000000000E+00 -0.19381502258E+04  0.19381502258E+04  0.00000000000E+00 0. -1.
         25    2    1    2    0    0 -0.65197465849E+02 -0.12781572999E+03  0.39280795093E+01  0.19033964951E+03  0.12500472784E+03 0.  0.
          2    1    1    2  501    0  0.19172732126E+02  0.11152340388E+03 -0.18428466311E+04  0.18463176241E+04  0.00000000000E+00 0. -1.
          1    1    1    2  502    0  0.46024733722E+02  0.16292326107E+02  0.16444275056E+04  0.16451521319E+04  0.00000000000E+00 0. -1.
         22    1    3    3    0    0 -0.61607617284E+02 -0.18032225681E+02  0.38906668027E+02  0.75062563821E+02  0.00000000000E+00 0. -1.
         22    1    3    3    0    0 -0.35898485649E+01 -0.10978350430E+03 -0.34978588518E+02  0.11527708569E+03  0.00000000000E+00 0. -1.
</event>
<event>
 7    1  0.5194496E-006  0.5869050E+02  0.7818608E-02  0.1476522E+00
          2   -1    0    0  502    0  0.00000000000E+00  0.00000000000E+00  0.66775991321E+02  0.66775991321E+02  0.00000000000E+00 0. -1.
          1   -1    0    0  501    0 -0.00000000000E+00 -0.00000000000E+00 -0.11445852919E+04  0.11445852919E+04  0.00000000000E+00 0. -1.
         25    2    1    2    0    0  0.25938859070E+02  0.43502850180E+02 -0.79196948216E+03  0.80337156728E+03  0.12499956822E+03 0.  0.
          2    1    1    2  501    0  0.27903810511E+02 -0.19377840654E+02 -0.33159241813E+03  0.33332814929E+03  0.00000000000E+00 0. -1.
          1    1    1    2  502    0 -0.53842669581E+02 -0.24125009527E+02  0.45752599719E+02  0.74661566641E+02  0.00000000000E+00 0. -1.
         22    1    3    3    0    0  0.24594326050E+02 -0.16706599828E+02 -0.62780884768E+03  0.62851248244E+03  0.00000000000E+00 0.  1.
         22    1    3    3    0    0  0.13445330204E+01  0.60209450008E+02 -0.16416063448E+03  0.17485908484E+03  0.00000000000E+00 0.  1.
</event>
<event>
 7    1  0.5194496E-006  0.3590435E+02  0.7818608E-02  0.1588098E+00
          2   -1    0    0  502    0  0.00000000000E+00  0.00000000000E+00  0.74921349391E+03  0.74921349391E+03  0.00000000000E+00 0. -1.
          1   -1    0    0  501    0 -0.00000000000E+00 -0.00000000000E+00 -0.27178740605E+02  0.27178740605E+02  0.00000000000E+00 0. -1.
         25    2    1    2    0    0 -0.50664819762E+02  0.17804378575E+02  0.30343988970E+03  0.33254329695E+03  0.12500143131E+03 0.  0.
          2    1    1    2  501    0  0.25683016244E+02  0.70527325845E+01  0.30448824167E+01  0.26807268962E+02  0.00000000000E+00 0. -1.
          1    1    1    2  502    0  0.24981803518E+02 -0.24857111160E+02  0.41554998119E+03  0.41704166860E+03  0.00000000000E+00 0. -1.
         22    1    3    3    0    0 -0.86675731111E+02  0.95965042453E+01  0.26609013617E+03  0.28001559925E+03  0.00000000000E+00 0.  1.
         22    1    3    3    0    0  0.36010911349E+02  0.82078743300E+01  0.37349753528E+02  0.52527697701E+02  0.00000000000E+00 0.  1.
</event>
<event>
 7    1  0.5194496E-006  0.2745383E+03  0.7818608E-02  0.1203740E+00
          2   -1    0    0  502    0  0.00000000000E+00  0.00000000000E+00  0.23062048544E+04  0.23062048544E+04  0.00000000000E+00 0. -1.
          1   -1    0    0  501    0 -0.00000000000E+00 -0.00000000000E+00 -0.10930490458E+03  0.10930490458E+03  0.00000000000E+00 0. -1.
         25    2    1    2    0    0 -0.29184565818E+03  0.11653275547E+03  0.11709303217E+04  0.12187930459E+04  0.12499959641E+03 0.  0.
          2    1    1    2  501    0  0.22123367058E+03 -0.15220041869E+03  0.13194145070E+03  0.29919533897E+03  0.00000000000E+00 0. -1.
          1    1    1    2  502    0  0.70611987602E+02  0.35667663216E+02  0.89402817739E+03  0.89752137410E+03  0.00000000000E+00 0. -1.
         22    1    3    3    0    0 -0.97442921021E+02  0.97444011209E+02  0.38391404712E+03  0.40789760205E+03  0.00000000000E+00 0.  1.
         22    1    3    3    0    0 -0.19440273716E+03  0.19088744265E+02  0.78701627461E+03  0.81089544386E+03  0.00000000000E+00 0.  1.
</event>
<event>
 7    1  0.5194496E-006  0.1133757E+03  0.7818608E-02  0.1330396E+00
          2   -1    0    0  502    0  0.00000000000E+00  0.00000000000E+00  0.12246218318E+04  0.12246218318E+04  0.00000000000E+00 0. -1.
          1   -1    0    0  501    0 -0.00000000000E+00 -0.00000000000E+00 -0.35163174018E+03  0.35163174018E+03  0.00000000000E+00 0. -1.
         25    2    1    2    0    0  0.14228133430E+03 -0.64175802871E+02  0.11746087932E+03  0.23191726403E+03  0.12500418961E+03 0.  0.
          2    1    1    2  501    0 -0.86739826056E+02  0.69388391094E+02 -0.28315076663E+03  0.30415933799E+03  0.00000000000E+00 0. -1.
          1    1    1    2  502    0 -0.55541508244E+02 -0.52125882231E+01  0.10386799789E+04  0.10401769699E+04  0.00000000000E+00 0. -1.
         22    1    3    3    0    0  0.25311730567E+02 -0.22771297437E+02  0.10120115218E+03  0.10677494507E+03  0.00000000000E+00 0. -1.
         22    1    3    3    0    0  0.11696960373E+03 -0.41404505433E+02  0.16259727136E+02  0.12514231896E+03  0.00000000000E+00 0. -1.
</event>
<event>
 7    1  0.5194496E-006  0.8023590E+02  0.7818608E-02  0.1409434E+00
          2   -1    0    0  502    0  0.00000000000E+00  0.00000000000E+00  0.29238046148E+03  0.29238046148E+03  0.00000000000E+00 0. -1.
          1   -1    0    0  501    0 -0.00000000000E+00 -0.00000000000E+00 -0.17711405011E+04  0.17711405011E+04  0.00000000000E+00 0. -1.
         25    2    1    2    0    0  0.49847007168E+02  0.99398630148E+02 -0.41411470096E+03  0.44663254462E+03  0.12499933025E+03 0.  0.
          2    1    1    2  501    0 -0.15766954436E+02 -0.76695970081E+02 -0.13380978664E+04  0.13403867982E+04  0.00000000000E+00 0. -1.
          1    1    1    2  502    0 -0.34080052732E+02 -0.22702660067E+02  0.27345252778E+03  0.27650161974E+03  0.00000000000E+00 0. -1.
         22    1    3    3    0    0 -0.59143132676E+01  0.38501258026E+02 -0.31602373245E+03  0.31841533481E+03  0.00000000000E+00 0. -1.
         22    1    3    3    0    0  0.55761320436E+02  0.60897372122E+02 -0.98090968508E+02  0.12821720981E+03  0.00000000000E+00 0. -1.
</event>
<event>
 7    1  0.5194496E-006  0.6582413E+02  0.7818608E-02  0.1513615E+00
          2   -1    0    0  502    0  0.00000000000E+00  0.00000000000E+00  0.12480290168E+04  0.12480290168E+04  0.00000000000E+00 0. -1.
          1   -1    0    0  501    0 -0.00000000000E+00 -0.00000000000E+00 -0.13736050326E+03  0.13736050326E+03  0.00000000000E+00 0. -1.
         25    2    1    2    0    0  0.47158688586E+02 -0.16899570651E+02  0.87272137818E+03  0.88305026968E+03  0.12500254976E+03 0.  0.
          2    1    1    2  501    0 -0.52748370652E+02  0.39657259223E+02 -0.12355693824E+03  0.14007642843E+03  0.00000000000E+00 0. -1.
          1    1    1    2  502    0  0.55896820659E+01 -0.22757688572E+02  0.36150407365E+03  0.36226282199E+03  0.00000000000E+00 0. -1.
         22    1    3    3    0    0 -0.42076540167E+02  0.22044863941E+01  0.33513959366E+03  0.33777780008E+03  0.00000000000E+00 0. -1.
         22    1    3    3    0    0  0.89235228753E+02 -0.19104057046E+02  0.53758178452E+03  0.54527246959E+03  0.00000000000E+00 0. -1.
</event>
<event>
 7    1  0.5194496E-006  0.1275991E+03  0.7818608E-02  0.1290485E+00
          2   -1    0    0  502    0  0.00000000000E+00  0.00000000000E+00  0.27991809492E+03  0.27991809492E+03  0.00000000000E+00 0. -1.
          1   -1    0    0  501    0 -0.00000000000E+00 -0.00000000000E+00 -0.32520866639E+03  0.32520866639E+03  0.00000000000E+00 0. -1.
         25    2    1    2    0    0 -0.50932496243E+02 -0.51370255909E+02 -0.59368879276E+02  0.15614784991E+03  0.12499785934E+03 0.  0.
          2    1    1    2  501    0 -0.68283849868E+02 -0.20125348668E+02 -0.18952072820E+03  0.20244954983E+03  0.00000000000E+00 0. -1.
          1    1    1    2  502    0  0.11921634611E+03  0.71495604577E+02  0.20359903600E+03  0.24652936156E+03  0.00000000000E+00 0. -1.
         22    1    3    3    0    0 -0.15959554676E+02  0.17921987412E+02 -0.73443025727E+02  0.77264371130E+02  0.00000000000E+00 0.  1.
         22    1    3    3    0    0 -0.34972941567E+02 -0.69292243321E+02  0.14074146451E+02  0.78883478781E+02  0.00000000000E+00 0.  1.
</event>
<event>
 7    1  0.5194496E-006  0.8938938E+02  0.7818608E-02  0.1401927E+00
          2   -1    0    0  502    0  0.00000000000E+00  0.00000000000E+00  0.70350774084E+03  0.70350774084E+03  0.00000000000E+00 0. -1.
          1   -1    0    0  501    0 -0.00000000000E+00 -0.00000000000E+00 -0.16696320230E+03  0.16696320230E+03  0.00000000000E+00 0. -1.
         25    2    1    2    0    0 -0.66034900085E+02  0.40923501890E+01  0.10637042488E+03  0.17696406784E+03  0.12499703460E+03 0.  0.
          2    1    1    2  501    0 -0.21925924004E+02 -0.32238371947E+02 -0.12487861777E+03  0.13082326990E+03  0.00000000000E+00 0. -1.
          1    1    1    2  502    0  0.87960824090E+02  0.28146021758E+02  0.55505273143E+03  0.56268360540E+03  0.00000000000E+00 0. -1.
         22    1    3    3    0    0  0.13108274457E+02  0.68823850621E+01  0.95954174484E+02  0.97089637368E+02  0.00000000000E+00 0. -1.
         22    1    3    3    0    0 -0.79143174542E+02 -0.27900348731E+01  0.10416250398E+02  0.79874430474E+02  0.00000000000E+00 0. -1.
</event>
<event>
 7    1  0.5194496E-006  0.1344223E+03  0.7818608E-02  0.1345225E+00
          2   -1    0    0  502    0  0.00000000000E+00  0.00000000000E+00  0.20810613655E+04  0.20810613655E+04  0.00000000000E+00 0. -1.
          1   -1    0    0  501    0 -0.00000000000E+00 -0.00000000000E+00 -0.90465668462E+03  0.90465668462E+03  0.00000000000E+00 0. -1.
         25    2    1    2    0    0 -0.15323826289E+03 -0.32963768596E+02  0.60186150951E+03  0.63437517851E+03  0.12500406084E+03 0.  0.
          2    1    1    2  501    0  0.22262513032E+02  0.34858717467E+02 -0.88498372992E+03  0.88594974569E+03  0.00000000000E+00 0. -1.
          1    1    1    2  502    0  0.13097574985E+03 -0.18949488714E+01  0.14595269013E+04  0.14653931259E+04  0.00000000000E+00 0. -1.
         22    1    3    3    0    0 -0.16541879071E+03 -0.50631266171E+00  0.48164543647E+03  0.50926020770E+03  0.00000000000E+00 0. -1.
         22    1    3    3    0    0  0.12180527827E+02 -0.32457455934E+02  0.12021607304E+03  0.12511497081E+03  0.00000000000E+00 0. -1.
</event>
<event>
 7    1  0.5194496E-006  0.6551092E+02  0.7818608E-02  0.1476639E+00
          2   -1    0    0  502    0  0.00000000000E+00  0.00000000000E+00  0.37002540277E+03  0.37002540277E+03  0.00000000000E+00 0. -1.
          1   -1    0    0  501    0 -0.00000000000E+00 -0.00000000000E+00 -0.11413189349E+04  0.11413189349E+04  0.00000000000E+00 0. -1.
         25    2    1    2    0    0  0.19692216000E+02  0.93183634300E+02 -0.13566249578E+03  0.20761208695E+03  0.12500997086E+03 0.  0.
          2    1    1    2  501    0 -0.85656028612E+01 -0.29179032941E+02 -0.96628167913E+03  0.96676008861E+03  0.00000000000E+00 0. -1.
          1    1    1    2  502    0 -0.11126613139E+02 -0.64004601359E+02  0.33065064274E+03  0.33697216215E+03  0.00000000000E+00 0. -1.
         22    1    3    3    0    0 -0.46243548955E+02  0.75840508748E+02 -0.81257839383E+02  0.12038722959E+03  0.00000000000E+00 0. -1.
         22    1    3    3    0    0  0.65935764955E+02  0.17343125552E+02 -0.54404656399E+02  0.87224857363E+02  0.00000000000E+00 0. -1.
</event>
<event>
 7    1  0.5194496E-006  0.1656355E+03  0.7818608E-02  0.1327364E+00
          2   -1    0    0  502    0  0.00000000000E+00  0.00000000000E+00  0.19939920184E+03  0.19939920184E+03  0.00000000000E+00 0. -1.
          1   -1    0    0  501    0 -0.00000000000E+00 -0.00000000000E+00 -0.32573036488E+03  0.32573036488E+03  0.00000000000E+00 0. -1.
         25    2    1    2    0    0  0.11977232952E+03 -0.74718622601E+02 -0.41970280536E+02  0.19317435795E+03  0.12500617840E+03 0.  0.
          2    1    1    2  501    0  0.37160348612E+02 -0.12537848634E+02 -0.13887224834E+03  0.14430381325E+03  0.00000000000E+00 0. -1.
          1    1    1    2  502    0 -0.15693267813E+03  0.87256471234E+02  0.54511365839E+02  0.18765139553E+03  0.00000000000E+00 0. -1.
         22    1    3    3    0    0  0.91195867967E+02 -0.33255233430E+02 -0.83390611944E+02  0.12797105550E+03  0.00000000000E+00 0.  1.
         22    1    3    3    0    0  0.28576461552E+02 -0.41463389170E+02  0.41420331407E+02  0.65203302449E+02  0.00000000000E+00 0.  1.
</event>
<event>
 7    1  0.5194496E-006  0.4274780E+02  0.7818608E-02  0.1550733E+00
          2   -1    0    0  502    0  0.00000000000E+00  0.00000000000E+00  0.54289575652E+03  0.54289575652E+03  0.00000000000E+00 0. -1.
          1   -1    0    0  501    0 -0.00000000000E+00 -0.00000000000E+00 -0.10317204066E+04  0.10317204066E+04  0.00000000000E+00 0. -1.
         25    2    1    2    0    0 -0.60738550085E+01  0.20184019630E+02 -0.17189015750E+02  0.12792136419E+03  0.12499650711E+03 0.  0.
          2    1    1    2  501    0 -0.13150026419E+02 -0.40906789725E+02 -0.95827366894E+03  0.95923652622E+03  0.00000000000E+00 0. -1.
          1    1    1    2  502    0  0.19223881427E+02  0.20722770095E+02  0.48663803466E+03  0.48745827267E+03  0.00000000000E+00 0. -1.
         22    1    3    3    0    0 -0.15569222154E+02  0.44363698156E+02 -0.60982679840E+02  0.77002763801E+02  0.00000000000E+00 0. -1.
         22    1    3    3    0    0  0.94953671454E+01 -0.24179678526E+02  0.43793664090E+02  0.50918600386E+02  0.00000000000E+00 0. -1.
</event>
<event>
 7    1  0.5194496E-006  0.5658831E+02  0.7818608E-02  0.1415925E+00
          2   -1    0    0  502    0  0.00000000000E+00  0.00000000000E+00  0.11055848755E+04  0.11055848755E+04  0.00000000000E+00 0. -1.
          1   -1    0    0  501    0 -0.00000000000E+00 -0.00000000000E+00 -0.66890162828E+03  0.66890162828E+03  0.00000000000E+00 0. -1.
         25    2    1    2    0    0 -0.45998295722E+02  0.42590776982E+02 -0.95976970706E+02  0.16960378150E+03  0.12499618514E+03 0.  0.
          2    1    1    2  501    0 -0.94646077051E+01 -0.54387549979E+02 -0.53393499594E+03  0.53678130024E+03  0.00000000000E+00 0. -1.
          1    1    1    2  502    0  0.55462903427E+02  0.11796772998E+02  0.10665952138E+04  0.10681014220E+04  0.00000000000E+00 0. -1.
         22    1    3    3    0    0 -0.17985554722E+02  0.64365522342E+02 -0.11219587236E+03  0.13059216829E+03  0.00000000000E+00 0. -1.
         22    1    3    3    0    0 -0.28012741000E+02 -0.21774745360E+02  0.16218901656E+02  0.39011613204E+02  0.00000000000E+00 0. -1.
</event>
<event>
 7    1  0.5194496E-006  0.2179437E+03  0.7818608E-02  0.1338797E+00
          2   -1    0    0  502    0  0.00000000000E+00  0.00000000000E+00  0.15838869518E+04  0.15838869518E+04  0.00000000000E+00 0. -1.
          1   -1    0    0  501    0 -0.00000000000E+00 -0.00000000000E+00 -0.17349783168E+04  0.17349783168E+04  0.00000000000E+00 0. -1.
         25    2    1    2    0    0 -0.20437558875E+03 -0.86744735925E+02 -0.50528851253E+03  0.56589339805E+03  0.12499930630E+03 0.  0.
          2    1    1    2  501    0  0.18809476967E+03  0.10824207027E+03 -0.11894519576E+04  0.12090872374E+04  0.00000000000E+00 0. -1.
          1    1    1    2  502    0  0.16280819081E+02 -0.21497334348E+02  0.15436491052E+04  0.15438846331E+04  0.00000000000E+00 0. -1.
         22    1    3    3    0    0 -0.17085943079E+03 -0.24876512564E+02 -0.27155075518E+03  0.32179434210E+03  0.00000000000E+00 0.  1.
         22    1    3    3    0    0 -0.33516157956E+02 -0.61868223361E+02 -0.23373775735E+03  0.24409905595E+03  0.00000000000E+00 0.  1.
</event>
<event>
 7    1  0.5194496E-006  0.1375021E+03  0.7818608E-02  0.1228563E+00
          2   -1    0    0  502    0  0.00000000000E+00  0.00000000000E+00  0.64003750110E+03  0.64003750110E+03  0.00000000000E+00 0. -1.
          1   -1    0    0  501    0 -0.00000000000E+00 -0.00000000000E+00 -0.42270848744E+03  0.42270848744E+03  0.00000000000E+00 0. -1.
         25    2    1    2    0    0 -0.17849918796E+03 -0.12369266704E+03  0.69098106942E+02  0.25992274126E+03  0.12499378808E+03 0.  0.
          2    1    1    2  501    0  0.57047437966E+02  0.12008787328E+03 -0.30546266739E+03  0.33314103419E+03  0.00000000000E+00 0. -1.
          1    1    1    2  502    0  0.12145174999E+03  0.36047937631E+01  0.45369357411E+03  0.46968221310E+03  0.00000000000E+00 0. -1.
         22    1    3    3    0    0 -0.15675136842E+03 -0.44173691232E+02  0.20283148729E+02  0.16411493722E+03  0.00000000000E+00 0. -1.
         22    1    3    3    0    0 -0.21747819540E+02 -0.79518975810E+02  0.48814958213E+02  0.95807804035E+02  0.00000000000E+00 0. -1.
</event>
<event>
 7    1  0.5194496E-006  0.4924312E+02  0.7818608E-02  0.1502846E+00
          2   -1    0    0  502    0  0.00000000000E+00  0.00000000000E+00  0.28602902811E+03  0.28602902811E+03  0.00000000000E+00 0. -1.
          1   -1    0    0  501    0 -0.00000000000E+00 -0.00000000000E+00 -0.79421916660E+03  0.79421916660E+03  0.00000000000E+00 0. -1.
         25    2    1    2    0    0 -0.37077752995E+02 -0.37553984036E+02  0.12564757718E+03  0.18492596642E+03  0.12500095168E+03 0.  0.
          2    1    1    2  501    0  0.48916716687E+02  0.59990207454E+01 -0.76159823377E+03  0.76319113143E+03  0.00000000000E+00 0. -1.
          1    1    1    2  502    0 -0.11838963692E+02  0.31554963291E+02  0.12776051810E+03  0.13213109685E+03  0.00000000000E+00 0. -1.
         22    1    3    3    0    0 -0.76938599245E+01  0.45622060602E+02  0.55264792181E+02  0.72074719208E+02  0.00000000000E+00 0. -1.
         22    1    3    3    0    0 -0.29383893070E+02 -0.83176044639E+02  0.70382785002E+02  0.11285124722E+03  0.00000000000E+00 0. -1.
</event>
<event>
 7    1  0.5194496E-006  0.1226919E+03  0.7818608E-02  0.1371714E+00
          2   -1    0    0  502    0  0.00000000000E+00  0.00000000000E+00  0.16078100223E+04  0.16078100223E+04  0.00000000000E+00 0. -1.
          1   -1    0    0  501    0 -0.00000000000E+00 -0.00000000000E+00 -0.10896091337E+04  0.10896091337E+04  0.00000000000E+00 0. -1.
         25    2    1    2    0    0 -0.37756553499E+02  0.10062383574E+03  0.61631602961E+03  0.63798242901E+03  0.12500167090E+03 0.  0.
          2    1    1    2  501    0  0.88348144315E+01 -0.12248291624E+03 -0.10749438654E+04  0.10819355029E+04  0.00000000000E+00 0. -1.
          1    1    1    2  502    0  0.28921739067E+02  0.21859080501E+02  0.97682872435E+03  0.97750122410E+03  0.00000000000E+00 0. -1.
         22    1    3    3    0    0  0.25085991986E+02  0.18658782316E+02  0.36407642751E+03  0.36541634093E+03  0.00000000000E+00 0. -1.
         22    1    3    3    0    0 -0.62842545485E+02  0.81965053426E+02  0.25223960210E+03  0.27256608808E+03  0.00000000000E+00 0. -1.
</event>
<event>
 7    1  0.5194496E-006  0.1102213E+03  0.7818608E-02  0.1285641E+00
          2   -1    0    0  502    0  0.00000000000E+00  0.00000000000E+00  0.44102649583E+03  0.44102649583E+03  0.00000000000E+00 0. -1.
          1   -1    0    0  501    0 -0.00000000000E+00 -0.00000000000E+00 -0.23477414824E+04  0.23477414824E+04  0.00000000000E+00 0. -1.
         25    2    1    2    0    0  0.10382133523E+03 -0.67401092143E+02 -0.13061584947E+03  0.21910420547E+03  0.12499750337E+03 0.  0.
          2    1    1    2  501    0 -0.76329677633E+02 -0.40156750242E+02 -0.21642404000E+04  0.21659582852E+04  0.00000000000E+00 0. -1.
          1    1    1    2  502    0 -0.27491657600E+02  0.10755784239E+03  0.38814126291E+03  0.40370548754E+03  0.00000000000E+00 0. -1.
         22    1    3    3    0    0  0.12297696449E+03 -0.67725750157E+02 -0.72694901224E+02  0.15809699458E+03  0.00000000000E+00 0.  1.
         22    1    3    3    0    0 -0.19155629258E+02  0.32465801389E+00 -0.57920948251E+02  0.61007210897E+02  0.00000000000E+00 0.  1.
</event>
<event>
 7    1  0.5194496E-006  0.8270520E+02  0.7818608E-02  0.1373392E+00
          2   -1    0    0  502    0  0.00000000000E+00  0.00000000000E+00  0.10869453801E+04  0.10869453801E+04  0.00000000000E+00 0. -1.
          1   -1    0    0  501    0 -0.00000000000E+00 -0.00000000000E+00 -0.13232439269E+03  0.13232439269E+03  0.00000000000E+00 0. -1.
         25    2    1    2    0    0  0.31469549450E+02  0.86016618609E+01  0.57016314510E+02  0.14121109391E+03  0.12500156717E+03 0.  0.
          2    1    1    2  501    0  0.45496527881E+02  0.27267069428E+02 -0.80429733789E+02  0.96345052815E+02  0.00000000000E+00 0. -1.
          1    1    1    2  502    0 -0.76966077332E+02 -0.35868731289E+02  0.97803440670E+03  0.98171362608E+03  0.00000000000E+00 0. -1.
         22    1    3    3    0    0 -0.13070012595E+02  0.25344311948E+02 -0.30401581526E+02  0.41682316834E+02  0.00000000000E+00 0. -1.
         22    1    3    3    0    0  0.44539562045E+02 -0.16742650087E+02  0.87417896036E+02  0.99528777077E+02  0.00000000000E+00 0. -1.
</event>
<event>
 7    1  0.5194496E-006  0.1254796E+03  0.7818608E-02  0.1246357E+00
          2   -1    0    0  502    0  0.00000000000E+00  0.00000000000E+00  0.14724300425E+04  0.14724300425E+04  0.00000000000E+00 0. -1.
          1   -1    0    0  501    0 -0.00000000000E+00 -0.00000000000E+00 -0.78471984175E+02  0.78471984175E+02  0.00000000000E+00 0. -1.
         25    2    1    2    0    0 -0.79370063585E+02  0.17437289828E+03  0.38931506040E+03  0.45154855384E+03  0.12499746228E+03 0.  0.
          2    1    1    2  501    0  0.96513848532E+02 -0.54931802358E+02  0.26992726391E+02  0.11428487716E+03  0.00000000000E+00 0. -1.
          1    1    1    2  502    0 -0.17143784947E+02 -0.11944109592E+03  0.97765027156E+03  0.98506859570E+03  0.00000000000E+00 0. -1.
         22    1    3    3    0    0 -0.95939411108E+02  0.15253352905E+03  0.24208440425E+03  0.30178751940E+03  0.00000000000E+00 0.  1.
         22    1    3    3    0    0  0.16569347523E+02  0.21839369231E+02  0.14723065615E+03  0.14976103444E+03  0.00000000000E+00 0.  1.
</event>
<event>
 7    1  0.5194496E-006  0.2040844E+03  0.7818608E-02  0.1305074E+00
          2   -1    0    0  502    0  0.00000000000E+00  0.00000000000E+00  0.11831815896E+04  0.11831815896E+04  0.00000000000E+00 0. -1.
          1   -1    0    0  501    0 -0.00000000000E+00 -0.00000000000E+00 -0.19803715641E+03  0.19803715641E+03  0.00000000000E+00 0. -1.
         25    2    1    2    0    0 -0.15683772439E+03  0.74404322408E+02  0.16224786956E+03  0.26848242736E+03  0.12499747053E+03 0.  0.
          2    1    1    2  501    0 -0.38646890936E+02  0.43370780750E+01 -0.13057930001E+03  0.13624737068E+03  0.00000000000E+00 0. -1.
          1    1    1    2  502    0  0.19548461533E+03 -0.78741400483E+02  0.95347586368E+03  0.97648894802E+03  0.00000000000E+00 0. -1.
         22    1    3    3    0    0 -0.84221194086E+02  0.91253315942E+02  0.50286152009E+02  0.13397415530E+03  0.00000000000E+00 0.  1.
         22    1    3    3    0    0 -0.72616530306E+02 -0.16848993534E+02  0.11196171755E+03  0.13450827206E+03  0.00000000000E+00 0.  1.
</event>
<event>
 7    1  0.5194496E-006  0.3182344E+02  0.7818608E-02  0.1594146E+00
          2   -1    0    0  502    0  0.00000000000E+00  0.00000000000E+00  0.26386112817E+03  0.26386112817E+03  0.00000000000E+00 0. -1.
          1   -1    0    0  501    0 -0.00000000000E+00 -0.00000000000E+00 -0.15111736141E+03  0.15111736141E+03  0.00000000000E+00 0. -1.
         25    2    1    2    0    0  0.43073627567E+02 -0.76064960201E+01  0.16229066742E+03  0.20946339573E+03  0.12499382883E+03 0.  0.
          2    1    1    2  501    0 -0.23452166527E+02 -0.16996341892E+02 -0.12259869826E+03  0.12597349153E+03  0.00000000000E+00 0. -1.
          1    1    1    2  502    0 -0.19621461040E+02  0.24602837912E+02  0.73051797605E+02  0.79541602322E+02  0.00000000000E+00 0. -1.
         22    1    3    3    0    0  0.36635242482E+02  0.38577797534E+02  0.15454326121E+02  0.55400574457E+02  0.00000000000E+00 0. -1.
         22    1    3    3    0    0  0.64383850852E+01 -0.46184293554E+02  0.14683634130E+03  0.15406282127E+03  0.00000000000E+00 0. -1.
</event>
<event>
 7    1  0.5194496E-006  0.1033172E+03  0.7818608E-02  0.1426605E+00
          2   -1    0    0  502    0  0.00000000000E+00  0.00000000000E+00  0.72957451075E+03  0.72957451075E+03  0.00000000000E+00 0. -1.
          1   -1    0    0  501    0 -0.00000000000E+00 -0.00000000000E+00 -0.99796065217E+03  0.99796065217E+03  0.00000000000E+00 0. -1.
         25    2    1    2    0    0 -0.54765717021E+02  0.71362128755E+02 -0.13605514950E+03  0.20549947471E+03  0.12500877257E+03 0.  0.
          2    1    1    2  501    0  0.14111223541E+02  0.24017949822E+02 -0.82307861737E+03  0.82354987640E+03  0.00000000000E+00 0. -1.
          1    1    1    2  502    0  0.40654493480E+02 -0.95380078577E+02  0.69074762545E+03  0.69848581181E+03  0.00000000000E+00 0. -1.
         22    1    3    3    0    0 -0.34853159504E+02  0.84813007622E+02 -0.15138951032E+03  0.17699370843E+03  0.00000000000E+00 0. -1.
         22    1    3    3    0    0 -0.19912557518E+02 -0.13450878867E+02  0.15334360823E+02  0.28505766277E+02  0.00000000000E+00 0. -1.
</event>
<event>
 7    1  0.5194496E-006  0.4523893E+02  0.7818608E-02  0.1536602E+00
          2   -1    0    0  502    0  0.00000000000E+00  0.00000000000E+00  0.10998961438E+04  0.10998961438E+04  0.00000000000E+00 0. -1.
          1   -1    0    0  501    0 -0.00000000000E+00 -0.00000000000E+00 -0.64400511645E+03  0.64400511645E+03  0.00000000000E+00 0. -1.
         25    2    1    2    0    0 -0.22550749820E+02  0.19842217882E+02  0.76530641832E+02  0.14962565324E+03  0.12501458732E+03 0.  0.
          2    1    1    2  501    0  0.45378584207E+02 -0.15218566921E+01 -0.60639164660E+03  0.60808910615E+03  0.00000000000E+00 0. -1.
          1    1    1    2  502    0 -0.22827834387E+02 -0.18320361189E+02  0.98575203209E+03  0.98618650083E+03  0.00000000000E+00 0. -1.
         22    1    3    3    0    0  0.39968732533E+02 -0.20023801267E+02  0.23875941215E+01  0.44767765224E+02  0.00000000000E+00 0. -1.
         22    1    3    3    0    0 -0.62519482352E+02  0.39866019148E+02  0.74143047711E+02  0.10485788802E+03  0.00000000000E+00 0. -1.
</event>
<event>
 7    1  0.5194496E-006  0.6825661E+02  0.7818608E-02  0.1465308E+00
          2   -1    0    0  502    0  0.00000000000E+00  0.00000000000E+00  0.54289036428E+02  0.54289036428E+02  0.00000000000E+00 0. -1.
          1   -1    0    0  501    0 -0.00000000000E+00 -0.00000000000E+00 -0.88833175556E+03  0.88833175556E+03  0.00000000000E+00 0. -1.
         25    2    1    2    0    0 -0.25746155164E+02  0.49862639423E+02 -0.12894953217E+03  0.18814413752E+03  0.12498434830E+03 0.  0.
          2    1    1    2  501    0 -0.31490147666E+02 -0.31865163742E+01 -0.67334146947E+03  0.67408494850E+03  0.00000000000E+00 0. -1.
          1    1    1    2  502    0  0.57236302830E+02 -0.46676123048E+02 -0.31751717482E+02  0.80391705962E+02  0.00000000000E+00 0. -1.
         22    1    3    3    0    0 -0.52081917161E+02  0.80080776185E+02 -0.10253941120E+03  0.14014202674E+03  0.00000000000E+00 0. -1.
         22    1    3    3    0    0  0.26335761997E+02 -0.30218136763E+02 -0.26410120972E+02  0.48002110778E+02  0.00000000000E+00 0. -1.
</event>
<event>
 7    1  0.5194496E-006  0.4389208E+02  0.7818608E-02  0.1483274E+00
          2   -1    0    0  502    0  0.00000000000E+00  0.00000000000E+00  0.75380934155E+03  0.75380934155E+03  0.00000000000E+00 0. -1.
          1   -1    0    0  501    0 -0.00000000000E+00 -0.00000000000E+00 -0.60251651198E+03  0.60251651198E+03  0.00000000000E+00 0. -1.
         25    2    1    2    0    0 -0.25175698299E+01  0.43369530455E+02  0.42344622145E+03  0.44364133364E+03  0.12499470436E+03 0.  0.
          2    1    1    2  501    0  0.40532758128E+02 -0.16840721810E+02 -0.58992191254E+03  0.59155251440E+03  0.00000000000E+00 0. -1.
          1    1    1    2  502    0 -0.38015188298E+02 -0.26528808645E+02  0.31776852066E+03  0.32113200550E+03  0.00000000000E+00 0. -1.
         22    1    3    3    0    0  0.11653633197E+02 -0.29756631941E+02  0.32194886034E+02  0.45362704923E+02  0.00000000000E+00 0.  1.
         22    1    3    3    0    0 -0.14171203027E+02  0.73126162397E+02  0.39125133542E+03  0.39827862871E+03  0.00000000000E+00 0.  1.
</event>
<event>
 7    1  0.5194496E-006  0.6855504E+02  0.7818608E-02  0.1410430E+00
          2   -1    0    0  502    0  0.00000000000E+00  0.00000000000E+00  0.15419142719E+03  0.15419142719E+03  0.00000000000E+00 0. -1.
          1   -1    0    0  501    0 -0.00000000000E+00 -0.00000000000E+00 -0.99691756774E+03  0.99691756774E+03  0.00000000000E+00 0. -1.
         25    2    1    2    0    0  0.70516514098E+02  0.37691636080E+02 -0.43919676831E+02  0.15474488593E+03  0.12499521397E+03 0.  0.
          2    1    1    2  501    0 -0.29603424192E+02 -0.61933177760E+02 -0.89046300480E+03  0.89310494577E+03  0.00000000000E+00 0. -1.
          1    1    1    2  502    0 -0.40913089906E+02  0.24241541680E+02  0.91656541084E+02  0.10325916324E+03  0.00000000000E+00 0. -1.
         22    1    3    3    0    0  0.18441184374E+02  0.76132074965E+02 -0.44349744483E+02  0.90017053691E+02  0.00000000000E+00 0.  1.
         22    1    3    3    0    0  0.52075329724E+02 -0.38440438885E+02  0.43006765104E+00  0.64727832235E+02  0.00000000000E+00 0.  1.
</event>
<event>
 7    1  0.5194496E-006  0.2263163E+03  0.7818608E-02  0.1231084E+00
          2   -1    0    0  502    0  0.00000000000E+00  0.00000000000E+00  0.17769309634E+04  0.17769309634E+04  0.00000000000E+00 0. -1.
          1   -1    0    0  501    0 -0.00000000000E+00 -0.00000000000E+00 -0.22859333319E+04  0.22859333319E+04  0.00000000000E+00 0. -1.
         25    2    1    2    0    0  0.18512840561E+03 -0.45637760218E+02  0.58287745609E+02  0.23532432226E+03  0.12499897455E+03 0.  0.
          2    1    1    2  501    0 -0.19593135223E+03  0.11674729485E+03 -0.21906984142E+04  0.22025391183E+04  0.00000000000E+00 0. -1.
          1    1    1    2  502    0  0.10802946620E+02 -0.71109534632E+02  0.16234083000E+04  0.16250008548E+04  0.00000000000E+00 0. -1.
         22    1    3    3    0    0  0.10459837788E+02 -0.52045759360E+02  0.10382488998E+02  0.54092193076E+02  0.00000000000E+00 0.  1.
         22    1    3    3    0    0  0.17466856782E+03  0.64079991419E+01  0.47905256611E+02  0.18123212918E+03  0.00000000000E+00 0.  1.
</event>
<event>
 7    1  0.5194496E-006  0.6432677E+02  0.7818608E-02  0.1518091E+00
          2   -1    0    0  502    0  0.00000000000E+00  0.00000000000E+00  0.30214058500E+03  0.30214058500E+03  0.00000000000E+00 0. -1.
          1   -1    0    0  501    0 -0.00000000000E+00 -0.00000000000E+00 -0.25396466602E+03  0.25396466602E+03  0.00000000000E+00 0. -1.
         25    2    1    2    0    0 -0.10299571395E+02  0.80833038813E+02  0.61292304352E+01  0.14933984988E+03  0.12499904784E+03 0.  0.
          2    1    1    2  501    0 -0.47005016244E+01 -0.63044721127E+02 -0.17624319159E+03  0.18723886925E+03  0.00000000000E+00 0. -1.
          1    1    1    2  502    0  0.15000073020E+02 -0.17788317687E+02  0.21828988013E+03  0.21952653189E+03  0.00000000000E+00 0. -1.
         22    1    3    3    0    0 -0.13853677315E+02  0.22352131325E+01  0.54971361483E+02  0.56734214864E+02  0.00000000000E+00 0.  1.
         22    1    3    3    0    0  0.35541059195E+01  0.78597825681E+02 -0.48842131048E+02  0.92605635012E+02  0.00000000000E+00 0.  1.
</event>
<event>
 7    1  0.5194496E-006  0.6260785E+02  0.7818608E-02  0.1460100E+00
          2   -1    0    0  502    0  0.00000000000E+00  0.00000000000E+00  0.18092549204E+03  0.18092549204E+03  0.00000000000E+00 0. -1.
          1   -1    0    0  501    0 -0.00000000000E+00 -0.00000000000E+00 -0.15628897042E+04  0.15628897042E+04  0.00000000000E+00 0. -1.
         25    2    1    2    0    0  0.32853867791E+02  0.33938176141E+01  0.16423961460E+02  0.13033021598E+03  0.12500129624E+03 0.  0.
          2    1    1    2  501    0 -0.59410643580E+02  0.20661659451E+02 -0.15022755305E+04  0.15035917991E+04  0.00000000000E+00 0. -1.
          1    1    1    2  502    0  0.26556775789E+02 -0.24055477065E+02  0.10388735695E+03  0.10989318109E+03  0.00000000000E+00 0. -1.
         22    1    3    3    0    0  0.34575027350E+02  0.24868726026E+02 -0.46953137474E+02  0.63391507073E+02  0.00000000000E+00 0. -1.
         22    1    3    3    0    0 -0.17211595588E+01 -0.21474908412E+02  0.63377098933E+02  0.66938708911E+02  0.00000000000E+00 0. -1.
</event>
<event>
 7    1  0.6714512E-006  0.5853186E+02  0.7818608E-02  0.1441642E+00
          2   -1    0    0  502    0  0.00000000000E+00  0.00000000000E+00  0.69178603801E+03  0.69178603801E+03  0.00000000000E+00 0. -1.
          1   -1    0    0  501    0 -0.00000000000E+00 -0.00000000000E+00 -0.12159987178E+04  0.12159987178E+04  0.00000000000E+00 0. -1.
         25    2    1    2    0    0 -0.22287710866E+02 -0.14463471088E+02 -0.35482745796E+03  0.37713886834E+03  0.12500106814E+03 0.  0.
          2    1    1    2  501    0 -0.35182529436E+02  0.26261557318E+02 -0.84818248079E+03  0.84931796195E+03  0.00000000000E+00 0. -1.
          1    1    1    2  502    0  0.57470240301E+02 -0.11798086230E+02  0.67879725895E+03  0.68132792554E+03  0.00000000000E+00 0. -1.
         22    1    3    3    0    0 -0.59263121329E+02 -0.15014351137E+02 -0.32180590811E+03  0.32756158320E+03  0.00000000000E+00 0. -1.
         22    1    3    3    0    0  0.36975410464E+02  0.55088004905E+00 -0.33021549851E+02  0.49577285145E+02  0.00000000000E+00 0. -1.
</event>
<event>
 7    1  0.5194496E-006  0.7694092E+02  0.7818608E-02  0.1382409E+00
          2   -1    0    0  502    0  0.00000000000E+00  0.00000000000E+00  0.72784646735E+02  0.72784646735E+02  0.00000000000E+00 0. -1.
          1   -1    0    0  501    0 -0.00000000000E+00 -0.00000000000E+00 -0.10604586488E+04  0.10604586488E+04  0.00000000000E+00 0. -1.
         25    2    1    2    0    0 -0.40862475898E+02  0.49913248913E+02 -0.15079584625E+03  0.20621582409E+03  0.12499801801E+03 0.  0.
          2    1    1    2  501    0  0.41807968133E+02  0.32511314872E+02 -0.84272766089E+03  0.84439019548E+03  0.00000000000E+00 0. -1.
          1    1    1    2  502    0 -0.94549223481E+00 -0.82424563785E+02  0.58495050669E+01  0.82637275973E+02  0.00000000000E+00 0. -1.
         22    1    3    3    0    0 -0.13657841348E+02 -0.85726308451E+01  0.18799638351E+02  0.24767984012E+02  0.00000000000E+00 0.  1.
         22    1    3    3    0    0 -0.27204634550E+02  0.58485879759E+02 -0.16959548460E+03  0.18144784008E+03  0.00000000000E+00 0.  1.
</event>
<event>
 7    1  0.5194496E-006  0.1128017E+03  0.7818608E-02  0.1289301E+00
          2   -1    0    0  502    0  0.00000000000E+00  0.00000000000E+00  0.11376137324E+04  0.11376137324E+04  0.00000000000E+00 0. -1.
          1   -1    0    0  501    0 -0.00000000000E+00 -0.00000000000E+00 -0.18679144198E+03  0.18679144198E+03  0.00000000000E+00 0. -1.
         25    2    1    2    0    0 -0.47984928881E+02  0.17502362738E+03  0.51553580035E+03  0.56065513301E+03  0.12498477183E+03 0.  0.
          2    1    1    2  501    0 -0.18226184457E+01 -0.11060944855E+03 -0.14241839837E+03  0.18033516640E+03  0.00000000000E+00 0. -1.
          1    1    1    2  502    0  0.49807547326E+02 -0.64414178830E+02  0.57770488839E+03  0.58341487492E+03  0.00000000000E+00 0. -1.
         22    1    3    3    0    0 -0.64518524118E+02  0.95925138679E+02  0.41953815463E+03  0.43517414373E+03  0.00000000000E+00 0. -1.
         22    1    3    3    0    0  0.16533595238E+02  0.79098488700E+02  0.95997645721E+02  0.12548098928E+03  0.00000000000E+00 0. -1.
</event>
<event>
 7    1  0.5472885E-006  0.7991477E+02  0.7818608E-02  0.1396815E+00
          2   -1    0    0  502    0  0.00000000000E+00  0.00000000000E+00  0.20875802456E+04  0.20875802456E+04  0.00000000000E+00 0. -1.
          1   -1    0    0  501    0 -0.00000000000E+00 -0.00000000000E+00 -0.35157015922E+03  0.35157015922E+03  0.00000000000E+00 0. -1.
         25    2    1    2    0    0 -0.11559149788E+03  0.23644395561E+02 -0.20595951644E+03  0.26826225588E+03  0.12499945478E+03 0.  0.
          2    1    1    2  501    0  0.43937161338E+02  0.11485350909E+02 -0.10914797331E+03  0.11821872741E+03  0.00000000000E+00 0. -1.
          1    1    1    2  502    0  0.71654336539E+02 -0.35129746470E+02  0.20511175762E+04  0.20526694216E+04  0.00000000000E+00 0. -1.
         22    1    3    3    0    0 -0.62884267274E+02  0.72153053576E+02 -0.14736278277E+03  0.17571648744E+03  0.00000000000E+00 0.  1.
         22    1    3    3    0    0 -0.52707230604E+02 -0.48508658015E+02 -0.58596733663E+02  0.92545768440E+02  0.00000000000E+00 0.  1.
</event>
<event>
 7    1  0.5194496E-006  0.1250784E+03  0.7818608E-02  0.1367120E+00
          2   -1    0    0  502    0  0.00000000000E+00  0.00000000000E+00  0.17221249438E+04  0.17221249438E+04  0.00000000000E+00 0. -1.
          1   -1    0    0  501    0 -0.00000000000E+00 -0.00000000000E+00 -0.19378878092E+04  0.19378878092E+04  0.00000000000E+00 0. -1.
         25    2    1    2    0    0 -0.12888609868E+03 -0.18432838237E+02  0.35411917505E+03  0.39746320886E+03  0.12500086519E+03 0.  0.
          2    1    1    2  501    0  0.15230429221E+02 -0.33655176120E+02 -0.19131346299E+04  0.19134912461E+04  0.00000000000E+00 0. -1.
          1    1    1    2  502    0  0.11365566946E+03  0.52088014357E+02  0.13432525894E+04  0.13490582980E+04  0.00000000000E+00 0. -1.
         22    1    3    3    0    0  0.17942461839E+02  0.10370578034E+01  0.11348298082E+03  0.11489732095E+03  0.00000000000E+00 0. -1.
         22    1    3    3    0    0 -0.14682856052E+03 -0.19469896040E+02  0.24063619422E+03  0.28256588790E+03  0.00000000000E+00 0. -1.
</event>
<event>
 7    1  0.5194496E-006  0.1727632E+03  0.7818608E-02  0.1213240E+00
          2   -1    0    0  502    0  0.00000000000E+00  0.00000000000E+00  0.16275944569E+04  0.16275944569E+04  0.00000000000E+00 0. -1.
          1   -1    0    0  501    0 -0.00000000000E+00 -0.00000000000E+00 -0.11205851542E+04  0.11205851542E+04  0.00000000000E+00 0. -1.
         25    2    1    2    0    0  0.26357789428E+03 -0.31134297497E+02  0.11198817494E+02  0.29358587097E+03  0.12499839713E+03 0.  0.
          2    1    1    2  501    0 -0.15544446356E+03  0.65809815629E+02 -0.96990572511E+03  0.98448515920E+03  0.00000000000E+00 0. -1.
          1    1    1    2  502    0 -0.10813343072E+03 -0.34675518132E+02  0.14657162104E+04  0.14701085809E+04  0.00000000000E+00 0. -1.
         22    1    3    3    0    0  0.69295845170E+02 -0.54131021274E+02 -0.31387217790E+02  0.93366155873E+02  0.00000000000E+00 0.  1.
         22    1    3    3    0    0  0.19428204911E+03  0.22996723777E+02  0.42586035285E+02  0.20021971510E+03  0.00000000000E+00 0.  1.
</event>
<event>
 7    1  0.5194496E-006  0.1570999E+03  0.7818608E-02  0.1256891E+00
          2   -1    0    0  502    0  0.00000000000E+00  0.00000000000E+00  0.48506686918E+03  0.48506686918E+03  0.00000000000E+00 0. -1.
          1   -1    0    0  501    0 -0.00000000000E+00 -0.00000000000E+00 -0.22612637915E+03  0.22612637915E+03  0.00000000000E+00 0. -1.
         25    2    1    2    0    0  0.11265025341E+03  0.12157768214E+03  0.24444959314E+03  0.32070551227E+03  0.12500083851E+03 0.  0.
          2    1    1    2  501    0 -0.14982609183E+03 -0.50895307373E+02 -0.14340166400E+03  0.21354678023E+03  0.00000000000E+00 0. -1.
          1    1    1    2  502    0  0.37175838425E+02 -0.70682374763E+02  0.15789256089E+03  0.17694095583E+03  0.00000000000E+00 0. -1.
         22    1    3    3    0    0  0.43456746111E+02  0.33365807749E+02  0.18674200714E+03  0.19461331696E+03  0.00000000000E+00 0.  1.
         22    1    3    3    0    0  0.69193507299E+02  0.88211874387E+02  0.57707586002E+02  0.12609219531E+03  0.00000000000E+00 0.  1.
</event>
<event>
 7    1  0.9956024E-006  0.1162068E+03  0.7818608E-02  0.1291203E+00
          2   -1    0    0  502    0  0.00000000000E+00  0.00000000000E+00  0.16027217381E+04  0.16027217381E+04  0.00000000000E+00 0. -1.
          1   -1    0    0  501    0 -0.00000000000E+00 -0.00000000000E+00 -0.20561858723E+04  0.20561858723E+04  0.00000000000E+00 0. -1.
         25    2    1    2    0    0 -0.61025049562E+01  0.19263429834E+03 -0.36267420644E+03  0.42930622099E+03  0.12500415154E+03 0.  0.
          2    1    1    2  501    0 -0.56597458207E+01 -0.77436941106E+02 -0.16571494843E+04  0.16589674276E+04  0.00000000000E+00 0. -1.
          1    1    1    2  502    0  0.11762250777E+02 -0.11519735724E+03  0.15663595565E+04  0.15706339618E+04  0.00000000000E+00 0. -1.
         22    1    3    3    0    0  0.27753945400E+02 -0.49708507064E+01 -0.32456986126E+02  0.42993566849E+02  0.00000000000E+00 0. -1.
         22    1    3    3    0    0 -0.33856450356E+02  0.19760514905E+03 -0.33021722031E+03  0.38631265414E+03  0.00000000000E+00 0. -1.
</event>
<event>
 7    1  0.5194496E-006  0.4702014E+02  0.7818608E-02  0.1549738E+00
          2   -1    0    0  502    0  0.00000000000E+00  0.00000000000E+00  0.10154475670E+04  0.10154475670E+04  0.00000000000E+00 0. -1.
          1   -1    0    0  501    0 -0.00000000000E+00 -0.00000000000E+00 -0.13345431183E+04  0.13345431183E+04  0.00000000000E+00 0. -1.
         25    2    1    2    0    0 -0.10334672535E+01  0.30096268915E+02 -0.11188425997E+04  0.11262059169E+04  0.12499660312E+03 0.  0.
          2    1    1    2  501    0  0.23231428614E+02  0.11365829991E+02 -0.21068115425E+03  0.21226264420E+03  0.00000000000E+00 0. -1.
          1    1    1    2  502    0 -0.22197961360E+02 -0.41462098905E+02  0.10104282027E+04  0.10115221243E+04  0.00000000000E+00 0. -1.
         22    1    3    3    0    0 -0.21878413068E+02  0.72357880928E+02 -0.51380348027E+03  0.51933452054E+03  0.00000000000E+00 0. -1.
         22    1    3    3    0    0  0.20844945815E+02 -0.42261612013E+02 -0.60503911944E+03  0.60687139632E+03  0.00000000000E+00 0. -1.
</event>
<event>
 7    1  0.5194496E-006  0.1604919E+03  0.7818608E-02  0.1275766E+00
          2   -1    0    0  502    0  0.00000000000E+00  0.00000000000E+00  0.87759155291E+03  0.87759155291E+03  0.00000000000E+00 0. -1.
          1   -1    0    0  501    0 -0.00000000000E+00 -0.00000000000E+00 -0.21064451590E+03  0.21064451590E+03  0.00000000000E+00 0. -1.
         25    2    1    2    0    0  0.92962231411E+02 -0.17155644392E+03 -0.19695756175E+02  0.23256459501E+03  0.12499911248E+03 0.  0.
          2    1    1    2  501    0 -0.63161400940E+02  0.15611011029E+02 -0.62303268092E+02  0.90081981822E+02  0.00000000000E+00 0. -1.
          1    1    1    2  502    0 -0.29800830471E+02  0.15594543289E+03  0.74894606128E+03  0.76558949198E+03  0.00000000000E+00 0. -1.
         22    1    3    3    0    0 -0.29121940894E+02 -0.28145825071E+02  0.10456466341E+02  0.41828370740E+02  0.00000000000E+00 0.  1.
         22    1    3    3    0    0  0.12208417231E+03 -0.14341061885E+03 -0.30152222516E+02  0.19073622427E+03  0.00000000000E+00 0.  1.
</event>
<event>
 7    1  0.5194496E-006  0.6482503E+02  0.7818608E-02  0.1505030E+00
          2   -1    0    0  502    0  0.00000000000E+00  0.00000000000E+00  0.45228047047E+03  0.45228047047E+03  0.00000000000E+00 0. -1.
          1   -1    0    0  501    0 -0.00000000000E+00 -0.00000000000E+00 -0.65255663115E+02  0.65255663115E+02  0.00000000000E+00 0. -1.
         25    2    1    2    0    0 -0.31582908875E+02 -0.33170910429E+02  0.10336991456E+03  0.16854984616E+03  0.12500368783E+03 0.  0.
          2    1    1    2  501    0  0.42694020539E+02  0.55813997506E+02  0.63725161045E+01  0.70559128884E+02  0.00000000000E+00 0. -1.
          1    1    1    2  502    0 -0.11111111663E+02 -0.22643087077E+02  0.27728237668E+03  0.27842715854E+03  0.00000000000E+00 0. -1.
         22    1    3    3    0    0  0.18484067344E+02 -0.29184416145E+02  0.11233834870E+03  0.11752997694E+03  0.00000000000E+00 0. -1.
         22    1    3    3    0    0 -0.50066976220E+02 -0.39864942836E+01 -0.89684341304E+01  0.51019869220E+02  0.00000000000E+00 0. -1.
</event>
<event>
 7    1  0.5194496E-006  0.5697317E+02  0.7818608E-02  0.1442029E+00
          2   -1    0    0  502    0  0.00000000000E+00  0.00000000000E+00  0.18772098732E+04  0.18772098732E+04  0.00000000000E+00 0. -1.
          1   -1    0    0  501    0 -0.00000000000E+00 -0.00000000000E+00 -0.59950693561E+02  0.59950693561E+02  0.00000000000E+00 0. -1.
         25    2    1    2    0    0  0.51114719177E+02  0.46380006454E+02  0.63110043934E+03  0.64705286895E+03  0.12500332464E+03 0.  0.
          2    1    1    2  501    0 -0.57043637375E+02 -0.17983834003E+01 -0.35767729372E+02  0.67353850761E+02  0.00000000000E+00 0. -1.
          1    1    1    2  502    0  0.59289181986E+01 -0.44581623053E+02  0.12219264697E+04  0.12227538470E+04  0.00000000000E+00 0. -1.
         22    1    3    3    0    0  0.47974937861E+02  0.49935924813E+02  0.63627551750E+03  0.64003259716E+03  0.00000000000E+00 0. -1.
         22    1    3    3    0    0  0.31397813156E+01 -0.35559183590E+01 -0.51750781637E+01  0.70202717958E+01  0.00000000000E+00 0. -1.
</event>
<event>
 7    1  0.5194496E-006  0.1080671E+03  0.7818608E-02  0.1332991E+00
          2   -1    0    0  502    0  0.00000000000E+00  0.00000000000E+00  0.41979430922E+03  0.41979430922E+03  0.00000000000E+00 0. -1.
          1   -1    0    0  501    0 -0.00000000000E+00 -0.00000000000E+00 -0.22728089229E+04  0.22728089229E+04  0.00000000000E+00 0. -1.
         25    2    1    2    0    0 -0.77888598444E+02 -0.89079278347E+02 -0.52870168666E+03  0.55601563651E+03  0.12500465178E+03 0.  0.
          2    1    1    2  501    0  0.10184781737E+03  0.37129736150E+02 -0.17267274529E+04  0.17301269583E+04  0.00000000000E+00 0. -1.
          1    1    1    2  502    0 -0.23959218921E+02  0.51949542198E+02  0.40241452585E+03  0.40646063736E+03  0.00000000000E+00 0. -1.
         22    1    3    3    0    0 -0.60536837087E+02 -0.11198794200E+02 -0.83619774014E+02  0.10383827927E+03  0.00000000000E+00 0.  1.
         22    1    3    3    0    0 -0.17351761357E+02 -0.77880484147E+02 -0.44508191265E+03  0.45217735724E+03  0.00000000000E+00 0.  1.
</event>
<event>
 7    1  0.5194496E-006  0.6113871E+02  0.7818608E-02  0.1459065E+00
          2   -1    0    0  502    0  0.00000000000E+00  0.00000000000E+00  0.10452431107E+03  0.10452431107E+03  0.00000000000E+00 0. -1.
          1   -1    0    0  501    0 -0.00000000000E+00 -0.00000000000E+00 -0.13478913786E+04  0.13478913786E+04  0.00000000000E+00 0. -1.
         25    2    1    2    0    0  0.43034338690E+02  0.56451872569E+02 -0.21074533117E+03  0.25510242331E+03  0.12499953417E+03 0.  0.
          2    1    1    2  501    0 -0.56968040210E+02 -0.22207926281E+02 -0.11099336709E+04  0.11116165271E+04  0.00000000000E+00 0. -1.
          1    1    1    2  502    0  0.13933701520E+02 -0.34243946288E+02  0.77311934534E+02  0.85696739242E+02  0.00000000000E+00 0. -1.
         22    1    3    3    0    0  0.36790714721E+02  0.37357703488E+02 -0.10028556025E+02  0.53382830906E+02  0.00000000000E+00 0. -1.
         22    1    3    3    0    0  0.62436239694E+01  0.19094169081E+02 -0.20071677515E+03  0.20171959240E+03  0.00000000000E+00 0. -1.
</event>
<event>
 7    1  0.5194496E-006  0.2285897E+03  0.7818608E-02  0.1184768E+00
          2   -1    0    0  502    0  0.00000000000E+00  0.00000000000E+00  0.58315518307E+03  0.58315518307E+03  0.00000000000E+00 0. -1.
          1   -1    0    0  501    0 -0.00000000000E+00 -0.00000000000E+00 -0.11898985284E+04  0.11898985284E+04  0.00000000000E+00 0. -1.
         25    2    1    2    0    0  0.94304665546E+02  0.14927599319E+03  0.33283419499E+02  0.21888455316E+03  0.12500387800E+03 0.  0.
          2    1    1    2  501    0  0.11660507172E+03 -0.94526011163E+01 -0.10586031816E+04  0.10650477879E+04  0.00000000000E+00 0. -1.
          1    1    1    2  502    0 -0.21090973727E+03 -0.13982339207E+03  0.41857641681E+03  0.48912137037E+03  0.00000000000E+00 0. -1.
         22    1    3    3    0    0  0.15530155921E+01  0.11497175720E+03  0.34293329175E+02  0.11998728781E+03  0.00000000000E+00 0. -1.
         22    1    3    3    0    0  0.92751649954E+02  0.34304235987E+02 -0.10099096767E+01  0.98897265348E+02  0.00000000000E+00 0. -1.
</event>
<event>
 7    1  0.5194496E-006  0.8763473E+02  0.7818608E-02  0.1486214E+00
          2   -1    0    0  502    0  0.00000000000E+00  0.00000000000E+00  0.19481772441E+04  0.19481772441E+04  0.00000000000E+00 0. -1.
          1   -1    0    0  501    0 -0.00000000000E+00 -0.00000000000E+00 -0.43828488207E+02  0.43828488207E+02  0.00000000000E+00 0. -1.
         25    2    1    2    0    0  0.15356031703E+02  0.66818945104E+02  0.94884734201E+03  0.95949980396E+03  0.12501206433E+03 0.  0.
          2    1    1    2  501    0 -0.27379741463E+02 -0.84339204435E+02  0.12830569962E+02  0.89595620277E+02  0.00000000000E+00 0. -1.
          1    1    1    2  502    0  0.12023709760E+02  0.17520259331E+02  0.94267084394E+03  0.94291030808E+03  0.00000000000E+00 0. -1.
         22    1    3    3    0    0  0.10876744260E+02 -0.29258271057E+02  0.89508643695E+02  0.94795291482E+02  0.00000000000E+00 0.  1.
         22    1    3    3    0    0  0.44792874428E+01  0.96077216162E+02  0.85933869831E+03  0.86470451248E+03  0.00000000000E+00 0.  1.
</event>
<event>
 7    1  0.5194496E-006  0.4546424E+02  0.7818608E-02  0.1511846E+00
          2   -1    0    0  502    0  0.00000000000E+00  0.00000000000E+00  0.31520172034E+03  0.31520172034E+03  0.00000000000E+00 0. -1.
          1   -1    0    0  501    0 -0.00000000000E+00 -0.00000000000E+00 -0.43902984404E+03  0.43902984404E+03  0.00000000000E+00 0. -1.
         25    2    1    2    0    0  0.30471741004E+01 -0.16537428647E+02 -0.17683469488E+03  0.21720548871E+03  0.12499977279E+03 0.  0.
          2    1    1    2  501    0  0.10672711724E+02  0.48013280346E+02 -0.23849261103E+03  0.24351161652E+03  0.00000000000E+00 0. -1.
          1    1    1    2  502    0 -0.13719885824E+02 -0.31475851698E+02  0.29149918220E+03  0.29351445915E+03  0.00000000000E+00 0. -1.
         22    1    3    3    0    0 -0.56030858161E+02  0.16512413095E+02 -0.83754774285E+02  0.10211258036E+03  0.00000000000E+00 0. -1.
         22    1    3    3    0    0  0.59078032262E+02 -0.33049841743E+02 -0.93079920592E+02  0.11509290835E+03  0.00000000000E+00 0. -1.
</event>
<event>
 7    1  0.5194496E-006  0.7667196E+02  0.7818608E-02  0.1493096E+00
          2   -1    0    0  502    0  0.00000000000E+00  0.00000000000E+00  0.49398997115E+03  0.49398997115E+03  0.00000000000E+00 0. -1.
          1   -1    0    0  501    0 -0.00000000000E+00 -0.00000000000E+00 -0.14924034725E+04  0.14924034725E+04  0.00000000000E+00 0. -1.
         25    2    1    2    0    0  0.88957398522E+02  0.77266694429E+01  0.16132682147E+03  0.22276595820E+03  0.12500083453E+03 0.  0.
          2    1    1    2  501    0 -0.17492307444E+02  0.15163832886E+02 -0.14569280397E+04  0.14571119502E+04  0.00000000000E+00 0. -1.
          1    1    1    2  502    0 -0.71465091078E+02 -0.22890502329E+02  0.29718771682E+03  0.30651553528E+03  0.00000000000E+00 0. -1.
         22    1    3    3    0    0  0.75261152871E+02 -0.46486429548E+02  0.13390868895E+03  0.16048914680E+03  0.00000000000E+00 0. -1.
         22    1    3    3    0    0  0.13696245652E+02  0.54213098991E+02  0.27418132518E+02  0.62276811398E+02  0.00000000000E+00 0. -1.
</event>
<event>
 7    1  0.5194496E-006  0.5093244E+02  0.7818608E-02  0.1546342E+00
          2   -1    0    0  502    0  0.00000000000E+00  0.00000000000E+00  0.11134792059E+03  0.11134792059E+03  0.00000000000E+00 0. -1.
          1   -1    0    0  501    0 -0.00000000000E+00 -0.00000000000E+00 -0.63660643370E+03  0.63660643370E+03  0.00000000000E+00 0. -1.
         25    2    1    2    0    0 -0.67319153150E+02 -0.22202639543E+02 -0.62292604290E+02  0.15662324461E+03  0.12500258645E+03 0.  0.
          2    1    1    2  501    0  0.43220055822E+02  0.26049080106E+02 -0.52357089236E+03  0.52599715505E+03  0.00000000000E+00 0. -1.
          1    1    1    2  502    0  0.24099097328E+02 -0.38464405630E+01  0.60604983541E+02  0.65333954625E+02  0.00000000000E+00 0. -1.
         22    1    3    3    0    0  0.82000641683E+01  0.42700503859E+02 -0.12218944318E+02  0.45164993993E+02  0.00000000000E+00 0. -1.
         22    1    3    3    0    0 -0.75519217318E+02 -0.64903143402E+02 -0.50073659973E+02  0.11145825062E+03  0.00000000000E+00 0. -1.
</event>
<event>
 7    1  0.5194496E-006  0.5117011E+02  0.7818608E-02  0.1544739E+00
          2   -1    0    0  502    0  0.00000000000E+00  0.00000000000E+00  0.27866322307E+03  0.27866322307E+03  0.00000000000E+00 0. -1.
          1   -1    0    0  501    0 -0.00000000000E+00 -0.00000000000E+00 -0.23848913252E+04  0.23848913252E+04  0.00000000000E+00 0. -1.
         25    2    1    2    0    0  0.27502240270E+02 -0.68511878775E+02  0.11454185909E+03  0.18491996688E+03  0.12500122365E+03 0.  0.
          2    1    1    2  501    0 -0.11633002686E+02  0.49788633713E+02 -0.23482534204E+04  0.23488099883E+04  0.00000000000E+00 0. -1.
          1    1    1    2  502    0 -0.15869237585E+02  0.18723245063E+02  0.12748345917E+03  0.12982459308E+03  0.00000000000E+00 0. -1.
         22    1    3    3    0    0  0.61450617594E+02 -0.39966472535E+02  0.13452933264E+02  0.74528375421E+02  0.00000000000E+00 0. -1.
         22    1    3    3    0    0 -0.33948377323E+02 -0.28545406241E+02  0.10108892583E+03  0.11039159146E+03  0.00000000000E+00 0. -1.
</event>
<event>
 7    1  0.5194496E-006  0.9780063E+02  0.7818608E-02  0.1329261E+00
          2   -1    0    0  502    0  0.00000000000E+00  0.00000000000E+00  0.90992817459E+03  0.90992817459E+03  0.00000000000E+00 0. -1.
          1   -1    0    0  501    0 -0.00000000000E+00 -0.00000000000E+00 -0.32427682939E+03  0.32427682939E+03  0.00000000000E+00 0. -1.
         25    2    1    2    0    0  0.56207811358E+02 -0.82876747286E+02  0.14280149466E+03  0.21458063616E+03  0.12499883696E+03 0.  0.
          2    1    1    2  501    0  0.38559919828E+02  0.52722352522E+02 -0.28124582816E+03  0.28873124135E+03  0.00000000000E+00 0. -1.
          1    1    1    2  502    0 -0.94767731187E+02  0.30154394764E+02  0.72409567870E+03  0.73089312647E+03  0.00000000000E+00 0. -1.
         22    1    3    3    0    0  0.75671313690E+02 -0.10213344089E+03  0.13643152951E+03  0.18646970185E+03  0.00000000000E+00 0.  1.
         22    1    3    3    0    0 -0.19463502332E+02  0.19256693606E+02  0.63699651418E+01  0.28110934306E+02  0.00000000000E+00 0.  1.
</event>
<event>
 7    1  0.5194496E-006  0.3922159E+02  0.7818608E-02  0.1554061E+00
          2   -1    0    0  502    0  0.00000000000E+00  0.00000000000E+00  0.17593922211E+04  0.17593922211E+04  0.00000000000E+00 0. -1.
          1   -1    0    0  501    0 -0.00000000000E+00 -0.00000000000E+00 -0.11613929502E+04  0.11613929502E+04  0.00000000000E+00 0. -1.
         25    2    1    2    0    0  0.82971223266E+01 -0.33919011302E+02  0.87049668703E+01  0.13008380604E+03  0.12500671414E+03 0.  0.
          2    1    1    2  501    0  0.21835605224E+02  0.32676104474E+02 -0.11002181110E+04  0.11009198033E+04  0.00000000000E+00 0. -1.
          1    1    1    2  502    0 -0.30132727550E+02  0.12429068280E+01  0.16895124151E+04  0.16897815619E+04  0.00000000000E+00 0. -1.
         22    1    3    3    0    0  0.50180120595E+02 -0.32834871018E+02  0.44742498573E+02  0.74820214089E+02  0.00000000000E+00 0.  1.
         22    1    3    3    0    0 -0.41882998269E+02 -0.10841402833E+01 -0.36037531703E+02  0.55263591951E+02  0.00000000000E+00 0.  1.
</event>
<event>
 7    1  0.5194496E-006  0.1090639E+03  0.7818608E-02  0.1299823E+00
          2   -1    0    0  502    0  0.00000000000E+00  0.00000000000E+00  0.30546543317E+04  0.30546543317E+04  0.00000000000E+00 0. -1.
          1   -1    0    0  501    0 -0.00000000000E+00 -0.00000000000E+00 -0.42163429862E+03  0.42163429862E+03  0.00000000000E+00 0. -1.
         25    2    1    2    0    0 -0.17030972841E+03  0.62689478391E+01  0.52941538373E+03  0.57004283455E+03  0.12499392541E+03 0.  0.
          2    1    1    2  501    0  0.70444724678E+02  0.29486089370E+02 -0.39655286052E+03  0.40383915101E+03  0.00000000000E+00 0. -1.
          1    1    1    2  502    0  0.99865003727E+02 -0.35755037209E+02  0.25001575098E+04  0.25024066447E+04  0.00000000000E+00 0. -1.
         22    1    3    3    0    0 -0.10291968275E+03 -0.47095266196E+02  0.20217407563E+03  0.23169976705E+03  0.00000000000E+00 0. -1.
         22    1    3    3    0    0 -0.67390045656E+02  0.53364214035E+02  0.32724130811E+03  0.33834306750E+03  0.00000000000E+00 0. -1.
</event>
<event>
 7    1  0.5194496E-006  0.7201589E+02  0.7818608E-02  0.1512391E+00
          2   -1    0    0  502    0  0.00000000000E+00  0.00000000000E+00  0.41244013399E+03  0.41244013399E+03  0.00000000000E+00 0. -1.
          1   -1    0    0  501    0 -0.00000000000E+00 -0.00000000000E+00 -0.83967548976E+03  0.83967548976E+03  0.00000000000E+00 0. -1.
         25    2    1    2    0    0 -0.84666752956E+02 -0.10480768560E+02  0.11047066652E+03  0.18736847105E+03  0.12499948087E+03 0.  0.
          2    1    1    2  501    0  0.14325651576E+02  0.16161891529E+02 -0.79635293374E+03  0.79664573438E+03  0.00000000000E+00 0. -1.
          1    1    1    2  502    0  0.70341101380E+02 -0.56811229694E+01  0.25864691146E+03  0.26810141832E+03  0.00000000000E+00 0. -1.
         22    1    3    3    0    0 -0.83048544723E+02 -0.53906552386E+02  0.44923996687E+02  0.10872507829E+03  0.00000000000E+00 0. -1.
         22    1    3    3    0    0 -0.16182082329E+01  0.43425783826E+02  0.65546669831E+02  0.78643392760E+02  0.00000000000E+00 0. -1.
</event>
<event>
 7    1  0.5194496E-006  0.1594367E+03  0.7818608E-02  0.1225976E+00
          2   -1    0    0  502    0  0.00000000000E+00  0.00000000000E+00  0.35012202139E+03  0.35012202139E+03  0.00000000000E+00 0. -1.
          1   -1    0    0  501    0 -0.00000000000E+00 -0.00000000000E+00 -0.87085998953E+03  0.87085998953E+03  0.00000000000E+00 0. -1.
         25    2    1    2    0    0 -0.16419593070E+03  0.14784192307E+03  0.11556056041E+01  0.25385840906E+03  0.12500087421E+03 0.  0.
          2    1    1    2  501    0  0.10728685948E+03 -0.86929647766E+01 -0.71462880512E+03  0.72268967542E+03  0.00000000000E+00 0. -1.
          1    1    1    2  502    0  0.56909071219E+02 -0.13914895829E+03  0.19273523137E+03  0.24443392643E+03  0.00000000000E+00 0. -1.
         22    1    3    3    0    0 -0.65504115250E+02  0.13765209421E+03 -0.15592047022E+02  0.15323837668E+03  0.00000000000E+00 0. -1.
         22    1    3    3    0    0 -0.98691815452E+02  0.10189828852E+02  0.16747652626E+02  0.10062003239E+03  0.00000000000E+00 0. -1.
</event>
<event>
 7    1  0.5194496E-006  0.1040555E+03  0.7818608E-02  0.1284578E+00
          2   -1    0    0  502    0  0.00000000000E+00  0.00000000000E+00  0.64834214830E+03  0.64834214830E+03  0.00000000000E+00 0. -1.
          1   -1    0    0  501    0 -0.00000000000E+00 -0.00000000000E+00 -0.12282253796E+04  0.12282253796E+04  0.00000000000E+00 0. -1.
         25    2    1    2    0    0  0.55029952027E+02 -0.87001258584E+02  0.33032053672E+02  0.16525755892E+03  0.12498571756E+03 0.  0.
          2    1    1    2  501    0  0.51560283185E+02  0.76532119276E+02 -0.11550330983E+04  0.11587135479E+04  0.00000000000E+00 0. -1.
          1    1    1    2  502    0 -0.10659023521E+03  0.10469139308E+02  0.54211781326E+03  0.55259642107E+03  0.00000000000E+00 0. -1.
         22    1    3    3    0    0 -0.25234594262E+02 -0.15558488870E+02  0.48351920144E+02  0.56716483540E+02  0.00000000000E+00 0.  1.
         22    1    3    3    0    0  0.80264546289E+02 -0.71442769715E+02 -0.15319866472E+02  0.10854107538E+03  0.00000000000E+00 0.  1.
</event>
<event>
 7    1  0.8344193E-006  0.1750634E+03  0.7818608E-02  0.1210774E+00
          2   -1    0    0  502    0  0.00000000000E+00  0.00000000000E+00  0.13353920446E+04  0.13353920446E+04  0.00000000000E+00 0. -1.
          1   -1    0    0  501    0 -0.00000000000E+00 -0.00000000000E+00 -0.89542602273E+03  0.89542602273E+03  0.00000000000E+00 0. -1.
         25    2    1    2    0    0  0.44726325066E+02 -0.64692269557E+02 -0.25330879109E+03  0.29321857748E+03  0.12500502646E+03 0.  0.
          2    1    1    2  501    0  0.11416674260E+03 -0.14189790865E+02 -0.61078689874E+03  0.62152717635E+03  0.00000000000E+00 0. -1.
          1    1    1    2  502    0 -0.15889306766E+03  0.78882060422E+02  0.13040617117E+04  0.13160723135E+04  0.00000000000E+00 0. -1.
         22    1    3    3    0    0  0.74234666290E+02 -0.15708292433E+02 -0.78000867263E+02  0.10881944415E+03  0.00000000000E+00 0.  1.
         22    1    3    3    0    0 -0.29508341224E+02 -0.48983977124E+02 -0.17530792383E+03  0.18439913333E+03  0.00000000000E+00 0.  1.
</event>
<event>
 7    1  0.5194496E-006  0.1335447E+03  0.7818608E-02  0.1351055E+00
          2   -1    0    0  502    0  0.00000000000E+00  0.00000000000E+00  0.18154137626E+04  0.18154137626E+04  0.00000000000E+00 0. -1.
          1   -1    0    0  501    0 -0.00000000000E+00 -0.00000000000E+00 -0.25904981695E+03  0.25904981695E+03  0.00000000000E+00 0. -1.
         25    2    1    2    0    0  0.14176026919E+03 -0.37478324331E+00  0.67923164196E+03  0.70503664182E+03  0.12499971397E+03 0.  0.
          2    1    1    2  501    0 -0.14542183276E+02  0.36841188676E+02 -0.24062469888E+03  0.24386265395E+03  0.00000000000E+00 0. -1.
          1    1    1    2  502    0 -0.12721808591E+03 -0.36466405433E+02  0.11177570026E+04  0.11255642838E+04  0.00000000000E+00 0. -1.
         22    1    3    3    0    0  0.42427090062E+02  0.33762380331E+02  0.44551753178E+03  0.44880488792E+03  0.00000000000E+00 0. -1.
         22    1    3    3    0    0  0.99333179123E+02 -0.34137163575E+02  0.23371411018E+03  0.25623175390E+03  0.00000000000E+00 0. -1.
</event>
<event>
 7    1  0.5194496E-006  0.1594257E+03  0.7818608E-02  0.1322474E+00
          2   -1    0    0  502    0  0.00000000000E+00  0.00000000000E+00  0.16029523263E+03  0.16029523263E+03  0.00000000000E+00 0. -1.
          1   -1    0    0  501    0 -0.00000000000E+00 -0.00000000000E+00 -0.48985958245E+03  0.48985958245E+03  0.00000000000E+00 0. -1.
         25    2    1    2    0    0 -0.18458989590E+03 -0.30335495419E+02 -0.27629378524E+03  0.35630946125E+03  0.12499801784E+03 0.  0.
          2    1    1    2  501    0  0.29330826509E+02  0.30827216512E+02 -0.11814701757E+03  0.12557600258E+03  0.00000000000E+00 0. -1.
          1    1    1    2  502    0  0.15525906939E+03 -0.49172109320E+00  0.64876452994E+02  0.16826935125E+03  0.00000000000E+00 0. -1.
         22    1    3    3    0    0 -0.13127275560E+03  0.33319568281E+01 -0.88865704245E+02  0.15855835421E+03  0.00000000000E+00 0. -1.
         22    1    3    3    0    0 -0.53317140298E+02 -0.33667452247E+02 -0.18742808099E+03  0.19775110704E+03  0.00000000000E+00 0. -1.
</event>
<event>
 7    1  0.5194496E-006  0.9551481E+02  0.7818608E-02  0.1474924E+00
          2   -1    0    0  502    0  0.00000000000E+00  0.00000000000E+00  0.18767054802E+03  0.18767054802E+03  0.00000000000E+00 0. -1.
          1   -1    0    0  501    0 -0.00000000000E+00 -0.00000000000E+00 -0.13333447431E+04  0.13333447431E+04  0.00000000000E+00 0. -1.
         25    2    1    2    0    0  0.82000861569E+02 -0.74155795051E+01 -0.32658067111E+03  0.35924837867E+03  0.12500132286E+03 0.  0.
          2    1    1    2  501    0  0.13692157487E+02  0.16071414056E+02 -0.97683650746E+03  0.97706464875E+03  0.00000000000E+00 0. -1.
          1    1    1    2  502    0 -0.95693019057E+02 -0.86558345504E+01  0.15774298351E+03  0.18470226369E+03  0.00000000000E+00 0. -1.
         22    1    3    3    0    0  0.21309600447E+02 -0.60297599968E+02 -0.19265356930E+03  0.20299088008E+03  0.00000000000E+00 0.  1.
         22    1    3    3    0    0  0.60691261122E+02  0.52882020463E+02 -0.13392710181E+03  0.15625749859E+03  0.00000000000E+00 0.  1.
</event>
<event>
 7    1  0.5194496E-006  0.8742231E+02  0.7818608E-02  0.1363263E+00
          2   -1    0    0  502    0  0.00000000000E+00  0.00000000000E+00  0.23291221021E+03  0.23291221021E+03  0.00000000000E+00 0. -1.
          1   -1    0    0  501    0 -0.00000000000E+00 -0.00000000000E+00 -0.21129328185E+04  0.21129328185E+04  0.00000000000E+00 0. -1.
         25    2    1    2    0    0 -0.81379867085E+02 -0.36797406867E+02 -0.13028519903E+03  0.20143168219E+03  0.12499503025E+03 0.  0.
          2    1    1    2  501    0  0.37415969027E+02 -0.39737122476E+02 -0.19368014046E+04  0.19375703019E+04  0.00000000000E+00 0. -1.
          1    1    1    2  502    0  0.43963898058E+02  0.76534529343E+02  0.18706599536E+03  0.20684304468E+03  0.00000000000E+00 0. -1.
         22    1    3    3    0    0 -0.88266809837E+02 -0.54801895082E+02 -0.43674951257E+02  0.11270216853E+03  0.00000000000E+00 0.  1.
         22    1    3    3    0    0  0.68869427519E+01  0.18004488215E+02 -0.86610247773E+02  0.88729513667E+02  0.00000000000E+00 0.  1.
</event>
<event>
 7    1  0.5194496E-006  0.1570849E+03  0.7818608E-02  0.1376438E+00
          2   -1    0    0  502    0  0.00000000000E+00  0.00000000000E+00  0.20626445368E+04  0.20626445368E+04  0.00000000000E+00 0. -1.
          1   -1    0    0  501    0 -0.00000000000E+00 -0.00000000000E+00 -0.42301519479E+02  0.42301519479E+02  0.00000000000E+00 0. -1.
         25    2    1    2    0    0 -0.15274705000E+03  0.64719517951E+02  0.82499292225E+03  0.85073984597E+03  0.12499874589E+03 0.  0.
          2    1    1    2  501    0  0.31442151485E+01 -0.27054066834E+02 -0.16982779461E+02  0.32097093628E+02  0.00000000000E+00 0. -1.
          1    1    1    2  502    0  0.14960283485E+03 -0.37665451118E+02  0.12123328745E+04  0.12221091167E+04  0.00000000000E+00 0. -1.
         22    1    3    3    0    0 -0.15013640505E+00 -0.27922723548E+02  0.82877016029E+02  0.87454564301E+02  0.00000000000E+00 0. -1.
         22    1    3    3    0    0 -0.15259691359E+03  0.92642241500E+02  0.74211590622E+03  0.76328528167E+03  0.00000000000E+00 0. -1.
</event>
<event>
 7    1  0.5194496E-006  0.6615019E+02  0.7818608E-02  0.1396295E+00
          2   -1    0    0  502    0  0.00000000000E+00  0.00000000000E+00  0.35159504568E+03  0.35159504568E+03  0.00000000000E+00 0. -1.
          1   -1    0    0  501    0 -0.00000000000E+00 -0.00000000000E+00 -0.82992172988E+03  0.82992172988E+03  0.00000000000E+00 0. -1.
         25    2    1    2    0    0 -0.71475862732E+02 -0.83168057296E+02  0.19066227510E+03  0.25298754154E+03  0.12499947329E+03 0.  0.
          2    1    1    2  501    0  0.58956510099E+02  0.29518561604E+02 -0.79147903889E+03  0.79422055158E+03  0.00000000000E+00 0. -1.
          1    1    1    2  502    0  0.12519352633E+02  0.53649495692E+02  0.12249007959E+03  0.13430868243E+03  0.00000000000E+00 0. -1.
         22    1    3    3    0    0 -0.12151972059E+02 -0.81151048646E+02  0.17232083719E+03  0.19086024744E+03  0.00000000000E+00 0.  1.
         22    1    3    3    0    0 -0.59323890673E+02 -0.20170086505E+01  0.18341437909E+02  0.62127294107E+02  0.00000000000E+00 0.  1.
</event>
<event>
 7    1  0.5194496E-006  0.3859809E+02  0.7818608E-02  0.1611143E+00
          2   -1    0    0  502    0  0.00000000000E+00  0.00000000000E+00  0.66356030015E+03  0.66356030015E+03  0.00000000000E+00 0. -1.
          1   -1    0    0  501    0 -0.00000000000E+00 -0.00000000000E+00 -0.51770002098E+03  0.51770002098E+03  0.00000000000E+00 0. -1.
         25    2    1    2    0    0  0.55894873960E+02  0.51078449333E+01  0.31352273510E+03  0.34215750032E+03  0.12499969035E+03 0.  0.
          2    1    1    2  501    0 -0.20442159888E+02  0.68706853007E+01 -0.50210763967E+03  0.50257056225E+03  0.00000000000E+00 0. -1.
          1    1    1    2  502    0 -0.35452714072E+02 -0.11978530234E+02  0.33444518374E+03  0.33653225856E+03  0.00000000000E+00 0. -1.
         22    1    3    3    0    0  0.19351137326E+01 -0.24013795455E+02  0.25896345999E+03  0.26008168072E+03  0.00000000000E+00 0. -1.
         22    1    3    3    0    0  0.53959760228E+02  0.29121640388E+02  0.54559275112E+02  0.82075819603E+02  0.00000000000E+00 0. -1.
</event>
<event>
 7    1  0.5194496E-006  0.1175256E+03  0.7818608E-02  0.1395671E+00
          2   -1    0    0  502    0  0.00000000000E+00  0.00000000000E+00  0.22520430753E+02  0.22520430753E+02  0.00000000000E+00 0. -1.
          1   -1    0    0  501    0 -0.00000000000E+00 -0.00000000000E+00 -0.17492225817E+04  0.17492225817E+04  0.00000000000E+00 0. -1.
         25    2    1    2    0    0 -0.44340217769E+01  0.10941776496E+03 -0.52917371627E+03  0.55465506524E+03  0.12500204625E+03 0.  0.
          2    1    1    2  501    0  0.35104774297E+02 -0.11493324431E+03 -0.11679712256E+04  0.11741374619E+04  0.00000000000E+00 0. -1.
          1    1    1    2  502    0 -0.30670752521E+02  0.55154793503E+01 -0.29557209090E+02  0.42950485234E+02  0.00000000000E+00 0. -1.
         22    1    3    3    0    0 -0.81930265229E+01  0.13624910355E+03 -0.39929034549E+03  0.42197597550E+03  0.00000000000E+00 0.  1.
         22    1    3    3    0    0  0.37590047460E+01 -0.26831338595E+02 -0.12988337079E+03  0.13267908974E+03  0.00000000000E+00 0.  1.
</event>
<event>
 7    1  0.5194496E-006  0.5730978E+02  0.7818608E-02  0.1482822E+00
          2   -1    0    0  502    0  0.00000000000E+00  0.00000000000E+00  0.29770036464E+03  0.29770036464E+03  0.00000000000E+00 0. -1.
          1   -1    0    0  501    0 -0.00000000000E+00 -0.00000000000E+00 -0.77326519603E+03  0.77326519603E+03  0.00000000000E+00 0. -1.
         25    2    1    2    0    0 -0.14992674123E+02  0.88805771482E+02  0.41982898306E+02  0.15966861303E+03  0.12498102621E+03 0.  0.
          2    1    1    2  501    0  0.69553364177E+01 -0.56515095857E+02 -0.71187124127E+03  0.71414494111E+03  0.00000000000E+00 0. -1.
          1    1    1    2  502    0  0.80373377049E+01 -0.32290675626E+02  0.19432351157E+03  0.19715200653E+03  0.00000000000E+00 0. -1.
         22    1    3    3    0    0 -0.23766733085E+02  0.96004251605E+02 -0.16347605477E+02  0.10024429227E+03  0.00000000000E+00 0.  1.
         22    1    3    3    0    0  0.87740589621E+01 -0.71984801226E+01  0.58330503783E+02  0.59424320765E+02  0.00000000000E+00 0.  1.
</event>
<event>
 7    1  0.5194496E-006  0.3819534E+02  0.7818608E-02  0.1538424E+00
          2   -1    0    0  502    0  0.00000000000E+00  0.00000000000E+00  0.14781862764E+03  0.14781862764E+03  0.00000000000E+00 0. -1.
          1   -1    0    0  501    0 -0.00000000000E+00 -0.00000000000E+00 -0.14265169660E+04  0.14265169660E+04  0.00000000000E+00 0. -1.
         25    2    1    2    0    0  0.43478137038E+02  0.51234711841E+02 -0.35707382069E+02  0.14634052696E+03  0.12500075439E+03 0.  0.
          2    1    1    2  501    0 -0.12880023004E+02 -0.35828787634E+02 -0.13320398628E+04  0.13325838785E+04  0.00000000000E+00 0. -1.
          1    1    1    2  502    0 -0.30598114034E+02 -0.15405924207E+02  0.89048906523E+02  0.95411188212E+02  0.00000000000E+00 0. -1.
         22    1    3    3    0    0  0.77223772158E+02  0.24608764993E+02 -0.56292192128E+02  0.98680865396E+02  0.00000000000E+00 0.  1.
         22    1    3    3    0    0 -0.33745635120E+02  0.26625946848E+02  0.20584810059E+02  0.47659661564E+02  0.00000000000E+00 0.  1.
</event>
<event>
 7    1  0.5194496E-006  0.4860221E+02  0.7818608E-02  0.1566642E+00
          2   -1    0    0  502    0  0.00000000000E+00  0.00000000000E+00  0.26534349536E+03  0.26534349536E+03  0.00000000000E+00 0. -1.
          1   -1    0    0  501    0 -0.00000000000E+00 -0.00000000000E+00 -0.96856648527E+02  0.96856648527E+02  0.00000000000E+00 0. -1.
         25    2    1    2    0    0 -0.33638203190E+01 -0.43607471611E+02  0.84076393500E+02  0.15686470741E+03  0.12499907847E+03 0.  0.
          2    1    1    2  501    0  0.25788083760E+02  0.42130234465E+02 -0.49276867338E+02  0.69772427038E+02  0.00000000000E+00 0. -1.
          1    1    1    2  502    0 -0.22424263441E+02  0.14772371457E+01  0.13368732067E+03  0.13556300944E+03  0.00000000000E+00 0. -1.
         22    1    3    3    0    0  0.56281239131E+01  0.44001747493E+02  0.28011005748E+02  0.52463758960E+02  0.00000000000E+00 0.  1.
         22    1    3    3    0    0 -0.89919442322E+01 -0.87609219104E+02  0.56065387752E+02  0.10440094845E+03  0.00000000000E+00 0.  1.
</event>
<event>
 7    1  0.5194496E-006  0.1030322E+03  0.7818608E-02  0.1277751E+00
          2   -1    0    0  502    0  0.00000000000E+00  0.00000000000E+00  0.11691233068E+04  0.11691233068E+04  0.00000000000E+00 0. -1.
          1   -1    0    0  501    0 -0.00000000000E+00 -0.00000000000E+00 -0.16067028061E+04  0.16067028061E+04  0.00000000000E+00 0. -1.
         25    2    1    2    0    0  0.15151187112E+03  0.91827938239E+02  0.11296136671E+03  0.24448623039E+03  0.12500011660E+03 0.  0.
          2    1    1    2  501    0 -0.99285928135E+02 -0.55276999390E+01 -0.15367607826E+04  0.15399746602E+04  0.00000000000E+00 0. -1.
          1    1    1    2  502    0 -0.52225942987E+02 -0.86300238300E+02  0.98621991657E+03  0.99136522236E+03  0.00000000000E+00 0. -1.
         22    1    3    3    0    0  0.45355711846E+02  0.99808947961E+02  0.47224829416E+02  0.11936980859E+03  0.00000000000E+00 0. -1.
         22    1    3    3    0    0  0.10615615928E+03 -0.79810097220E+01  0.65736537293E+02  0.12511642180E+03  0.00000000000E+00 0. -1.
</event>
<event>
 7    1  0.5194496E-006  0.2130963E+03  0.7818608E-02  0.1218662E+00
          2   -1    0    0  502    0  0.00000000000E+00  0.00000000000E+00  0.12524335754E+04  0.12524335754E+04  0.00000000000E+00 0. -1.
          1   -1    0    0  501    0 -0.00000000000E+00 -0.00000000000E+00 -0.31785959804E+03  0.31785959804E+03  0.00000000000E+00 0. -1.
         25    2    1    2    0    0  0.62260677046E+02 -0.24209691293E+03  0.46285889482E+03  0.54069485962E+03  0.12500107018E+03 0.  0.
          2    1    1    2  501    0 -0.11784243571E+03  0.17524937211E+03 -0.23592484917E+03  0.31663814764E+03  0.00000000000E+00 0. -1.
          1    1    1    2  502    0  0.55581758666E+02  0.66847540816E+02  0.70763993174E+03  0.71296016621E+03  0.00000000000E+00 0. -1.
         22    1    3    3    0    0 -0.38127685848E+02 -0.51828004356E+02  0.10904732765E+03  0.12661430461E+03  0.00000000000E+00 0.  1.
         22    1    3    3    0    0  0.10038836289E+03 -0.19026890857E+03  0.35381156718E+03  0.41408055501E+03  0.00000000000E+00 0.  1.
</event>
<event>
 7    1  0.5194496E-006  0.3980910E+02  0.7818608E-02  0.1517542E+00
          2   -1    0    0  502    0  0.00000000000E+00  0.00000000000E+00  0.33869215248E+03  0.33869215248E+03  0.00000000000E+00 0. -1.
          1   -1    0    0  501    0 -0.00000000000E+00 -0.00000000000E+00 -0.23513839174E+04  0.23513839174E+04  0.00000000000E+00 0. -1.
         25    2    1    2    0    0  0.58175688397E+02 -0.19796484576E+02  0.43718266851E+02  0.14598997255E+03  0.12500189482E+03 0.  0.
          2    1    1    2  501    0 -0.20515229985E+02  0.31674806176E+02 -0.22984933444E+04  0.22988031283E+04  0.00000000000E+00 0. -1.
          1    1    1    2  502    0 -0.37660458412E+02 -0.11878321600E+02  0.24208331267E+03  0.24528296909E+03  0.00000000000E+00 0. -1.
         22    1    3    3    0    0  0.48199546546E+02  0.39408630315E+02 -0.12768212757E+02  0.63555201892E+02  0.00000000000E+00 0. -1.
         22    1    3    3    0    0  0.99761418506E+01 -0.59205114891E+02  0.56486479608E+02  0.82434770662E+02  0.00000000000E+00 0. -1.
</event>
<event>
 7    1  0.5194496E-006  0.7666883E+02  0.7818608E-02  0.1474303E+00
          2   -1    0    0  502    0  0.00000000000E+00  0.00000000000E+00  0.58753507784E+03  0.58753507784E+03  0.00000000000E+00 0. -1.
          1   -1    0    0  501    0 -0.00000000000E+00 -0.00000000000E+00 -0.32759432191E+02  0.32759432191E+02  0.00000000000E+00 0. -1.
         25    2    1    2    0    0  0.42544087953E+02 -0.42732229264E+02  0.24803435268E+03  0.28422160105E+03  0.12499934224E+03 0.  0.
          2    1    1    2  501    0 -0.67403787838E+02  0.51675617359E+02  0.11742246499E+03  0.14491954778E+03  0.00000000000E+00 0. -1.
          1    1    1    2  502    0  0.24859699885E+02 -0.89433880953E+01  0.18931882797E+03  0.19115336119E+03  0.00000000000E+00 0. -1.
         22    1    3    3    0    0 -0.12217771872E+02  0.36313322728E+02  0.41992191178E+02  0.56844309099E+02  0.00000000000E+00 0.  1.
         22    1    3    3    0    0  0.54761859825E+02 -0.79045551991E+02  0.20604216150E+03  0.22737729196E+03  0.00000000000E+00 0.  1.
</event>
<event>
 7    1  0.5194496E-006  0.6552567E+02  0.7818608E-02  0.1469395E+00
          2   -1    0    0  502    0  0.00000000000E+00  0.00000000000E+00  0.21702634962E+04  0.21702634962E+04  0.00000000000E+00 0. -1.
          1   -1    0    0  501    0 -0.00000000000E+00 -0.00000000000E+00 -0.43379942334E+03  0.43379942334E+03  0.00000000000E+00 0. -1.
         25    2    1    2    0    0 -0.33563925149E+02 -0.75036409919E+02 -0.72733693761E+02  0.16635150822E+03  0.12500253675E+03 0.  0.
          2    1    1    2  501    0  0.30533818891E+02  0.96274109104E+01 -0.31293511789E+03  0.31456857623E+03  0.00000000000E+00 0. -1.
          1    1    1    2  502    0  0.30301062577E+01  0.65408999008E+02  0.21221328846E+04  0.21231428351E+04  0.00000000000E+00 0. -1.
         22    1    3    3    0    0 -0.31351102634E+02 -0.53433238646E+02 -0.10824896383E+03  0.12472305640E+03  0.00000000000E+00 0.  1.
         22    1    3    3    0    0 -0.22128225146E+01 -0.21603171272E+02  0.35515270069E+02  0.41628451815E+02  0.00000000000E+00 0.  1.
</event>
<event>
 7    1  0.5194496E-006  0.7067581E+02  0.7818608E-02  0.1439905E+00
          2   -1    0    0  502    0  0.00000000000E+00  0.00000000000E+00  0.45588389076E+04  0.45588389076E+04  0.00000000000E+00 0. -1.
          1   -1    0    0  501    0 -0.00000000000E+00 -0.00000000000E+00 -0.44218795149E+03  0.44218795149E+03  0.00000000000E+00 0. -1.
         25    2    1    2    0    0 -0.22450086641E+02  0.91090149208E+02  0.66038104234E+02  0.16966822932E+03  0.12499942063E+03 0.  0.
          2    1    1    2  501    0 -0.17094693639E+02 -0.32626660361E+02 -0.38922290013E+03  0.39096188241E+03  0.00000000000E+00 0. -1.
          1    1    1    2  502    0  0.39544780280E+02 -0.58463488847E+02  0.44398357520E+04  0.44403967473E+04  0.00000000000E+00 0. -1.
         22    1    3    3    0    0 -0.11618917474E+02  0.10020357926E+03 -0.12748771650E+01  0.10088301072E+03  0.00000000000E+00 0. -1.
         22    1    3    3    0    0 -0.10831169167E+02 -0.91134300541E+01  0.67312981399E+02  0.68785218599E+02  0.00000000000E+00 0. -1.
</event>
<event>
 7    1  0.5194496E-006  0.1032790E+03  0.7818608E-02  0.1287588E+00
          2   -1    0    0  502    0  0.00000000000E+00  0.00000000000E+00  0.12194603610E+04  0.12194603610E+04  0.00000000000E+00 0. -1.
          1   -1    0    0  501    0 -0.00000000000E+00 -0.00000000000E+00 -0.12743964755E+03  0.12743964755E+03  0.00000000000E+00 0. -1.
         25    2    1    2    0    0  0.12203654450E+03 -0.30693815580E+02 -0.13071386439E+02  0.17785491731E+03  0.12500592771E+03 0.  0.
          2    1    1    2  501    0 -0.83869206333E+02 -0.51225373837E+02  0.50321459881E+02  0.11040983661E+03  0.00000000000E+00 0. -1.
          1    1    1    2  502    0 -0.38167338165E+02  0.81919189417E+02  0.10547706400E+04  0.10586352546E+04  0.00000000000E+00 0. -1.
         22    1    3    3    0    0  0.56465313094E+01  0.38460455826E+02 -0.16967418858E+02  0.42414423028E+02  0.00000000000E+00 0. -1.
         22    1    3    3    0    0  0.11639001319E+03 -0.69154271406E+02  0.38960324187E+01  0.13544049429E+03  0.00000000000E+00 0. -1.
</event>
<event>
 7    1  0.5194496E-006  0.1513343E+03  0.7818608E-02  0.1297177E+00
          2   -1    0    0  502    0  0.00000000000E+00  0.00000000000E+00  0.33078283637E+04  0.33078283637E+04  0.00000000000E+00 0. -1.
          1   -1    0    0  501    0 -0.00000000000E+00 -0.00000000000E+00 -0.46402703042E+02  0.46402703042E+02  0.00000000000E+00 0. -1.
         25    2    1    2    0    0 -0.12627691000E+03  0.33763763933E+02  0.73541011237E+03  0.75732650482E+03  0.12501820575E+03 0.  0.
          2    1    1    2  501    0  0.12954417349E+03 -0.90066942885E+02  0.14213941992E+03  0.21236139428E+03  0.00000000000E+00 0. -1.
          1    1    1    2  502    0 -0.32672634886E+01  0.56303178952E+02  0.23838761284E+04  0.23845431677E+04  0.00000000000E+00 0. -1.
         22    1    3    3    0    0  0.92313050563E+00  0.52319477947E+02  0.21259814027E+03  0.21894325564E+03  0.00000000000E+00 0.  1.
         22    1    3    3    0    0 -0.12720004050E+03 -0.18555714014E+02  0.52281197210E+03  0.53838324918E+03  0.00000000000E+00 0.  1.
</event>
<event>
 7    1  0.5194496E-006  0.5045465E+02  0.7818608E-02  0.1444869E+00
          2   -1    0    0  502    0  0.00000000000E+00  0.00000000000E+00  0.12336696412E+04  0.12336696412E+04  0.00000000000E+00 0. -1.
          1   -1    0    0  501    0 -0.00000000000E+00 -0.00000000000E+00 -0.33299512719E+02  0.33299512719E+02  0.00000000000E+00 0. -1.
         25    2    1    2    0    0 -0.80212065032E+01 -0.87866732268E+01  0.26908335775E+03  0.29693842454E+03  0.12500011668E+03 0.  0.
          2    1    1    2  501    0  0.55516684526E+02 -0.82383533321E+01  0.23504874932E+02  0.60847776228E+02  0.00000000000E+00 0. -1.
          1    1    1    2  502    0 -0.47495478023E+02  0.17025026559E+02  0.90778189576E+03  0.90918295312E+03  0.00000000000E+00 0. -1.
         22    1    3    3    0    0 -0.62495999002E+01 -0.30846902490E+02  0.27270290539E+03  0.27451313903E+03  0.00000000000E+00 0. -1.
         22    1    3    3    0    0 -0.17716066030E+01  0.22060229263E+02 -0.36195476374E+01  0.22425285510E+02  0.00000000000E+00 0. -1.
</event>
<event>
 7    1  0.7656666E-006  0.8682753E+02  0.7818608E-02  0.1339805E+00
          2   -1    0    0  502    0  0.00000000000E+00  0.00000000000E+00  0.79984656680E+03  0.79984656680E+03  0.00000000000E+00 0. -1.
          1   -1    0    0  501    0 -0.00000000000E+00 -0.00000000000E+00 -0.24479541051E+04  0.24479541051E+04  0.00000000000E+00 0. -1.
         25    2    1    2    0    0 -0.86614907423E+02 -0.93809281824E+01 -0.25612065895E+03  0.29801511538E+03  0.12500029221E+03 0.  0.
          2    1    1    2  501    0  0.54967432795E+02  0.68548240021E+02 -0.21685498077E+04  0.21703291336E+04  0.00000000000E+00 0. -1.
          1    1    1    2  502    0  0.31647474629E+02 -0.59167311839E+02  0.77656292836E+03  0.77945642286E+03  0.00000000000E+00 0. -1.
         22    1    3    3    0    0  0.16785762498E+02 -0.40555522855E+02 -0.85018867081E+02  0.95680301088E+02  0.00000000000E+00 0. -1.
         22    1    3    3    0    0 -0.10340066992E+03  0.31174594673E+02 -0.17110179187E+03  0.20233481429E+03  0.00000000000E+00 0. -1.
</event>
<event>
 7    1  0.5194496E-006  0.4556707E+02  0.7818608E-02  0.1472617E+00
          2   -1    0    0  502    0  0.00000000000E+00  0.00000000000E+00  0.93512424766E+03  0.93512424766E+03  0.00000000000E+00 0. -1.
          1   -1    0    0  501    0 -0.00000000000E+00 -0.00000000000E+00 -0.44364868071E+02  0.44364868071E+02  0.00000000000E+00 0. -1.
         25    2    1    2    0    0  0.18953284541E+02  0.31644221891E+02  0.21285218341E+03  0.24958016378E+03  0.12499448945E+03 0.  0.
          2    1    1    2  501    0 -0.44324737304E+02  0.77071317919E+01 -0.51187744070E+01  0.45280062599E+02  0.00000000000E+00 0. -1.
          1    1    1    2  502    0  0.25371452762E+02 -0.39351353683E+02  0.68302597058E+03  0.68462888935E+03  0.00000000000E+00 0. -1.
         22    1    3    3    0    0 -0.30702038866E+02  0.31706836318E+02  0.18974709560E+03  0.19481247124E+03  0.00000000000E+00 0.  1.
         22    1    3    3    0    0  0.49655323408E+02 -0.62614426886E-01  0.23105087812E+02  0.54767692539E+02  0.00000000000E+00 0.  1.
</event>
<event>
 7    1  0.5194496E-006  0.1443248E+03  0.7818608E-02  0.1282480E+00
          2   -1    0    0  502    0  0.00000000000E+00  0.00000000000E+00  0.35285832353E+03  0.35285832353E+03  0.00000000000E+00 0. -1.
          1   -1    0    0  501    0 -0.00000000000E+00 -0.00000000000E+00 -0.26116255831E+04  0.26116255831E+04  0.00000000000E+00 0. -1.
         25    2    1    2    0    0  0.96194122763E+02  0.72149933655E+01 -0.16246148241E+03  0.22654738240E+03  0.12499847128E+03 0.  0.
          2    1    1    2  501    0 -0.14176430034E+03  0.43076187574E+02 -0.24112324188E+04  0.24157802988E+04  0.00000000000E+00 0. -1.
          1    1    1    2  502    0  0.45570177572E+02 -0.50291180940E+02  0.31492664163E+03  0.32215622541E+03  0.00000000000E+00 0. -1.
         22    1    3    3    0    0  0.28305740916E+02  0.43035706426E+02 -0.54755060470E+01  0.51800271841E+02  0.00000000000E+00 0.  1.
         22    1    3    3    0    0  0.67888381847E+02 -0.35820713060E+02 -0.15698597636E+03  0.17474711056E+03  0.00000000000E+00 0.  1.
</event>
<event>
 7    1  0.5194496E-006  0.1313243E+03  0.7818608E-02  0.1379743E+00
          2   -1    0    0  502    0  0.00000000000E+00  0.00000000000E+00  0.22968926360E+04  0.22968926360E+04  0.00000000000E+00 0. -1.
          1   -1    0    0  501    0 -0.00000000000E+00 -0.00000000000E+00 -0.43264682561E+03  0.43264682561E+03  0.00000000000E+00 0. -1.
         25    2    1    2    0    0 -0.15221652186E+03  0.15058618746E+01  0.33630433207E+03  0.38974506819E+03  0.12501390828E+03 0.  0.
          2    1    1    2  501    0  0.23900138997E+02 -0.20839970974E+02 -0.40312629889E+03  0.40437152953E+03  0.00000000000E+00 0. -1.
          1    1    1    2  502    0  0.12831638286E+03  0.19334109099E+02  0.19310677772E+04  0.19354228639E+04  0.00000000000E+00 0. -1.
         22    1    3    3    0    0 -0.16253014027E+02  0.22461277913E+02  0.14839739499E+01  0.27764575436E+02  0.00000000000E+00 0. -1.
         22    1    3    3    0    0 -0.13596350783E+03 -0.20955416038E+02  0.33482035812E+03  0.36198049276E+03  0.00000000000E+00 0. -1.
</event>
<event>
 7    1  0.5194496E-006  0.8414920E+02  0.7818608E-02  0.1351071E+00
          2   -1    0    0  502    0  0.00000000000E+00  0.00000000000E+00  0.10800327161E+04  0.10800327161E+04  0.00000000000E+00 0. -1.
          1   -1    0    0  501    0 -0.00000000000E+00 -0.00000000000E+00 -0.15318636444E+03  0.15318636444E+03  0.00000000000E+00 0. -1.
         25    2    1    2    0    0  0.27850252094E+02  0.10775088529E+03 -0.51653316956E+02  0.17515492393E+03  0.12500116960E+03 0.  0.
          2    1    1    2  501    0 -0.55973687279E+02 -0.28580463499E+02 -0.12020281317E+02  0.63987371600E+02  0.00000000000E+00 0. -1.
          1    1    1    2  502    0  0.28123435185E+02 -0.79170421789E+02  0.99051994989E+03  0.99407678497E+03  0.00000000000E+00 0. -1.
         22    1    3    3    0    0  0.53618758588E+02  0.86443550026E+02  0.12819798524E+02  0.10252709811E+03  0.00000000000E+00 0.  1.
         22    1    3    3    0    0 -0.25768506494E+02  0.21307335262E+02 -0.64473115480E+02  0.72627825815E+02  0.00000000000E+00 0.  1.
</event>
<event>
 7    1  0.5194496E-006  0.2510631E+03  0.7818608E-02  0.1316501E+00
          2   -1    0    0  502    0  0.00000000000E+00  0.00000000000E+00  0.68312178415E+03  0.68312178415E+03  0.00000000000E+00 0. -1.
          1   -1    0    0  501    0 -0.00000000000E+00 -0.00000000000E+00 -0.36524620679E+03  0.36524620679E+03  0.00000000000E+00 0. -1.
         25    2    1    2    0    0  0.24635944300E+03 -0.75473731953E+02  0.35621363984E+03  0.45705813070E+03  0.12499887302E+03 0.  0.
          2    1    1    2  501    0 -0.24597310088E+03  0.46973815189E+02 -0.26398813541E+03  0.36386679061E+03  0.00000000000E+00 0. -1.
          1    1    1    2  502    0 -0.38634211740E+00  0.28499916764E+02  0.22565007293E+03  0.22744306964E+03  0.00000000000E+00 0. -1.
         22    1    3    3    0    0  0.40137503649E+01  0.23976276083E+02  0.33955134883E+02  0.41760306413E+02  0.00000000000E+00 0. -1.
         22    1    3    3    0    0  0.24234569263E+03 -0.99450008036E+02  0.32225850496E+03  0.41529782428E+03  0.00000000000E+00 0. -1.
</event>
<event>
 7    1  0.5194496E-006  0.3628996E+02  0.7818608E-02  0.1606360E+00
          2   -1    0    0  502    0  0.00000000000E+00  0.00000000000E+00  0.21509302341E+04  0.21509302341E+04  0.00000000000E+00 0. -1.
          1   -1    0    0  501    0 -0.00000000000E+00 -0.00000000000E+00 -0.19800108882E+02  0.19800108882E+02  0.00000000000E+00 0. -1.
         25    2    1    2    0    0 -0.42405840594E+02 -0.39899788692E+01  0.72530823252E+03  0.73723216691E+03  0.12500024210E+03 0.  0.
          2    1    1    2  501    0  0.14186018747E+02 -0.18859988620E+02 -0.33695795077E+01  0.23838967358E+02  0.00000000000E+00 0. -1.
          1    1    1    2  502    0  0.28219821847E+02  0.22849967489E+02  0.14091914722E+04  0.14096592087E+04  0.00000000000E+00 0. -1.
         22    1    3    3    0    0  0.43057029397E+02 -0.11155026793E+02  0.19296543313E+03  0.19802525290E+03  0.00000000000E+00 0.  1.
         22    1    3    3    0    0 -0.85462869991E+02  0.71650479239E+01  0.53234279939E+03  0.53920691401E+03  0.00000000000E+00 0.  1.
</event>
<event>
 7    1  0.8766011E-006  0.6405012E+02  0.7818608E-02  0.1487636E+00
          2   -1    0    0  502    0  0.00000000000E+00  0.00000000000E+00  0.12041048308E+04  0.12041048308E+04  0.00000000000E+00 0. -1.
          1   -1    0    0  501    0 -0.00000000000E+00 -0.00000000000E+00 -0.15972718279E+04  0.15972718279E+04  0.00000000000E+00 0. -1.
         25    2    1    2    0    0  0.24564444191E+02  0.79293054161E+02 -0.15095717438E+03  0.21284849000E+03  0.12500244335E+03 0.  0.
          2    1    1    2  501    0 -0.24372415452E+02 -0.15316775303E+02 -0.14143502179E+04  0.14146431201E+04  0.00000000000E+00 0. -1.
          1    1    1    2  502    0 -0.19202873846E+00 -0.63976278858E+02  0.11721403952E+04  0.11738850485E+04  0.00000000000E+00 0. -1.
         22    1    3    3    0    0 -0.26838601247E+02  0.91213489323E+02 -0.11389895907E+03  0.14836840644E+03  0.00000000000E+00 0. -1.
         22    1    3    3    0    0  0.51403045438E+02 -0.11920435162E+02 -0.37058215308E+02  0.64480083565E+02  0.00000000000E+00 0. -1.
</event>
<event>
 7    1  0.5194496E-006  0.7230569E+02  0.7818608E-02  0.1443267E+00
          2   -1    0    0  502    0  0.00000000000E+00  0.00000000000E+00  0.15946860275E+04  0.15946860275E+04  0.00000000000E+00 0. -1.
          1   -1    0    0  501    0 -0.00000000000E+00 -0.00000000000E+00 -0.60964638139E+03  0.60964638139E+03  0.00000000000E+00 0. -1.
         25    2    1    2    0    0  0.94724861771E+02  0.35781057893E+02  0.63974220019E+03  0.65965711378E+03  0.12499736599E+03 0.  0.
          2    1    1    2  501    0 -0.35080976593E+02 -0.14851397034E+01 -0.59792090488E+03  0.59895099052E+03  0.00000000000E+00 0. -1.
          1    1    1    2  502    0 -0.59643885178E+02 -0.34295918190E+02  0.94321835084E+03  0.94572430465E+03  0.00000000000E+00 0. -1.
         22    1    3    3    0    0  0.15420299883E+02  0.47374452560E+02  0.46202305740E+03  0.46470144176E+03  0.00000000000E+00 0. -1.
         22    1    3    3    0    0  0.79304561888E+02 -0.11593394667E+02  0.17771914279E+03  0.19495567201E+03  0.00000000000E+00 0. -1.
</event>
<event>
 7    1  0.5194496E-006  0.4352092E+02  0.7818608E-02  0.1508545E+00
          2   -1    0    0  502    0  0.00000000000E+00  0.00000000000E+00  0.52639568104E+03  0.52639568104E+03  0.00000000000E+00 0. -1.
          1   -1    0    0  501    0 -0.00000000000E+00 -0.00000000000E+00 -0.12174625806E+04  0.12174625806E+04  0.00000000000E+00 0. -1.
         25    2    1    2    0    0  0.11929935760E+02 -0.14432072615E+02  0.25755739467E+03  0.28690361797E+03  0.12500906515E+03 0.  0.
          2    1    1    2  501    0  0.35767607042E+02  0.81330241967E+01 -0.12002299691E+04  0.12007903424E+04  0.00000000000E+00 0. -1.
          1    1    1    2  502    0 -0.47697542802E+02  0.62990484179E+01  0.25160567486E+03  0.25616430122E+03  0.00000000000E+00 0. -1.
         22    1    3    3    0    0  0.56008478537E+02 -0.45578796217E+02  0.15570652915E+03  0.17163595064E+03  0.00000000000E+00 0. -1.
         22    1    3    3    0    0 -0.44078542777E+02  0.31146723603E+02  0.10185086552E+03  0.11526766733E+03  0.00000000000E+00 0. -1.
</event>
<event>
 7    1  0.5194496E-006  0.1119762E+03  0.7818608E-02  0.1360204E+00
          2   -1    0    0  502    0  0.00000000000E+00  0.00000000000E+00  0.20131551048E+03  0.20131551048E+03  0.00000000000E+00 0. -1.
          1   -1    0    0  501    0 -0.00000000000E+00 -0.00000000000E+00 -0.12275306655E+04  0.12275306655E+04  0.00000000000E+00 0. -1.
         25    2    1    2    0    0 -0.16850315617E+02 -0.13756480788E+03 -0.28634480722E+02  0.18881938879E+03  0.12499927438E+03 0.  0.
          2    1    1    2  501    0  0.43043651063E+02  0.10256152155E+03 -0.11119951783E+04  0.11175441370E+04  0.00000000000E+00 0. -1.
          1    1    1    2  502    0 -0.26193335446E+02  0.35003286330E+02  0.11441450399E+03  0.12248265019E+03  0.00000000000E+00 0. -1.
         22    1    3    3    0    0  0.34607022889E+02 -0.32327780125E+02  0.31762064211E+02  0.57022452805E+02  0.00000000000E+00 0. -1.
         22    1    3    3    0    0 -0.51457338506E+02 -0.10523702775E+03 -0.60396544933E+02  0.13179693599E+03  0.00000000000E+00 0. -1.
</event>
<event>
 7    1  0.5194496E-006  0.6747840E+02  0.7818608E-02  0.1398273E+00
          2   -1    0    0  502    0  0.00000000000E+00  0.00000000000E+00  0.24640026010E+02  0.24640026010E+02  0.00000000000E+00 0. -1.
          1   -1    0    0  501    0 -0.00000000000E+00 -0.00000000000E+00 -0.28322286037E+04  0.28322286037E+04  0.00000000000E+00 0. -1.
         25    2    1    2    0    0  0.53127442364E+02  0.95074146097E+02 -0.34056692224E+03  0.37877767152E+03  0.12500031011E+03 0.  0.
          2    1    1    2  501    0 -0.51788984842E+02 -0.41927391237E+02 -0.23324058640E+04  0.23333574779E+04  0.00000000000E+00 0. -1.
          1    1    1    2  502    0 -0.13384575222E+01 -0.53146754859E+02 -0.13461579147E+03  0.14473348035E+03  0.00000000000E+00 0. -1.
         22    1    3    3    0    0  0.93185083840E+02  0.51816190922E+02 -0.22835008094E+03  0.25201614424E+03  0.00000000000E+00 0. -1.
         22    1    3    3    0    0 -0.40057641476E+02  0.43257955174E+02 -0.11221684130E+03  0.12676152728E+03  0.00000000000E+00 0. -1.
</event>
<event>
 7    1  0.5194496E-006  0.8440053E+02  0.7818608E-02  0.1376116E+00
          2   -1    0    0  502    0  0.00000000000E+00  0.00000000000E+00  0.12651195461E+04  0.12651195461E+04  0.00000000000E+00 0. -1.
          1   -1    0    0  501    0 -0.00000000000E+00 -0.00000000000E+00 -0.16108569655E+04  0.16108569655E+04  0.00000000000E+00 0. -1.
         25    2    1    2    0    0 -0.35784841867E+02  0.12350670678E+03  0.24480335894E+03  0.30345920438E+03  0.12499737056E+03 0.  0.
          2    1    1    2  501    0  0.36161286109E+01 -0.84156890965E+02 -0.15797545461E+04  0.15819986994E+04  0.00000000000E+00 0. -1.
          1    1    1    2  502    0  0.32168713256E+02 -0.39349815819E+02  0.98921376780E+03  0.99051860786E+03  0.00000000000E+00 0. -1.
         22    1    3    3    0    0  0.29253998226E+02  0.29670270418E+01  0.89779245943E+01  0.30744150528E+02  0.00000000000E+00 0. -1.
         22    1    3    3    0    0 -0.65038840093E+02  0.12053967974E+03  0.23582543435E+03  0.27271505385E+03  0.00000000000E+00 0. -1.
</event>
<event>
 7    1  0.5194496E-006  0.1211287E+03  0.7818608E-02  0.1326733E+00
          2   -1    0    0  502    0  0.00000000000E+00  0.00000000000E+00  0.20175671178E+04  0.20175671178E+04  0.00000000000E+00 0. -1.
          1   -1    0    0  501    0 -0.00000000000E+00 -0.00000000000E+00 -0.18486359589E+03  0.18486359589E+03  0.00000000000E+00 0. -1.
         25    2    1    2    0    0  0.91467302326E+02  0.10998592376E+02  0.44098325776E+03  0.46752434231E+03  0.12500216238E+03 0.  0.
          2    1    1    2  501    0 -0.11744124444E+03  0.36262620557E+02 -0.14905009417E+03  0.19319253121E+03  0.00000000000E+00 0. -1.
          1    1    1    2  502    0  0.25973942119E+02 -0.47261212932E+02  0.15407703583E+04  0.15417138401E+04  0.00000000000E+00 0. -1.
         22    1    3    3    0    0  0.64204550777E+02 -0.54541670025E+02  0.23313088978E+03  0.24788511427E+03  0.00000000000E+00 0.  1.
         22    1    3    3    0    0  0.27262751548E+02  0.65540262400E+02  0.20785236798E+03  0.21963922804E+03  0.00000000000E+00 0.  1.
</event>
<event>
 7    1  0.5194496E-006  0.3469521E+02  0.7818608E-02  0.1641709E+00
          2   -1    0    0  502    0  0.00000000000E+00  0.00000000000E+00  0.56537277629E+03  0.56537277629E+03  0.00000000000E+00 0. -1.
          1   -1    0    0  501    0 -0.00000000000E+00 -0.00000000000E+00 -0.91648266433E+02  0.91648266433E+02  0.00000000000E+00 0. -1.
         25    2    1    2    0    0 -0.25412453344E+02 -0.18415022372E+02  0.54905909240E+02  0.14008665769E+03  0.12499882783E+03 0.  0.
          2    1    1    2  501    0  0.13929220349E+02 -0.14468293349E+02 -0.46323604547E+02  0.50489910182E+02  0.00000000000E+00 0. -1.
          1    1    1    2  502    0  0.11483232995E+02  0.32883315721E+02  0.46514220516E+03  0.46644447485E+03  0.00000000000E+00 0. -1.
         22    1    3    3    0    0 -0.74578228949E+02  0.43324338636E+01  0.31519980421E+02  0.81081387396E+02  0.00000000000E+00 0.  1.
         22    1    3    3    0    0  0.49165775605E+02 -0.22747456235E+02  0.23385928820E+02  0.59005270296E+02  0.00000000000E+00 0.  1.
</event>
<event>
 7    1  0.5194496E-006  0.1943143E+03  0.7818608E-02  0.1352566E+00
          2   -1    0    0  502    0  0.00000000000E+00  0.00000000000E+00  0.15041209317E+04  0.15041209317E+04  0.00000000000E+00 0. -1.
          1   -1    0    0  501    0 -0.00000000000E+00 -0.00000000000E+00 -0.13442433111E+04  0.13442433111E+04  0.00000000000E+00 0. -1.
         25    2    1    2    0    0 -0.19922373631E+02 -0.17229741443E+03  0.15064869927E+03  0.26154081984E+03  0.12500107944E+03 0.  0.
          2    1    1    2  501    0 -0.16010929679E+02 -0.21582503830E+02 -0.12811671229E+04  0.12814489265E+04  0.00000000000E+00 0. -1.
          1    1    1    2  502    0  0.35933303310E+02  0.19387991826E+03  0.12903960443E+04  0.13053744965E+04  0.00000000000E+00 0. -1.
         22    1    3    3    0    0 -0.46700097276E+02 -0.10168470637E+03  0.14856843879E+03  0.18599263318E+03  0.00000000000E+00 0.  1.
         22    1    3    3    0    0  0.26777723645E+02 -0.70612708060E+02  0.20802604783E+01  0.75548186655E+02  0.00000000000E+00 0.  1.
</event>
<event>
 7    1  0.5194496E-006  0.1025688E+03  0.7818608E-02  0.1376199E+00
          2   -1    0    0  502    0  0.00000000000E+00  0.00000000000E+00  0.18300066112E+03  0.18300066112E+03  0.00000000000E+00 0. -1.
          1   -1    0    0  501    0 -0.00000000000E+00 -0.00000000000E+00 -0.10613076407E+04  0.10613076407E+04  0.00000000000E+00 0. -1.
         25    2    1    2    0    0 -0.88063747494E+01  0.63137494747E+02 -0.42826871822E+02  0.14670789661E+03  0.12500068200E+03 0.  0.
          2    1    1    2  501    0  0.24894435881E+02 -0.10171113069E+03 -0.96028818074E+03  0.96598047450E+03  0.00000000000E+00 0. -1.
          1    1    1    2  502    0 -0.16088061131E+02  0.38573635946E+02  0.12480807294E+03  0.13161993076E+03  0.00000000000E+00 0. -1.
         22    1    3    3    0    0 -0.11513596396E+02 -0.15327756367E+02  0.32610318393E+02  0.37827713160E+02  0.00000000000E+00 0.  1.
         22    1    3    3    0    0  0.27072216465E+01  0.78465251113E+02 -0.75437190215E+02  0.10888018345E+03  0.00000000000E+00 0.  1.
</event>
<event>
 7    1  0.5194496E-006  0.3085445E+03  0.7818608E-02  0.1305180E+00
          2   -1    0    0  502    0  0.00000000000E+00  0.00000000000E+00  0.11907011334E+04  0.11907011334E+04  0.00000000000E+00 0. -1.
          1   -1    0    0  501    0 -0.00000000000E+00 -0.00000000000E+00 -0.57147148913E+03  0.57147148913E+03  0.00000000000E+00 0. -1.
         25    2    1    2    0    0  0.32485998965E+03  0.49495920498E+02  0.20041613588E+03  0.40469152113E+03  0.12499896293E+03 0.  0.
          2    1    1    2  501    0 -0.24139901309E+02 -0.88133857822E+01 -0.44302929542E+03  0.44377400465E+03  0.00000000000E+00 0. -1.
          1    1    1    2  502    0 -0.30072008834E+03 -0.40682534716E+02  0.86184280385E+03  0.91370709679E+03  0.00000000000E+00 0. -1.
         22    1    3    3    0    0  0.13694620952E+03  0.82192345671E+02  0.10750658489E+03  0.19252924916E+03  0.00000000000E+00 0.  1.
         22    1    3    3    0    0  0.18791378013E+03 -0.32696425173E+02  0.92909550995E+02  0.21216227197E+03  0.00000000000E+00 0.  1.
</event>
<event>
 7    1  0.5194496E-006  0.7238648E+02  0.7818608E-02  0.1392872E+00
          2   -1    0    0  502    0  0.00000000000E+00  0.00000000000E+00  0.70710467468E+03  0.70710467468E+03  0.00000000000E+00 0. -1.
          1   -1    0    0  501    0 -0.00000000000E+00 -0.00000000000E+00 -0.49315121536E+03  0.49315121536E+03  0.00000000000E+00 0. -1.
         25    2    1    2    0    0  0.11495252582E+03 -0.14071549267E+02 -0.36672362494E+03  0.40437962528E+03  0.12499829024E+03 0.  0.
          2    1    1    2  501    0 -0.43970872488E+02  0.27266433613E+02 -0.99356664442E+02  0.11202072486E+03  0.00000000000E+00 0. -1.
          1    1    1    2  502    0 -0.70981653336E+02 -0.13194884346E+02  0.68003374870E+03  0.68385553990E+03  0.00000000000E+00 0. -1.
         22    1    3    3    0    0 -0.17549672334E+02 -0.16018055004E+01 -0.14286113003E+03  0.14394394483E+03  0.00000000000E+00 0.  1.
         22    1    3    3    0    0  0.13250219816E+03 -0.12469743767E+02 -0.22386249491E+03  0.26043568046E+03  0.00000000000E+00 0.  1.
</event>
<event>
 7    1  0.5194496E-006  0.1696826E+03  0.7818608E-02  0.1276038E+00
          2   -1    0    0  502    0  0.00000000000E+00  0.00000000000E+00  0.36253983513E+04  0.36253983513E+04  0.00000000000E+00 0. -1.
          1   -1    0    0  501    0 -0.00000000000E+00 -0.00000000000E+00 -0.57694776762E+03  0.57694776762E+03  0.00000000000E+00 0. -1.
         25    2    1    2    0    0  0.34245270392E+00  0.21189055928E+03  0.12406893532E+04  0.12648446139E+04  0.12499639962E+03 0.  0.
          2    1    1    2  501    0 -0.29567659144E+02 -0.53786559266E+02 -0.56046895092E+03  0.56381972772E+03  0.00000000000E+00 0. -1.
          1    1    1    2  502    0  0.29225206440E+02 -0.15810400002E+03  0.23682301814E+04  0.23736817772E+04  0.00000000000E+00 0. -1.
         22    1    3    3    0    0  0.52334732066E+02  0.16724698126E+03  0.96368591483E+03  0.97949018339E+03  0.00000000000E+00 0.  1.
         22    1    3    3    0    0 -0.51992279362E+02  0.44643578026E+02  0.27700343835E+03  0.28535443054E+03  0.00000000000E+00 0.  1.
</event>
<event>
 7    1  0.5194496E-006  0.3630637E+02  0.7818608E-02  0.1574273E+00
          2   -1    0    0  502    0  0.00000000000E+00  0.00000000000E+00  0.53716203944E+03  0.53716203944E+03  0.00000000000E+00 0. -1.
          1   -1    0    0  501    0 -0.00000000000E+00 -0.00000000000E+00 -0.18934515797E+04  0.18934515797E+04  0.00000000000E+00 0. -1.
         25    2    1    2    0    0 -0.50367905290E+02 -0.38607443989E+02  0.15640079040E+03  0.21003322660E+03  0.12500115370E+03 0.  0.
          2    1    1    2  501    0  0.24077589547E+02  0.27140482673E+02 -0.18658776458E+04  0.18662303516E+04  0.00000000000E+00 0. -1.
          1    1    1    2  502    0  0.26290315744E+02  0.11466961316E+02  0.35318731517E+03  0.35435004092E+03  0.00000000000E+00 0. -1.
         22    1    3    3    0    0 -0.12507961289E+02 -0.56632941735E+02  0.11421384021E+02  0.59111650274E+02  0.00000000000E+00 0. -1.
         22    1    3    3    0    0 -0.37859944001E+02  0.18025497746E+02  0.14497940638E+03  0.15092157633E+03  0.00000000000E+00 0. -1.
</event>
<event>
 7    1  0.5194496E-006  0.8381889E+02  0.7818608E-02  0.1424419E+00
          2   -1    0    0  502    0  0.00000000000E+00  0.00000000000E+00  0.17678469058E+04  0.17678469058E+04  0.00000000000E+00 0. -1.
          1   -1    0    0  501    0 -0.00000000000E+00 -0.00000000000E+00 -0.49811094741E+02  0.49811094741E+02  0.00000000000E+00 0. -1.
         25    2    1    2    0    0  0.37543295673E+02  0.68472844744E+02  0.52457350304E+03  0.54488397943E+03  0.12499264551E+03 0.  0.
          2    1    1    2  501    0  0.30618169021E+02 -0.16778535454E+02 -0.30176955832E+02  0.46148024762E+02  0.00000000000E+00 0. -1.
          1    1    1    2  502    0 -0.68161464693E+02 -0.51694309290E+02  0.12236392638E+04  0.12266259963E+04  0.00000000000E+00 0. -1.
         22    1    3    3    0    0  0.28773420795E+02 -0.32378200263E+02  0.11230823463E+03  0.12037191185E+03  0.00000000000E+00 0.  1.
         22    1    3    3    0    0  0.87698748776E+01  0.10085104501E+03  0.41226526841E+03  0.42451206758E+03  0.00000000000E+00 0.  1.
</event>
<event>
 7    1  0.5194496E-006  0.3142263E+03  0.7818608E-02  0.1271292E+00
          2   -1    0    0  502    0  0.00000000000E+00  0.00000000000E+00  0.61373003911E+03  0.61373003911E+03  0.00000000000E+00 0. -1.
          1   -1    0    0  501    0 -0.00000000000E+00 -0.00000000000E+00 -0.18135985300E+04  0.18135985300E+04  0.00000000000E+00 0. -1.
         25    2    1    2    0    0 -0.29851990457E+03  0.17374972920E+03 -0.39763668326E+03  0.54133403748E+03  0.12499802577E+03 0.  0.
          2    1    1    2  501    0  0.32492925046E+02 -0.12152248308E+02 -0.12991644968E+04  0.12996275840E+04  0.00000000000E+00 0. -1.
          1    1    1    2  502    0  0.26602697952E+03 -0.16159748089E+03  0.49693268920E+03  0.58636694761E+03  0.00000000000E+00 0. -1.
         22    1    3    3    0    0 -0.21210381676E+03  0.52635596277E+02 -0.23522893596E+03  0.32107816399E+03  0.00000000000E+00 0.  1.
         22    1    3    3    0    0 -0.86416087810E+02  0.12111413292E+03 -0.16240774730E+03  0.22025587350E+03  0.00000000000E+00 0.  1.
</event>
<event>
 7    1  0.5194496E-006  0.1025079E+03  0.7818608E-02  0.1355344E+00
          2   -1    0    0  502    0  0.00000000000E+00  0.00000000000E+00  0.51566476281E+02  0.51566476281E+02  0.00000000000E+00 0. -1.
          1   -1    0    0  501    0 -0.00000000000E+00 -0.00000000000E+00 -0.97250104269E+03  0.97250104269E+03  0.00000000000E+00 0. -1.
         25    2    1    2    0    0 -0.86325685581E+02 -0.10719968588E+03 -0.44795924184E+03  0.48501211367E+03  0.12500148562E+03 0.  0.
          2    1    1    2  501    0  0.81208950751E+01  0.49086836184E+02 -0.42948488463E+03  0.43235718168E+03  0.00000000000E+00 0. -1.
          1    1    1    2  502    0  0.78204790506E+02  0.58112849696E+02 -0.43490439927E+02  0.10669822362E+03  0.00000000000E+00 0. -1.
         22    1    3    3    0    0 -0.91044915041E+02 -0.73192603728E+02 -0.43132040758E+03  0.44685974062E+03  0.00000000000E+00 0. -1.
         22    1    3    3    0    0  0.47192294596E+01 -0.34007082152E+02 -0.16638834263E+02  0.38152373043E+02  0.00000000000E+00 0. -1.
</event>
<event>
 7    1  0.5194496E-006  0.5177143E+02  0.7818608E-02  0.1440834E+00
          2   -1    0    0  502    0  0.00000000000E+00  0.00000000000E+00  0.59957315495E+03  0.59957315495E+03  0.00000000000E+00 0. -1.
          1   -1    0    0  501    0 -0.00000000000E+00 -0.00000000000E+00 -0.17314087622E+03  0.17314087622E+03  0.00000000000E+00 0. -1.
         25    2    1    2    0    0 -0.58838701465E+02 -0.81679590596E+02  0.20863551855E+03  0.26322517117E+03  0.12500065131E+03 0.  0.
          2    1    1    2  501    0  0.27735625099E+02  0.42612879374E+02 -0.13962569397E+03  0.14859494205E+03  0.00000000000E+00 0. -1.
          1    1    1    2  502    0  0.31103076366E+02  0.39066711221E+02  0.35742245415E+03  0.36089391795E+03  0.00000000000E+00 0. -1.
         22    1    3    3    0    0 -0.66182443210E+01 -0.34813259149E+02 -0.72953096120E+01  0.36179907584E+02  0.00000000000E+00 0. -1.
         22    1    3    3    0    0 -0.52220457144E+02 -0.46866331447E+02  0.21593082816E+03  0.22704526359E+03  0.00000000000E+00 0. -1.
</event>
<event>
 7    1  0.5194496E-006  0.6885186E+02  0.7818608E-02  0.1395772E+00
          2   -1    0    0  502    0  0.00000000000E+00  0.00000000000E+00  0.10418132692E+04  0.10418132692E+04  0.00000000000E+00 0. -1.
          1   -1    0    0  501    0 -0.00000000000E+00 -0.00000000000E+00 -0.10807043943E+03  0.10807043943E+03  0.00000000000E+00 0. -1.
         25    2    1    2    0    0 -0.74591821477E+02  0.34551373226E+02  0.10555992743E+03  0.18309723916E+03  0.12499585387E+03 0.  0.
          2    1    1    2  501    0  0.79490922316E+01 -0.52552228537E+02 -0.57566789461E+02  0.78350877725E+02  0.00000000000E+00 0. -1.
          1    1    1    2  502    0  0.66642729245E+02  0.18000855311E+02  0.88574969180E+03  0.88843559174E+03  0.00000000000E+00 0. -1.
         22    1    3    3    0    0  0.26036072552E+02 -0.18581514338E+02  0.74363469064E+01  0.32839747324E+02  0.00000000000E+00 0.  1.
         22    1    3    3    0    0 -0.10062789403E+03  0.53132887564E+02  0.98123580525E+02  0.15025749184E+03  0.00000000000E+00 0.  1.
</event>
<event>
 7    1  0.5194496E-006  0.6839577E+02  0.7818608E-02  0.1418954E+00
          2   -1    0    0  502    0  0.00000000000E+00  0.00000000000E+00  0.31536114630E+03  0.31536114630E+03  0.00000000000E+00 0. -1.
          1   -1    0    0  501    0 -0.00000000000E+00 -0.00000000000E+00 -0.13177066184E+04  0.13177066184E+04  0.00000000000E+00 0. -1.
         25    2    1    2    0    0 -0.48684204101E+02 -0.82777308063E+02 -0.15723226633E+03  0.22264157988E+03  0.12500021223E+03 0.  0.
          2    1    1    2  501    0  0.55661526047E+02  0.38706858386E+02 -0.11249819240E+04  0.11270229615E+04  0.00000000000E+00 0. -1.
          1    1    1    2  502    0 -0.69773219456E+01  0.44070449677E+02  0.27986871823E+03  0.28340322334E+03  0.00000000000E+00 0. -1.
         22    1    3    3    0    0 -0.41715975241E+02  0.25618956327E+02 -0.51605928510E+02  0.71131746576E+02  0.00000000000E+00 0.  1.
         22    1    3    3    0    0 -0.69682288607E+01 -0.10839626439E+03 -0.10562633782E+03  0.15150983330E+03  0.00000000000E+00 0.  1.
</event>
<event>
 7    1  0.5194496E-006  0.1596726E+03  0.7818608E-02  0.1305713E+00
          2   -1    0    0  502    0  0.00000000000E+00  0.00000000000E+00  0.15494063187E+04  0.15494063187E+04  0.00000000000E+00 0. -1.
          1   -1    0    0  501    0 -0.00000000000E+00 -0.00000000000E+00 -0.49114749694E+03  0.49114749694E+03  0.00000000000E+00 0. -1.
         25    2    1    2    0    0 -0.84751819457E+02 -0.15255774109E+03 -0.66232762725E+02  0.22464897549E+03  0.12499459215E+03 0.  0.
          2    1    1    2  501    0  0.11168212269E+03  0.11112323155E+03 -0.32731471176E+03  0.36325774548E+03  0.00000000000E+00 0. -1.
          1    1    1    2  502    0 -0.26930303234E+02  0.41434509538E+02  0.14518062963E+04  0.14526470947E+04  0.00000000000E+00 0. -1.
         22    1    3    3    0    0 -0.45258695882E+02 -0.10202285152E+03  0.23787615137E+02  0.11411775681E+03  0.00000000000E+00 0.  1.
         22    1    3    3    0    0 -0.39493123576E+02 -0.50534889561E+02 -0.90020377862E+02  0.11053121868E+03  0.00000000000E+00 0.  1.
</event>
<event>
 7    1  0.5194496E-006  0.1184446E+03  0.7818608E-02  0.1252124E+00
          2   -1    0    0  502    0  0.00000000000E+00  0.00000000000E+00  0.40138473550E+02  0.40138473550E+02  0.00000000000E+00 0. -1.
          1   -1    0    0  501    0 -0.00000000000E+00 -0.00000000000E+00 -0.18145190256E+04  0.18145190256E+04  0.00000000000E+00 0. -1.
         25    2    1    2    0    0 -0.44131586779E+02 -0.12851905453E+00 -0.41798669505E+03  0.43850363927E+03  0.12499980376E+03 0.  0.
          2    1    1    2  501    0  0.14579911925E+03  0.44811158538E+02 -0.12597091386E+04  0.12689099798E+04  0.00000000000E+00 0. -1.
          1    1    1    2  502    0 -0.10166753247E+03 -0.44682639483E+02 -0.96684718360E+02  0.14724387999E+03  0.00000000000E+00 0. -1.
         22    1    3    3    0    0  0.42255533635E+02 -0.82406820349E+01 -0.99610669046E+02  0.10851600965E+03  0.00000000000E+00 0. -1.
         22    1    3    3    0    0 -0.86387120414E+02  0.81121629803E+01 -0.31837602601E+03  0.32998762961E+03  0.00000000000E+00 0. -1.
</event>
<event>
 7    1  0.5194496E-006  0.1007319E+03  0.7818608E-02  0.1338650E+00
          2   -1    0    0  502    0  0.00000000000E+00  0.00000000000E+00  0.39446325515E+03  0.39446325515E+03  0.00000000000E+00 0. -1.
          1   -1    0    0  501    0 -0.00000000000E+00 -0.00000000000E+00 -0.63698114757E+03  0.63698114757E+03  0.00000000000E+00 0. -1.
         25    2    1    2    0    0  0.86827821309E+02  0.74937142091E+02  0.16775789096E+02  0.17047529368E+03  0.12500301131E+03 0.  0.
          2    1    1    2  501    0 -0.99199695913E+02 -0.17842299459E+02 -0.55269401347E+03  0.56180922015E+03  0.00000000000E+00 0. -1.
          1    1    1    2  502    0  0.12371874604E+02 -0.57094842632E+02  0.29340033195E+03  0.29915988890E+03  0.00000000000E+00 0. -1.
         22    1    3    3    0    0  0.15829146398E+02  0.18236510659E+02 -0.51460373013E+02  0.56844544042E+02  0.00000000000E+00 0. -1.
         22    1    3    3    0    0  0.70998674912E+02  0.56700631432E+02  0.68236162110E+02  0.11363074964E+03  0.00000000000E+00 0. -1.
</event>
<event>
 7    1  0.5194496E-006  0.9575596E+02  0.7818608E-02  0.1301179E+00
          2   -1    0    0  502    0  0.00000000000E+00  0.00000000000E+00  0.46925123568E+03  0.46925123568E+03  0.00000000000E+00 0. -1.
          1   -1    0    0  501    0 -0.00000000000E+00 -0.00000000000E+00 -0.41774777918E+03  0.41774777918E+03  0.00000000000E+00 0. -1.
         25    2    1    2    0    0 -0.39183905581E+02  0.96158201284E+02  0.26651388499E+03  0.31216043178E+03  0.12503082076E+03 0.  0.
          2    1    1    2  501    0  0.92065988727E+02 -0.28465703786E+02 -0.37827415980E+03  0.39035596902E+03  0.00000000000E+00 0. -1.
          1    1    1    2  502    0 -0.52882083146E+02 -0.67692497497E+02  0.16326373131E+03  0.18448261407E+03  0.00000000000E+00 0. -1.
         22    1    3    3    0    0 -0.12254692222E+02  0.10003957582E+03  0.26653344984E+03  0.28495293312E+03  0.00000000000E+00 0. -1.
         22    1    3    3    0    0 -0.26929213359E+02 -0.38813745331E+01 -0.19564841612E-01  0.27207498657E+02  0.00000000000E+00 0. -1.
</event>
<event>
 7    1  0.5194496E-006  0.5603920E+02  0.7818608E-02  0.1476001E+00
          2   -1    0    0  502    0  0.00000000000E+00  0.00000000000E+00  0.70729488223E+03  0.70729488223E+03  0.00000000000E+00 0. -1.
          1   -1    0    0  501    0 -0.00000000000E+00 -0.00000000000E+00 -0.10197085437E+04  0.10197085437E+04  0.00000000000E+00 0. -1.
         25    2    1    2    0    0  0.15205834563E+02  0.14521277802E+02  0.21891733263E+03  0.25295091627E+03  0.12496912660E+03 0.  0.
          2    1    1    2  501    0 -0.47110689249E+02 -0.30564889916E+02 -0.10012273964E+04  0.10028010415E+04  0.00000000000E+00 0. -1.
          1    1    1    2  502    0  0.31904854686E+02  0.16043612114E+02  0.46989640235E+03  0.47125146810E+03  0.00000000000E+00 0. -1.
         22    1    3    3    0    0  0.61644580997E+02  0.32565111377E+02  0.84203346990E+02  0.10931946071E+03  0.00000000000E+00 0. -1.
         22    1    3    3    0    0 -0.46438746434E+02 -0.18043833575E+02  0.13471398564E+03  0.14363145556E+03  0.00000000000E+00 0. -1.
</event>
<event>
 7    1  0.5194496E-006  0.1167729E+03  0.7818608E-02  0.1285572E+00
          2   -1    0    0  502    0  0.00000000000E+00  0.00000000000E+00  0.14032104632E+04  0.14032104632E+04  0.00000000000E+00 0. -1.
          1   -1    0    0  501    0 -0.00000000000E+00 -0.00000000000E+00 -0.26440648475E+03  0.26440648475E+03  0.00000000000E+00 0. -1.
         25    2    1    2    0    0 -0.16143614341E+03 -0.94638981765E+02  0.56415251025E+03  0.60737990197E+03  0.12499650085E+03 0.  0.
          2    1    1    2  501    0  0.80952797236E+02  0.82046634912E+02 -0.22693173465E+03  0.25452508299E+03  0.00000000000E+00 0. -1.
          1    1    1    2  502    0  0.80483346175E+02  0.12592346853E+02  0.80158320283E+03  0.80571196297E+03  0.00000000000E+00 0. -1.
         22    1    3    3    0    0 -0.58511804695E+02  0.23276495668E+02  0.22867805907E+03  0.23718996868E+03  0.00000000000E+00 0.  1.
         22    1    3    3    0    0 -0.10292433872E+03 -0.11791547743E+03  0.33547445118E+03  0.37018993329E+03  0.00000000000E+00 0.  1.
</event>
<event>
 7    1  0.5194496E-006  0.4993513E+02  0.7818608E-02  0.1543570E+00
          2   -1    0    0  502    0  0.00000000000E+00  0.00000000000E+00  0.18126145132E+04  0.18126145132E+04  0.00000000000E+00 0. -1.
          1   -1    0    0  501    0 -0.00000000000E+00 -0.00000000000E+00 -0.21375038340E+03  0.21375038340E+03  0.00000000000E+00 0. -1.
         25    2    1    2    0    0  0.60903286064E+02  0.34743694826E+02 -0.15925124283E+03  0.21424707647E+03  0.12499806739E+03 0.  0.
          2    1    1    2  501    0 -0.12670302785E+02 -0.21946916542E+02 -0.20627170214E+02  0.32675432199E+02  0.00000000000E+00 0. -1.
          1    1    1    2  502    0 -0.48232983279E+02 -0.12796778285E+02  0.17787425429E+04  0.17794423879E+04  0.00000000000E+00 0. -1.
         22    1    3    3    0    0 -0.68819219990E+01  0.39933746494E+02  0.61393821488E+00  0.40527051208E+02  0.00000000000E+00 0. -1.
         22    1    3    3    0    0  0.67785208063E+02 -0.51900516680E+01 -0.15986518104E+03  0.17372002527E+03  0.00000000000E+00 0. -1.
</event>
<event>
 7    1  0.5194496E-006  0.1598366E+03  0.7818608E-02  0.1240142E+00
          2   -1    0    0  502    0  0.00000000000E+00  0.00000000000E+00  0.20390350168E+04  0.20390350168E+04  0.00000000000E+00 0. -1.
          1   -1    0    0  501    0 -0.00000000000E+00 -0.00000000000E+00 -0.54436304235E+03  0.54436304235E+03  0.00000000000E+00 0. -1.
         25    2    1    2    0    0 -0.18555635206E+03  0.10968341408E+03  0.52232891351E+03  0.57871798538E+03  0.12500160639E+03 0.  0.
          2    1    1    2  501    0  0.94514920954E+02 -0.12781363619E+03 -0.50243555292E+03  0.52698280875E+03  0.00000000000E+00 0. -1.
          1    1    1    2  502    0  0.91041431105E+02  0.18130222106E+02  0.14747786138E+04  0.14776972650E+04  0.00000000000E+00 0. -1.
         22    1    3    3    0    0 -0.20312577953E+03  0.11113698264E+03  0.48590267568E+03  0.53824986897E+03  0.00000000000E+00 0. -1.
         22    1    3    3    0    0  0.17569427466E+02 -0.14535685545E+01  0.36426237838E+02  0.40468116413E+02  0.00000000000E+00 0. -1.
</event>
<event>
 7    1  0.5194496E-006  0.1399639E+03  0.7818608E-02  0.1378204E+00
          2   -1    0    0  502    0  0.00000000000E+00  0.00000000000E+00  0.30291449654E+04  0.30291449654E+04  0.00000000000E+00 0. -1.
          1   -1    0    0  501    0 -0.00000000000E+00 -0.00000000000E+00 -0.80091921361E+02  0.80091921361E+02  0.00000000000E+00 0. -1.
         25    2    1    2    0    0 -0.16425592238E+02 -0.11045496490E+03  0.15293332508E+04  0.15384912136E+04  0.12499969211E+03 0.  0.
          2    1    1    2  501    0  0.14039612000E+02  0.14048945052E+03 -0.92184355854E+01  0.14148984404E+03  0.00000000000E+00 0. -1.
          1    1    1    2  502    0  0.23859802375E+01 -0.30034485612E+02  0.14289382289E+04  0.14292558291E+04  0.00000000000E+00 0. -1.
         22    1    3    3    0    0  0.45384737285E+02 -0.32453485909E+02  0.30060424664E+03  0.30573831330E+03  0.00000000000E+00 0. -1.
         22    1    3    3    0    0 -0.61810329523E+02 -0.78001478996E+02  0.12287290042E+04  0.12327529003E+04  0.00000000000E+00 0. -1.
</event>
<event>
 7    1  0.5194496E-006  0.5160874E+02  0.7818608E-02  0.1477663E+00
          2   -1    0    0  502    0  0.00000000000E+00  0.00000000000E+00  0.19585565674E+04  0.19585565674E+04  0.00000000000E+00 0. -1.
          1   -1    0    0  501    0 -0.00000000000E+00 -0.00000000000E+00 -0.26167553536E+03  0.26167553536E+03  0.00000000000E+00 0. -1.
         25    2    1    2    0    0  0.68985350472E+02 -0.18793967349E+02  0.16333912981E+04  0.16397265255E+04  0.12499501578E+03 0.  0.
          2    1    1    2  501    0 -0.49585225597E+02 -0.14255367883E+02 -0.25477264672E+03  0.25994424716E+03  0.00000000000E+00 0. -1.
          1    1    1    2  502    0 -0.19400124875E+02  0.33049335232E+02  0.31826238068E+03  0.32056133010E+03  0.00000000000E+00 0. -1.
         22    1    3    3    0    0 -0.23532996212E+02 -0.42377879849E+02  0.57048568081E+03  0.57254135101E+03  0.00000000000E+00 0.  1.
         22    1    3    3    0    0  0.92518346684E+02  0.23583912500E+02  0.10629056173E+04  0.10671851745E+04  0.00000000000E+00 0.  1.
</event>
<event>
 7    1  0.5194496E-006  0.8023727E+02  0.7818608E-02  0.1424619E+00
          2   -1    0    0  502    0  0.00000000000E+00  0.00000000000E+00  0.12236909808E+04  0.12236909808E+04  0.00000000000E+00 0. -1.
          1   -1    0    0  501    0 -0.00000000000E+00 -0.00000000000E+00 -0.39444667371E+03  0.39444667371E+03  0.00000000000E+00 0. -1.
         25    2    1    2    0    0  0.11171239692E+03  0.29772673213E+02  0.10948939076E+03  0.20245257201E+03  0.12503217797E+03 0.  0.
          2    1    1    2  501    0 -0.76284203871E+02 -0.21344699332E+02 -0.34314093732E+03  0.35216555597E+03  0.00000000000E+00 0. -1.
          1    1    1    2  502    0 -0.35428193051E+02 -0.84279738810E+01  0.10628958536E+04  0.10635195265E+04  0.00000000000E+00 0. -1.
         22    1    3    3    0    0 -0.13724699706E+02  0.40251400396E+02  0.15131925997E+02  0.45138872385E+02  0.00000000000E+00 0.  1.
         22    1    3    3    0    0  0.12543709663E+03 -0.10478727183E+02  0.94357464761E+02  0.15731369963E+03  0.00000000000E+00 0.  1.
</event>
<event>
 7    1  0.5194496E-006  0.1321285E+03  0.7818608E-02  0.1427281E+00
          2   -1    0    0  502    0  0.00000000000E+00  0.00000000000E+00  0.75237960478E+03  0.75237960478E+03  0.00000000000E+00 0. -1.
          1   -1    0    0  501    0 -0.00000000000E+00 -0.00000000000E+00 -0.81881599321E+03  0.81881599321E+03  0.00000000000E+00 0. -1.
         25    2    1    2    0    0  0.16419688970E+02  0.14265702932E+03 -0.14235012535E+03  0.23772228461E+03  0.12501076838E+03 0.  0.
          2    1    1    2  501    0 -0.18740170982E+02 -0.10881749193E+02 -0.62242728500E+03  0.62280440877E+03  0.00000000000E+00 0. -1.
          1    1    1    2  502    0  0.23204820118E+01 -0.13177528013E+03  0.69834102191E+03  0.71066890461E+03  0.00000000000E+00 0. -1.
         22    1    3    3    0    0  0.65189734230E+02  0.88729620767E+02 -0.52044995160E+02  0.12178394217E+03  0.00000000000E+00 0.  1.
         22    1    3    3    0    0 -0.48770045259E+02  0.53927408552E+02 -0.90305130187E+02  0.11593834243E+03  0.00000000000E+00 0.  1.
</event>
<event>
 7    1  0.5194496E-006  0.2867553E+02  0.7818608E-02  0.1638089E+00
          2   -1    0    0  502    0  0.00000000000E+00  0.00000000000E+00  0.82417703246E+03  0.82417703246E+03  0.00000000000E+00 0. -1.
          1   -1    0    0  501    0 -0.00000000000E+00 -0.00000000000E+00 -0.25749689709E+03  0.25749689709E+03  0.00000000000E+00 0. -1.
         25    2    1    2    0    0 -0.46671510929E+02  0.13307540569E+02 -0.53942209170E+02  0.14453275301E+03  0.12499853677E+03 0.  0.
          2    1    1    2  501    0  0.28049932123E+02  0.30837276635E+01 -0.15680206703E+03  0.15932104787E+03  0.00000000000E+00 0. -1.
          1    1    1    2  502    0  0.18621578807E+02 -0.16391268233E+02  0.77742441157E+03  0.77782012868E+03  0.00000000000E+00 0. -1.
         22    1    3    3    0    0  0.37781596565E+02  0.19057975695E+01  0.86386235169E+01  0.38803439533E+02  0.00000000000E+00 0. -1.
         22    1    3    3    0    0 -0.84453107494E+02  0.11401743000E+02 -0.62580832687E+02  0.10572931348E+03  0.00000000000E+00 0. -1.
</event>
<event>
 7    1  0.5194496E-006  0.7643308E+02  0.7818608E-02  0.1472575E+00
          2   -1    0    0  502    0  0.00000000000E+00  0.00000000000E+00  0.14456884884E+04  0.14456884884E+04  0.00000000000E+00 0. -1.
          1   -1    0    0  501    0 -0.00000000000E+00 -0.00000000000E+00 -0.33302300279E+03  0.33302300279E+03  0.00000000000E+00 0. -1.
         25    2    1    2    0    0 -0.20166667894E+02 -0.57473777757E+02 -0.56673813812E+02  0.15015365771E+03  0.12499708048E+03 0.  0.
          2    1    1    2  501    0  0.18805347982E+02 -0.19135869591E+02 -0.22777216780E+03  0.22934686185E+03  0.00000000000E+00 0. -1.
          1    1    1    2  502    0  0.13613199119E+01  0.76609647348E+02  0.13971114673E+04  0.13992109717E+04  0.00000000000E+00 0. -1.
         22    1    3    3    0    0  0.16703572662E+02  0.21252117154E+01 -0.75687923171E+02  0.77538297495E+02  0.00000000000E+00 0.  1.
         22    1    3    3    0    0 -0.36870240556E+02 -0.59598989472E+02  0.19014109359E+02  0.72615360217E+02  0.00000000000E+00 0.  1.
</event>
<event>
 7    1  0.5194496E-006  0.3219226E+03  0.7818608E-02  0.1179763E+00
          2   -1    0    0  502    0  0.00000000000E+00  0.00000000000E+00  0.19283092408E+04  0.19283092408E+04  0.00000000000E+00 0. -1.
          1   -1    0    0  501    0 -0.00000000000E+00 -0.00000000000E+00 -0.84992307678E+03  0.84992307678E+03  0.00000000000E+00 0. -1.
         25    2    1    2    0    0  0.34603276343E+03 -0.10278600874E+03 -0.50876277227E+02  0.38537967490E+03  0.12500184513E+03 0.  0.
          2    1    1    2  501    0 -0.26700081547E+02  0.83701765350E+02 -0.61411504486E+03  0.62036776851E+03  0.00000000000E+00 0. -1.
          1    1    1    2  502    0 -0.31933268188E+03  0.19084243385E+02  0.17433774862E+04  0.17724848742E+04  0.00000000000E+00 0. -1.
         22    1    3    3    0    0  0.16327893584E+03 -0.11158401468E+03 -0.42145847357E+02  0.20220602284E+03  0.00000000000E+00 0.  1.
         22    1    3    3    0    0  0.18275382759E+03  0.87980059410E+01 -0.87304298702E+01  0.18317365207E+03  0.00000000000E+00 0.  1.
</event>
<event>
 7    1  0.5194496E-006  0.5612348E+02  0.7818608E-02  0.1471320E+00
          2   -1    0    0  502    0  0.00000000000E+00  0.00000000000E+00  0.23509601970E+03  0.23509601970E+03  0.00000000000E+00 0. -1.
          1   -1    0    0  501    0 -0.00000000000E+00 -0.00000000000E+00 -0.62960840401E+03  0.62960840401E+03  0.00000000000E+00 0. -1.
         25    2    1    2    0    0 -0.80294296275E+02 -0.41042758668E+02 -0.11970800477E+03  0.19515561193E+03  0.12499609757E+03 0.  0.
          2    1    1    2  501    0  0.51799761519E+02  0.17648890129E+02 -0.46884953452E+03  0.47203239786E+03  0.00000000000E+00 0. -1.
          1    1    1    2  502    0  0.28494534756E+02  0.23393868539E+02  0.19404515497E+03  0.19751641391E+03  0.00000000000E+00 0. -1.
         22    1    3    3    0    0 -0.42008017791E+02 -0.45798296313E+02 -0.13882359352E+03  0.15209913748E+03  0.00000000000E+00 0. -1.
         22    1    3    3    0    0 -0.38286278483E+02  0.47555376450E+01  0.19115588755E+02  0.43056474447E+02  0.00000000000E+00 0. -1.
</event>
<event>
 7    1  0.5194496E-006  0.1459912E+03  0.7818608E-02  0.1359930E+00
          2   -1    0    0  502    0  0.00000000000E+00  0.00000000000E+00  0.27249845424E+04  0.27249845424E+04  0.00000000000E+00 0. -1.
          1   -1    0    0  501    0 -0.00000000000E+00 -0.00000000000E+00 -0.32879477935E+03  0.32879477935E+03  0.00000000000E+00 0. -1.
         25    2    1    2    0    0  0.71474665224E+02 -0.97291931668E+02  0.12885825933E+03  0.21633518281E+03  0.12498844981E+03 0.  0.
          2    1    1    2  501    0  0.32962303874E+02 -0.65648154315E+01 -0.28193254806E+03  0.28392881490E+03  0.00000000000E+00 0. -1.
          1    1    1    2  502    0 -0.10443696910E+03  0.10385674710E+03  0.25492640518E+04  0.25535153241E+04  0.00000000000E+00 0. -1.
         22    1    3    3    0    0 -0.89050186491E+01 -0.92727559745E+02  0.65312724081E+02  0.11376929120E+03  0.00000000000E+00 0.  1.
         22    1    3    3    0    0  0.80379683874E+02 -0.45643719227E+01  0.63545535254E+02  0.10256589161E+03  0.00000000000E+00 0.  1.
</event>
<event>
 7    1  0.1106887E-005  0.9886601E+02  0.7818608E-02  0.1282805E+00
          2   -1    0    0  502    0  0.00000000000E+00  0.00000000000E+00  0.10907021304E+04  0.10907021304E+04  0.00000000000E+00 0. -1.
          1   -1    0    0  501    0 -0.00000000000E+00 -0.00000000000E+00 -0.22148079370E+04  0.22148079370E+04  0.00000000000E+00 0. -1.
         25    2    1    2    0    0 -0.93941494277E+01 -0.84808074365E+02 -0.27288968291E+03  0.31204840317E+03  0.12499906945E+03 0.  0.
          2    1    1    2  501    0  0.93477348137E+02  0.31888329610E+02 -0.19187622433E+04  0.19213025338E+04  0.00000000000E+00 0. -1.
          1    1    1    2  502    0 -0.84083198709E+02  0.52919744755E+02  0.10675461195E+04  0.10721591304E+04  0.00000000000E+00 0. -1.
         22    1    3    3    0    0  0.52435453289E+02 -0.87337892461E+01 -0.10279326176E+03  0.11572471861E+03  0.00000000000E+00 0. -1.
         22    1    3    3    0    0 -0.61829602717E+02 -0.76074285119E+02 -0.17009642115E+03  0.19632368456E+03  0.00000000000E+00 0. -1.
</event>
<event>
 7    1  0.5194496E-006  0.1315219E+03  0.7818608E-02  0.1306365E+00
          2   -1    0    0  502    0  0.00000000000E+00  0.00000000000E+00  0.27001976522E+03  0.27001976522E+03  0.00000000000E+00 0. -1.
          1   -1    0    0  501    0 -0.00000000000E+00 -0.00000000000E+00 -0.21240579629E+03  0.21240579629E+03  0.00000000000E+00 0. -1.
         25    2    1    2    0    0  0.45850903633E+02 -0.82756659539E+02  0.16085614498E+03  0.22461244134E+03  0.12500031745E+03 0.  0.
          2    1    1    2  501    0 -0.10511832768E+03  0.89396261383E+02 -0.13256986378E+03  0.19135392117E+03  0.00000000000E+00 0. -1.
          1    1    1    2  502    0  0.59267424045E+02 -0.66396018444E+01  0.29327687728E+02  0.66459199010E+02  0.00000000000E+00 0. -1.
         22    1    3    3    0    0  0.21457679666E+02 -0.11223854519E+03  0.95703319224E+02  0.14905384380E+03  0.00000000000E+00 0. -1.
         22    1    3    3    0    0  0.24393223967E+02  0.29481885648E+02  0.65152825759E+02  0.75558597534E+02  0.00000000000E+00 0. -1.
</event>
<event>
 7    1  0.5194496E-006  0.1099796E+03  0.7818608E-02  0.1409253E+00
          2   -1    0    0  502    0  0.00000000000E+00  0.00000000000E+00  0.52837905769E+03  0.52837905769E+03  0.00000000000E+00 0. -1.
          1   -1    0    0  501    0 -0.00000000000E+00 -0.00000000000E+00 -0.34074090672E+03  0.34074090672E+03  0.00000000000E+00 0. -1.
         25    2    1    2    0    0  0.73039153473E+02 -0.51300635156E+02  0.68683837406E+02  0.16825338524E+03  0.12500103605E+03 0.  0.
          2    1    1    2  501    0 -0.77487793027E+02  0.80885107102E+02 -0.27959404869E+03  0.30119693006E+03  0.00000000000E+00 0. -1.
          1    1    1    2  502    0  0.44486395538E+01 -0.29584471946E+02  0.39854836224E+03  0.39966964911E+03  0.00000000000E+00 0. -1.
         22    1    3    3    0    0  0.50936432583E+02 -0.49149017603E+02  0.10443776939E+03  0.12616415406E+03  0.00000000000E+00 0.  1.
         22    1    3    3    0    0  0.22102720890E+02 -0.21516175534E+01 -0.35753931979E+02  0.42089231174E+02  0.00000000000E+00 0.  1.
</event>
<event>
 7    1  0.5194496E-006  0.5840280E+02  0.7818608E-02  0.1437412E+00
          2   -1    0    0  502    0  0.00000000000E+00  0.00000000000E+00  0.61951797661E+03  0.61951797661E+03  0.00000000000E+00 0. -1.
          1   -1    0    0  501    0 -0.00000000000E+00 -0.00000000000E+00 -0.12304451659E+04  0.12304451659E+04  0.00000000000E+00 0. -1.
         25    2    1    2    0    0 -0.81003092705E+01  0.12472561956E+02  0.26283943521E+02  0.12859491123E+03  0.12499850277E+03 0.  0.
          2    1    1    2  501    0  0.10956583172E+02 -0.57796638456E+02 -0.11776030335E+04  0.11790714154E+04  0.00000000000E+00 0. -1.
          1    1    1    2  502    0 -0.28562739018E+01  0.45324076500E+02  0.54039190067E+03  0.54229681588E+03  0.00000000000E+00 0. -1.
         22    1    3    3    0    0 -0.66124475651E+02  0.14301790940E+02  0.10776168501E+02  0.68506301255E+02  0.00000000000E+00 0. -1.
         22    1    3    3    0    0  0.58024166380E+02 -0.18292289840E+01  0.15507775020E+02  0.60088609976E+02  0.00000000000E+00 0. -1.
</event>
<event>
 7    1  0.5194496E-006  0.8276851E+02  0.7818608E-02  0.1398823E+00
          2   -1    0    0  502    0  0.00000000000E+00  0.00000000000E+00  0.60764096389E+03  0.60764096389E+03  0.00000000000E+00 0. -1.
          1   -1    0    0  501    0 -0.00000000000E+00 -0.00000000000E+00 -0.65138254355E+03  0.65138254355E+03  0.00000000000E+00 0. -1.
         25    2    1    2    0    0  0.34184122219E+02  0.21914055750E+02 -0.15300793184E+03  0.20170153313E+03  0.12499320465E+03 0.  0.
          2    1    1    2  501    0  0.39622640324E+02  0.17096758035E+02 -0.47004732341E+03  0.47202408731E+03  0.00000000000E+00 0. -1.
          1    1    1    2  502    0 -0.73806762543E+02 -0.39010813785E+02  0.57931367559E+03  0.58529788699E+03  0.00000000000E+00 0. -1.
         22    1    3    3    0    0  0.19597293826E+02 -0.45317042073E+02 -0.22684867232E+02  0.54334992674E+02  0.00000000000E+00 0. -1.
         22    1    3    3    0    0  0.14586828394E+02  0.67231097823E+02 -0.13032306461E+03  0.14736654046E+03  0.00000000000E+00 0. -1.
</event>
<event>
 7    1  0.5194496E-006  0.5831658E+02  0.7818608E-02  0.1517088E+00
          2   -1    0    0  502    0  0.00000000000E+00  0.00000000000E+00  0.18015449544E+04  0.18015449544E+04  0.00000000000E+00 0. -1.
          1   -1    0    0  501    0 -0.00000000000E+00 -0.00000000000E+00 -0.43666318190E+03  0.43666318190E+03  0.00000000000E+00 0. -1.
         25    2    1    2    0    0 -0.19369933614E+02  0.73331864029E+02  0.10290720126E+03  0.17879512135E+03  0.12500018694E+03 0.  0.
          2    1    1    2  501    0 -0.10631111328E+02 -0.23551707290E+02 -0.39779136204E+03  0.39862974194E+03  0.00000000000E+00 0. -1.
          1    1    1    2  502    0  0.30001044941E+02 -0.49780156739E+02  0.16597659332E+04  0.16607832730E+04  0.00000000000E+00 0. -1.
         22    1    3    3    0    0  0.11373619849E+02  0.10091305264E+03  0.54814623096E+02  0.11540124058E+03  0.00000000000E+00 0.  1.
         22    1    3    3    0    0 -0.30743553463E+02 -0.27581188610E+02  0.48092578168E+02  0.63393880773E+02  0.00000000000E+00 0.  1.
</event>
<event>
 7    1  0.5194496E-006  0.1075650E+03  0.7818608E-02  0.1279594E+00
          2   -1    0    0  502    0  0.00000000000E+00  0.00000000000E+00  0.27200310015E+02  0.27200310015E+02  0.00000000000E+00 0. -1.
          1   -1    0    0  501    0 -0.00000000000E+00 -0.00000000000E+00 -0.25845110442E+04  0.25845110442E+04  0.00000000000E+00 0. -1.
         25    2    1    2    0    0 -0.62747412834E+02  0.27729878547E+02 -0.68139320311E+03  0.69615226274E+03  0.12500036680E+03 0.  0.
          2    1    1    2  501    0  0.39961281599E+02 -0.11850361629E+03 -0.17692076826E+04  0.17736222358E+04  0.00000000000E+00 0. -1.
          1    1    1    2  502    0  0.22786131235E+02  0.90773737742E+02 -0.10670984848E+03  0.14193685569E+03  0.00000000000E+00 0. -1.
         22    1    3    3    0    0 -0.51938577826E+02 -0.14541736207E+02 -0.10437782892E+03  0.11748961285E+03  0.00000000000E+00 0. -1.
         22    1    3    3    0    0 -0.10808835007E+02  0.42271614754E+02 -0.57701537419E+03  0.57866264989E+03  0.00000000000E+00 0. -1.
</event>
<event>
 7    1  0.5194496E-006  0.6176162E+02  0.7818608E-02  0.1411112E+00
          2   -1    0    0  502    0  0.00000000000E+00  0.00000000000E+00  0.23375200856E+04  0.23375200856E+04  0.00000000000E+00 0. -1.
          1   -1    0    0  501    0 -0.00000000000E+00 -0.00000000000E+00 -0.91727938175E+02  0.91727938175E+02  0.00000000000E+00 0. -1.
         25    2    1    2    0    0  0.69003513467E+01  0.11189981335E+03  0.38158822398E+03  0.41689785627E+03  0.12500026723E+03 0.  0.
          2    1    1    2  501    0  0.35747784767E+01 -0.52384690551E+02 -0.64235216589E+02  0.82964437535E+02  0.00000000000E+00 0. -1.
          1    1    1    2  502    0 -0.10475129823E+02 -0.59515122801E+02  0.19284391400E+04  0.19293857299E+04  0.00000000000E+00 0. -1.
         22    1    3    3    0    0  0.37732594666E+02 -0.42158436840E+01  0.16408404524E+03  0.16841940488E+03  0.00000000000E+00 0. -1.
         22    1    3    3    0    0 -0.30832243319E+02  0.11611565704E+03  0.21750417874E+03  0.24847845139E+03  0.00000000000E+00 0. -1.
</event>
<event>
 7    1  0.5194496E-006  0.5676962E+02  0.7818608E-02  0.1501724E+00
          2   -1    0    0  502    0  0.00000000000E+00  0.00000000000E+00  0.99923059275E+02  0.99923059275E+02  0.00000000000E+00 0. -1.
          1   -1    0    0  501    0 -0.00000000000E+00 -0.00000000000E+00 -0.55524164214E+03  0.55524164214E+03  0.00000000000E+00 0. -1.
         25    2    1    2    0    0  0.48686219027E+02  0.37532641079E+02 -0.20423684049E+03  0.24721677635E+03  0.12499760168E+03 0.  0.
          2    1    1    2  501    0 -0.23085800724E+02 -0.52110230711E+02 -0.32417183751E+03  0.32914405748E+03  0.00000000000E+00 0. -1.
          1    1    1    2  502    0 -0.25600418304E+02  0.14577589632E+02  0.73090095144E+02  0.78803867576E+02  0.00000000000E+00 0. -1.
         22    1    3    3    0    0  0.14391557749E+02 -0.46265528203E+02 -0.79053938351E+02  0.92720770074E+02  0.00000000000E+00 0. -1.
         22    1    3    3    0    0  0.34294661278E+02  0.83798169282E+02 -0.12518290214E+03  0.15449600628E+03  0.00000000000E+00 0. -1.
</event>
<event>
 7    1  0.5194496E-006  0.9151705E+02  0.7818608E-02  0.1387842E+00
          2   -1    0    0  502    0  0.00000000000E+00  0.00000000000E+00  0.34937357122E+02  0.34937357122E+02  0.00000000000E+00 0. -1.
          1   -1    0    0  501    0 -0.00000000000E+00 -0.00000000000E+00 -0.14376047555E+04  0.14376047555E+04  0.00000000000E+00 0. -1.
         25    2    1    2    0    0  0.77731083181E+02  0.18781355697E+02 -0.29780118778E+03  0.33272472752E+03  0.12500134496E+03 0.  0.
          2    1    1    2  501    0 -0.91229724292E+02  0.21634552482E+02 -0.10909796440E+04  0.10950011416E+04  0.00000000000E+00 0. -1.
          1    1    1    2  502    0  0.13498641112E+02 -0.40415908179E+02 -0.13886566508E+02  0.44816243431E+02  0.00000000000E+00 0. -1.
         22    1    3    3    0    0 -0.30546417102E+02 -0.15633577753E+02 -0.58485689859E+02  0.67809057429E+02  0.00000000000E+00 0. -1.
         22    1    3    3    0    0  0.10827750028E+03  0.34414933450E+02 -0.23931549792E+03  0.26491567009E+03  0.00000000000E+00 0. -1.
</event>
<event>
 7    1  0.5194496E-006  0.1260340E+03  0.7818608E-02  0.1408765E+00
          2   -1    0    0  502    0  0.00000000000E+00  0.00000000000E+00  0.74684496136E+02  0.74684496136E+02  0.00000000000E+00 0. -1.
          1   -1    0    0  501    0 -0.00000000000E+00 -0.00000000000E+00 -0.79757392970E+03  0.79757392970E+03  0.00000000000E+00 0. -1.
         25    2    1    2    0    0 -0.94681437121E+02 -0.51425779942E+02 -0.30539109522E+03  0.34712737514E+03  0.12499803260E+03 0.  0.
          2    1    1    2  501    0 -0.12765812545E+02 -0.22886372989E+02 -0.39093995287E+03  0.39181730282E+03  0.00000000000E+00 0. -1.
          1    1    1    2  502    0  0.10744724967E+03  0.74312152931E+02 -0.26558385474E+02  0.13331374788E+03  0.00000000000E+00 0. -1.
         22    1    3    3    0    0  0.27834774562E+02 -0.89030959209E+01 -0.10032685912E+03  0.10449649971E+03  0.00000000000E+00 0. -1.
         22    1    3    3    0    0 -0.12251621168E+03 -0.42522684021E+02 -0.20506423610E+03  0.24263087542E+03  0.00000000000E+00 0. -1.
</event>
<event>
 7    1  0.5194496E-006  0.6009485E+02  0.7818608E-02  0.1407675E+00
          2   -1    0    0  502    0  0.00000000000E+00  0.00000000000E+00  0.64724404789E+02  0.64724404789E+02  0.00000000000E+00 0. -1.
          1   -1    0    0  501    0 -0.00000000000E+00 -0.00000000000E+00 -0.30864751093E+03  0.30864751093E+03  0.00000000000E+00 0. -1.
         25    2    1    2    0    0 -0.25415581953E+02 -0.34132012392E+02 -0.17795484054E+03  0.22159074981E+03  0.12499435609E+03 0.  0.
          2    1    1    2  501    0  0.57381941245E+02 -0.17852284751E+02 -0.67964138645E+02  0.90722187990E+02  0.00000000000E+00 0. -1.
          1    1    1    2  502    0 -0.31966359292E+02  0.51984297143E+02  0.19958730386E+01  0.61058977923E+02  0.00000000000E+00 0. -1.
         22    1    3    3    0    0 -0.15371916542E+02  0.21447953019E+02 -0.16023922897E+03  0.16239741688E+03  0.00000000000E+00 0. -1.
         22    1    3    3    0    0 -0.10043665412E+02 -0.55579965412E+02 -0.17715611562E+02  0.59193332928E+02  0.00000000000E+00 0. -1.
</event>
<event>
 7    1  0.5194496E-006  0.3545584E+02  0.7818608E-02  0.1563029E+00
          2   -1    0    0  502    0  0.00000000000E+00  0.00000000000E+00  0.45159115294E+02  0.45159115294E+02  0.00000000000E+00 0. -1.
          1   -1    0    0  501    0 -0.00000000000E+00 -0.00000000000E+00 -0.38159048311E+04  0.38159048311E+04  0.00000000000E+00 0. -1.
         25    2    1    2    0    0  0.17739375141E+02 -0.48905899905E+02 -0.30810586907E+04  0.30840320822E+04  0.12499902499E+03 0.  0.
          2    1    1    2  501    0  0.87640437722E+01  0.31855199728E+02 -0.72724988810E+03  0.72799997387E+03  0.00000000000E+00 0. -1.
          1    1    1    2  502    0 -0.26503418914E+02  0.17050700177E+02  0.37562862984E+02  0.49031890298E+02  0.00000000000E+00 0. -1.
         22    1    3    3    0    0 -0.50914867182E+02 -0.32949727290E+02 -0.10492697190E+04  0.10510209091E+04  0.00000000000E+00 0. -1.
         22    1    3    3    0    0  0.68654242323E+02 -0.15956172615E+02 -0.20317889716E+04  0.20330111731E+04  0.00000000000E+00 0. -1.
</event>
<event>
 7    1  0.5194496E-006  0.5136702E+02  0.7818608E-02  0.1571062E+00
          2   -1    0    0  502    0  0.00000000000E+00  0.00000000000E+00  0.51795976188E+03  0.51795976188E+03  0.00000000000E+00 0. -1.
          1   -1    0    0  501    0 -0.00000000000E+00 -0.00000000000E+00 -0.11820841760E+04  0.11820841760E+04  0.00000000000E+00 0. -1.
         25    2    1    2    0    0  0.52936531628E+02  0.46861830578E+02 -0.40937128530E+03  0.43383078844E+03  0.12500398483E+03 0.  0.
          2    1    1    2  501    0 -0.18849594465E+02 -0.85123533457E+01 -0.75904052495E+03  0.75932225431E+03  0.00000000000E+00 0. -1.
          1    1    1    2  502    0 -0.34086937162E+02 -0.38349477233E+02  0.50428739612E+03  0.50689089514E+03  0.00000000000E+00 0. -1.
         22    1    3    3    0    0  0.74640015245E+02 -0.75096651317E+01 -0.30572034406E+03  0.31478954195E+03  0.00000000000E+00 0.  1.
         22    1    3    3    0    0 -0.21703483618E+02  0.54371495710E+02 -0.10365094124E+03  0.11904124649E+03  0.00000000000E+00 0.  1.
</event>
<event>
 7    1  0.5194496E-006  0.1534440E+03  0.7818608E-02  0.1215634E+00
          2   -1    0    0  502    0  0.00000000000E+00  0.00000000000E+00  0.18501922182E+04  0.18501922182E+04  0.00000000000E+00 0. -1.
          1   -1    0    0  501    0 -0.00000000000E+00 -0.00000000000E+00 -0.13243983646E+03  0.13243983646E+03  0.00000000000E+00 0. -1.
         25    2    1    2    0    0  0.12827478151E+02 -0.16291679631E+03  0.26610490704E+03  0.33636758977E+03  0.12499962871E+03 0.  0.
          2    1    1    2  501    0 -0.12239646113E+03  0.10347924128E+03 -0.26859248803E+02  0.16251235743E+03  0.00000000000E+00 0. -1.
          1    1    1    2  502    0  0.10956898298E+03  0.59437555031E+02  0.14785067235E+04  0.14837521075E+04  0.00000000000E+00 0. -1.
         22    1    3    3    0    0  0.46524422648E+02 -0.98367268311E+01  0.46055679990E+02  0.66199764024E+02  0.00000000000E+00 0.  1.
         22    1    3    3    0    0 -0.33696944497E+02 -0.15308006948E+03  0.22004922705E+03  0.27016782574E+03  0.00000000000E+00 0.  1.
</event>
<event>
 7    1  0.5194496E-006  0.1407968E+03  0.7818608E-02  0.1252069E+00
          2   -1    0    0  502    0  0.00000000000E+00  0.00000000000E+00  0.12813530720E+04  0.12813530720E+04  0.00000000000E+00 0. -1.
          1   -1    0    0  501    0 -0.00000000000E+00 -0.00000000000E+00 -0.66249272265E+03  0.66249272265E+03  0.00000000000E+00 0. -1.
         25    2    1    2    0    0 -0.10309664088E+03 -0.20629681893E+03  0.58337981854E+02  0.26872955399E+03  0.12499983279E+03 0.  0.
          2    1    1    2  501    0  0.43692345172E+02  0.82634284810E+02 -0.54912313185E+03  0.55702213599E+03  0.00000000000E+00 0. -1.
          1    1    1    2  502    0  0.59404295705E+02  0.12366253412E+03  0.11096454994E+04  0.11180941047E+04  0.00000000000E+00 0. -1.
         22    1    3    3    0    0 -0.95638445059E+02 -0.11797836934E+03 -0.16446975282E+02  0.15276161429E+03  0.00000000000E+00 0. -1.
         22    1    3    3    0    0 -0.74581958175E+01 -0.88318449594E+02  0.74784957136E+02  0.11596793970E+03  0.00000000000E+00 0. -1.
</event>
<event>
 7    1  0.5194496E-006  0.4114848E+02  0.7818608E-02  0.1512500E+00
          2   -1    0    0  502    0  0.00000000000E+00  0.00000000000E+00  0.56105556141E+03  0.56105556141E+03  0.00000000000E+00 0. -1.
          1   -1    0    0  501    0 -0.00000000000E+00 -0.00000000000E+00 -0.30913242142E+02  0.30913242142E+02  0.00000000000E+00 0. -1.
         25    2    1    2    0    0 -0.27499068892E+02 -0.30714199170E+00  0.38793201252E+03  0.40850237058E+03  0.12500658904E+03 0.  0.
          2    1    1    2  501    0  0.21663899859E+02 -0.37009603704E+02  0.74666331965E+01  0.43529138915E+02  0.00000000000E+00 0. -1.
          1    1    1    2  502    0  0.58351690335E+01  0.37316745696E+02  0.13474367354E+03  0.13993729405E+03  0.00000000000E+00 0. -1.
         22    1    3    3    0    0 -0.18697390707E+02 -0.45645929413E+02  0.61588051145E+02  0.78906472073E+02  0.00000000000E+00 0.  1.
         22    1    3    3    0    0 -0.88016781852E+01  0.45338787422E+02  0.32634396138E+03  0.32959589851E+03  0.00000000000E+00 0.  1.
</event>
<event>
 7    1  0.5194496E-006  0.1046557E+03  0.7818608E-02  0.1328876E+00
          2   -1    0    0  502    0  0.00000000000E+00  0.00000000000E+00  0.19012226469E+03  0.19012226469E+03  0.00000000000E+00 0. -1.
          1   -1    0    0  501    0 -0.00000000000E+00 -0.00000000000E+00 -0.13839202520E+04  0.13839202520E+04  0.00000000000E+00 0. -1.
         25    2    1    2    0    0 -0.57549757006E+02 -0.17129673628E+02 -0.34556011545E+03  0.37234645380E+03  0.12499875205E+03 0.  0.
          2    1    1    2  501    0 -0.18140938825E+02 -0.58499465830E+02 -0.10077560930E+04  0.10096155823E+04  0.00000000000E+00 0. -1.
          1    1    1    2  502    0  0.75690695831E+02  0.75629139458E+02  0.15951822108E+03  0.19208048060E+03  0.00000000000E+00 0. -1.
         22    1    3    3    0    0 -0.96119447289E+02 -0.15832257446E+02 -0.27756453002E+03  0.29416267073E+03  0.00000000000E+00 0.  1.
         22    1    3    3    0    0  0.38569690283E+02 -0.12974161821E+01 -0.67995585428E+02  0.78183783069E+02  0.00000000000E+00 0.  1.
</event>
<event>
 7    1  0.5194496E-006  0.1597311E+03  0.7818608E-02  0.1311572E+00
          2   -1    0    0  502    0  0.00000000000E+00  0.00000000000E+00  0.21806751915E+04  0.21806751915E+04  0.00000000000E+00 0. -1.
          1   -1    0    0  501    0 -0.00000000000E+00 -0.00000000000E+00 -0.19621658403E+03  0.19621658403E+03  0.00000000000E+00 0. -1.
         25    2    1    2    0    0  0.14030692411E+03  0.14305575549E+03  0.26831567732E+03  0.35744781446E+03  0.12499862093E+03 0.  0.
          2    1    1    2  501    0 -0.11441081826E+03 -0.10403025179E+03 -0.11185264632E+03  0.19084848208E+03  0.00000000000E+00 0. -1.
          1    1    1    2  502    0 -0.25896105845E+02 -0.39025503705E+02  0.18279955764E+04  0.18285954790E+04  0.00000000000E+00 0. -1.
         22    1    3    3    0    0  0.10656022195E+03  0.14514779842E+03  0.14987801012E+03  0.23427842881E+03  0.00000000000E+00 0.  1.
         22    1    3    3    0    0  0.33746702155E+02 -0.20920429237E+01  0.11843766720E+03  0.12316938565E+03  0.00000000000E+00 0.  1.
</event>
<event>
 7    1  0.5194496E-006  0.4632970E+02  0.7818608E-02  0.1479290E+00
          2   -1    0    0  502    0  0.00000000000E+00  0.00000000000E+00  0.18052197559E+04  0.18052197559E+04  0.00000000000E+00 0. -1.
          1   -1    0    0  501    0 -0.00000000000E+00 -0.00000000000E+00 -0.42563621823E+03  0.42563621823E+03  0.00000000000E+00 0. -1.
         25    2    1    2    0    0  0.10094738940E+02  0.13211585026E+02  0.30109866235E+03  0.32643879741E+03  0.12500173699E+03 0.  0.
          2    1    1    2  501    0  0.21440545056E+02 -0.41254710010E+02 -0.41135781347E+03  0.41397693024E+03  0.00000000000E+00 0. -1.
          1    1    1    2  502    0 -0.31535283996E+02  0.28043124984E+02  0.14898426888E+04  0.14904402465E+04  0.00000000000E+00 0. -1.
         22    1    3    3    0    0  0.34874747961E+02  0.60169770891E+02  0.13199583128E+03  0.14919634329E+03  0.00000000000E+00 0.  1.
         22    1    3    3    0    0 -0.24780009021E+02 -0.46958185865E+02  0.16910283107E+03  0.17724245412E+03  0.00000000000E+00 0.  1.
</event>
<event>
 7    1  0.5194496E-006  0.1403848E+03  0.7818608E-02  0.1278113E+00
          2   -1    0    0  502    0  0.00000000000E+00  0.00000000000E+00  0.65184826646E+03  0.65184826646E+03  0.00000000000E+00 0. -1.
          1   -1    0    0  501    0 -0.00000000000E+00 -0.00000000000E+00 -0.42974988067E+03  0.42974988067E+03  0.00000000000E+00 0. -1.
         25    2    1    2    0    0 -0.84985749837E+02 -0.24611136953E+02  0.71184309308E+02  0.16887910958E+03  0.12499864809E+03 0.  0.
          2    1    1    2  501    0  0.11643026126E+03  0.90192211523E+02 -0.36401451880E+03  0.39267952666E+03  0.00000000000E+00 0. -1.
          1    1    1    2  502    0 -0.31444511426E+02 -0.65581074569E+02  0.51492859529E+03  0.52003951089E+03  0.00000000000E+00 0. -1.
         22    1    3    3    0    0 -0.25431682453E+02  0.34256886577E+02 -0.18211577422E+02  0.46389290818E+02  0.00000000000E+00 0.  1.
         22    1    3    3    0    0 -0.59554067384E+02 -0.58868023530E+02  0.89395886730E+02  0.12248981876E+03  0.00000000000E+00 0.  1.
</event>
<event>
 7    1  0.5194496E-006  0.6571123E+02  0.7818608E-02  0.1536286E+00
          2   -1    0    0  502    0  0.00000000000E+00  0.00000000000E+00  0.15082829414E+04  0.15082829414E+04  0.00000000000E+00 0. -1.
          1   -1    0    0  501    0 -0.00000000000E+00 -0.00000000000E+00 -0.12989550430E+03  0.12989550430E+03  0.00000000000E+00 0. -1.
         25    2    1    2    0    0  0.81064060078E+02  0.18766650069E+02  0.68475781473E+03  0.70102946548E+03  0.12500191057E+03 0.  0.
          2    1    1    2  501    0 -0.19285200487E+02 -0.59856796922E+01 -0.11969246081E+03  0.12138382303E+03  0.00000000000E+00 0. -1.
          1    1    1    2  502    0 -0.61778859591E+02 -0.12780970377E+02  0.81332208318E+03  0.81576515719E+03  0.00000000000E+00 0. -1.
         22    1    3    3    0    0  0.78620510161E+02  0.58812962181E+02  0.59021487489E+03  0.59832578724E+03  0.00000000000E+00 0.  1.
         22    1    3    3    0    0  0.24435499168E+01 -0.40046312112E+02  0.94542939841E+02  0.10270367824E+03  0.00000000000E+00 0.  1.
</event>
<event>
 7    1  0.5194496E-006  0.5878753E+02  0.7818608E-02  0.1530251E+00
          2   -1    0    0  502    0  0.00000000000E+00  0.00000000000E+00  0.52751841756E+03  0.52751841756E+03  0.00000000000E+00 0. -1.
          1   -1    0    0  501    0 -0.00000000000E+00 -0.00000000000E+00 -0.16015855708E+03  0.16015855708E+03  0.00000000000E+00 0. -1.
         25    2    1    2    0    0  0.73540353828E+01 -0.37521665655E+02  0.69561938866E+02  0.14807473712E+03  0.12500122881E+03 0.  0.
          2    1    1    2  501    0 -0.69661918970E+01 -0.22426513663E+02 -0.11758930284E+03  0.11991130258E+03  0.00000000000E+00 0. -1.
          1    1    1    2  502    0 -0.38784348577E+00  0.59948179318E+02  0.41538722446E+03  0.41969093494E+03  0.00000000000E+00 0. -1.
         22    1    3    3    0    0 -0.17696426572E+02 -0.70131853432E+02  0.77700876136E+02  0.10615585962E+03  0.00000000000E+00 0. -1.
         22    1    3    3    0    0  0.25050461954E+02  0.32610187777E+02 -0.81389372704E+01  0.41918877500E+02  0.00000000000E+00 0. -1.
</event>
<event>
 7    1  0.5194496E-006  0.5432740E+02  0.7818608E-02  0.1428944E+00
          2   -1    0    0  502    0  0.00000000000E+00  0.00000000000E+00  0.25612680132E+03  0.25612680132E+03  0.00000000000E+00 0. -1.
          1   -1    0    0  501    0 -0.00000000000E+00 -0.00000000000E+00 -0.67752701412E+03  0.67752701412E+03  0.00000000000E+00 0. -1.
         25    2    1    2    0    0  0.16767621285E+01  0.12370453192E+02 -0.16394146529E+03  0.20653933226E+03  0.12500340830E+03 0.  0.
          2    1    1    2  501    0  0.42851911922E+02 -0.39307577113E+02 -0.48765447844E+03  0.49110921628E+03  0.00000000000E+00 0. -1.
          1    1    1    2  502    0 -0.44528674051E+02  0.26937123921E+02  0.23019573093E+03  0.23600526688E+03  0.00000000000E+00 0. -1.
         22    1    3    3    0    0 -0.15813182056E+02  0.66372195079E+02 -0.79113812047E+02  0.10447162420E+03  0.00000000000E+00 0.  1.
         22    1    3    3    0    0  0.17489944184E+02 -0.54001741887E+02 -0.84827653243E+02  0.10206770806E+03  0.00000000000E+00 0.  1.
</event>
<event>
 7    1  0.5194496E-006  0.9388359E+02  0.7818608E-02  0.1434936E+00
          2   -1    0    0  502    0  0.00000000000E+00  0.00000000000E+00  0.11864235816E+03  0.11864235816E+03  0.00000000000E+00 0. -1.
          1   -1    0    0  501    0 -0.00000000000E+00 -0.00000000000E+00 -0.38410301728E+03  0.38410301728E+03  0.00000000000E+00 0. -1.
         25    2    1    2    0    0  0.28952130241E+01  0.11616332773E+03 -0.15611266335E+03  0.23129508355E+03  0.12499580412E+03 0.  0.
          2    1    1    2  501    0 -0.62749985910E+01 -0.87581029506E+02 -0.17719162447E+03  0.19775410013E+03  0.00000000000E+00 0. -1.
          1    1    1    2  502    0  0.33797855669E+01 -0.28582298229E+02  0.67843628707E+02  0.73696191751E+02  0.00000000000E+00 0. -1.
         22    1    3    3    0    0 -0.17250320785E+02  0.13061645199E+03 -0.87035780310E+02  0.15790331900E+03  0.00000000000E+00 0.  1.
         22    1    3    3    0    0  0.20145533809E+02 -0.14453124255E+02 -0.69076883042E+02  0.73391764552E+02  0.00000000000E+00 0.  1.
</event>
<event>
 7    1  0.5194496E-006  0.1461316E+03  0.7818608E-02  0.1390659E+00
          2   -1    0    0  502    0  0.00000000000E+00  0.00000000000E+00  0.35674820732E+03  0.35674820732E+03  0.00000000000E+00 0. -1.
          1   -1    0    0  501    0 -0.00000000000E+00 -0.00000000000E+00 -0.43369541333E+03  0.43369541333E+03  0.00000000000E+00 0. -1.
         25    2    1    2    0    0  0.13313978193E+03 -0.12357473849E+02 -0.95948327838E+02  0.20666148177E+03  0.12499591090E+03 0.  0.
          2    1    1    2  501    0 -0.14704249396E+03  0.34431714405E+02 -0.26155096314E+03  0.30201977469E+03  0.00000000000E+00 0. -1.
          1    1    1    2  502    0  0.13902712036E+02 -0.22074240556E+02  0.28055208496E+03  0.28176236419E+03  0.00000000000E+00 0. -1.
         22    1    3    3    0    0  0.38852902084E+02 -0.53918770178E+02 -0.77309503940E+02  0.10194871837E+03  0.00000000000E+00 0.  1.
         22    1    3    3    0    0  0.94286879844E+02  0.41561296329E+02 -0.18638823898E+02  0.10471276340E+03  0.00000000000E+00 0.  1.
</event>
<event>
 7    1  0.5194496E-006  0.1600869E+03  0.7818608E-02  0.1329959E+00
          2   -1    0    0  502    0  0.00000000000E+00  0.00000000000E+00  0.25072204749E+04  0.25072204749E+04  0.00000000000E+00 0. -1.
          1   -1    0    0  501    0 -0.00000000000E+00 -0.00000000000E+00 -0.25731621663E+04  0.25731621663E+04  0.00000000000E+00 0. -1.
         25    2    1    2    0    0  0.13263297573E+03 -0.99801132585E+02  0.60633231174E+03  0.64094956753E+03  0.12500281413E+03 0.  0.
          2    1    1    2  501    0 -0.14720134134E+03  0.62913703295E+02 -0.25531376527E+04  0.25581513330E+04  0.00000000000E+00 0. -1.
          1    1    1    2  502    0  0.14568365612E+02  0.36887429290E+02  0.18808636496E+04  0.18812817407E+04  0.00000000000E+00 0. -1.
         22    1    3    3    0    0  0.44140503483E+02 -0.34648908537E+02  0.42667516230E+03  0.43034942202E+03  0.00000000000E+00 0.  1.
         22    1    3    3    0    0  0.88492472250E+02 -0.65152224049E+02  0.17965714944E+03  0.21060014551E+03  0.00000000000E+00 0.  1.
</event>
<event>
 7    1  0.5194496E-006  0.4269232E+02  0.7818608E-02  0.1513298E+00
          2   -1    0    0  502    0  0.00000000000E+00  0.00000000000E+00  0.17697099276E+03  0.17697099276E+03  0.00000000000E+00 0. -1.
          1   -1    0    0  501    0 -0.00000000000E+00 -0.00000000000E+00 -0.71146364259E+03  0.71146364259E+03  0.00000000000E+00 0. -1.
         25    2    1    2    0    0 -0.26719985160E+02 -0.33785274066E+02 -0.10730492414E+03  0.17027710317E+03  0.12499817105E+03 0.  0.
          2    1    1    2  501    0  0.43042317126E+02  0.14643412993E+01 -0.56959413157E+03  0.57121997520E+03  0.00000000000E+00 0. -1.
          1    1    1    2  502    0 -0.16322331966E+02  0.32320932766E+02  0.14240640587E+03  0.14693755697E+03  0.00000000000E+00 0. -1.
         22    1    3    3    0    0 -0.75177787412E+02 -0.18024904880E+02 -0.84260498417E+02  0.11435221253E+03  0.00000000000E+00 0.  1.
         22    1    3    3    0    0  0.48457802252E+02 -0.15760369185E+02 -0.23044425727E+02  0.55924890639E+02  0.00000000000E+00 0.  1.
</event>
<event>
 7    1  0.5194496E-006  0.6716451E+02  0.7818608E-02  0.1374936E+00
          2   -1    0    0  502    0  0.00000000000E+00  0.00000000000E+00  0.13644974971E+04  0.13644974971E+04  0.00000000000E+00 0. -1.
          1   -1    0    0  501    0 -0.00000000000E+00 -0.00000000000E+00 -0.36389514577E+02  0.36389514577E+02  0.00000000000E+00 0. -1.
         25    2    1    2    0    0 -0.97235154066E+01 -0.94605722282E+01  0.11719539842E+04  0.11786793593E+04  0.12499936653E+03 0.  0.
          2    1    1    2  501    0  0.66061361826E+02 -0.21925206778E+02  0.21405737218E+02  0.72821863506E+02  0.00000000000E+00 0. -1.
          1    1    1    2  502    0 -0.56337846420E+02  0.31385779006E+02  0.13474826106E+03  0.14938578889E+03  0.00000000000E+00 0. -1.
         22    1    3    3    0    0 -0.66859830883E+02 -0.10498198899E+02  0.70518814376E+03  0.70842837836E+03  0.00000000000E+00 0. -1.
         22    1    3    3    0    0  0.57136315476E+02  0.10376266710E+01  0.46676584046E+03  0.47025098090E+03  0.00000000000E+00 0. -1.
</event>
<event>
 7    1  0.5194496E-006  0.7500400E+02  0.7818608E-02  0.1404567E+00
          2   -1    0    0  502    0  0.00000000000E+00  0.00000000000E+00  0.28855024173E+04  0.28855024173E+04  0.00000000000E+00 0. -1.
          1   -1    0    0  501    0 -0.00000000000E+00 -0.00000000000E+00 -0.75528045762E+03  0.75528045762E+03  0.00000000000E+00 0. -1.
         25    2    1    2    0    0  0.80766182930E+02  0.51964222554E+02  0.26489527910E+03  0.30824395181E+03  0.12498547198E+03 0.  0.
          2    1    1    2  501    0 -0.37182056877E+02 -0.65060007830E+02 -0.73149263218E+03  0.73532086935E+03  0.00000000000E+00 0. -1.
          1    1    1    2  502    0 -0.43584126054E+02  0.13095785277E+02  0.25968193127E+04  0.25972180537E+04  0.00000000000E+00 0. -1.
         22    1    3    3    0    0  0.95871539090E+02  0.52026438392E+02  0.27086367483E+03  0.29200211068E+03  0.00000000000E+00 0.  1.
         22    1    3    3    0    0 -0.15105356159E+02 -0.62215837963E-01 -0.59683957329E+01  0.16241841125E+02  0.00000000000E+00 0.  1.
</event>
<event>
 7    1  0.5194496E-006  0.5022254E+02  0.7818608E-02  0.1491392E+00
          2   -1    0    0  502    0  0.00000000000E+00  0.00000000000E+00  0.10354008531E+04  0.10354008531E+04  0.00000000000E+00 0. -1.
          1   -1    0    0  501    0 -0.00000000000E+00 -0.00000000000E+00 -0.47973306684E+03  0.47973306684E+03  0.00000000000E+00 0. -1.
         25    2    1    2    0    0  0.57947870242E+02 -0.25960065687E+02  0.34513249489E+03  0.37251593773E+03  0.12497921488E+03 0.  0.
          2    1    1    2  501    0 -0.49440878089E+02 -0.87757813034E+01 -0.46421387120E+03  0.46692176323E+03  0.00000000000E+00 0. -1.
          1    1    1    2  502    0 -0.85069921526E+01  0.34735846990E+02  0.67474916260E+03  0.67569621903E+03  0.00000000000E+00 0. -1.
         22    1    3    3    0    0  0.33367126949E+02  0.46120766025E+02  0.92111065440E+02  0.10828175560E+03  0.00000000000E+00 0. -1.
         22    1    3    3    0    0  0.24580743293E+02 -0.72080831712E+02  0.25302142945E+03  0.26423418213E+03  0.00000000000E+00 0. -1.
</event>
<event>
 7    1  0.5194496E-006  0.7083377E+02  0.7818608E-02  0.1476116E+00
          2   -1    0    0  502    0  0.00000000000E+00  0.00000000000E+00  0.15195664250E+03  0.15195664250E+03  0.00000000000E+00 0. -1.
          1   -1    0    0  501    0 -0.00000000000E+00 -0.00000000000E+00 -0.10078696546E+04  0.10078696546E+04  0.00000000000E+00 0. -1.
         25    2    1    2    0    0 -0.68560490676E+02 -0.29374319351E+02 -0.65313582562E+03  0.66916084197E+03  0.12500573662E+03 0.  0.
          2    1    1    2  501    0  0.70830404931E+02  0.12359897170E+01 -0.34166800323E+03  0.34893480532E+03  0.00000000000E+00 0. -1.
          1    1    1    2  502    0 -0.22699142550E+01  0.28138329634E+02  0.13889081677E+03  0.14173064979E+03  0.00000000000E+00 0. -1.
         22    1    3    3    0    0 -0.54652963429E+02  0.41495355888E+01 -0.61139754598E+03  0.61384943128E+03  0.00000000000E+00 0.  1.
         22    1    3    3    0    0 -0.13907527247E+02 -0.33523854940E+02 -0.41738279648E+02  0.55311410687E+02  0.00000000000E+00 0.  1.
</event>
<event>
 7    1  0.5194496E-006  0.6547968E+02  0.7818608E-02  0.1480686E+00
          2   -1    0    0  502    0  0.00000000000E+00  0.00000000000E+00  0.68078853871E+03  0.68078853871E+03  0.00000000000E+00 0. -1.
          1   -1    0    0  501    0 -0.00000000000E+00 -0.00000000000E+00 -0.23668766062E+02  0.23668766062E+02  0.00000000000E+00 0. -1.
         25    2    1    2    0    0 -0.15859245592E+02 -0.75522318907E+02  0.29003814152E+03  0.32512001394E+03  0.12500305437E+03 0.  0.
          2    1    1    2  501    0  0.32204715687E+02  0.50885908553E+02  0.17685281909E+03  0.18682462102E+03  0.00000000000E+00 0. -1.
          1    1    1    2  502    0 -0.16345470095E+02  0.24636410354E+02  0.19022881203E+03  0.19251266981E+03  0.00000000000E+00 0. -1.
         22    1    3    3    0    0  0.41569310882E+02 -0.45201896860E+02  0.22492487339E+03  0.23315749560E+03  0.00000000000E+00 0.  1.
         22    1    3    3    0    0 -0.57428556474E+02 -0.30320422047E+02  0.65113268138E+02  0.91962518340E+02  0.00000000000E+00 0.  1.
</event>
<event>
 7    1  0.5194496E-006  0.1578278E+03  0.7818608E-02  0.1298236E+00
          2   -1    0    0  502    0  0.00000000000E+00  0.00000000000E+00  0.24588976530E+03  0.24588976530E+03  0.00000000000E+00 0. -1.
          1   -1    0    0  501    0 -0.00000000000E+00 -0.00000000000E+00 -0.53841493252E+03  0.53841493252E+03  0.00000000000E+00 0. -1.
         25    2    1    2    0    0  0.16782102940E+03 -0.11853209689E+02  0.70341053174E+02  0.22108271528E+03  0.12500122697E+03 0.  0.
          2    1    1    2  501    0 -0.26189927300E+02 -0.46709025123E+02 -0.40159003324E+03  0.40514466566E+03  0.00000000000E+00 0. -1.
          1    1    1    2  502    0 -0.14163110210E+03  0.58562234812E+02  0.38723812842E+02  0.15807731687E+03  0.00000000000E+00 0. -1.
         22    1    3    3    0    0  0.11739416297E+03 -0.47948111289E+02 -0.66302258718E+00  0.12681029325E+03  0.00000000000E+00 0.  1.
         22    1    3    3    0    0  0.50426866428E+02  0.36094901600E+02  0.71004075762E+02  0.94272422023E+02  0.00000000000E+00 0.  1.
</event>
<event>
 7    1  0.5194496E-006  0.1039884E+03  0.7818608E-02  0.1326811E+00
          2   -1    0    0  502    0  0.00000000000E+00  0.00000000000E+00  0.59800761834E+03  0.59800761834E+03  0.00000000000E+00 0. -1.
          1   -1    0    0  501    0 -0.00000000000E+00 -0.00000000000E+00 -0.67305499995E+03  0.67305499995E+03  0.00000000000E+00 0. -1.
         25    2    1    2    0    0 -0.12561408169E+03 -0.10050916264E+03  0.25915064600E+03  0.32964375374E+03  0.12499983106E+03 0.  0.
          2    1    1    2  501    0  0.66733060323E+02  0.78745477964E+02 -0.63032041082E+03  0.63871587731E+03  0.00000000000E+00 0. -1.
          1    1    1    2  502    0  0.58881021367E+02  0.21763684673E+02  0.29612238321E+03  0.30270298724E+03  0.00000000000E+00 0. -1.
         22    1    3    3    0    0 -0.14973422421E+03 -0.89692367550E+02  0.20395800428E+03  0.26844725032E+03  0.00000000000E+00 0. -1.
         22    1    3    3    0    0  0.24120142515E+02 -0.10816795087E+02  0.55192641711E+02  0.61196503412E+02  0.00000000000E+00 0. -1.
</event>
<event>
 7    1  0.5194496E-006  0.4835004E+02  0.7818608E-02  0.1539140E+00
          2   -1    0    0  502    0  0.00000000000E+00  0.00000000000E+00  0.86255456596E+03  0.86255456596E+03  0.00000000000E+00 0. -1.
          1   -1    0    0  501    0 -0.00000000000E+00 -0.00000000000E+00 -0.72270462913E+02  0.72270462913E+02  0.00000000000E+00 0. -1.
         25    2    1    2    0    0 -0.26208541434E+02  0.22024845818E+02  0.16358347758E+02  0.13062756047E+03  0.12499593008E+03 0.  0.
          2    1    1    2  501    0  0.39834567391E+02 -0.45260972384E+02  0.46163627051E+02  0.75937005754E+02  0.00000000000E+00 0. -1.
          1    1    1    2  502    0 -0.13626025957E+02  0.23236126567E+02  0.72776212824E+03  0.72826046265E+03  0.00000000000E+00 0. -1.
         22    1    3    3    0    0 -0.67124522131E+02  0.44278217386E+02  0.22861460046E+02  0.83599691158E+02  0.00000000000E+00 0.  1.
         22    1    3    3    0    0  0.40915980698E+02 -0.22253371568E+02 -0.65031122882E+01  0.47027869312E+02  0.00000000000E+00 0.  1.
</event>
<event>
 7    1  0.5194496E-006  0.4973419E+02  0.7818608E-02  0.1470021E+00
          2   -1    0    0  502    0  0.00000000000E+00  0.00000000000E+00  0.18493469385E+04  0.18493469385E+04  0.00000000000E+00 0. -1.
          1   -1    0    0  501    0 -0.00000000000E+00 -0.00000000000E+00 -0.18079080163E+02  0.18079080163E+02  0.00000000000E+00 0. -1.
         25    2    1    2    0    0 -0.15589823640E+02  0.60418162851E+02  0.77799188708E+03  0.79043598799E+03  0.12499711099E+03 0.  0.
          2    1    1    2  501    0 -0.26069992319E+02 -0.32919705701E+02  0.27936227830E+02  0.50435943020E+02  0.00000000000E+00 0. -1.
          1    1    1    2  502    0  0.41659815959E+02 -0.27498457150E+02  0.10253397434E+04  0.10265540877E+04  0.00000000000E+00 0. -1.
         22    1    3    3    0    0 -0.21628699353E+02  0.70245243204E+02  0.21296817764E+03  0.22529456167E+03  0.00000000000E+00 0. -1.
         22    1    3    3    0    0  0.60388757135E+01 -0.98270803527E+01  0.56502370943E+03  0.56514142632E+03  0.00000000000E+00 0. -1.
</event>
<event>
 7    1  0.5194496E-006  0.1185769E+03  0.7818608E-02  0.1272772E+00
          2   -1    0    0  502    0  0.00000000000E+00  0.00000000000E+00  0.21600921106E+04  0.21600921106E+04  0.00000000000E+00 0. -1.
          1   -1    0    0  501    0 -0.00000000000E+00 -0.00000000000E+00 -0.79727490543E+03  0.79727490543E+03  0.00000000000E+00 0. -1.
         25    2    1    2    0    0 -0.11202150873E+03 -0.49601253880E+02 -0.34200480182E+02  0.17833612416E+03  0.12499999012E+03 0.  0.
          2    1    1    2  501    0  0.11343985852E+03 -0.41016597878E+02 -0.68474876566E+03  0.69529262536E+03  0.00000000000E+00 0. -1.
          1    1    1    2  502    0 -0.14183497825E+01  0.90617851758E+02  0.20817664510E+04  0.20837382665E+04  0.00000000000E+00 0. -1.
         22    1    3    3    0    0  0.23591364120E+01 -0.76239801301E+01 -0.54270390191E+02  0.54854041320E+02  0.00000000000E+00 0.  1.
         22    1    3    3    0    0 -0.11438064515E+03 -0.41977273749E+02  0.20069910009E+02  0.12348208284E+03  0.00000000000E+00 0.  1.
</event>
<event>
 7    1  0.5194496E-006  0.1172700E+03  0.7818608E-02  0.1384402E+00
          2   -1    0    0  502    0  0.00000000000E+00  0.00000000000E+00  0.89239803505E+03  0.89239803505E+03  0.00000000000E+00 0. -1.
          1   -1    0    0  501    0 -0.00000000000E+00 -0.00000000000E+00 -0.47123724060E+03  0.47123724060E+03  0.00000000000E+00 0. -1.
         25    2    1    2    0    0 -0.34197212870E+02 -0.98876982263E+02 -0.86161512065E+01  0.16322686933E+03  0.12499066294E+03 0.  0.
          2    1    1    2  501    0  0.65793957612E+01  0.11903228032E+03 -0.37572340372E+03  0.39418276004E+03  0.00000000000E+00 0. -1.
          1    1    1    2  502    0  0.27617817109E+02 -0.20155298062E+02  0.80550034938E+03  0.80622564627E+03  0.00000000000E+00 0. -1.
         22    1    3    3    0    0 -0.19032637242E+02 -0.24436203059E+02  0.55670663203E+02  0.63707079998E+02  0.00000000000E+00 0. -1.
         22    1    3    3    0    0 -0.15164575628E+02 -0.74440779203E+02 -0.64286814410E+02  0.99519789335E+02  0.00000000000E+00 0. -1.
</event>
<event>
 7    1  0.5194496E-006  0.1133363E+03  0.7818608E-02  0.1310945E+00
          2   -1    0    0  502    0  0.00000000000E+00  0.00000000000E+00  0.12479152385E+04  0.12479152385E+04  0.00000000000E+00 0. -1.
          1   -1    0    0  501    0 -0.00000000000E+00 -0.00000000000E+00 -0.38181406963E+02  0.38181406963E+02  0.00000000000E+00 0. -1.
         25    2    1    2    0    0 -0.82177941649E+02 -0.16191633191E+02  0.40937408179E+03  0.43614996825E+03  0.12499709153E+03 0.  0.
          2    1    1    2  501    0 -0.40787437141E+02  0.52375952361E+02  0.37198285507E+02  0.76095780822E+02  0.00000000000E+00 0. -1.
          1    1    1    2  502    0  0.12296537879E+03 -0.36184319170E+02  0.76316146429E+03  0.77385089644E+03  0.00000000000E+00 0. -1.
         22    1    3    3    0    0 -0.15943802918E+02 -0.12807374104E+02  0.33838079949E+03  0.33899822882E+03  0.00000000000E+00 0.  1.
         22    1    3    3    0    0 -0.66234138731E+02 -0.33842590872E+01  0.70993282298E+02  0.97151739431E+02  0.00000000000E+00 0.  1.
</event>
<event>
 7    1  0.5194496E-006  0.6545805E+02  0.7818608E-02  0.1523895E+00
          2   -1    0    0  502    0  0.00000000000E+00  0.00000000000E+00  0.73600950701E+03  0.73600950701E+03  0.00000000000E+00 0. -1.
          1   -1    0    0  501    0 -0.00000000000E+00 -0.00000000000E+00 -0.14136116930E+03  0.14136116930E+03  0.00000000000E+00 0. -1.
         25    2    1    2    0    0  0.61570019503E+02  0.57514575792E+02  0.26219597175E+03  0.30244303951E+03  0.12500508316E+03 0.  0.
          2    1    1    2  501    0 -0.19617290694E+02 -0.99520206527E+01 -0.11799984467E+03  0.12003267952E+03  0.00000000000E+00 0. -1.
          1    1    1    2  502    0 -0.41952728809E+02 -0.47562555139E+02  0.45045221063E+03  0.45489495729E+03  0.00000000000E+00 0. -1.
         22    1    3    3    0    0  0.55878136264E+02 -0.12600489775E+02  0.20165545430E+03  0.20963315745E+03  0.00000000000E+00 0.  1.
         22    1    3    3    0    0  0.56918832387E+01  0.70115065567E+02  0.60540517449E+02  0.92809882056E+02  0.00000000000E+00 0.  1.
</event>
<event>
 7    1  0.5194496E-006  0.3882939E+03  0.7818608E-02  0.1142756E+00
          2   -1    0    0  502    0  0.00000000000E+00  0.00000000000E+00  0.76082525608E+03  0.76082525608E+03  0.00000000000E+00 0. -1.
          1   -1    0    0  501    0 -0.00000000000E+00 -0.00000000000E+00 -0.12546127422E+04  0.12546127422E+04  0.00000000000E+00 0. -1.
         25    2    1    2    0    0 -0.46321224373E+03 -0.91845400446E+02  0.23137156376E+02  0.48904165350E+03  0.12500100211E+03 0.  0.
          2    1    1    2  501    0  0.10118680098E+03  0.47922044802E+02 -0.95207741064E+03  0.95863793317E+03  0.00000000000E+00 0. -1.
          1    1    1    2  502    0  0.36202544276E+03  0.43923355644E+02  0.43515276812E+03  0.56775841163E+03  0.00000000000E+00 0. -1.
         22    1    3    3    0    0 -0.25397086127E+03 -0.29842432220E+00  0.50733312456E+02  0.25898871872E+03  0.00000000000E+00 0.  1.
         22    1    3    3    0    0 -0.20924138247E+03 -0.91546976124E+02 -0.27596156080E+02  0.23005293479E+03  0.00000000000E+00 0.  1.
</event>
<event>
 7    1  0.5194496E-006  0.9397464E+02  0.7818608E-02  0.1357065E+00
          2   -1    0    0  502    0  0.00000000000E+00  0.00000000000E+00  0.11510564544E+03  0.11510564544E+03  0.00000000000E+00 0. -1.
          1   -1    0    0  501    0 -0.00000000000E+00 -0.00000000000E+00 -0.28542811910E+03  0.28542811910E+03  0.00000000000E+00 0. -1.
         25    2    1    2    0    0 -0.67913802838E+02 -0.88109291119E+02 -0.83273777562E+02  0.18690586430E+03  0.12499499303E+03 0.  0.
          2    1    1    2  501    0  0.83974978368E+02  0.37089398923E+02 -0.11978519071E+03  0.15091690567E+03  0.00000000000E+00 0. -1.
          1    1    1    2  502    0 -0.16061175531E+02  0.51019892196E+02  0.32736494612E+02  0.62710994559E+02  0.00000000000E+00 0. -1.
         22    1    3    3    0    0 -0.32732179118E+02 -0.17251421031E+02 -0.99492077217E+02  0.10614933116E+03  0.00000000000E+00 0.  1.
         22    1    3    3    0    0 -0.35181623719E+02 -0.70857870088E+02  0.16218299655E+02  0.80756533139E+02  0.00000000000E+00 0.  1.
</event>
<event>
 7    1  0.5194496E-006  0.1131698E+03  0.7818608E-02  0.1382600E+00
          2   -1    0    0  502    0  0.00000000000E+00  0.00000000000E+00  0.17135711295E+03  0.17135711295E+03  0.00000000000E+00 0. -1.
          1   -1    0    0  501    0 -0.00000000000E+00 -0.00000000000E+00 -0.58517707745E+03  0.58517707745E+03  0.00000000000E+00 0. -1.
         25    2    1    2    0    0 -0.12718122165E+03  0.36105125392E+02  0.65354484146E+02  0.19332567136E+03  0.12499985355E+03 0.  0.
          2    1    1    2  501    0  0.35323157463E+02 -0.66888037642E+01 -0.46421156713E+03  0.46560159429E+03  0.00000000000E+00 0. -1.
          1    1    1    2  502    0  0.91858064191E+02 -0.29416321628E+02 -0.14962881508E+02  0.97606924744E+02  0.00000000000E+00 0. -1.
         22    1    3    3    0    0 -0.13364154552E+03  0.21469676824E+02  0.90998735701E+02  0.16310051996E+03  0.00000000000E+00 0.  1.
         22    1    3    3    0    0  0.64603238675E+01  0.14635448568E+02 -0.25644251555E+02  0.30225151399E+02  0.00000000000E+00 0.  1.
</event>
<event>
 7    1  0.5194496E-006  0.8814593E+02  0.7818608E-02  0.1350983E+00
          2   -1    0    0  502    0  0.00000000000E+00  0.00000000000E+00  0.43936285065E+03  0.43936285065E+03  0.00000000000E+00 0. -1.
          1   -1    0    0  501    0 -0.00000000000E+00 -0.00000000000E+00 -0.10444270007E+04  0.10444270007E+04  0.00000000000E+00 0. -1.
         25    2    1    2    0    0  0.17045086641E+02  0.56876296323E+02  0.19142921811E+03  0.23621221127E+03  0.12500246057E+03 0.  0.
          2    1    1    2  501    0  0.38470418095E+02 -0.79750382543E+02 -0.10160795952E+04  0.10199303116E+04  0.00000000000E+00 0. -1.
          1    1    1    2  502    0 -0.55515504736E+02  0.22874086220E+02  0.21958622705E+03  0.22764732855E+03  0.00000000000E+00 0. -1.
         22    1    3    3    0    0  0.50802855527E+02  0.30576282352E+02  0.24965501786E+02  0.64335957688E+02  0.00000000000E+00 0.  1.
         22    1    3    3    0    0 -0.33757768886E+02  0.26300013971E+02  0.16646371632E+03  0.17187625359E+03  0.00000000000E+00 0.  1.
</event>
<event>
 7    1  0.5194496E-006  0.7382481E+02  0.7818608E-02  0.1394697E+00
          2   -1    0    0  502    0  0.00000000000E+00  0.00000000000E+00  0.31901344290E+04  0.31901344290E+04  0.00000000000E+00 0. -1.
          1   -1    0    0  501    0 -0.00000000000E+00 -0.00000000000E+00 -0.18725417944E+03  0.18725417944E+03  0.00000000000E+00 0. -1.
         25    2    1    2    0    0 -0.47841410532E+02 -0.84485470465E+02  0.24978953339E+03  0.29571351118E+03  0.12500029769E+03 0.  0.
          2    1    1    2  501    0  0.48799083516E+02  0.10876547427E+02 -0.16001273346E+03  0.16764165564E+03  0.00000000000E+00 0. -1.
          1    1    1    2  502    0 -0.95767298411E+00  0.73608923038E+02  0.29131034496E+04  0.29140334416E+04  0.00000000000E+00 0. -1.
         22    1    3    3    0    0 -0.70170237601E+02 -0.99421330863E+02  0.15427049559E+03  0.19648880142E+03  0.00000000000E+00 0. -1.
         22    1    3    3    0    0  0.22328827070E+02  0.14935860398E+02  0.95519037807E+02  0.99224709764E+02  0.00000000000E+00 0. -1.
</event>
<event>
 7    1  0.5194496E-006  0.2037132E+03  0.7818608E-02  0.1300618E+00
          2   -1    0    0  502    0  0.00000000000E+00  0.00000000000E+00  0.10522007700E+04  0.10522007700E+04  0.00000000000E+00 0. -1.
          1   -1    0    0  501    0 -0.00000000000E+00 -0.00000000000E+00 -0.33433499290E+03  0.33433499290E+03  0.00000000000E+00 0. -1.
         25    2    1    2    0    0  0.14315587144E+03  0.10552376653E+03  0.34384703389E+03  0.40679979277E+03  0.12500567927E+03 0.  0.
          2    1    1    2  501    0 -0.18261303800E+03 -0.96014673718E+02 -0.26700505409E+03  0.33742856744E+03  0.00000000000E+00 0. -1.
          1    1    1    2  502    0  0.39457166559E+02 -0.95090928140E+01  0.64102379729E+03  0.64230740268E+03  0.00000000000E+00 0. -1.
         22    1    3    3    0    0 -0.76167334357E+01  0.38163761590E+02  0.13532071541E+03  0.14080548053E+03  0.00000000000E+00 0.  1.
         22    1    3    3    0    0  0.15077260487E+03  0.67360004941E+02  0.20852631848E+03  0.26599431224E+03  0.00000000000E+00 0.  1.
</event>
<event>
 7    1  0.5194496E-006  0.8029102E+02  0.7818608E-02  0.1474976E+00
          2   -1    0    0  502    0  0.00000000000E+00  0.00000000000E+00  0.58746510988E+03  0.58746510988E+03  0.00000000000E+00 0. -1.
          1   -1    0    0  501    0 -0.00000000000E+00 -0.00000000000E+00 -0.58129843641E+03  0.58129843641E+03  0.00000000000E+00 0. -1.
         25    2    1    2    0    0 -0.48181498867E+02  0.30212553272E+02 -0.29613174740E+02  0.14048467017E+03  0.12499898890E+03 0.  0.
          2    1    1    2  501    0 -0.24315036656E+02  0.62566587776E+01 -0.49283345759E+03  0.49347257645E+03  0.00000000000E+00 0. -1.
          1    1    1    2  502    0  0.72496535523E+02 -0.36469212049E+02  0.52861330581E+03  0.53480629967E+03  0.00000000000E+00 0. -1.
         22    1    3    3    0    0 -0.39378082867E+02  0.65610936773E+01  0.45920166453E+02  0.60846881987E+02  0.00000000000E+00 0. -1.
         22    1    3    3    0    0 -0.88034160002E+01  0.23651459595E+02 -0.75533341193E+02  0.79637788179E+02  0.00000000000E+00 0. -1.
</event>
<event>
 7    1  0.5194496E-006  0.1144871E+03  0.7818608E-02  0.1295814E+00
          2   -1    0    0  502    0  0.00000000000E+00  0.00000000000E+00  0.15145398915E+04  0.15145398915E+04  0.00000000000E+00 0. -1.
          1   -1    0    0  501    0 -0.00000000000E+00 -0.00000000000E+00 -0.28506287963E+04  0.28506287963E+04  0.00000000000E+00 0. -1.
         25    2    1    2    0    0  0.12934090619E+03  0.50209879661E+02  0.19241915336E+03  0.26814885363E+03  0.12501429955E+03 0.  0.
          2    1    1    2  501    0 -0.11208285120E+03  0.23288317933E+02 -0.28104881488E+04  0.28128186123E+04  0.00000000000E+00 0. -1.
          1    1    1    2  502    0 -0.17258054986E+02 -0.73498197594E+02  0.12819800906E+04  0.12842012219E+04  0.00000000000E+00 0. -1.
         22    1    3    3    0    0  0.67159646709E+02 -0.39245279881E+02  0.77833327603E+02  0.11003925220E+03  0.00000000000E+00 0. -1.
         22    1    3    3    0    0  0.62181259478E+02  0.89455159542E+02  0.11458582576E+03  0.15810960143E+03  0.00000000000E+00 0. -1.
</event>
<event>
 7    1  0.5194496E-006  0.1535410E+03  0.7818608E-02  0.1310771E+00
          2   -1    0    0  502    0  0.00000000000E+00  0.00000000000E+00  0.44066567961E+03  0.44066567961E+03  0.00000000000E+00 0. -1.
          1   -1    0    0  501    0 -0.00000000000E+00 -0.00000000000E+00 -0.44729655553E+03  0.44729655553E+03  0.00000000000E+00 0. -1.
         25    2    1    2    0    0  0.19964200766E+02 -0.15190815526E+03  0.32249440895E+02  0.20034853426E+03  0.12499940717E+03 0.  0.
          2    1    1    2  501    0  0.47504542087E+02  0.12330463018E+02 -0.34287556029E+03  0.34637028117E+03  0.00000000000E+00 0. -1.
          1    1    1    2  502    0 -0.67468742853E+02  0.13957769225E+03  0.30399524348E+03  0.34124341971E+03  0.00000000000E+00 0. -1.
         22    1    3    3    0    0  0.95915794811E+01 -0.66178696362E+02  0.77904334487E+02  0.10266792869E+03  0.00000000000E+00 0.  1.
         22    1    3    3    0    0  0.10372621285E+02 -0.85729458902E+02 -0.45654893592E+02  0.97680605572E+02  0.00000000000E+00 0.  1.
</event>
<event>
 7    1  0.5194496E-006  0.5026716E+02  0.7818608E-02  0.1564038E+00
          2   -1    0    0  502    0  0.00000000000E+00  0.00000000000E+00  0.12300174674E+04  0.12300174674E+04  0.00000000000E+00 0. -1.
          1   -1    0    0  501    0 -0.00000000000E+00 -0.00000000000E+00 -0.69274415128E+02  0.69274415128E+02  0.00000000000E+00 0. -1.
         25    2    1    2    0    0  0.17019398406E+02 -0.47135176466E+02  0.26585932278E+03  0.29802229840E+03  0.12499890421E+03 0.  0.
          2    1    1    2  501    0  0.48491732740E+01  0.50237910673E+02 -0.41060956710E+02  0.65064309081E+02  0.00000000000E+00 0. -1.
          1    1    1    2  502    0 -0.21868571680E+02 -0.31027342073E+01  0.93594468623E+03  0.93620527507E+03  0.00000000000E+00 0. -1.
         22    1    3    3    0    0  0.47591504736E+02  0.38639265684E+01  0.33887957381E+02  0.58551472287E+02  0.00000000000E+00 0.  1.
         22    1    3    3    0    0 -0.30572106330E+02 -0.50999103034E+02  0.23197136539E+03  0.23947082611E+03  0.00000000000E+00 0.  1.
</event>
<event>
 7    1  0.5194496E-006  0.7803424E+02  0.7818608E-02  0.1345279E+00
          2   -1    0    0  502    0  0.00000000000E+00  0.00000000000E+00  0.64745190132E+03  0.64745190132E+03  0.00000000000E+00 0. -1.
          1   -1    0    0  501    0 -0.00000000000E+00 -0.00000000000E+00 -0.18552024738E+04  0.18552024738E+04  0.00000000000E+00 0. -1.
         25    2    1    2    0    0  0.10342055963E+03 -0.10548544569E+03 -0.16189097804E+03  0.25230154729E+03  0.12499756232E+03 0.  0.
          2    1    1    2  501    0 -0.55998117959E+02  0.52355408985E+02 -0.16451051644E+04  0.16468903668E+04  0.00000000000E+00 0. -1.
          1    1    1    2  502    0 -0.47422441667E+02  0.53130036709E+02  0.59924556999E+03  0.60346246108E+03  0.00000000000E+00 0. -1.
         22    1    3    3    0    0  0.69940629145E+02  0.95276589474E+01 -0.38810825087E+02  0.80552765528E+02  0.00000000000E+00 0.  1.
         22    1    3    3    0    0  0.33479930481E+02 -0.11501310464E+03 -0.12308015296E+03  0.17174878176E+03  0.00000000000E+00 0.  1.
</event>
<event>
 7    1  0.5194496E-006  0.1174057E+03  0.7818608E-02  0.1438736E+00
          2   -1    0    0  502    0  0.00000000000E+00  0.00000000000E+00  0.27399877809E+03  0.27399877809E+03  0.00000000000E+00 0. -1.
          1   -1    0    0  501    0 -0.00000000000E+00 -0.00000000000E+00 -0.11015353408E+03  0.11015353408E+03  0.00000000000E+00 0. -1.
         25    2    1    2    0    0  0.13539331996E+02 -0.10305990000E+03  0.10989455830E+03  0.19622754389E+03  0.12499511406E+03 0.  0.
          2    1    1    2  501    0 -0.27247450497E+01  0.12263968711E+03 -0.71303106849E+01  0.12287700526E+03  0.00000000000E+00 0. -1.
          1    1    1    2  502    0 -0.10814586946E+02 -0.19579787112E+02  0.61080996391E+02  0.65047763023E+02  0.00000000000E+00 0. -1.
         22    1    3    3    0    0 -0.21092353072E+02 -0.89755469927E+02  0.13809414288E+02  0.93228920743E+02  0.00000000000E+00 0.  1.
         22    1    3    3    0    0  0.34631685068E+02 -0.13304430075E+02  0.96085144012E+02  0.10299862315E+03  0.00000000000E+00 0.  1.
</event>
<event>
 7    1  0.5194496E-006  0.2803826E+03  0.7818608E-02  0.1220326E+00
          2   -1    0    0  502    0  0.00000000000E+00  0.00000000000E+00  0.17063711928E+04  0.17063711928E+04  0.00000000000E+00 0. -1.
          1   -1    0    0  501    0 -0.00000000000E+00 -0.00000000000E+00 -0.14136919306E+04  0.14136919306E+04  0.00000000000E+00 0. -1.
         25    2    1    2    0    0  0.30569426961E+03 -0.12699877927E+03  0.34223423714E+03  0.49226766305E+03  0.12500201040E+03 0.  0.
          2    1    1    2  501    0 -0.64864305769E+02  0.28678263562E+01 -0.13236347050E+04  0.13252261825E+04  0.00000000000E+00 0. -1.
          1    1    1    2  502    0 -0.24082996384E+03  0.12413095292E+03  0.12740797301E+04  0.13025692779E+04  0.00000000000E+00 0. -1.
         22    1    3    3    0    0  0.24079377090E+03 -0.14599900552E+03  0.30481213440E+03  0.41497926092E+03  0.00000000000E+00 0. -1.
         22    1    3    3    0    0  0.64900498713E+02  0.19000226243E+02  0.37422102743E+02  0.77288402133E+02  0.00000000000E+00 0. -1.
</event>
<event>
 7    1  0.5194496E-006  0.1050342E+03  0.7818608E-02  0.1386567E+00
          2   -1    0    0  502    0  0.00000000000E+00  0.00000000000E+00  0.23180121438E+03  0.23180121438E+03  0.00000000000E+00 0. -1.
          1   -1    0    0  501    0 -0.00000000000E+00 -0.00000000000E+00 -0.21468464551E+04  0.21468464551E+04  0.00000000000E+00 0. -1.
         25    2    1    2    0    0  0.13876349088E+03 -0.24823802082E+02 -0.46774384242E+03  0.50426397815E+03  0.12500531983E+03 0.  0.
          2    1    1    2  501    0 -0.37504703452E+02  0.66425386448E+00 -0.16479291422E+04  0.16483559997E+04  0.00000000000E+00 0. -1.
          1    1    1    2  502    0 -0.10125878743E+03  0.24159548218E+02  0.20062774386E+03  0.22602769168E+03  0.00000000000E+00 0. -1.
         22    1    3    3    0    0  0.93004383891E+02 -0.35971070127E+02 -0.13304107017E+03  0.16626382548E+03  0.00000000000E+00 0.  1.
         22    1    3    3    0    0  0.45759106987E+02  0.11147268044E+02 -0.33470277225E+03  0.33800015268E+03  0.00000000000E+00 0.  1.
</event>
<event>
 7    1  0.5194496E-006  0.9600790E+02  0.7818608E-02  0.1469175E+00
          2   -1    0    0  502    0  0.00000000000E+00  0.00000000000E+00  0.13557060243E+04  0.13557060243E+04  0.00000000000E+00 0. -1.
          1   -1    0    0  501    0 -0.00000000000E+00 -0.00000000000E+00 -0.42128328371E+03  0.42128328371E+03  0.00000000000E+00 0. -1.
         25    2    1    2    0    0 -0.84066248416E+02  0.49290858753E+02 -0.88594638115E+02  0.18158068094E+03  0.12500324359E+03 0.  0.
          2    1    1    2  501    0  0.91713241575E+02 -0.28785085387E+02 -0.27802968557E+03  0.29417750744E+03  0.00000000000E+00 0. -1.
          1    1    1    2  502    0 -0.76469931595E+01 -0.20505773366E+02  0.13010470643E+04  0.13012311197E+04  0.00000000000E+00 0. -1.
         22    1    3    3    0    0  0.59662222491E+01  0.51538910396E+02 -0.73953026811E+02  0.90337728924E+02  0.00000000000E+00 0. -1.
         22    1    3    3    0    0 -0.90032470665E+02 -0.22480516429E+01 -0.14641611305E+02  0.91242952011E+02  0.00000000000E+00 0. -1.
</event>
<event>
 7    1  0.1105104E-005  0.9126012E+02  0.7818608E-02  0.1308468E+00
          2   -1    0    0  502    0  0.00000000000E+00  0.00000000000E+00  0.91761693353E+03  0.91761693353E+03  0.00000000000E+00 0. -1.
          1   -1    0    0  501    0 -0.00000000000E+00 -0.00000000000E+00 -0.19464744118E+04  0.19464744118E+04  0.00000000000E+00 0. -1.
         25    2    1    2    0    0 -0.10439721083E+03 -0.25067186807E+02 -0.28207750756E+03  0.32667984965E+03  0.12499944964E+03 0.  0.
          2    1    1    2  501    0  0.42311220072E+02  0.82118340081E+02 -0.16388068725E+04  0.16414084277E+04  0.00000000000E+00 0. -1.
          1    1    1    2  502    0  0.62085990755E+02 -0.57051153274E+02  0.89202690179E+03  0.89600306800E+03  0.00000000000E+00 0. -1.
         22    1    3    3    0    0 -0.42395830194E+01  0.24485436430E+02 -0.15700518389E+03  0.15895954966E+03  0.00000000000E+00 0. -1.
         22    1    3    3    0    0 -0.10015762781E+03 -0.49552623237E+02 -0.12507232367E+03  0.16772029998E+03  0.00000000000E+00 0. -1.
</event>
<event>
 7    1  0.5194496E-006  0.2511980E+03  0.7818608E-02  0.1247514E+00
          2   -1    0    0  502    0  0.00000000000E+00  0.00000000000E+00  0.30738768120E+04  0.30738768120E+04  0.00000000000E+00 0. -1.
          1   -1    0    0  501    0 -0.00000000000E+00 -0.00000000000E+00 -0.60007116473E+03  0.60007116473E+03  0.00000000000E+00 0. -1.
         25    2    1    2    0    0 -0.13234755083E+03  0.18349123418E+03  0.51166615391E+03  0.57324672050E+03  0.12499856911E+03 0.  0.
          2    1    1    2  501    0  0.23488840190E+02  0.49546282537E+02 -0.56140820699E+03  0.56407954635E+03  0.00000000000E+00 0. -1.
          1    1    1    2  502    0  0.10885871064E+03 -0.23303751672E+03  0.25235477004E+04  0.25366217099E+04  0.00000000000E+00 0. -1.
         22    1    3    3    0    0 -0.61905479651E+02  0.16604215636E+03  0.28849816888E+03  0.33857566295E+03  0.00000000000E+00 0.  1.
         22    1    3    3    0    0 -0.70442071177E+02  0.17449077828E+02  0.22316798503E+03  0.23467105755E+03  0.00000000000E+00 0.  1.
</event>
<event>
 7    1  0.5194496E-006  0.3790675E+02  0.7818608E-02  0.1575511E+00
          2   -1    0    0  502    0  0.00000000000E+00  0.00000000000E+00  0.36148512170E+03  0.36148512170E+03  0.00000000000E+00 0. -1.
          1   -1    0    0  501    0 -0.00000000000E+00 -0.00000000000E+00 -0.10828121400E+03  0.10828121400E+03  0.00000000000E+00 0. -1.
         25    2    1    2    0    0 -0.26121843738E+02  0.16848397600E+02  0.37055514791E+02  0.13403577564E+03  0.12500503491E+03 0.  0.
          2    1    1    2  501    0  0.89351191809E+01 -0.38008691766E+02 -0.52653071001E+02  0.65550308087E+02  0.00000000000E+00 0. -1.
          1    1    1    2  502    0  0.17186724558E+02  0.21160294166E+02  0.26880146392E+03  0.27018025197E+03  0.00000000000E+00 0. -1.
         22    1    3    3    0    0 -0.82102978531E+01  0.94737291597E+01 -0.46553674871E+02  0.48212085404E+02  0.00000000000E+00 0. -1.
         22    1    3    3    0    0 -0.17911545885E+02  0.73746684404E+01  0.83609189661E+02  0.85823690240E+02  0.00000000000E+00 0. -1.
</event>
<event>
 7    1  0.5194496E-006  0.9308638E+02  0.7818608E-02  0.1353362E+00
          2   -1    0    0  502    0  0.00000000000E+00  0.00000000000E+00  0.12188548821E+04  0.12188548821E+04  0.00000000000E+00 0. -1.
          1   -1    0    0  501    0 -0.00000000000E+00 -0.00000000000E+00 -0.36509455768E+03  0.36509455768E+03  0.00000000000E+00 0. -1.
         25    2    1    2    0    0 -0.78401138683E+02  0.14316236763E+02  0.14072256747E+02  0.14891308690E+03  0.12500154343E+03 0.  0.
          2    1    1    2  501    0  0.13917347499E+02  0.53951907573E+02 -0.29310682156E+03  0.29835567656E+03  0.00000000000E+00 0. -1.
          1    1    1    2  502    0  0.64483791183E+02 -0.68268144336E+02  0.11327948893E+04  0.11366806763E+04  0.00000000000E+00 0. -1.
         22    1    3    3    0    0 -0.79773849917E+02  0.48719281920E+02  0.43982835273E+02  0.10330501130E+03  0.00000000000E+00 0. -1.
         22    1    3    3    0    0  0.13727112342E+01 -0.34403045157E+02 -0.29910578526E+02  0.45608075601E+02  0.00000000000E+00 0. -1.
</event>
<event>
 7    1  0.5194496E-006  0.3752273E+03  0.7818608E-02  0.1106860E+00
          2   -1    0    0  502    0  0.00000000000E+00  0.00000000000E+00  0.16070383939E+03  0.16070383939E+03  0.00000000000E+00 0. -1.
          1   -1    0    0  501    0 -0.00000000000E+00 -0.00000000000E+00 -0.18285023205E+04  0.18285023205E+04  0.00000000000E+00 0. -1.
         25    2    1    2    0    0  0.87188314401E+02  0.49627559220E+03 -0.67201677882E+03  0.84918977918E+03  0.12500185788E+03 0.  0.
          2    1    1    2  501    0 -0.97325220222E+02 -0.31574712331E+03 -0.83523904085E+03  0.89821639916E+03  0.00000000000E+00 0. -1.
          1    1    1    2  502    0  0.10136905821E+02 -0.18052846889E+03 -0.16054266149E+03  0.24179998159E+03  0.00000000000E+00 0. -1.
         22    1    3    3    0    0 -0.99554378238E+01  0.18221639141E+03 -0.17189643053E+03  0.25069963476E+03  0.00000000000E+00 0.  1.
         22    1    3    3    0    0  0.97143752225E+02  0.31405920079E+03 -0.50012034829E+03  0.59849014443E+03  0.00000000000E+00 0.  1.
</event>
<event>
 7    1  0.5194496E-006  0.9747377E+02  0.7818608E-02  0.1314554E+00
          2   -1    0    0  502    0  0.00000000000E+00  0.00000000000E+00  0.50390837212E+02  0.50390837212E+02  0.00000000000E+00 0. -1.
          1   -1    0    0  501    0 -0.00000000000E+00 -0.00000000000E+00 -0.10130769067E+04  0.10130769067E+04  0.00000000000E+00 0. -1.
         25    2    1    2    0    0  0.18716063249E+02 -0.34620466823E+02 -0.45696098012E+03  0.47538152905E+03  0.12500157224E+03 0.  0.
          2    1    1    2  501    0  0.58334729604E+02  0.94322314800E+02 -0.47213719654E+03  0.48498780614E+03  0.00000000000E+00 0. -1.
          1    1    1    2  502    0 -0.77050792853E+02 -0.59701847977E+02 -0.33587892790E+02  0.10309840868E+03  0.00000000000E+00 0. -1.
         22    1    3    3    0    0  0.41285930290E+02 -0.74381892098E+02 -0.31118103950E+03  0.32260011354E+03  0.00000000000E+00 0. -1.
         22    1    3    3    0    0 -0.22569867042E+02  0.39761425274E+02 -0.14577994061E+03  0.15278141550E+03  0.00000000000E+00 0. -1.
</event>
<event>
 7    1  0.5194496E-006  0.1930431E+03  0.7818608E-02  0.1309082E+00
          2   -1    0    0  502    0  0.00000000000E+00  0.00000000000E+00  0.83905909880E+03  0.83905909880E+03  0.00000000000E+00 0. -1.
          1   -1    0    0  501    0 -0.00000000000E+00 -0.00000000000E+00 -0.91222730110E+03  0.91222730110E+03  0.00000000000E+00 0. -1.
         25    2    1    2    0    0 -0.33178362542E+02  0.19100566446E+03 -0.77378802565E+02  0.24330318665E+03  0.12499997581E+03 0.  0.
          2    1    1    2  501    0 -0.63914559352E+01 -0.19334435730E+03 -0.73890633442E+03  0.76380983383E+03  0.00000000000E+00 0. -1.
          1    1    1    2  502    0  0.39569818477E+02  0.23386928398E+01  0.74311693468E+03  0.74417337941E+03  0.00000000000E+00 0. -1.
         22    1    3    3    0    0 -0.12460760009E+02 -0.12579470789E+02 -0.27447420322E+02  0.32663044984E+02  0.00000000000E+00 0. -1.
         22    1    3    3    0    0 -0.20717602533E+02  0.20358513525E+03 -0.49931382244E+02  0.21064014167E+03  0.00000000000E+00 0. -1.
</event>
<event>
 7    1  0.5194496E-006  0.5712472E+02  0.7818608E-02  0.1533229E+00
          2   -1    0    0  502    0  0.00000000000E+00  0.00000000000E+00  0.23588964406E+03  0.23588964406E+03  0.00000000000E+00 0. -1.
          1   -1    0    0  501    0 -0.00000000000E+00 -0.00000000000E+00 -0.18187580705E+03  0.18187580705E+03  0.00000000000E+00 0. -1.
         25    2    1    2    0    0  0.31180225246E+02 -0.35527504731E+02 -0.55753883849E+02  0.14480514097E+03  0.12500249297E+03 0.  0.
          2    1    1    2  501    0 -0.20533444452E+02  0.56699202178E+02 -0.69567833843E+02  0.92065766571E+02  0.00000000000E+00 0. -1.
          1    1    1    2  502    0 -0.10646780794E+02 -0.21171697447E+02  0.17933555470E+03  0.18089454357E+03  0.00000000000E+00 0. -1.
         22    1    3    3    0    0  0.39835876086E+02 -0.38168082960E+02  0.27094558983E+02  0.61463930128E+02  0.00000000000E+00 0.  1.
         22    1    3    3    0    0 -0.86556508398E+01  0.26405782288E+01 -0.82848442832E+02  0.83341210842E+02  0.00000000000E+00 0.  1.
</event>
<event>
 7    1  0.5194496E-006  0.9428865E+02  0.7818608E-02  0.1296684E+00
          2   -1    0    0  502    0  0.00000000000E+00  0.00000000000E+00  0.39144634977E+03  0.39144634977E+03  0.00000000000E+00 0. -1.
          1   -1    0    0  501    0 -0.00000000000E+00 -0.00000000000E+00 -0.67139754988E+03  0.67139754988E+03  0.00000000000E+00 0. -1.
         25    2    1    2    0    0  0.59818344091E+02 -0.27566620975E+02  0.11400653063E+03  0.18155507198E+03  0.12500640884E+03 0.  0.
          2    1    1    2  501    0 -0.34590862373E+02 -0.84097663569E+02 -0.62067899200E+03  0.62730483490E+03  0.00000000000E+00 0. -1.
          1    1    1    2  502    0 -0.25227481717E+02  0.11166428454E+03  0.22672126126E+03  0.25398399277E+03  0.00000000000E+00 0. -1.
         22    1    3    3    0    0  0.23037902644E+02  0.48139986957E+02  0.65210279082E+02  0.84264961878E+02  0.00000000000E+00 0. -1.
         22    1    3    3    0    0  0.36780441446E+02 -0.75706607932E+02  0.48796251548E+02  0.97290110097E+02  0.00000000000E+00 0. -1.
</event>
<event>
 7    1  0.5194496E-006  0.4118504E+02  0.7818608E-02  0.1553485E+00
          2   -1    0    0  502    0  0.00000000000E+00  0.00000000000E+00  0.56625229784E+03  0.56625229784E+03  0.00000000000E+00 0. -1.
          1   -1    0    0  501    0 -0.00000000000E+00 -0.00000000000E+00 -0.34014488654E+03  0.34014488654E+03  0.00000000000E+00 0. -1.
         25    2    1    2    0    0 -0.24111077284E+02 -0.35051890674E+02 -0.95789864932E+02  0.16312841903E+03  0.12500081513E+03 0.  0.
          2    1    1    2  501    0  0.28198619799E+02 -0.59834478600E+01 -0.20889619558E+03  0.21087575569E+03  0.00000000000E+00 0. -1.
          1    1    1    2  502    0 -0.40875425150E+01  0.41035338534E+02  0.53079347182E+03  0.53239300966E+03  0.00000000000E+00 0. -1.
         22    1    3    3    0    0  0.23365225488E+02 -0.68297197002E+02 -0.66686646541E+02  0.98272833007E+02  0.00000000000E+00 0. -1.
         22    1    3    3    0    0 -0.47476302773E+02  0.33245306327E+02 -0.29103218390E+02  0.64855586023E+02  0.00000000000E+00 0. -1.
</event>
<event>
 7    1  0.5194496E-006  0.8938554E+02  0.7818608E-02  0.1451724E+00
          2   -1    0    0  502    0  0.00000000000E+00  0.00000000000E+00  0.65585676335E+03  0.65585676335E+03  0.00000000000E+00 0. -1.
          1   -1    0    0  501    0 -0.00000000000E+00 -0.00000000000E+00 -0.33367841264E+03  0.33367841264E+03  0.00000000000E+00 0. -1.
         25    2    1    2    0    0  0.75121033987E+02  0.81415626882E+02  0.21783588469E+03  0.27449759239E+03  0.12499912608E+03 0.  0.
          2    1    1    2  501    0 -0.69529717215E+02 -0.55326572290E+02 -0.29843252942E+03  0.31137980955E+03  0.00000000000E+00 0. -1.
          1    1    1    2  502    0 -0.55913167726E+01 -0.26089054592E+02  0.40277499545E+03  0.40365777405E+03  0.00000000000E+00 0. -1.
         22    1    3    3    0    0  0.76305003366E+02  0.57554402869E+02  0.22898674758E+03  0.24813281403E+03  0.00000000000E+00 0.  1.
         22    1    3    3    0    0 -0.11839693783E+01  0.23861224013E+02 -0.11150862893E+02  0.26364778363E+02  0.00000000000E+00 0.  1.
</event>
<event>
 7    1  0.5194496E-006  0.1117727E+03  0.7818608E-02  0.1320784E+00
          2   -1    0    0  502    0  0.00000000000E+00  0.00000000000E+00  0.38554734645E+03  0.38554734645E+03  0.00000000000E+00 0. -1.
          1   -1    0    0  501    0 -0.00000000000E+00 -0.00000000000E+00 -0.29959683974E+03  0.29959683974E+03  0.00000000000E+00 0. -1.
         25    2    1    2    0    0  0.65783247529E+02  0.29882316935E+02  0.11401349306E+03  0.18396902978E+03  0.12500055519E+03 0.  0.
          2    1    1    2  501    0  0.51549215913E+02  0.33748049453E+02 -0.24161182198E+03  0.24934418987E+03  0.00000000000E+00 0. -1.
          1    1    1    2  502    0 -0.11733246344E+03 -0.63630366387E+02  0.21354883563E+03  0.25183096653E+03  0.00000000000E+00 0. -1.
         22    1    3    3    0    0  0.83470384419E+02  0.33508937770E+01  0.12491188290E+03  0.15027146121E+03  0.00000000000E+00 0. -1.
         22    1    3    3    0    0 -0.17687136890E+02  0.26531423158E+02 -0.10898389847E+02  0.33697568568E+02  0.00000000000E+00 0. -1.
</event>
<event>
 7    1  0.5194496E-006  0.1183286E+03  0.7818608E-02  0.1368305E+00
          2   -1    0    0  502    0  0.00000000000E+00  0.00000000000E+00  0.17816459106E+04  0.17816459106E+04  0.00000000000E+00 0. -1.
          1   -1    0    0  501    0 -0.00000000000E+00 -0.00000000000E+00 -0.58010889612E+03  0.58010889612E+03  0.00000000000E+00 0. -1.
         25    2    1    2    0    0 -0.10902431178E+03  0.10913941737E+03  0.80484127080E+02  0.21424528271E+03  0.12500253385E+03 0.  0.
          2    1    1    2  501    0  0.76600849714E+02 -0.88074121876E+02 -0.50635893295E+03  0.51963844170E+03  0.00000000000E+00 0. -1.
          1    1    1    2  502    0  0.32423462067E+02 -0.21065295494E+02  0.16274118204E+04  0.16278710823E+04  0.00000000000E+00 0. -1.
         22    1    3    3    0    0 -0.35191915457E+01  0.69695761606E+02 -0.90357077544E+01  0.70367093940E+02  0.00000000000E+00 0. -1.
         22    1    3    3    0    0 -0.10550512023E+03  0.39443655765E+02  0.89519834834E+02  0.14387818877E+03  0.00000000000E+00 0. -1.
</event>
<event>
 7    1  0.5194496E-006  0.7417134E+02  0.7818608E-02  0.1439330E+00
          2   -1    0    0  502    0  0.00000000000E+00  0.00000000000E+00  0.16045883212E+03  0.16045883212E+03  0.00000000000E+00 0. -1.
          1   -1    0    0  501    0 -0.00000000000E+00 -0.00000000000E+00 -0.80285834341E+03  0.80285834341E+03  0.00000000000E+00 0. -1.
         25    2    1    2    0    0 -0.25018298385E+02  0.36484489487E+02 -0.31581128694E+03  0.34251759432E+03  0.12499800092E+03 0.  0.
          2    1    1    2  501    0 -0.33697287259E+02  0.10343600460E+02 -0.46339512242E+03  0.46473383427E+03  0.00000000000E+00 0. -1.
          1    1    1    2  502    0  0.58715585644E+02 -0.46828089947E+02  0.13680689807E+03  0.15606574693E+03  0.00000000000E+00 0. -1.
         22    1    3    3    0    0 -0.35992840635E+02  0.62257359068E+02 -0.91081529068E+02  0.11604873232E+03  0.00000000000E+00 0.  1.
         22    1    3    3    0    0  0.10974542250E+02 -0.25772869581E+02 -0.22472975787E+03  0.22646886201E+03  0.00000000000E+00 0.  1.
</event>
<event>
 7    1  0.5194496E-006  0.9398708E+02  0.7818608E-02  0.1453933E+00
          2   -1    0    0  502    0  0.00000000000E+00  0.00000000000E+00  0.53359656295E+03  0.53359656295E+03  0.00000000000E+00 0. -1.
          1   -1    0    0  501    0 -0.00000000000E+00 -0.00000000000E+00 -0.14646331654E+03  0.14646331654E+03  0.00000000000E+00 0. -1.
         25    2    1    2    0    0  0.51854015808E+02 -0.51795393656E+02 -0.20809383923E+02  0.14638868281E+03  0.12500005694E+03 0.  0.
          2    1    1    2  501    0  0.24414212228E+02 -0.52257872901E+01 -0.55335462801E+02  0.60707298202E+02  0.00000000000E+00 0. -1.
          1    1    1    2  502    0 -0.76268228037E+02  0.57021180946E+02  0.46327809313E+03  0.47296389847E+03  0.00000000000E+00 0. -1.
         22    1    3    3    0    0  0.68415566498E+02 -0.84159862491E+02 -0.13388259196E+02  0.10928319943E+03  0.00000000000E+00 0. -1.
         22    1    3    3    0    0 -0.16561550690E+02  0.32364468835E+02 -0.74211247273E+01  0.37105483375E+02  0.00000000000E+00 0. -1.
</event>
<event>
 7    1  0.5194496E-006  0.1618022E+03  0.7818608E-02  0.1286257E+00
          2   -1    0    0  502    0  0.00000000000E+00  0.00000000000E+00  0.61130881917E+03  0.61130881917E+03  0.00000000000E+00 0. -1.
          1   -1    0    0  501    0 -0.00000000000E+00 -0.00000000000E+00 -0.19466792751E+03  0.19466792751E+03  0.00000000000E+00 0. -1.
         25    2    1    2    0    0 -0.49390931040E+02  0.13172580794E+03  0.38304840864E+02  0.19204950953E+03  0.12499840292E+03 0.  0.
          2    1    1    2  501    0  0.10717095456E+03 -0.14030413331E+03 -0.48515573414E+02  0.18309730798E+03  0.00000000000E+00 0. -1.
          1    1    1    2  502    0 -0.57780023516E+02  0.85783253757E+01  0.42685162421E+03  0.43082992917E+03  0.00000000000E+00 0. -1.
         22    1    3    3    0    0  0.19537874326E+02  0.51476041826E+02 -0.33262733899E+02  0.64326673175E+02  0.00000000000E+00 0. -1.
         22    1    3    3    0    0 -0.68928805366E+02  0.80249766112E+02  0.71567574763E+02  0.12772283636E+03  0.00000000000E+00 0. -1.
</event>
<event>
 7    1  0.5194496E-006  0.8905761E+02  0.7818608E-02  0.1483439E+00
          2   -1    0    0  502    0  0.00000000000E+00  0.00000000000E+00  0.81187411694E+03  0.81187411694E+03  0.00000000000E+00 0. -1.
          1   -1    0    0  501    0 -0.00000000000E+00 -0.00000000000E+00 -0.39190292118E+03  0.39190292118E+03  0.00000000000E+00 0. -1.
         25    2    1    2    0    0 -0.91451511823E+02 -0.78823852440E+01 -0.23741973717E+03  0.28358084832E+03  0.12499781967E+03 0.  0.
          2    1    1    2  501    0  0.33754212469E+01  0.21051851530E+02 -0.12800448486E+03  0.12976795469E+03  0.00000000000E+00 0. -1.
          1    1    1    2  502    0  0.88076090576E+02 -0.13169466286E+02  0.78539541779E+03  0.79042823511E+03  0.00000000000E+00 0. -1.
         22    1    3    3    0    0 -0.52499973680E+02 -0.55221558766E+02 -0.63544215107E+02  0.99214590976E+02  0.00000000000E+00 0.  1.
         22    1    3    3    0    0 -0.38951538143E+02  0.47339173522E+02 -0.17387552207E+03  0.18436625734E+03  0.00000000000E+00 0.  1.
</event>
<event>
 7    1  0.5194496E-006  0.1098965E+03  0.7818608E-02  0.1360429E+00
          2   -1    0    0  502    0  0.00000000000E+00  0.00000000000E+00  0.34458784009E+03  0.34458784009E+03  0.00000000000E+00 0. -1.
          1   -1    0    0  501    0 -0.00000000000E+00 -0.00000000000E+00 -0.22713888609E+03  0.22713888609E+03  0.00000000000E+00 0. -1.
         25    2    1    2    0    0 -0.48344691490E+02 -0.72802764654E+02 -0.21047852655E+02  0.15395886259E+03  0.12499146984E+03 0.  0.
          2    1    1    2  501    0 -0.43972761273E+02  0.65754502735E+01 -0.12400415023E+03  0.13173408653E+03  0.00000000000E+00 0. -1.
          1    1    1    2  502    0  0.92317452764E+02  0.66227314381E+02  0.26250095688E+03  0.28603377706E+03  0.00000000000E+00 0. -1.
         22    1    3    3    0    0  0.31944989145E+02 -0.62589041998E+02 -0.19824543917E+02  0.73012896472E+02  0.00000000000E+00 0.  1.
         22    1    3    3    0    0 -0.80289680635E+02 -0.10213722657E+02 -0.12233087383E+01  0.80945966121E+02  0.00000000000E+00 0.  1.
</event>
<event>
 7    1  0.5194496E-006  0.5764711E+02  0.7818608E-02  0.1435117E+00
          2   -1    0    0  502    0  0.00000000000E+00  0.00000000000E+00  0.16817272752E+03  0.16817272752E+03  0.00000000000E+00 0. -1.
          1   -1    0    0  501    0 -0.00000000000E+00 -0.00000000000E+00 -0.15176606916E+03  0.15176606916E+03  0.00000000000E+00 0. -1.
         25    2    1    2    0    0  0.32799910960E+02  0.41266559289E+02 -0.27025999189E+02  0.13832512238E+03  0.12499868710E+03 0.  0.
          2    1    1    2  501    0  0.90507367924E+01 -0.62234750382E+02 -0.47853562117E+02  0.79025586989E+02  0.00000000000E+00 0. -1.
          1    1    1    2  502    0 -0.41850647752E+02  0.20968191093E+02  0.91286219670E+02  0.10258808730E+03  0.00000000000E+00 0. -1.
         22    1    3    3    0    0  0.16461097627E+01  0.69428338669E+02 -0.54380879843E+02  0.88205918056E+02  0.00000000000E+00 0.  1.
         22    1    3    3    0    0  0.31153801197E+02 -0.28161779379E+02  0.27354880655E+02  0.50119204328E+02  0.00000000000E+00 0.  1.
</event>
<event>
 7    1  0.5194496E-006  0.5992588E+02  0.7818608E-02  0.1422529E+00
          2   -1    0    0  502    0  0.00000000000E+00  0.00000000000E+00  0.14056327721E+04  0.14056327721E+04  0.00000000000E+00 0. -1.
          1   -1    0    0  501    0 -0.00000000000E+00 -0.00000000000E+00 -0.90066953520E+03  0.90066953520E+03  0.00000000000E+00 0. -1.
         25    2    1    2    0    0 -0.92932480831E+02  0.12147641653E+02  0.61605403903E+03  0.63555525504E+03  0.12499556798E+03 0.  0.
          2    1    1    2  501    0  0.38851284359E+02 -0.30747627461E+02 -0.88917979278E+03  0.89055911807E+03  0.00000000000E+00 0. -1.
          1    1    1    2  502    0  0.54081196472E+02  0.18599985808E+02  0.77808899062E+03  0.78018793416E+03  0.00000000000E+00 0. -1.
         22    1    3    3    0    0 -0.13530700300E+02  0.47507767210E+02  0.39418339691E+03  0.39726643226E+03  0.00000000000E+00 0.  1.
         22    1    3    3    0    0 -0.79401780531E+02 -0.35360125557E+02  0.22187064212E+03  0.23828882279E+03  0.00000000000E+00 0.  1.
</event>
<event>
 7    1  0.5194496E-006  0.1875401E+03  0.7818608E-02  0.1184573E+00
          2   -1    0    0  502    0  0.00000000000E+00  0.00000000000E+00  0.34127977572E+03  0.34127977572E+03  0.00000000000E+00 0. -1.
          1   -1    0    0  501    0 -0.00000000000E+00 -0.00000000000E+00 -0.18829018562E+04  0.18829018562E+04  0.00000000000E+00 0. -1.
         25    2    1    2    0    0 -0.86004683010E+01 -0.80086986759E+02 -0.23061370291E+02  0.15048508706E+03  0.12500416443E+03 0.  0.
          2    1    1    2  501    0  0.13659903347E+03  0.14363134619E+03 -0.17718353725E+04  0.17828880635E+04  0.00000000000E+00 0. -1.
          1    1    1    2  502    0 -0.12799856517E+03 -0.63544359434E+02  0.25327466230E+03  0.29080848142E+03  0.00000000000E+00 0. -1.
         22    1    3    3    0    0 -0.37313334523E+02 -0.82927492568E+02  0.25105667617E+02  0.94337418363E+02  0.00000000000E+00 0.  1.
         22    1    3    3    0    0  0.28712866222E+02  0.28405058087E+01 -0.48167037908E+02  0.56147668702E+02  0.00000000000E+00 0.  1.
</event>
<event>
 7    1  0.5194496E-006  0.1130437E+03  0.7818608E-02  0.1318907E+00
          2   -1    0    0  502    0  0.00000000000E+00  0.00000000000E+00  0.10354406636E+04  0.10354406636E+04  0.00000000000E+00 0. -1.
          1   -1    0    0  501    0 -0.00000000000E+00 -0.00000000000E+00 -0.66589135563E+03  0.66589135563E+03  0.00000000000E+00 0. -1.
         25    2    1    2    0    0  0.14305513042E+03 -0.46450407316E+02  0.13645572365E+03  0.23846970139E+03  0.12500089314E+03 0.  0.
          2    1    1    2  501    0 -0.11207019081E+03 -0.71955778782E+01 -0.60860886472E+03  0.61888306991E+03  0.00000000000E+00 0. -1.
          1    1    1    2  502    0 -0.30984939607E+02  0.53645985194E+02  0.84170244899E+03  0.84397924788E+03  0.00000000000E+00 0. -1.
         22    1    3    3    0    0  0.14402394522E+03 -0.56549945716E+02  0.67566371580E+02  0.16883722257E+03  0.00000000000E+00 0. -1.
         22    1    3    3    0    0 -0.96881479760E+00  0.10099538401E+02  0.68889352073E+02  0.69632478823E+02  0.00000000000E+00 0. -1.
</event>
<event>
 7    1  0.5194496E-006  0.5634875E+02  0.7818608E-02  0.1506139E+00
          2   -1    0    0  502    0  0.00000000000E+00  0.00000000000E+00  0.74857058931E+03  0.74857058931E+03  0.00000000000E+00 0. -1.
          1   -1    0    0  501    0 -0.00000000000E+00 -0.00000000000E+00 -0.75776663078E+02  0.75776663078E+02  0.00000000000E+00 0. -1.
         25    2    1    2    0    0 -0.42936674020E+02 -0.59708472544E+02  0.35523377471E+03  0.38369831072E+03  0.12499879712E+03 0.  0.
          2    1    1    2  501    0  0.46441043111E+02  0.31124706558E+02 -0.48164331996E+02  0.73792416414E+02  0.00000000000E+00 0. -1.
          1    1    1    2  502    0 -0.35043690915E+01  0.28583765986E+02  0.36572448352E+03  0.36685652526E+03  0.00000000000E+00 0. -1.
         22    1    3    3    0    0 -0.53481545874E+00 -0.86041081145E+02  0.28378229501E+03  0.29653961730E+03  0.00000000000E+00 0.  1.
         22    1    3    3    0    0 -0.42401858561E+02  0.26332608600E+02  0.71451479706E+02  0.87158693412E+02  0.00000000000E+00 0.  1.
</event>
<event>
 7    1  0.5194496E-006  0.8697038E+02  0.7818608E-02  0.1359915E+00
          2   -1    0    0  502    0  0.00000000000E+00  0.00000000000E+00  0.31215064401E+04  0.31215064401E+04  0.00000000000E+00 0. -1.
          1   -1    0    0  501    0 -0.00000000000E+00 -0.00000000000E+00 -0.14502815185E+03  0.14502815185E+03  0.00000000000E+00 0. -1.
         25    2    1    2    0    0  0.98402173271E+02 -0.67698303624E+02  0.13199807448E+04  0.13312549823E+04  0.12499845238E+03 0.  0.
          2    1    1    2  501    0 -0.85828223330E+02  0.12691967275E+02 -0.12540025130E+03  0.15248866508E+03  0.00000000000E+00 0. -1.
          1    1    1    2  502    0 -0.12573949941E+02  0.55006336349E+02  0.17818977948E+04  0.17827909446E+04  0.00000000000E+00 0. -1.
         22    1    3    3    0    0  0.83937021346E+01  0.35146673551E+02  0.29330998967E+03  0.29552748254E+03  0.00000000000E+00 0.  1.
         22    1    3    3    0    0  0.90008471136E+02 -0.10284497717E+03  0.10266707552E+04  0.10357274997E+04  0.00000000000E+00 0.  1.
</event>
<event>
 7    1  0.5194496E-006  0.9654722E+02  0.7818608E-02  0.1341625E+00
          2   -1    0    0  502    0  0.00000000000E+00  0.00000000000E+00  0.11786533470E+04  0.11786533470E+04  0.00000000000E+00 0. -1.
          1   -1    0    0  501    0 -0.00000000000E+00 -0.00000000000E+00 -0.76603518324E+02  0.76603518324E+02  0.00000000000E+00 0. -1.
         25    2    1    2    0    0 -0.74586971452E+02  0.72603302358E+02  0.11239962064E+03  0.19771924498E+03  0.12499907716E+03 0.  0.
          2    1    1    2  501    0 -0.20978985674E+02 -0.55573614020E+02 -0.36423217426E+01  0.59513115553E+02  0.00000000000E+00 0. -1.
          1    1    1    2  502    0  0.95565957126E+02 -0.17029688338E+02  0.99329252980E+03  0.99802450481E+03  0.00000000000E+00 0. -1.
         22    1    3    3    0    0 -0.95446133666E+02  0.10296292330E+02  0.77125958072E+02  0.12314378375E+03  0.00000000000E+00 0. -1.
         22    1    3    3    0    0  0.20859162214E+02  0.62307010028E+02  0.35273662567E+02  0.74575461230E+02  0.00000000000E+00 0. -1.
</event>
<event>
 7    1  0.5194496E-006  0.1860808E+03  0.7818608E-02  0.1203595E+00
          2   -1    0    0  502    0  0.00000000000E+00  0.00000000000E+00  0.32362209083E+04  0.32362209083E+04  0.00000000000E+00 0. -1.
          1   -1    0    0  501    0 -0.00000000000E+00 -0.00000000000E+00 -0.33766315269E+03  0.33766315269E+03  0.00000000000E+00 0. -1.
         25    2    1    2    0    0  0.56503787084E+02 -0.12014683040E+03  0.71747660174E+03  0.74028013866E+03  0.12495627570E+03 0.  0.
          2    1    1    2  501    0 -0.72048217685E+02 -0.92055807066E+02 -0.31110968398E+03  0.33234688618E+03  0.00000000000E+00 0. -1.
          1    1    1    2  502    0  0.15544430602E+02  0.21220263746E+03  0.24921908378E+04  0.25012570361E+04  0.00000000000E+00 0. -1.
         22    1    3    3    0    0  0.46333164709E+02 -0.98979399401E+01  0.42356272934E+03  0.42620431374E+03  0.00000000000E+00 0. -1.
         22    1    3    3    0    0  0.10170622374E+02 -0.11024889046E+03  0.29391387240E+03  0.31407582492E+03  0.00000000000E+00 0. -1.
</event>
<event>
 7    1  0.5194496E-006  0.9433478E+02  0.7818608E-02  0.1435584E+00
          2   -1    0    0  502    0  0.00000000000E+00  0.00000000000E+00  0.13259333953E+04  0.13259333953E+04  0.00000000000E+00 0. -1.
          1   -1    0    0  501    0 -0.00000000000E+00 -0.00000000000E+00 -0.29504827565E+03  0.29504827565E+03  0.00000000000E+00 0. -1.
         25    2    1    2    0    0  0.58882145567E+02 -0.94238475479E+02  0.13747181706E+02  0.16781547313E+03  0.12500020275E+03 0.  0.
          2    1    1    2  501    0 -0.64810298202E+02  0.66357124905E+02 -0.20797491747E+03  0.22772177998E+03  0.00000000000E+00 0. -1.
          1    1    1    2  502    0  0.59281526356E+01  0.27881350574E+02  0.12251128554E+04  0.12254444178E+04  0.00000000000E+00 0. -1.
         22    1    3    3    0    0 -0.22785766316E+02  0.14118868363E+02 -0.12559373296E+02  0.29601882508E+02  0.00000000000E+00 0. -1.
         22    1    3    3    0    0  0.81667911883E+02 -0.10835734384E+03  0.26306555002E+02  0.13821359062E+03  0.00000000000E+00 0. -1.
</event>
<event>
 7    1  0.5194496E-006  0.1828223E+03  0.7818608E-02  0.1341911E+00
          2   -1    0    0  502    0  0.00000000000E+00  0.00000000000E+00  0.97875663467E+03  0.97875663467E+03  0.00000000000E+00 0. -1.
          1   -1    0    0  501    0 -0.00000000000E+00 -0.00000000000E+00 -0.94976386531E+02  0.94976386531E+02  0.00000000000E+00 0. -1.
         25    2    1    2    0    0 -0.11238974100E+03 -0.11952802938E+03  0.19979521509E+03  0.28716174676E+03  0.12500134855E+03 0.  0.
          2    1    1    2  501    0 -0.31009612675E+00 -0.31290476281E+02 -0.32882473547E+02  0.45392148352E+02  0.00000000000E+00 0. -1.
          1    1    1    2  502    0  0.11269983713E+03  0.15081850566E+03  0.71686750660E+03  0.74117912609E+03  0.00000000000E+00 0. -1.
         22    1    3    3    0    0 -0.11228114626E+03 -0.11118056027E+03  0.99956311585E+02  0.18697442877E+03  0.00000000000E+00 0. -1.
         22    1    3    3    0    0 -0.10859474556E+00 -0.83474691090E+01  0.99838903507E+02  0.10018731799E+03  0.00000000000E+00 0. -1.
</event>
<event>
 7    1  0.5194496E-006  0.4399768E+02  0.7818608E-02  0.1513291E+00
          2   -1    0    0  502    0  0.00000000000E+00  0.00000000000E+00  0.29574196878E+03  0.29574196878E+03  0.00000000000E+00 0. -1.
          1   -1    0    0  501    0 -0.00000000000E+00 -0.00000000000E+00 -0.26569346429E+03  0.26569346429E+03  0.00000000000E+00 0. -1.
         25    2    1    2    0    0 -0.13312302676E+02 -0.37295306219E+02 -0.91285553733E+02  0.15977153543E+03  0.12500293574E+03 0.  0.
          2    1    1    2  501    0  0.35114476047E+02 -0.12313519535E+01 -0.13604328745E+03  0.14050736179E+03  0.00000000000E+00 0. -1.
          1    1    1    2  502    0 -0.21802173370E+02  0.38526658172E+02  0.25737734567E+03  0.26115653585E+03  0.00000000000E+00 0. -1.
         22    1    3    3    0    0 -0.70107570881E+00  0.33247770489E+02 -0.80762929621E+02  0.87341608358E+02  0.00000000000E+00 0.  1.
         22    1    3    3    0    0 -0.12611226968E+02 -0.70543076708E+02 -0.10522624113E+02  0.72429927070E+02  0.00000000000E+00 0.  1.
</event>
<event>
 7    1  0.5194496E-006  0.1379686E+03  0.7818608E-02  0.1282494E+00
          2   -1    0    0  502    0  0.00000000000E+00  0.00000000000E+00  0.10682449626E+04  0.10682449626E+04  0.00000000000E+00 0. -1.
          1   -1    0    0  501    0 -0.00000000000E+00 -0.00000000000E+00 -0.20204349581E+03  0.20204349581E+03  0.00000000000E+00 0. -1.
         25    2    1    2    0    0  0.19155024943E+03 -0.63967931346E+02  0.17167539588E+03  0.29305417066E+03  0.12499964436E+03 0.  0.
          2    1    1    2  501    0 -0.70102756242E+02  0.11147961564E+02 -0.12679065620E+03  0.14530844428E+03  0.00000000000E+00 0. -1.
          1    1    1    2  502    0 -0.12144749319E+03  0.52819969782E+02  0.82131672715E+03  0.83192584351E+03  0.00000000000E+00 0. -1.
         22    1    3    3    0    0  0.11453004979E+03 -0.41979792889E+02  0.22935419413E+02  0.12411876884E+03  0.00000000000E+00 0. -1.
         22    1    3    3    0    0  0.77020199645E+02 -0.21988138457E+02  0.14873997647E+03  0.16893540182E+03  0.00000000000E+00 0. -1.
</event>
<event>
 7    1  0.5194496E-006  0.1435617E+03  0.7818608E-02  0.1368356E+00
          2   -1    0    0  502    0  0.00000000000E+00  0.00000000000E+00  0.62430825182E+02  0.62430825182E+02  0.00000000000E+00 0. -1.
          1   -1    0    0  501    0 -0.00000000000E+00 -0.00000000000E+00 -0.14912700195E+04  0.14912700195E+04  0.00000000000E+00 0. -1.
         25    2    1    2    0    0 -0.55834207712E+02  0.10383318885E+03 -0.33694745097E+03  0.37822710079E+03  0.12499346063E+03 0.  0.
          2    1    1    2  501    0  0.70999716530E+02 -0.13184798794E+03 -0.11218161232E+04  0.11317668779E+04  0.00000000000E+00 0. -1.
          1    1    1    2  502    0 -0.15165508819E+02  0.28014799086E+02  0.29924379841E+02  0.43706865987E+02  0.00000000000E+00 0. -1.
         22    1    3    3    0    0 -0.42303449524E+02 -0.19581448719E+02 -0.74278224371E+02  0.87694182197E+02  0.00000000000E+00 0. -1.
         22    1    3    3    0    0 -0.13530758188E+02  0.12341463757E+03 -0.26266922660E+03  0.29053291859E+03  0.00000000000E+00 0. -1.
</event>
<event>
 7    1  0.5194496E-006  0.7451779E+02  0.7818608E-02  0.1348594E+00
          2   -1    0    0  502    0  0.00000000000E+00  0.00000000000E+00  0.33567682774E+03  0.33567682774E+03  0.00000000000E+00 0. -1.
          1   -1    0    0  501    0 -0.00000000000E+00 -0.00000000000E+00 -0.40633674837E+03  0.40633674837E+03  0.00000000000E+00 0. -1.
         25    2    1    2    0    0  0.82981438661E+02  0.21863074452E+00 -0.20745912020E+03  0.25602875986E+03  0.12500188943E+03 0.  0.
          2    1    1    2  501    0 -0.39392693465E+02  0.60849212179E+02 -0.16222937693E+03  0.17768731429E+03  0.00000000000E+00 0. -1.
          1    1    1    2  502    0 -0.43588745196E+02 -0.61067842924E+02  0.29902857650E+03  0.30829750195E+03  0.00000000000E+00 0. -1.
         22    1    3    3    0    0  0.94630424269E+02  0.29182372784E+02 -0.87738731372E+02  0.13230500014E+03  0.00000000000E+00 0. -1.
         22    1    3    3    0    0 -0.11648985608E+02 -0.28963742040E+02 -0.11972038883E+03  0.12372375973E+03  0.00000000000E+00 0. -1.
</event>
<event>
 7    1  0.5194496E-006  0.1694972E+03  0.7818608E-02  0.1290184E+00
          2   -1    0    0  502    0  0.00000000000E+00  0.00000000000E+00  0.19559168540E+03  0.19559168540E+03  0.00000000000E+00 0. -1.
          1   -1    0    0  501    0 -0.00000000000E+00 -0.00000000000E+00 -0.11852419541E+04  0.11852419541E+04  0.00000000000E+00 0. -1.
         25    2    1    2    0    0 -0.26632933049E+02  0.12910892118E+03 -0.14354488646E+03  0.23153155158E+03  0.12499319301E+03 0.  0.
          2    1    1    2  501    0 -0.35059709417E+02  0.40731312339E+02 -0.94281961652E+03  0.94435006874E+03  0.00000000000E+00 0. -1.
          1    1    1    2  502    0  0.61692642467E+02 -0.16984023352E+03  0.96714234277E+02  0.20495201918E+03  0.00000000000E+00 0. -1.
         22    1    3    3    0    0 -0.91938776478E+01  0.11390935231E+03 -0.33510389650E+02  0.11909162079E+03  0.00000000000E+00 0.  1.
         22    1    3    3    0    0 -0.17439055401E+02  0.15199568871E+02 -0.11003449681E+03  0.11243993079E+03  0.00000000000E+00 0.  1.
</event>
<event>
 7    1  0.5194496E-006  0.1385426E+03  0.7818608E-02  0.1318069E+00
          2   -1    0    0  502    0  0.00000000000E+00  0.00000000000E+00  0.42977658953E+03  0.42977658953E+03  0.00000000000E+00 0. -1.
          1   -1    0    0  501    0 -0.00000000000E+00 -0.00000000000E+00 -0.33372255573E+03  0.33372255573E+03  0.00000000000E+00 0. -1.
         25    2    1    2    0    0  0.72873949740E+02 -0.87697466084E+02 -0.49791698000E+02  0.17636902365E+03  0.12500144482E+03 0.  0.
          2    1    1    2  501    0 -0.12370718400E+03  0.84556875245E+02 -0.19307737302E+03  0.24440172769E+03  0.00000000000E+00 0. -1.
          1    1    1    2  502    0  0.50833234256E+02  0.31405908396E+01  0.33892310482E+03  0.34272839392E+03  0.00000000000E+00 0. -1.
         22    1    3    3    0    0  0.46160650838E+01  0.69969391878E+01  0.32489337592E+02  0.33553275131E+02  0.00000000000E+00 0.  1.
         22    1    3    3    0    0  0.68257884657E+02 -0.94694405272E+02 -0.82281035592E+02  0.14281574852E+03  0.00000000000E+00 0.  1.
</event>
<event>
 7    1  0.5194496E-006  0.9618282E+02  0.7818608E-02  0.1341356E+00
          2   -1    0    0  502    0  0.00000000000E+00  0.00000000000E+00  0.18077504384E+04  0.18077504384E+04  0.00000000000E+00 0. -1.
          1   -1    0    0  501    0 -0.00000000000E+00 -0.00000000000E+00 -0.58299907065E+02  0.58299907065E+02  0.00000000000E+00 0. -1.
         25    2    1    2    0    0 -0.14356000435E+03  0.44990339849E+01  0.26314876967E+03  0.32481076189E+03  0.12500015962E+03 0.  0.
          2    1    1    2  501    0  0.52525929447E+02 -0.28511798794E+02  0.84124469041E+01  0.60354496085E+02  0.00000000000E+00 0. -1.
          1    1    1    2  502    0  0.91034074905E+02  0.24012764809E+02  0.14778893148E+04  0.14808850875E+04  0.00000000000E+00 0. -1.
         22    1    3    3    0    0 -0.14840403816E+03 -0.28921407485E+02  0.18005487430E+03  0.23511691584E+03  0.00000000000E+00 0. -1.
         22    1    3    3    0    0  0.48440338114E+01  0.33420441470E+02  0.83093895372E+02  0.89693846052E+02  0.00000000000E+00 0. -1.
</event>
<event>
 7    1  0.5904179E-006  0.1514141E+03  0.7818608E-02  0.1243992E+00
          2   -1    0    0  502    0  0.00000000000E+00  0.00000000000E+00  0.27211184293E+04  0.27211184293E+04  0.00000000000E+00 0. -1.
          1   -1    0    0  501    0 -0.00000000000E+00 -0.00000000000E+00 -0.12547412694E+04  0.12547412694E+04  0.00000000000E+00 0. -1.
         25    2    1    2    0    0 -0.36596854732E+02 -0.10718319408E+03 -0.32786866185E+03  0.36871500923E+03  0.12500132695E+03 0.  0.
          2    1    1    2  501    0 -0.35391079703E+02  0.16801484704E+03 -0.89748623521E+03  0.91376313109E+03  0.00000000000E+00 0. -1.
          1    1    1    2  502    0  0.71987934435E+02 -0.60831652956E+02  0.26917320569E+04  0.26933815584E+04  0.00000000000E+00 0. -1.
         22    1    3    3    0    0 -0.72861380793E+02 -0.75638103694E+02 -0.28704051688E+03  0.30565039157E+03  0.00000000000E+00 0.  1.
         22    1    3    3    0    0  0.36264526061E+02 -0.31545090390E+02 -0.40828144977E+02  0.63064617658E+02  0.00000000000E+00 0.  1.
</event>
<event>
 7    1  0.5194496E-006  0.1235038E+03  0.7818608E-02  0.1258902E+00
          2   -1    0    0  502    0  0.00000000000E+00  0.00000000000E+00  0.14182240850E+04  0.14182240850E+04  0.00000000000E+00 0. -1.
          1   -1    0    0  501    0 -0.00000000000E+00 -0.00000000000E+00 -0.87323338062E+03  0.87323338062E+03  0.00000000000E+00 0. -1.
         25    2    1    2    0    0  0.29764592965E+02  0.38994460271E+02  0.76670388029E+02  0.15462851636E+03  0.12500052298E+03 0.  0.
          2    1    1    2  501    0  0.19006372531E+02 -0.12582747602E+03 -0.82747961647E+03  0.83720744836E+03  0.00000000000E+00 0. -1.
          1    1    1    2  502    0 -0.48770965497E+02  0.86833015754E+02  0.12957999328E+04  0.12996215009E+04  0.00000000000E+00 0. -1.
         22    1    3    3    0    0  0.61188055625E+02 -0.20978950647E+02  0.50408127626E+02  0.82006547617E+02  0.00000000000E+00 0.  1.
         22    1    3    3    0    0 -0.31423462660E+02  0.59973410918E+02  0.26262260404E+02  0.72621968744E+02  0.00000000000E+00 0.  1.
</event>
<event>
 7    1  0.5194496E-006  0.8239763E+02  0.7818608E-02  0.1397142E+00
          2   -1    0    0  502    0  0.00000000000E+00  0.00000000000E+00  0.30194281830E+03  0.30194281830E+03  0.00000000000E+00 0. -1.
          1   -1    0    0  501    0 -0.00000000000E+00 -0.00000000000E+00 -0.16324630210E+03  0.16324630210E+03  0.00000000000E+00 0. -1.
         25    2    1    2    0    0  0.10158415146E+03  0.71458723719E+01  0.18960535957E+03  0.24888950314E+03  0.12500155628E+03 0.  0.
          2    1    1    2  501    0 -0.76473457796E+02  0.28900639750E+02 -0.11347112470E+03  0.13985396979E+03  0.00000000000E+00 0. -1.
          1    1    1    2  502    0 -0.25110693667E+02 -0.36046512122E+02  0.62562281330E+02  0.76445647474E+02  0.00000000000E+00 0. -1.
         22    1    3    3    0    0  0.10248596530E+03  0.48154488995E+02  0.10304825079E+03  0.15310509425E+03  0.00000000000E+00 0.  1.
         22    1    3    3    0    0 -0.90181383412E+00 -0.41008616623E+02  0.86557108782E+02  0.95784408889E+02  0.00000000000E+00 0.  1.
</event>
<event>
 7    1  0.5194496E-006  0.1274589E+03  0.7818608E-02  0.1306659E+00
          2   -1    0    0  502    0  0.00000000000E+00  0.00000000000E+00  0.17214027282E+04  0.17214027282E+04  0.00000000000E+00 0. -1.
          1   -1    0    0  501    0 -0.00000000000E+00 -0.00000000000E+00 -0.12238327260E+03  0.12238327260E+03  0.00000000000E+00 0. -1.
         25    2    1    2    0    0 -0.14302558212E+03 -0.86168772504E+01  0.34095491378E+03  0.39039184621E+03  0.12499989057E+03 0.  0.
          2    1    1    2  501    0  0.31705746810E+02 -0.52550649479E+02 -0.84720254919E+02  0.10461523185E+03  0.00000000000E+00 0. -1.
          1    1    1    2  502    0  0.11131983531E+03  0.61167526730E+02  0.13427847968E+04  0.13487789228E+04  0.00000000000E+00 0. -1.
         22    1    3    3    0    0 -0.13129217198E+03 -0.21652663898E+02  0.15787049931E+03  0.20646928786E+03  0.00000000000E+00 0.  1.
         22    1    3    3    0    0 -0.11733410134E+02  0.13035786648E+02  0.18308441447E+03  0.18392255834E+03  0.00000000000E+00 0.  1.
</event>
<event>
 7    1  0.5194496E-006  0.7906145E+02  0.7818608E-02  0.1343093E+00
          2   -1    0    0  502    0  0.00000000000E+00  0.00000000000E+00  0.36066162381E+03  0.36066162381E+03  0.00000000000E+00 0. -1.
          1   -1    0    0  501    0 -0.00000000000E+00 -0.00000000000E+00 -0.14162042173E+04  0.14162042173E+04  0.00000000000E+00 0. -1.
         25    2    1    2    0    0  0.34176853207E+02 -0.87360103200E+02 -0.36388164693E+03  0.39602094728E+03  0.12499157086E+03 0.  0.
          2    1    1    2  501    0  0.39989064688E+02  0.59423331208E+02 -0.10304363675E+04  0.10329227294E+04  0.00000000000E+00 0. -1.
          1    1    1    2  502    0 -0.74165917895E+02  0.27936771993E+02  0.33877542095E+03  0.34792216435E+03  0.00000000000E+00 0. -1.
         22    1    3    3    0    0 -0.45075431373E+02 -0.27981140110E+02 -0.86301300746E+02  0.10130475421E+03  0.00000000000E+00 0. -1.
         22    1    3    3    0    0  0.79252284581E+02 -0.59378963090E+02 -0.27758034619E+03  0.29471619307E+03  0.00000000000E+00 0. -1.
</event>
<event>
 7    1  0.5194496E-006  0.8421769E+02  0.7818608E-02  0.1451000E+00
          2   -1    0    0  502    0  0.00000000000E+00  0.00000000000E+00  0.44715263038E+03  0.44715263038E+03  0.00000000000E+00 0. -1.
          1   -1    0    0  501    0 -0.00000000000E+00 -0.00000000000E+00 -0.13284544353E+03  0.13284544353E+03  0.00000000000E+00 0. -1.
         25    2    1    2    0    0  0.65413827408E+02 -0.45959970642E+01  0.15584472582E+03  0.21026739862E+03  0.12499883340E+03 0.  0.
          2    1    1    2  501    0 -0.84652931271E+02 -0.16389368218E+02 -0.87078057477E+02  0.12254516823E+03  0.00000000000E+00 0. -1.
          1    1    1    2  502    0  0.19239103863E+02  0.20985365283E+02  0.24554051850E+03  0.24718550706E+03  0.00000000000E+00 0. -1.
         22    1    3    3    0    0  0.43784492453E+02  0.66561517235E+01  0.17420492419E+03  0.17974632611E+03  0.00000000000E+00 0.  1.
         22    1    3    3    0    0  0.21629334955E+02 -0.11252148788E+02 -0.18360198376E+02  0.30521072513E+02  0.00000000000E+00 0.  1.
</event>
<event>
 7    1  0.5194496E-006  0.5819773E+02  0.7818608E-02  0.1408828E+00
          2   -1    0    0  502    0  0.00000000000E+00  0.00000000000E+00  0.93660868726E+03  0.93660868726E+03  0.00000000000E+00 0. -1.
          1   -1    0    0  501    0 -0.00000000000E+00 -0.00000000000E+00 -0.14698513767E+04  0.14698513767E+04  0.00000000000E+00 0. -1.
         25    2    1    2    0    0 -0.71456620883E+01 -0.43079968025E+01 -0.34227732111E+02  0.12986991813E+03  0.12500015467E+03 0.  0.
          2    1    1    2  501    0  0.45349349408E+02 -0.37621716661E+02 -0.13862710044E+04  0.13875227043E+04  0.00000000000E+00 0. -1.
          1    1    1    2  502    0 -0.38203687320E+02  0.41929713463E+02  0.88725604709E+03  0.88906744159E+03  0.00000000000E+00 0. -1.
         22    1    3    3    0    0 -0.60872784522E+02  0.28485041792E+01 -0.43511458505E+02  0.74878948261E+02  0.00000000000E+00 0. -1.
         22    1    3    3    0    0  0.53727122434E+02 -0.71565009817E+01  0.92837263940E+01  0.54990969868E+02  0.00000000000E+00 0. -1.
</event>
<event>
 7    1  0.5194496E-006  0.9900794E+02  0.7818608E-02  0.1354604E+00
          2   -1    0    0  502    0  0.00000000000E+00  0.00000000000E+00  0.87054529747E+03  0.87054529747E+03  0.00000000000E+00 0. -1.
          1   -1    0    0  501    0 -0.00000000000E+00 -0.00000000000E+00 -0.10654440646E+03  0.10654440646E+03  0.00000000000E+00 0. -1.
         25    2    1    2    0    0  0.22068097196E+02  0.13626610707E+03  0.27635289793E+03  0.33324012044E+03  0.12499040292E+03 0.  0.
          2    1    1    2  501    0  0.94700500892E+01 -0.95127047999E+02 -0.47117121068E+02  0.10657795366E+03  0.00000000000E+00 0. -1.
          1    1    1    2  502    0 -0.31538147285E+02 -0.41139059072E+02  0.53476511414E+03  0.53727162983E+03  0.00000000000E+00 0. -1.
         22    1    3    3    0    0  0.39536027428E+02 -0.54124192697E+01  0.36277564042E+02  0.53930078805E+02  0.00000000000E+00 0. -1.
         22    1    3    3    0    0 -0.17467930232E+02  0.14167852634E+03  0.24007533389E+03  0.27931004163E+03  0.00000000000E+00 0. -1.
</event>
<event>
 7    1  0.5194496E-006  0.7297265E+02  0.7818608E-02  0.1353864E+00
          2   -1    0    0  502    0  0.00000000000E+00  0.00000000000E+00  0.18202890139E+04  0.18202890139E+04  0.00000000000E+00 0. -1.
          1   -1    0    0  501    0 -0.00000000000E+00 -0.00000000000E+00 -0.18324563340E+04  0.18324563340E+04  0.00000000000E+00 0. -1.
         25    2    1    2    0    0  0.73897380155E+02 -0.27031803841E+02  0.71838389630E+02  0.16424739782E+03  0.12499964901E+03 0.  0.
          2    1    1    2  501    0 -0.18299653873E+02  0.70825291097E+02 -0.17847666266E+04  0.17862651009E+04  0.00000000000E+00 0. -1.
          1    1    1    2  502    0 -0.55597726281E+02 -0.43793487256E+02  0.17007609169E+04  0.17022328492E+04  0.00000000000E+00 0. -1.
         22    1    3    3    0    0  0.47744086751E+02 -0.75843290225E+02  0.59320086631E+02  0.10747360220E+03  0.00000000000E+00 0. -1.
         22    1    3    3    0    0  0.26153293404E+02  0.48811486385E+02  0.12518302999E+02  0.56773795619E+02  0.00000000000E+00 0. -1.
</event>
<event>
 7    1  0.5194496E-006  0.9826505E+02  0.7818608E-02  0.1368986E+00
          2   -1    0    0  502    0  0.00000000000E+00  0.00000000000E+00  0.10568668882E+03  0.10568668882E+03  0.00000000000E+00 0. -1.
          1   -1    0    0  501    0 -0.00000000000E+00 -0.00000000000E+00 -0.19513156392E+04  0.19513156392E+04  0.00000000000E+00 0. -1.
         25    2    1    2    0    0  0.42296658341E+02  0.64400676299E+02 -0.14594007394E+04  0.14667704547E+04  0.12501437655E+03 0.  0.
          2    1    1    2  501    0 -0.31662478888E+02  0.33778958134E+02 -0.46289922329E+03  0.46520879345E+03  0.00000000000E+00 0. -1.
          1    1    1    2  502    0 -0.10634179452E+02 -0.98179634432E+02  0.76671012238E+02  0.12502307990E+03  0.00000000000E+00 0. -1.
         22    1    3    3    0    0  0.49497850932E+02  0.43795753944E+02 -0.14214870701E+04  0.14230226969E+04  0.00000000000E+00 0.  1.
         22    1    3    3    0    0 -0.72011925911E+01  0.20604922355E+02 -0.37913669244E+02  0.43747757834E+02  0.00000000000E+00 0.  1.
</event>
<event>
 7    1  0.5194496E-006  0.6980513E+02  0.7818608E-02  0.1361648E+00
          2   -1    0    0  502    0  0.00000000000E+00  0.00000000000E+00  0.61962710730E+03  0.61962710730E+03  0.00000000000E+00 0. -1.
          1   -1    0    0  501    0 -0.00000000000E+00 -0.00000000000E+00 -0.20917306422E+04  0.20917306422E+04  0.00000000000E+00 0. -1.
         25    2    1    2    0    0  0.86116572098E+00  0.30296653253E+02  0.27399041309E+03  0.30267822292E+03  0.12499892543E+03 0.  0.
          2    1    1    2  501    0 -0.60249666704E+02  0.35252435202E+02 -0.20708842605E+04  0.20720604182E+04  0.00000000000E+00 0. -1.
          1    1    1    2  502    0  0.59388500983E+02 -0.65549088455E+02  0.32479031247E+03  0.33661910837E+03  0.00000000000E+00 0. -1.
         22    1    3    3    0    0 -0.52648940600E+02  0.43549365106E+02  0.19273330400E+03  0.20448614774E+03  0.00000000000E+00 0. -1.
         22    1    3    3    0    0  0.53510106321E+02 -0.13252711853E+02  0.81257109084E+02  0.98192075172E+02  0.00000000000E+00 0. -1.
</event>
<event>
 7    1  0.5194496E-006  0.7196357E+02  0.7818608E-02  0.1453257E+00
          2   -1    0    0  502    0  0.00000000000E+00  0.00000000000E+00  0.47997140377E+03  0.47997140377E+03  0.00000000000E+00 0. -1.
          1   -1    0    0  501    0 -0.00000000000E+00 -0.00000000000E+00 -0.15236671679E+03  0.15236671679E+03  0.00000000000E+00 0. -1.
         25    2    1    2    0    0 -0.67739784070E+02 -0.49179580599E+02  0.16343103721E+03  0.22213036300E+03  0.12499953899E+03 0.  0.
          2    1    1    2  501    0  0.30714099039E+02 -0.11424401627E+02 -0.11632777699E+03  0.12085538686E+03  0.00000000000E+00 0. -1.
          1    1    1    2  502    0  0.37025685031E+02  0.60603982226E+02  0.28050142677E+03  0.28935237071E+03  0.00000000000E+00 0. -1.
         22    1    3    3    0    0  0.29666038029E+02 -0.37423670884E+02  0.29589340053E+02  0.56179480236E+02  0.00000000000E+00 0. -1.
         22    1    3    3    0    0 -0.97405822099E+02 -0.11755909716E+02  0.13384169715E+03  0.16595088276E+03  0.00000000000E+00 0. -1.
</event>
<event>
 7    1  0.5194496E-006  0.7340329E+02  0.7818608E-02  0.1354201E+00
          2   -1    0    0  502    0  0.00000000000E+00  0.00000000000E+00  0.18363193641E+03  0.18363193641E+03  0.00000000000E+00 0. -1.
          1   -1    0    0  501    0 -0.00000000000E+00 -0.00000000000E+00 -0.96631764176E+03  0.96631764176E+03  0.00000000000E+00 0. -1.
         25    2    1    2    0    0  0.54367401273E+01  0.11415632454E+02 -0.95396184425E+02  0.15775316313E+03  0.12500301463E+03 0.  0.
          2    1    1    2  501    0 -0.75420605511E+02 -0.16349675468E+02 -0.82978514014E+03  0.83336604108E+03  0.00000000000E+00 0. -1.
          1    1    1    2  502    0  0.69983865384E+02  0.49340430131E+01  0.14249561922E+03  0.15883037396E+03  0.00000000000E+00 0. -1.
         22    1    3    3    0    0 -0.23224793443E+02  0.50598461679E+02 -0.59618943797E+01  0.55992316789E+02  0.00000000000E+00 0.  1.
         22    1    3    3    0    0  0.28661533570E+02 -0.39182829225E+02 -0.89434290045E+02  0.10176084634E+03  0.00000000000E+00 0.  1.
</event>
<event>
 7    1  0.5194496E-006  0.4345217E+02  0.7818608E-02  0.1485683E+00
          2   -1    0    0  502    0  0.00000000000E+00  0.00000000000E+00  0.10054760241E+04  0.10054760241E+04  0.00000000000E+00 0. -1.
          1   -1    0    0  501    0 -0.00000000000E+00 -0.00000000000E+00 -0.12631407174E+04  0.12631407174E+04  0.00000000000E+00 0. -1.
         25    2    1    2    0    0  0.43079637871E+02  0.17158786369E+02 -0.54199379225E+02  0.14391506535E+03  0.12499477661E+03 0.  0.
          2    1    1    2  501    0 -0.85238793398E+01 -0.42775610223E+02 -0.11631930126E+04  0.11640104784E+04  0.00000000000E+00 0. -1.
          1    1    1    2  502    0 -0.34555758531E+02  0.25616823854E+02  0.95972769853E+03  0.96069119775E+03  0.00000000000E+00 0. -1.
         22    1    3    3    0    0 -0.20120765397E+02 -0.41499218053E+02 -0.27280616377E+02  0.53584161177E+02  0.00000000000E+00 0. -1.
         22    1    3    3    0    0  0.63200403269E+02  0.58658004422E+02 -0.26918762848E+02  0.90330904177E+02  0.00000000000E+00 0. -1.
</event>
<event>
 7    1  0.5194496E-006  0.2267705E+02  0.7818608E-02  0.1698044E+00
          2   -1    0    0  502    0  0.00000000000E+00  0.00000000000E+00  0.24472518507E+03  0.24472518507E+03  0.00000000000E+00 0. -1.
          1   -1    0    0  501    0 -0.00000000000E+00 -0.00000000000E+00 -0.88466109575E+03  0.88466109575E+03  0.00000000000E+00 0. -1.
         25    2    1    2    0    0  0.12306771017E+02  0.34606722033E+02 -0.26129278576E+03  0.29197462990E+03  0.12500473109E+03 0.  0.
          2    1    1    2  501    0  0.61684141310E+01 -0.21717034432E+02 -0.60726404267E+03  0.60768354958E+03  0.00000000000E+00 0. -1.
          1    1    1    2  502    0 -0.18475185148E+02 -0.12889687601E+02  0.22862091775E+03  0.22972810134E+03  0.00000000000E+00 0. -1.
         22    1    3    3    0    0 -0.43293182836E+02  0.32536402754E+02 -0.50802356356E+02  0.74254943240E+02  0.00000000000E+00 0.  1.
         22    1    3    3    0    0  0.55599953853E+02  0.20703192788E+01 -0.21049042940E+03  0.21771968666E+03  0.00000000000E+00 0.  1.
</event>
<event>
 7    1  0.5194496E-006  0.6410445E+02  0.7818608E-02  0.1458993E+00
          2   -1    0    0  502    0  0.00000000000E+00  0.00000000000E+00  0.56209559867E+03  0.56209559867E+03  0.00000000000E+00 0. -1.
          1   -1    0    0  501    0 -0.00000000000E+00 -0.00000000000E+00 -0.45345452418E+03  0.45345452418E+03  0.00000000000E+00 0. -1.
         25    2    1    2    0    0 -0.48537403904E+02 -0.67432315298E+02 -0.19590652431E+03  0.24679543198E+03  0.12500248900E+03 0.  0.
          2    1    1    2  501    0  0.13991981485E+02  0.60279255079E+02 -0.22738422847E+03  0.23565430506E+03  0.00000000000E+00 0. -1.
          1    1    1    2  502    0  0.34545422419E+02  0.71530602195E+01  0.53193182727E+03  0.53310038580E+03  0.00000000000E+00 0. -1.
         22    1    3    3    0    0  0.14480114619E+01  0.32218128256E+02 -0.78621511783E+02  0.84979095315E+02  0.00000000000E+00 0.  1.
         22    1    3    3    0    0 -0.49985415366E+02 -0.99650443554E+02 -0.11728501252E+03  0.16181633667E+03  0.00000000000E+00 0.  1.
</event>
<event>
 7    1  0.5194496E-006  0.1157420E+03  0.7818608E-02  0.1283946E+00
          2   -1    0    0  502    0  0.00000000000E+00  0.00000000000E+00  0.22863121417E+04  0.22863121417E+04  0.00000000000E+00 0. -1.
          1   -1    0    0  501    0 -0.00000000000E+00 -0.00000000000E+00 -0.68247083323E+03  0.68247083323E+03  0.00000000000E+00 0. -1.
         25    2    1    2    0    0 -0.77532176645E+02 -0.17991884180E+03  0.27632839547E+03  0.36106032952E+03  0.12500060542E+03 0.  0.
          2    1    1    2  501    0  0.28595765192E+02  0.78408210612E+02 -0.63576174164E+03  0.64121646689E+03  0.00000000000E+00 0. -1.
          1    1    1    2  502    0  0.48936411453E+02  0.10151063119E+03  0.19632746546E+04  0.19665061785E+04  0.00000000000E+00 0. -1.
         22    1    3    3    0    0 -0.41113311641E+02 -0.12509460568E+03  0.80190284184E+02  0.15417342975E+03  0.00000000000E+00 0. -1.
         22    1    3    3    0    0 -0.36418865003E+02 -0.54824236122E+02  0.19613811129E+03  0.20688689977E+03  0.00000000000E+00 0. -1.
</event>
<event>
 7    1  0.5194496E-006  0.8341616E+02  0.7818608E-02  0.1392334E+00
          2   -1    0    0  502    0  0.00000000000E+00  0.00000000000E+00  0.43072772874E+03  0.43072772874E+03  0.00000000000E+00 0. -1.
          1   -1    0    0  501    0 -0.00000000000E+00 -0.00000000000E+00 -0.73871958076E+03  0.73871958076E+03  0.00000000000E+00 0. -1.
         25    2    1    2    0    0 -0.34922219507E+02  0.71124492992E+02 -0.12822990535E+03  0.19582394726E+03  0.12500341906E+03 0.  0.
          2    1    1    2  501    0 -0.36259621147E+02 -0.26804750107E+02 -0.57136604277E+03  0.57314257352E+03  0.00000000000E+00 0. -1.
          1    1    1    2  502    0  0.71181840654E+02 -0.44319742885E+02  0.39160409611E+03  0.40048078872E+03  0.00000000000E+00 0. -1.
         22    1    3    3    0    0  0.20514714842E+02 -0.27496477816E+02 -0.37297490868E+02  0.50675562576E+02  0.00000000000E+00 0. -1.
         22    1    3    3    0    0 -0.55436934349E+02  0.98620970808E+02 -0.90932414483E+02  0.14514838469E+03  0.00000000000E+00 0. -1.
</event>
<event>
 7    1  0.5194496E-006  0.7341153E+02  0.7818608E-02  0.1369025E+00
          2   -1    0    0  502    0  0.00000000000E+00  0.00000000000E+00  0.19277156662E+04  0.19277156662E+04  0.00000000000E+00 0. -1.
          1   -1    0    0  501    0 -0.00000000000E+00 -0.00000000000E+00 -0.17181788824E+03  0.17181788824E+03  0.00000000000E+00 0. -1.
         25    2    1    2    0    0  0.21306881331E+02  0.50939397873E+02  0.25115649998E+03  0.28592646024E+03  0.12500219091E+03 0.  0.
          2    1    1    2  501    0 -0.72913989148E+02 -0.16664129461E+02 -0.14476123740E+03  0.16294158118E+03  0.00000000000E+00 0. -1.
          1    1    1    2  502    0  0.51607107817E+02 -0.34275268412E+02  0.16495025154E+04  0.16506655131E+04  0.00000000000E+00 0. -1.
         22    1    3    3    0    0  0.46240925964E+02 -0.22532871078E+02  0.14911408992E+03  0.15773701318E+03  0.00000000000E+00 0.  1.
         22    1    3    3    0    0 -0.24934044633E+02  0.73472268951E+02  0.10204241006E+03  0.12818944706E+03  0.00000000000E+00 0.  1.
</event>
<event>
 7    1  0.5194496E-006  0.6838366E+02  0.7818608E-02  0.1429137E+00
          2   -1    0    0  502    0  0.00000000000E+00  0.00000000000E+00  0.14007047309E+04  0.14007047309E+04  0.00000000000E+00 0. -1.
          1   -1    0    0  501    0 -0.00000000000E+00 -0.00000000000E+00 -0.51793962443E+03  0.51793962443E+03  0.00000000000E+00 0. -1.
         25    2    1    2    0    0 -0.53278617518E+02  0.57260769020E+02  0.84279342649E+03  0.85559566790E+03  0.12500312172E+03 0.  0.
          2    1    1    2  501    0  0.65983006502E+02 -0.17979576555E+02 -0.50847343675E+03  0.51305190595E+03  0.00000000000E+00 0. -1.
          1    1    1    2  502    0 -0.12704388984E+02 -0.39281192465E+02  0.54844511675E+03  0.54999678151E+03  0.00000000000E+00 0. -1.
         22    1    3    3    0    0 -0.52546641090E+01  0.70848356533E+02  0.22876718225E+03  0.23954441090E+03  0.00000000000E+00 0. -1.
         22    1    3    3    0    0 -0.48023953409E+02 -0.13587587513E+02  0.61402624423E+03  0.61605125699E+03  0.00000000000E+00 0. -1.
</event>
<event>
 7    1  0.5194496E-006  0.2803135E+03  0.7818608E-02  0.1273360E+00
          2   -1    0    0  502    0  0.00000000000E+00  0.00000000000E+00  0.22723030710E+04  0.22723030710E+04  0.00000000000E+00 0. -1.
          1   -1    0    0  501    0 -0.00000000000E+00 -0.00000000000E+00 -0.94138382083E+03  0.94138382083E+03  0.00000000000E+00 0. -1.
         25    2    1    2    0    0 -0.31268735064E+03  0.48697774505E+02 -0.43916561862E+03  0.55554996069E+03  0.12499786298E+03 0.  0.
          2    1    1    2  501    0  0.35052064102E+02 -0.14985577552E+02 -0.43435613907E+03  0.43602576791E+03  0.00000000000E+00 0. -1.
          1    1    1    2  502    0  0.27763528654E+03 -0.33712196953E+02  0.22044410079E+04  0.22221111633E+04  0.00000000000E+00 0. -1.
         22    1    3    3    0    0 -0.18285715895E+03 -0.28888568421E+02 -0.19959018025E+03  0.27222698253E+03  0.00000000000E+00 0.  1.
         22    1    3    3    0    0 -0.12983019169E+03  0.77586342926E+02 -0.23957543837E+03  0.28332297816E+03  0.00000000000E+00 0.  1.
</event>
<event>
 7    1  0.5194496E-006  0.7474676E+02  0.7818608E-02  0.1492115E+00
          2   -1    0    0  502    0  0.00000000000E+00  0.00000000000E+00  0.94390116120E+03  0.94390116120E+03  0.00000000000E+00 0. -1.
          1   -1    0    0  501    0 -0.00000000000E+00 -0.00000000000E+00 -0.37998542201E+03  0.37998542201E+03  0.00000000000E+00 0. -1.
         25    2    1    2    0    0  0.72428992801E+02 -0.50073768342E+02  0.52525395455E+03  0.54705654617E+03  0.12500322659E+03 0.  0.
          2    1    1    2  501    0 -0.23809739652E+02 -0.21705801381E+01 -0.36556779896E+03  0.36634878293E+03  0.00000000000E+00 0. -1.
          1    1    1    2  502    0 -0.48619253149E+02  0.52244348480E+02  0.40422958359E+03  0.41048125411E+03  0.00000000000E+00 0. -1.
         22    1    3    3    0    0  0.16356029823E+02  0.21648694597E+02  0.33547650549E+03  0.33657194094E+03  0.00000000000E+00 0.  1.
         22    1    3    3    0    0  0.56072962978E+02 -0.71722462939E+02  0.18977744906E+03  0.21048460523E+03  0.00000000000E+00 0.  1.
</event>
<event>
 7    1  0.7409897E-006  0.9121871E+02  0.7818608E-02  0.1374650E+00
          2   -1    0    0  502    0  0.00000000000E+00  0.00000000000E+00  0.56002719436E+03  0.56002719436E+03  0.00000000000E+00 0. -1.
          1   -1    0    0  501    0 -0.00000000000E+00 -0.00000000000E+00 -0.26865473315E+04  0.26865473315E+04  0.00000000000E+00 0. -1.
         25    2    1    2    0    0  0.29730927275E+02  0.71805404213E+02 -0.10361546851E+04  0.10465568452E+04  0.12499901861E+03 0.  0.
          2    1    1    2  501    0 -0.43896559991E+02  0.18397535437E+02 -0.16410875097E+04  0.16417775707E+04  0.00000000000E+00 0. -1.
          1    1    1    2  502    0  0.14165632716E+02 -0.90202939650E+02  0.55072205769E+03  0.55824010990E+03  0.00000000000E+00 0. -1.
         22    1    3    3    0    0 -0.41088442110E+02  0.57425788239E+02 -0.38668629227E+03  0.39308048776E+03  0.00000000000E+00 0.  1.
         22    1    3    3    0    0  0.70819369385E+02  0.14379615974E+02 -0.64946839281E+03  0.65347635742E+03  0.00000000000E+00 0.  1.
</event>
<event>
 7    1  0.5194496E-006  0.1017691E+03  0.7818608E-02  0.1344088E+00
          2   -1    0    0  502    0  0.00000000000E+00  0.00000000000E+00  0.25513187884E+04  0.25513187884E+04  0.00000000000E+00 0. -1.
          1   -1    0    0  501    0 -0.00000000000E+00 -0.00000000000E+00 -0.10842589125E+04  0.10842589125E+04  0.00000000000E+00 0. -1.
         25    2    1    2    0    0 -0.10873110325E+03 -0.16211005167E+02  0.36880728532E+03  0.40465157172E+03  0.12505531293E+03 0.  0.
          2    1    1    2  501    0  0.28627304548E+02 -0.47160117379E+02 -0.10644170925E+04  0.10658458360E+04  0.00000000000E+00 0. -1.
          1    1    1    2  502    0  0.80103798706E+02  0.63371122546E+02  0.21626696831E+04  0.21650802932E+04  0.00000000000E+00 0. -1.
         22    1    3    3    0    0 -0.39711751640E+01 -0.51457552431E+02  0.16390439070E+03  0.17183800285E+03  0.00000000000E+00 0. -1.
         22    1    3    3    0    0 -0.10475992809E+03  0.35246547263E+02  0.20490289462E+03  0.23281356887E+03  0.00000000000E+00 0. -1.
</event>
<event>
 7    1  0.5194496E-006  0.6314025E+02  0.7818608E-02  0.1398533E+00
          2   -1    0    0  502    0  0.00000000000E+00  0.00000000000E+00  0.20854731008E+04  0.20854731008E+04  0.00000000000E+00 0. -1.
          1   -1    0    0  501    0 -0.00000000000E+00 -0.00000000000E+00 -0.38309946150E+02  0.38309946150E+02  0.00000000000E+00 0. -1.
         25    2    1    2    0    0 -0.20075139655E+01 -0.20512294732E+02  0.91359605122E+03  0.92233950942E+03  0.12501056546E+03 0.  0.
          2    1    1    2  501    0  0.62177278204E+02 -0.10985337189E+02 -0.26525405626E+01  0.63195945515E+02  0.00000000000E+00 0. -1.
          1    1    1    2  502    0 -0.60169764239E+02  0.31497631921E+02  0.11362196440E+04  0.11382475920E+04  0.00000000000E+00 0. -1.
         22    1    3    3    0    0 -0.43605127637E+02  0.10021803319E+02  0.13893109448E+03  0.14595784567E+03  0.00000000000E+00 0. -1.
         22    1    3    3    0    0  0.41597613671E+02 -0.30534098052E+02  0.77466495673E+03  0.77638166375E+03  0.00000000000E+00 0. -1.
</event>
<event>
 7    1  0.5194496E-006  0.1120330E+03  0.7818608E-02  0.1278812E+00
          2   -1    0    0  502    0  0.00000000000E+00  0.00000000000E+00  0.65439803710E+03  0.65439803710E+03  0.00000000000E+00 0. -1.
          1   -1    0    0  501    0 -0.00000000000E+00 -0.00000000000E+00 -0.11095500245E+03  0.11095500245E+03  0.00000000000E+00 0. -1.
         25    2    1    2    0    0 -0.49734707761E+02  0.11000340580E+03  0.60972201558E+02  0.18416841769E+03  0.12500442499E+03 0.  0.
          2    1    1    2  501    0 -0.57630467487E+02 -0.69815993477E+02  0.55722097241E+01  0.90700569177E+02  0.00000000000E+00 0. -1.
          1    1    1    2  502    0  0.10736517525E+03 -0.40187412319E+02  0.47689862337E+03  0.49048405269E+03  0.00000000000E+00 0. -1.
         22    1    3    3    0    0 -0.73224688499E+02  0.41277394067E+02 -0.74478766540E+01  0.84386901432E+02  0.00000000000E+00 0.  1.
         22    1    3    3    0    0  0.23489980738E+02  0.68726011728E+02  0.68420078212E+02  0.99781516253E+02  0.00000000000E+00 0.  1.
</event>
<event>
 7    1  0.5194496E-006  0.1158829E+03  0.7818608E-02  0.1426850E+00
          2   -1    0    0  502    0  0.00000000000E+00  0.00000000000E+00  0.43888023895E+03  0.43888023895E+03  0.00000000000E+00 0. -1.
          1   -1    0    0  501    0 -0.00000000000E+00 -0.00000000000E+00 -0.21211665741E+03  0.21211665741E+03  0.00000000000E+00 0. -1.
         25    2    1    2    0    0  0.89311038748E+02 -0.57002078356E+02 -0.12190476148E+03  0.20423065425E+03  0.12499476263E+03 0.  0.
          2    1    1    2  501    0  0.19492911172E+02  0.15315097740E+02 -0.36633201732E+02  0.44232536371E+02  0.00000000000E+00 0. -1.
          1    1    1    2  502    0 -0.10880394992E+03  0.41686980616E+02  0.38530154475E+03  0.40253370574E+03  0.00000000000E+00 0. -1.
         22    1    3    3    0    0 -0.75031326175E+01  0.19204140999E+02 -0.65604655044E+02  0.68768210636E+02  0.00000000000E+00 0.  1.
         22    1    3    3    0    0  0.96814171365E+02 -0.76206219355E+02 -0.56300106432E+02  0.13546244361E+03  0.00000000000E+00 0.  1.
</event>
<event>
 7    1  0.5194496E-006  0.9615898E+02  0.7818608E-02  0.1376377E+00
          2   -1    0    0  502    0  0.00000000000E+00  0.00000000000E+00  0.24924220167E+04  0.24924220167E+04  0.00000000000E+00 0. -1.
          1   -1    0    0  501    0 -0.00000000000E+00 -0.00000000000E+00 -0.70497777780E+02  0.70497777780E+02  0.00000000000E+00 0. -1.
         25    2    1    2    0    0 -0.61504011283E+02  0.70158171630E+02  0.84651656020E+03  0.86076721861E+03  0.12500002200E+03 0.  0.
          2    1    1    2  501    0  0.23752256260E+02 -0.93746405865E+02 -0.25986992650E+02  0.10013931334E+03  0.00000000000E+00 0. -1.
          1    1    1    2  502    0  0.37751755023E+02  0.23588234235E+02  0.16013946714E+04  0.16020132626E+04  0.00000000000E+00 0. -1.
         22    1    3    3    0    0  0.22045093836E+02  0.57704533437E+02  0.51358594540E+03  0.51728746616E+03  0.00000000000E+00 0.  1.
         22    1    3    3    0    0 -0.83549105119E+02  0.12453638193E+02  0.33293061480E+03  0.34347975245E+03  0.00000000000E+00 0.  1.
</event>
<event>
 7    1  0.5194496E-006  0.9527163E+02  0.7818608E-02  0.1370500E+00
          2   -1    0    0  502    0  0.00000000000E+00  0.00000000000E+00  0.27474601168E+03  0.27474601168E+03  0.00000000000E+00 0. -1.
          1   -1    0    0  501    0 -0.00000000000E+00 -0.00000000000E+00 -0.19735949149E+03  0.19735949149E+03  0.00000000000E+00 0. -1.
         25    2    1    2    0    0  0.70119570101E+02 -0.70589327771E+02 -0.81969997999E+02  0.17956472179E+03  0.12499920573E+03 0.  0.
          2    1    1    2  501    0  0.21329231115E+02  0.42058433085E+02 -0.46038549120E+02  0.65904445211E+02  0.00000000000E+00 0. -1.
          1    1    1    2  502    0 -0.91448801217E+02  0.28530894686E+02  0.20539506731E+03  0.22663633617E+03  0.00000000000E+00 0. -1.
         22    1    3    3    0    0 -0.28114507419E+02  0.11759267704E+02 -0.24430823169E+02  0.39058558922E+02  0.00000000000E+00 0.  1.
         22    1    3    3    0    0  0.98234077520E+02 -0.82348595475E+02 -0.57539174831E+02  0.14050616287E+03  0.00000000000E+00 0.  1.
</event>
<event>
 7    1  0.5194496E-006  0.1078340E+03  0.7818608E-02  0.1271850E+00
          2   -1    0    0  502    0  0.00000000000E+00  0.00000000000E+00  0.22263421366E+04  0.22263421366E+04  0.00000000000E+00 0. -1.
          1   -1    0    0  501    0 -0.00000000000E+00 -0.00000000000E+00 -0.17713259875E+04  0.17713259875E+04  0.00000000000E+00 0. -1.
         25    2    1    2    0    0  0.56136953541E+02  0.23544009946E+02  0.27524357471E+03  0.30836644657E+03  0.12500064797E+03 0.  0.
          2    1    1    2  501    0  0.12244898015E+02 -0.10713655886E+03 -0.17515978645E+04  0.17549140318E+04  0.00000000000E+00 0. -1.
          1    1    1    2  502    0 -0.68381851556E+02  0.83592548910E+02  0.19313704389E+04  0.19343876458E+04  0.00000000000E+00 0. -1.
         22    1    3    3    0    0 -0.21283164553E+02  0.37935001757E+02  0.35891953153E+02  0.56393880456E+02  0.00000000000E+00 0. -1.
         22    1    3    3    0    0  0.77420118094E+02 -0.14390991812E+02  0.23935162155E+03  0.25197256611E+03  0.00000000000E+00 0. -1.
</event>
<event>
 7    1  0.5194496E-006  0.4373875E+02  0.7818608E-02  0.1557353E+00
          2   -1    0    0  502    0  0.00000000000E+00  0.00000000000E+00  0.39113737326E+03  0.39113737326E+03  0.00000000000E+00 0. -1.
          1   -1    0    0  501    0 -0.00000000000E+00 -0.00000000000E+00 -0.60087944841E+03  0.60087944841E+03  0.00000000000E+00 0. -1.
         25    2    1    2    0    0  0.38035704600E+02 -0.38639282232E+02 -0.43321081053E+03  0.45413276126E+03  0.12500099814E+03 0.  0.
          2    1    1    2  501    0  0.38845120885E+01  0.26195618703E+02 -0.15482393375E+03  0.15707243658E+03  0.00000000000E+00 0. -1.
          1    1    1    2  502    0 -0.41920216689E+02  0.12443663529E+02  0.37829266912E+03  0.38081162383E+03  0.00000000000E+00 0. -1.
         22    1    3    3    0    0  0.25871455671E+02 -0.32598926287E+02 -0.31505384050E+02  0.52197810661E+02  0.00000000000E+00 0. -1.
         22    1    3    3    0    0  0.12164248929E+02 -0.60403559446E+01 -0.40170542648E+03  0.40193495060E+03  0.00000000000E+00 0. -1.
</event>
<event>
 7    1  0.5194496E-006  0.8959119E+02  0.7818608E-02  0.1398020E+00
          2   -1    0    0  502    0  0.00000000000E+00  0.00000000000E+00  0.17615095501E+04  0.17615095501E+04  0.00000000000E+00 0. -1.
          1   -1    0    0  501    0 -0.00000000000E+00 -0.00000000000E+00 -0.87599245425E+02  0.87599245425E+02  0.00000000000E+00 0. -1.
         25    2    1    2    0    0 -0.77723029155E+02 -0.15462086994E+02  0.36642673916E+02  0.15247340191E+03  0.12500202935E+03 0.  0.
          2    1    1    2  501    0 -0.91058924294E+01  0.39075462749E+02 -0.14317780395E+02  0.42600562220E+02  0.00000000000E+00 0. -1.
          1    1    1    2  502    0  0.86828921584E+02 -0.23613375755E+02  0.16515854111E+04  0.16540348314E+04  0.00000000000E+00 0. -1.
         22    1    3    3    0    0  0.32300611120E+02 -0.13543203280E+02 -0.38132314418E+01  0.35231925406E+02  0.00000000000E+00 0. -1.
         22    1    3    3    0    0 -0.11002364027E+03 -0.19188837149E+01  0.40455905357E+02  0.11724147650E+03  0.00000000000E+00 0. -1.
</event>
<event>
 7    1  0.6893056E-006  0.1087068E+03  0.7818608E-02  0.1276811E+00
          2   -1    0    0  502    0  0.00000000000E+00  0.00000000000E+00  0.13441289881E+04  0.13441289881E+04  0.00000000000E+00 0. -1.
          1   -1    0    0  501    0 -0.00000000000E+00 -0.00000000000E+00 -0.10272917827E+04  0.10272917827E+04  0.00000000000E+00 0. -1.
         25    2    1    2    0    0 -0.37226532784E+02  0.10669084026E+03 -0.11714533660E+03  0.20522474305E+03  0.12500166052E+03 0.  0.
          2    1    1    2  501    0 -0.65331730468E+02 -0.69106520823E+02 -0.86119042710E+03  0.86642535625E+03  0.00000000000E+00 0. -1.
          1    1    1    2  502    0  0.10255826325E+03 -0.37584319440E+02  0.12951729691E+04  0.12997706714E+04  0.00000000000E+00 0. -1.
         22    1    3    3    0    0 -0.74868332803E+02  0.10626428906E+03 -0.99224665201E+02  0.16353256731E+03  0.00000000000E+00 0.  1.
         22    1    3    3    0    0  0.37641800019E+02  0.42655120726E+00 -0.17920671399E+02  0.41692175741E+02  0.00000000000E+00 0.  1.
</event>
<event>
 7    1  0.5194496E-006  0.6217586E+02  0.7818608E-02  0.1501726E+00
          2   -1    0    0  502    0  0.00000000000E+00  0.00000000000E+00  0.66472983365E+02  0.66472983365E+02  0.00000000000E+00 0. -1.
          1   -1    0    0  501    0 -0.00000000000E+00 -0.00000000000E+00 -0.28835888626E+03  0.28835888626E+03  0.00000000000E+00 0. -1.
         25    2    1    2    0    0  0.33021818402E+02  0.49359420351E+02 -0.15951938087E+03  0.21118164149E+03  0.12499783983E+03 0.  0.
          2    1    1    2  501    0 -0.10540491298E+02 -0.64127361027E+02 -0.86035097119E+02  0.10782141868E+03  0.00000000000E+00 0. -1.
          1    1    1    2  502    0 -0.22481327104E+02  0.14767940676E+02  0.23668575095E+02  0.35828809458E+02  0.00000000000E+00 0. -1.
         22    1    3    3    0    0  0.70150824630E+02  0.45999629293E+02 -0.55248476585E+02  0.10044649450E+03  0.00000000000E+00 0. -1.
         22    1    3    3    0    0 -0.37129006228E+02  0.33597910581E+01 -0.10427090429E+03  0.11073514700E+03  0.00000000000E+00 0. -1.
</event>
<event>
 7    1  0.5194496E-006  0.1551170E+03  0.7818608E-02  0.1290258E+00
          2   -1    0    0  502    0  0.00000000000E+00  0.00000000000E+00  0.77668258909E+03  0.77668258909E+03  0.00000000000E+00 0. -1.
          1   -1    0    0  501    0 -0.00000000000E+00 -0.00000000000E+00 -0.28697621558E+03  0.28697621558E+03  0.00000000000E+00 0. -1.
         25    2    1    2    0    0  0.72821852779E+02 -0.98628798855E+02  0.11073314402E+03  0.20716657525E+03  0.12500199403E+03 0.  0.
          2    1    1    2  501    0 -0.13134217277E+03  0.94250822555E+02 -0.20976820597E+03  0.26483331387E+03  0.00000000000E+00 0. -1.
          1    1    1    2  502    0  0.58520319996E+02  0.43779763005E+01  0.58874143545E+03  0.59165891555E+03  0.00000000000E+00 0. -1.
         22    1    3    3    0    0 -0.21375024135E+02 -0.98873791932E+01  0.66264537600E+02  0.70325250568E+02  0.00000000000E+00 0. -1.
         22    1    3    3    0    0  0.94196876914E+02 -0.88741419662E+02  0.44468606421E+02  0.13684132468E+03  0.00000000000E+00 0. -1.
</event>
<event>
 7    1  0.5194496E-006  0.9160679E+02  0.7818608E-02  0.1471463E+00
          2   -1    0    0  502    0  0.00000000000E+00  0.00000000000E+00  0.18017005022E+04  0.18017005022E+04  0.00000000000E+00 0. -1.
          1   -1    0    0  501    0 -0.00000000000E+00 -0.00000000000E+00 -0.60852082836E+03  0.60852082836E+03  0.00000000000E+00 0. -1.
         25    2    1    2    0    0  0.40779118781E+02 -0.69712992649E+02  0.60651668109E+02  0.16070704344E+03  0.12500116437E+03 0.  0.
          2    1    1    2  501    0  0.22375330401E+02  0.29117388884E+01 -0.55701517878E+03  0.55747201098E+03  0.00000000000E+00 0. -1.
          1    1    1    2  502    0 -0.63154449182E+02  0.66801253761E+02  0.16895431845E+04  0.16920422761E+04  0.00000000000E+00 0. -1.
         22    1    3    3    0    0  0.94936732217E+01  0.15729690242E+02 -0.28117707863E+02  0.33588070529E+02  0.00000000000E+00 0.  1.
         22    1    3    3    0    0  0.31285445559E+02 -0.85442682892E+02  0.88769375972E+02  0.12711897291E+03  0.00000000000E+00 0.  1.
</event>
<event>
 7    1  0.5194496E-006  0.1439087E+03  0.7818608E-02  0.1225199E+00
          2   -1    0    0  502    0  0.00000000000E+00  0.00000000000E+00  0.10429875152E+04  0.10429875152E+04  0.00000000000E+00 0. -1.
          1   -1    0    0  501    0 -0.00000000000E+00 -0.00000000000E+00 -0.27274855217E+03  0.27274855217E+03  0.00000000000E+00 0. -1.
         25    2    1    2    0    0  0.49517277240E+02 -0.63938509125E+02  0.19060095163E+03  0.24185583487E+03  0.12500171359E+03 0.  0.
          2    1    1    2  501    0  0.33968384861E+02  0.15044503192E+03 -0.21810571208E+03  0.26712854666E+03  0.00000000000E+00 0. -1.
          1    1    1    2  502    0 -0.83485662102E+02 -0.86506522795E+02  0.79774372346E+03  0.80675168583E+03  0.00000000000E+00 0. -1.
         22    1    3    3    0    0  0.54982102718E+02 -0.78431695678E+02  0.20137070250E+03  0.22299040861E+03  0.00000000000E+00 0. -1.
         22    1    3    3    0    0 -0.54648254779E+01  0.14493186553E+02 -0.10769750868E+02  0.18865426254E+02  0.00000000000E+00 0. -1.
</event>
<event>
 7    1  0.5194496E-006  0.1241213E+03  0.7818608E-02  0.1425615E+00
          2   -1    0    0  502    0  0.00000000000E+00  0.00000000000E+00  0.10055263426E+04  0.10055263426E+04  0.00000000000E+00 0. -1.
          1   -1    0    0  501    0 -0.00000000000E+00 -0.00000000000E+00 -0.17852591630E+04  0.17852591630E+04  0.00000000000E+00 0. -1.
         25    2    1    2    0    0 -0.13356211488E+03  0.47364048281E+01 -0.72381726609E+02  0.19678834831E+03  0.12500107048E+03 0.  0.
          2    1    1    2  501    0  0.10716144939E+02 -0.20760578255E+02 -0.16465233843E+04  0.16466891305E+04  0.00000000000E+00 0. -1.
          1    1    1    2  502    0  0.12284596994E+03  0.16024173427E+02  0.93917229050E+03  0.94730802684E+03  0.00000000000E+00 0. -1.
         22    1    3    3    0    0 -0.47151067255E+02  0.59244501347E+02 -0.53951992803E+02  0.92972854159E+02  0.00000000000E+00 0. -1.
         22    1    3    3    0    0 -0.86411047629E+02 -0.54508096519E+02 -0.18429733806E+02  0.10381549415E+03  0.00000000000E+00 0. -1.
</event>
<event>
 7    1  0.5194496E-006  0.1119288E+03  0.7818608E-02  0.1318261E+00
          2   -1    0    0  502    0  0.00000000000E+00  0.00000000000E+00  0.23619376357E+02  0.23619376357E+02  0.00000000000E+00 0. -1.
          1   -1    0    0  501    0 -0.00000000000E+00 -0.00000000000E+00 -0.17326752174E+04  0.17326752174E+04  0.00000000000E+00 0. -1.
         25    2    1    2    0    0  0.39702315552E+02  0.51917219551E+02 -0.75414285340E+03  0.76722164078E+03  0.12500372473E+03 0.  0.
          2    1    1    2  501    0  0.30573054457E+02  0.55005858119E+02 -0.70970793627E+03  0.71249260409E+03  0.00000000000E+00 0. -1.
          1    1    1    2  502    0 -0.70275370009E+02 -0.10692307767E+03 -0.24520505135E+03  0.27658034886E+03  0.00000000000E+00 0. -1.
         22    1    3    3    0    0 -0.90664247734E+00 -0.18736613916E+02 -0.16178910123E+02  0.24771754770E+02  0.00000000000E+00 0.  1.
         22    1    3    3    0    0  0.40608958029E+02  0.70653833467E+02 -0.73796394328E+03  0.74244988601E+03  0.00000000000E+00 0.  1.
</event>
<event>
 7    1  0.5194496E-006  0.1719703E+03  0.7818608E-02  0.1394005E+00
          2   -1    0    0  502    0  0.00000000000E+00  0.00000000000E+00  0.26014013697E+03  0.26014013697E+03  0.00000000000E+00 0. -1.
          1   -1    0    0  501    0 -0.00000000000E+00 -0.00000000000E+00 -0.31787649131E+03  0.31787649131E+03  0.00000000000E+00 0. -1.
         25    2    1    2    0    0 -0.12331954944E+03 -0.14482725097E+03  0.96914047053E+02  0.24739903435E+03  0.12502522059E+03 0.  0.
          2    1    1    2  501    0  0.10734284398E+03  0.13031810964E+03 -0.21102491423E+03  0.27025323361E+03  0.00000000000E+00 0. -1.
          1    1    1    2  502    0  0.15976705455E+02  0.14509141328E+02  0.56374512832E+02  0.60364360315E+02  0.00000000000E+00 0. -1.
         22    1    3    3    0    0 -0.11627721539E+00 -0.64501588659E+02 -0.10399426563E+02  0.65334650322E+02  0.00000000000E+00 0.  1.
         22    1    3    3    0    0 -0.12320327222E+03 -0.80325662310E+02  0.10731347362E+03  0.18206438403E+03  0.00000000000E+00 0.  1.
</event>
<event>
 7    1  0.5194496E-006  0.1468076E+03  0.7818608E-02  0.1222152E+00
          2   -1    0    0  502    0  0.00000000000E+00  0.00000000000E+00  0.12650749908E+04  0.12650749908E+04  0.00000000000E+00 0. -1.
          1   -1    0    0  501    0 -0.00000000000E+00 -0.00000000000E+00 -0.19997044971E+03  0.19997044971E+03  0.00000000000E+00 0. -1.
         25    2    1    2    0    0  0.40006707193E+02 -0.70535434802E+02  0.21707297428E+03  0.26328389531E+03  0.12498779614E+03 0.  0.
          2    1    1    2  501    0  0.12141897980E+03  0.75656668562E+01 -0.14753813584E+03  0.19122580761E+03  0.00000000000E+00 0. -1.
          1    1    1    2  502    0 -0.16142568699E+03  0.62969767946E+02  0.99556970266E+03  0.10105357376E+04  0.00000000000E+00 0. -1.
         22    1    3    3    0    0  0.10140272967E+02 -0.86443178746E+02  0.21186607298E+03  0.22904689731E+03  0.00000000000E+00 0. -1.
         22    1    3    3    0    0  0.29866434226E+02  0.15907743944E+02  0.52069012986E+01  0.34236997997E+02  0.00000000000E+00 0. -1.
</event>
<event>
 7    1  0.5194496E-006  0.1431926E+03  0.7818608E-02  0.1322392E+00
          2   -1    0    0  502    0  0.00000000000E+00  0.00000000000E+00  0.96006067579E+03  0.96006067579E+03  0.00000000000E+00 0. -1.
          1   -1    0    0  501    0 -0.00000000000E+00 -0.00000000000E+00 -0.63968026577E+02  0.63968026577E+02  0.00000000000E+00 0. -1.
         25    2    1    2    0    0  0.14531218703E+03 -0.99247012779E+02  0.46472194642E+03  0.51240263459E+03  0.12499748477E+03 0.  0.
          2    1    1    2  501    0 -0.44439852903E+02  0.16516737665E+02 -0.12459294925E+02  0.49019763149E+02  0.00000000000E+00 0. -1.
          1    1    1    2  502    0 -0.10087233413E+03  0.82730275113E+02  0.44382999771E+03  0.46260630463E+03  0.00000000000E+00 0. -1.
         22    1    3    3    0    0  0.96867503679E+02 -0.11067817112E+03  0.23409894937E+03  0.27646932728E+03  0.00000000000E+00 0.  1.
         22    1    3    3    0    0  0.48444683355E+02  0.11431158342E+02  0.23062299705E+03  0.23593330730E+03  0.00000000000E+00 0.  1.
</event>
<event>
 7    1  0.5194496E-006  0.1175211E+03  0.7818608E-02  0.1314711E+00
          2   -1    0    0  502    0  0.00000000000E+00  0.00000000000E+00  0.95419838878E+02  0.95419838878E+02  0.00000000000E+00 0. -1.
          1   -1    0    0  501    0 -0.00000000000E+00 -0.00000000000E+00 -0.40901599715E+03  0.40901599715E+03  0.00000000000E+00 0. -1.
         25    2    1    2    0    0  0.45936511071E+02 -0.50423128210E+02 -0.17736257065E+02  0.14352215271E+03  0.12502551178E+03 0.  0.
          2    1    1    2  501    0 -0.94446765052E+02  0.88838684013E+02 -0.25696633839E+03  0.28782668791E+03  0.00000000000E+00 0. -1.
          1    1    1    2  502    0  0.48510253980E+02 -0.38415555803E+02 -0.38893562812E+02  0.73086995403E+02  0.00000000000E+00 0. -1.
         22    1    3    3    0    0 -0.37733836174E+01 -0.75094424581E+02 -0.38246784761E+02  0.84357735695E+02  0.00000000000E+00 0. -1.
         22    1    3    3    0    0  0.49709894689E+02  0.24671296372E+02  0.20510527696E+02  0.59164417017E+02  0.00000000000E+00 0. -1.
</event>
<event>
 7    1  0.5194496E-006  0.9268924E+02  0.7818608E-02  0.1325236E+00
          2   -1    0    0  502    0  0.00000000000E+00  0.00000000000E+00  0.77011178222E+02  0.77011178222E+02  0.00000000000E+00 0. -1.
          1   -1    0    0  501    0 -0.00000000000E+00 -0.00000000000E+00 -0.19244116059E+04  0.19244116059E+04  0.00000000000E+00 0. -1.
         25    2    1    2    0    0  0.80686431725E+02 -0.51136071027E+02 -0.41066135500E+03  0.43976621297E+03  0.12500550213E+03 0.  0.
          2    1    1    2  501    0 -0.22332673473E+02  0.92306213861E+02 -0.14767474844E+04  0.14797980666E+04  0.00000000000E+00 0. -1.
          1    1    1    2  502    0 -0.58353758253E+02 -0.41170142834E+02  0.40008411655E+02  0.81858504545E+02  0.00000000000E+00 0. -1.
         22    1    3    3    0    0  0.40203583159E+02  0.38686427631E+02 -0.10944252314E+03  0.12284394024E+03  0.00000000000E+00 0.  1.
         22    1    3    3    0    0  0.40482848567E+02 -0.89822498658E+02 -0.30121883185E+03  0.31692227274E+03  0.00000000000E+00 0.  1.
</event>
<event>
 7    1  0.5194496E-006  0.9722128E+02  0.7818608E-02  0.1359562E+00
          2   -1    0    0  502    0  0.00000000000E+00  0.00000000000E+00  0.79772098614E+02  0.79772098614E+02  0.00000000000E+00 0. -1.
          1   -1    0    0  501    0 -0.00000000000E+00 -0.00000000000E+00 -0.85361562738E+03  0.85361562738E+03  0.00000000000E+00 0. -1.
         25    2    1    2    0    0  0.13649565301E+03 -0.27169019531E+02 -0.19480003303E+03  0.27008021457E+03  0.12500820183E+03 0.  0.
          2    1    1    2  501    0 -0.49297753847E+02  0.11520469602E+02 -0.57221896851E+03  0.57445412148E+03  0.00000000000E+00 0. -1.
          1    1    1    2  502    0 -0.87197899159E+02  0.15648549929E+02 -0.68245272256E+01  0.88853389944E+02  0.00000000000E+00 0. -1.
         22    1    3    3    0    0  0.14591391511E+03 -0.55858411950E+01 -0.19831149246E+03  0.24627123317E+03  0.00000000000E+00 0.  1.
         22    1    3    3    0    0 -0.94182621021E+01 -0.21583178336E+02  0.35114594361E+01  0.23808981403E+02  0.00000000000E+00 0.  1.
</event>
<event>
 7    1  0.5194496E-006  0.1117917E+03  0.7818608E-02  0.1348000E+00
          2   -1    0    0  502    0  0.00000000000E+00  0.00000000000E+00  0.85124326985E+03  0.85124326985E+03  0.00000000000E+00 0. -1.
          1   -1    0    0  501    0 -0.00000000000E+00 -0.00000000000E+00 -0.14682760786E+04  0.14682760786E+04  0.00000000000E+00 0. -1.
         25    2    1    2    0    0  0.57158178701E+02 -0.35198489592E+02  0.13689466685E+03  0.19715808400E+03  0.12500067685E+03 0.  0.
          2    1    1    2  501    0 -0.81877953103E+02  0.77000947827E+02 -0.14350824320E+04  0.14394772425E+04  0.00000000000E+00 0. -1.
          1    1    1    2  502    0  0.24719774402E+02 -0.41802458235E+02  0.68115495640E+03  0.68288402191E+03  0.00000000000E+00 0. -1.
         22    1    3    3    0    0 -0.23896177396E+02  0.26070616874E+02  0.60341236020E+02  0.69941183309E+02  0.00000000000E+00 0. -1.
         22    1    3    3    0    0  0.81054356097E+02 -0.61269106467E+02  0.76553430827E+02  0.12721690069E+03  0.00000000000E+00 0. -1.
</event>
<event>
 7    1  0.5194496E-006  0.3895686E+02  0.7818608E-02  0.1602643E+00
          2   -1    0    0  502    0  0.00000000000E+00  0.00000000000E+00  0.27743380646E+04  0.27743380646E+04  0.00000000000E+00 0. -1.
          1   -1    0    0  501    0 -0.00000000000E+00 -0.00000000000E+00 -0.15990191389E+02  0.15990191389E+02  0.00000000000E+00 0. -1.
         25    2    1    2    0    0 -0.35151305142E+02 -0.49595186851E+02  0.11888149887E+04  0.11969131673E+04  0.12499902376E+03 0.  0.
          2    1    1    2  501    0  0.20962583551E+02  0.32160821904E+02  0.19206871475E+02  0.42926125920E+02  0.00000000000E+00 0. -1.
          1    1    1    2  502    0  0.14188721591E+02  0.17434364946E+02  0.15503260130E+04  0.15504889627E+04  0.00000000000E+00 0. -1.
         22    1    3    3    0    0  0.98282953461E+01 -0.72607090964E+01  0.95495899454E+03  0.95503716919E+03  0.00000000000E+00 0.  1.
         22    1    3    3    0    0 -0.44979600488E+02 -0.42334477754E+02  0.23385599414E+03  0.24187599811E+03  0.00000000000E+00 0.  1.
</event>
<event>
 7    1  0.5194496E-006  0.8147084E+02  0.7818608E-02  0.1373571E+00
          2   -1    0    0  502    0  0.00000000000E+00  0.00000000000E+00  0.94114682988E+03  0.94114682988E+03  0.00000000000E+00 0. -1.
          1   -1    0    0  501    0 -0.00000000000E+00 -0.00000000000E+00 -0.42350136821E+03  0.42350136821E+03  0.00000000000E+00 0. -1.
         25    2    1    2    0    0  0.67498900388E+01 -0.74261859710E+02 -0.33647538988E+02  0.14939187194E+03  0.12500155878E+03 0.  0.
          2    1    1    2  501    0 -0.53332519016E+02  0.68157059811E+01 -0.32788571859E+03  0.33226473766E+03  0.00000000000E+00 0. -1.
          1    1    1    2  502    0  0.46582628977E+02  0.67446153729E+02  0.87917871925E+03  0.88299158850E+03  0.00000000000E+00 0. -1.
         22    1    3    3    0    0 -0.86714835714E+01 -0.10457078723E+03 -0.44092467715E+02  0.11381735315E+03  0.00000000000E+00 0.  1.
         22    1    3    3    0    0  0.15421373610E+02  0.30308927515E+02  0.10444928727E+02  0.35574518792E+02  0.00000000000E+00 0.  1.
</event>
<event>
 7    1  0.5194496E-006  0.6353733E+02  0.7818608E-02  0.1533968E+00
          2   -1    0    0  502    0  0.00000000000E+00  0.00000000000E+00  0.46842960518E+03  0.46842960518E+03  0.00000000000E+00 0. -1.
          1   -1    0    0  501    0 -0.00000000000E+00 -0.00000000000E+00 -0.10408886774E+03  0.10408886774E+03  0.00000000000E+00 0. -1.
         25    2    1    2    0    0 -0.32050727555E+02 -0.57039430625E+02  0.12794727954E+03  0.19046354647E+03  0.12500044165E+03 0.  0.
          2    1    1    2  501    0 -0.15396342677E+02  0.14578333010E+02 -0.67919473447E+02  0.71152161137E+02  0.00000000000E+00 0. -1.
          1    1    1    2  502    0  0.47447070232E+02  0.42461097614E+02  0.30431293135E+03  0.31090276530E+03  0.00000000000E+00 0. -1.
         22    1    3    3    0    0  0.36288349670E+02  0.91383936549E+01  0.96206073386E+01  0.38638201898E+02  0.00000000000E+00 0. -1.
         22    1    3    3    0    0 -0.68339077224E+02 -0.66177824280E+02  0.11832667220E+03  0.15182534457E+03  0.00000000000E+00 0. -1.
</event>
<event>
 7    1  0.5194496E-006  0.9111170E+02  0.7818608E-02  0.1365302E+00
          2   -1    0    0  502    0  0.00000000000E+00  0.00000000000E+00  0.28648022234E+03  0.28648022234E+03  0.00000000000E+00 0. -1.
          1   -1    0    0  501    0 -0.00000000000E+00 -0.00000000000E+00 -0.13297591433E+04  0.13297591433E+04  0.00000000000E+00 0. -1.
         25    2    1    2    0    0 -0.13595953025E+03 -0.18087922295E+01  0.76244570593E+01  0.18485111718E+03  0.12499415019E+03 0.  0.
          2    1    1    2  501    0  0.88020042583E+02  0.20586256863E+02 -0.12359812956E+04  0.12392824880E+04  0.00000000000E+00 0. -1.
          1    1    1    2  502    0  0.47939487671E+02 -0.18777464633E+02  0.18507791757E+03  0.19210576053E+03  0.00000000000E+00 0. -1.
         22    1    3    3    0    0 -0.71053400166E+02  0.26105875030E+02 -0.52463769123E+02  0.92100757092E+02  0.00000000000E+00 0. -1.
         22    1    3    3    0    0 -0.64906130087E+02 -0.27914667259E+02  0.60088226183E+02  0.92750360090E+02  0.00000000000E+00 0. -1.
</event>
<event>
 7    1  0.5194496E-006  0.9544742E+02  0.7818608E-02  0.1357729E+00
          2   -1    0    0  502    0  0.00000000000E+00  0.00000000000E+00  0.12118020345E+04  0.12118020345E+04  0.00000000000E+00 0. -1.
          1   -1    0    0  501    0 -0.00000000000E+00 -0.00000000000E+00 -0.32957485960E+04  0.32957485960E+04  0.00000000000E+00 0. -1.
         25    2    1    2    0    0 -0.25873620165E+02  0.58181512022E+02  0.17853551393E+03  0.22705624485E+03  0.12500030413E+03 0.  0.
          2    1    1    2  501    0 -0.52272713939E+02  0.31728344899E+01 -0.32688322147E+04  0.32692516807E+04  0.00000000000E+00 0. -1.
          1    1    1    2  502    0  0.78146334104E+02 -0.61354346512E+02  0.10063501394E+04  0.10112427050E+04  0.00000000000E+00 0. -1.
         22    1    3    3    0    0 -0.73610746896E+02  0.38147245274E+02  0.13926826096E+03  0.16207838502E+03  0.00000000000E+00 0. -1.
         22    1    3    3    0    0  0.47737126731E+02  0.20034266748E+02  0.39267252968E+02  0.64977859832E+02  0.00000000000E+00 0. -1.
</event>
<event>
 7    1  0.5194496E-006  0.4995776E+02  0.7818608E-02  0.1472359E+00
          2   -1    0    0  502    0  0.00000000000E+00  0.00000000000E+00  0.57410123335E+03  0.57410123335E+03  0.00000000000E+00 0. -1.
          1   -1    0    0  501    0 -0.00000000000E+00 -0.00000000000E+00 -0.73537542675E+03  0.73537542675E+03  0.00000000000E+00 0. -1.
         25    2    1    2    0    0 -0.52603001075E+02  0.70881999579E+02  0.25502860633E+03  0.29741372822E+03  0.12499600833E+03 0.  0.
          2    1    1    2  501    0  0.37749667441E+02 -0.32547657078E+02 -0.71188883115E+03  0.71363162436E+03  0.00000000000E+00 0. -1.
          1    1    1    2  502    0  0.14853333634E+02 -0.38334342500E+02  0.29558603142E+03  0.29843130752E+03  0.00000000000E+00 0. -1.
         22    1    3    3    0    0  0.18478138194E+00  0.81302850949E+02  0.21642221195E+03  0.23118988201E+03  0.00000000000E+00 0.  1.
         22    1    3    3    0    0 -0.52787782457E+02 -0.10420851370E+02  0.38606394381E+02  0.66223846212E+02  0.00000000000E+00 0.  1.
</event>
<event>
 7    1  0.5194496E-006  0.1000810E+03  0.7818608E-02  0.1377527E+00
          2   -1    0    0  502    0  0.00000000000E+00  0.00000000000E+00  0.19640702228E+03  0.19640702228E+03  0.00000000000E+00 0. -1.
          1   -1    0    0  501    0 -0.00000000000E+00 -0.00000000000E+00 -0.18338277629E+04  0.18338277629E+04  0.00000000000E+00 0. -1.
         25    2    1    2    0    0  0.13040448912E+03  0.29366614610E+01 -0.84243432326E+02  0.19933865663E+03  0.12499995750E+03 0.  0.
          2    1    1    2  501    0 -0.95633699551E+02 -0.27147844658E+02 -0.16873072581E+04  0.16902332954E+04  0.00000000000E+00 0. -1.
          1    1    1    2  502    0 -0.34770789572E+02  0.24211183197E+02  0.13412994975E+03  0.14066283311E+03  0.00000000000E+00 0. -1.
         22    1    3    3    0    0  0.39353490234E+02  0.89861212527E-02  0.32653763155E+02  0.51136733593E+02  0.00000000000E+00 0. -1.
         22    1    3    3    0    0  0.91050998888E+02  0.29276753398E+01 -0.11689719548E+03  0.14820192304E+03  0.00000000000E+00 0. -1.
</event>
<event>
 7    1  0.5194496E-006  0.6296001E+02  0.7818608E-02  0.1525011E+00
          2   -1    0    0  502    0  0.00000000000E+00  0.00000000000E+00  0.33275838934E+03  0.33275838934E+03  0.00000000000E+00 0. -1.
          1   -1    0    0  501    0 -0.00000000000E+00 -0.00000000000E+00 -0.51720808481E+03  0.51720808481E+03  0.00000000000E+00 0. -1.
         25    2    1    2    0    0  0.30436323113E+02  0.35785193752E+02 -0.10130442331E+03  0.16761219763E+03  0.12499725100E+03 0.  0.
          2    1    1    2  501    0 -0.53129330246E+02 -0.36385384324E+02 -0.37960432024E+03  0.38502735210E+03  0.00000000000E+00 0. -1.
          1    1    1    2  502    0  0.22693007133E+02  0.60019057242E+00  0.29645904807E+03  0.29732692442E+03  0.00000000000E+00 0. -1.
         22    1    3    3    0    0  0.53099696970E+02  0.72643864934E+02 -0.63223090502E+02  0.10997212421E+03  0.00000000000E+00 0. -1.
         22    1    3    3    0    0 -0.22663373857E+02 -0.36858671182E+02 -0.38081332805E+02  0.57640073422E+02  0.00000000000E+00 0. -1.
</event>
<event>
 7    1  0.5194496E-006  0.1400646E+03  0.7818608E-02  0.1256563E+00
          2   -1    0    0  502    0  0.00000000000E+00  0.00000000000E+00  0.33931190290E+04  0.33931190290E+04  0.00000000000E+00 0. -1.
          1   -1    0    0  501    0 -0.00000000000E+00 -0.00000000000E+00 -0.56852270974E+02  0.56852270974E+02  0.00000000000E+00 0. -1.
         25    2    1    2    0    0  0.56518982406E+02  0.38046795499E+02  0.24329450975E+03  0.28188521853E+03  0.12500041573E+03 0.  0.
          2    1    1    2  501    0  0.20162270858E+02  0.87575312031E+02  0.20608254657E+02  0.92198983744E+02  0.00000000000E+00 0. -1.
          1    1    1    2  502    0 -0.76681253264E+02 -0.12562210753E+03  0.30723639936E+04  0.30758870977E+04  0.00000000000E+00 0. -1.
         22    1    3    3    0    0  0.47522965676E+02 -0.19944296772E+02  0.20600786226E+03  0.21235688488E+03  0.00000000000E+00 0. -1.
         22    1    3    3    0    0  0.89960167301E+01  0.57991092271E+02  0.37286647483E+02  0.69528333651E+02  0.00000000000E+00 0. -1.
</event>
<event>
 7    1  0.5194496E-006  0.1128730E+03  0.7818608E-02  0.1310250E+00
          2   -1    0    0  502    0  0.00000000000E+00  0.00000000000E+00  0.11478940224E+04  0.11478940224E+04  0.00000000000E+00 0. -1.
          1   -1    0    0  501    0 -0.00000000000E+00 -0.00000000000E+00 -0.22039360933E+04  0.22039360933E+04  0.00000000000E+00 0. -1.
         25    2    1    2    0    0  0.65378246346E+02 -0.77046168724E+02  0.61053134508E+02  0.17193969475E+03  0.12500138474E+03 0.  0.
          2    1    1    2  501    0 -0.87070280345E+01  0.11293310872E+03 -0.21459069685E+04  0.21488942312E+04  0.00000000000E+00 0. -1.
          1    1    1    2  502    0 -0.56671218311E+02 -0.35886939991E+02  0.10288117631E+04  0.10309961898E+04  0.00000000000E+00 0. -1.
         22    1    3    3    0    0 -0.11081602854E+02 -0.63864708815E+01 -0.30643431753E+02  0.33205554381E+02  0.00000000000E+00 0. -1.
         22    1    3    3    0    0  0.76459849200E+02 -0.70659697843E+02  0.91696566261E+02  0.13873414037E+03  0.00000000000E+00 0. -1.
</event>
<event>
 7    1  0.5194496E-006  0.1293110E+03  0.7818608E-02  0.1434461E+00
          2   -1    0    0  502    0  0.00000000000E+00  0.00000000000E+00  0.55902533887E+02  0.55902533887E+02  0.00000000000E+00 0. -1.
          1   -1    0    0  501    0 -0.00000000000E+00 -0.00000000000E+00 -0.19750581566E+04  0.19750581566E+04  0.00000000000E+00 0. -1.
         25    2    1    2    0    0  0.97647172410E+02  0.62006672726E+02 -0.15592037625E+03  0.23090447861E+03  0.12500366703E+03 0.  0.
          2    1    1    2  501    0 -0.10054134990E+03 -0.82777045071E+02 -0.17723941527E+04  0.17771723706E+04  0.00000000000E+00 0. -1.
          1    1    1    2  502    0  0.28941774912E+01  0.20770372345E+02  0.91589062095E+01  0.22883841322E+02  0.00000000000E+00 0. -1.
         22    1    3    3    0    0  0.32290459308E+01  0.26432524114E+02 -0.12136763551E+03  0.12425460965E+03  0.00000000000E+00 0. -1.
         22    1    3    3    0    0  0.94418126480E+02  0.35574148612E+02 -0.34552740735E+02  0.10664986896E+03  0.00000000000E+00 0. -1.
</event>
<event>
 7    1  0.5194496E-006  0.3175483E+03  0.7818608E-02  0.1250327E+00
          2   -1    0    0  502    0  0.00000000000E+00  0.00000000000E+00  0.38771992070E+04  0.38771992070E+04  0.00000000000E+00 0. -1.
          1   -1    0    0  501    0 -0.00000000000E+00 -0.00000000000E+00 -0.19997831584E+03  0.19997831584E+03  0.00000000000E+00 0. -1.
         25    2    1    2    0    0  0.29681071445E+03  0.16885724551E+03  0.15760026985E+04  0.16174111124E+04  0.12499932465E+03 0.  0.
          2    1    1    2  501    0 -0.28871622570E+03 -0.12747019446E+03 -0.40004025034E+02  0.31812895416E+03  0.00000000000E+00 0. -1.
          1    1    1    2  502    0 -0.80944887568E+01 -0.41387051053E+02  0.21412222176E+04  0.21416374563E+04  0.00000000000E+00 0. -1.
         22    1    3    3    0    0  0.28985778974E+03  0.12857506570E+03  0.14697317752E+04  0.15035493264E+04  0.00000000000E+00 0.  1.
         22    1    3    3    0    0  0.69529247103E+01  0.40282179813E+02  0.10627092332E+03  0.11386178602E+03  0.00000000000E+00 0.  1.
</event>
<event>
 7    1  0.5194496E-006  0.8341000E+02  0.7818608E-02  0.1455109E+00
          2   -1    0    0  502    0  0.00000000000E+00  0.00000000000E+00  0.24624328289E+04  0.24624328289E+04  0.00000000000E+00 0. -1.
          1   -1    0    0  501    0 -0.00000000000E+00 -0.00000000000E+00 -0.16031744559E+02  0.16031744559E+02  0.00000000000E+00 0. -1.
         25    2    1    2    0    0  0.10478926270E+03 -0.25319922216E+02  0.61026113508E+03  0.63219113498E+03  0.12500036044E+03 0.  0.
          2    1    1    2  501    0 -0.27862856809E+02 -0.12747241920E+01  0.42793150484E+02  0.51080499603E+02  0.00000000000E+00 0. -1.
          1    1    1    2  502    0 -0.76926405886E+02  0.26594646408E+02  0.17933467988E+04  0.17951929389E+04  0.00000000000E+00 0. -1.
         22    1    3    3    0    0 -0.74380886431E+01  0.20400575043E+02  0.27222757397E+03  0.27309222005E+03  0.00000000000E+00 0.  1.
         22    1    3    3    0    0  0.11222735134E+03 -0.45720497259E+02  0.33803356112E+03  0.35909891492E+03  0.00000000000E+00 0.  1.
</event>
<event>
 7    1  0.5194496E-006  0.7390487E+02  0.7818608E-02  0.1452743E+00
          2   -1    0    0  502    0  0.00000000000E+00  0.00000000000E+00  0.28426589937E+04  0.28426589937E+04  0.00000000000E+00 0. -1.
          1   -1    0    0  501    0 -0.00000000000E+00 -0.00000000000E+00 -0.35767609400E+02  0.35767609400E+02  0.00000000000E+00 0. -1.
         25    2    1    2    0    0 -0.60653059573E+02 -0.70713701776E+02  0.16934888061E+04  0.17006493530E+04  0.12499865663E+03 0.  0.
          2    1    1    2  501    0  0.28768320517E+02  0.67668832366E+02  0.10344527521E+02  0.74254268489E+02  0.00000000000E+00 0. -1.
          1    1    1    2  502    0  0.31884739056E+02  0.30448694096E+01  0.11030580506E+04  0.11035229816E+04  0.00000000000E+00 0. -1.
         22    1    3    3    0    0  0.13850051338E+02 -0.77883363914E+02  0.10034154089E+04  0.10065287503E+04  0.00000000000E+00 0. -1.
         22    1    3    3    0    0 -0.74503110911E+02  0.71696621386E+01  0.69007339724E+03  0.69412060276E+03  0.00000000000E+00 0. -1.
</event>
<event>
 7    1  0.5194496E-006  0.4281400E+02  0.7818608E-02  0.1501531E+00
          2   -1    0    0  502    0  0.00000000000E+00  0.00000000000E+00  0.34551555724E+02  0.34551555724E+02  0.00000000000E+00 0. -1.
          1   -1    0    0  501    0 -0.00000000000E+00 -0.00000000000E+00 -0.83115733383E+03  0.83115733383E+03  0.00000000000E+00 0. -1.
         25    2    1    2    0    0  0.66529363420E+01  0.13566530465E+02 -0.26283058109E+03  0.29143320571E+03  0.12500034689E+03 0.  0.
          2    1    1    2  501    0  0.38742513268E+02 -0.53811852863E+01 -0.52605431626E+03  0.52750647688E+03  0.00000000000E+00 0. -1.
          1    1    1    2  502    0 -0.45395449610E+02 -0.81853451791E+01 -0.77208807589E+01  0.46769206971E+02  0.00000000000E+00 0. -1.
         22    1    3    3    0    0 -0.46862021940E+02  0.39055016344E+02 -0.90046379350E+02  0.10876439599E+03  0.00000000000E+00 0.  1.
         22    1    3    3    0    0  0.53514958282E+02 -0.25488485878E+02 -0.17278420174E+03  0.18266880972E+03  0.00000000000E+00 0.  1.
</event>
<event>
 7    1  0.5194496E-006  0.1654977E+03  0.7818608E-02  0.1267554E+00
          2   -1    0    0  502    0  0.00000000000E+00  0.00000000000E+00  0.25640331428E+04  0.25640331428E+04  0.00000000000E+00 0. -1.
          1   -1    0    0  501    0 -0.00000000000E+00 -0.00000000000E+00 -0.20114182493E+04  0.20114182493E+04  0.00000000000E+00 0. -1.
         25    2    1    2    0    0 -0.42919546183E+02  0.15459247513E+03  0.97005001600E+03  0.99114235154E+03  0.12500082659E+03 0.  0.
          2    1    1    2  501    0 -0.24763919602E+02 -0.16370167245E+03 -0.19967079009E+04  0.20035603137E+04  0.00000000000E+00 0. -1.
          1    1    1    2  502    0  0.67683465785E+02  0.91091973241E+01  0.15792727784E+04  0.15807487269E+04  0.00000000000E+00 0. -1.
         22    1    3    3    0    0 -0.53395702433E+02  0.25732040402E+02  0.15583106014E+03  0.16672299855E+03  0.00000000000E+00 0. -1.
         22    1    3    3    0    0  0.10476156250E+02  0.12886043473E+03  0.81421895587E+03  0.82441935299E+03  0.00000000000E+00 0. -1.
</event>
<event>
 7    1  0.5194496E-006  0.6692952E+02  0.7818608E-02  0.1510440E+00
          2   -1    0    0  502    0  0.00000000000E+00  0.00000000000E+00  0.13868893710E+04  0.13868893710E+04  0.00000000000E+00 0. -1.
          1   -1    0    0  501    0 -0.00000000000E+00 -0.00000000000E+00 -0.11519258698E+03  0.11519258698E+03  0.00000000000E+00 0. -1.
         25    2    1    2    0    0  0.11699967743E+02 -0.86509373756E+02  0.31640179226E+03  0.35122340678E+03  0.12500810508E+03 0.  0.
          2    1    1    2  501    0  0.33463717611E+00  0.66269981113E+02 -0.86404798215E+02  0.10889266060E+03  0.00000000000E+00 0. -1.
          1    1    1    2  502    0 -0.12034604919E+02  0.20239392643E+02  0.10416997899E+04  0.10419658906E+04  0.00000000000E+00 0. -1.
         22    1    3    3    0    0  0.55394606056E+02 -0.78289841833E+01  0.74828869745E+02  0.93430268760E+02  0.00000000000E+00 0.  1.
         22    1    3    3    0    0 -0.43694638313E+02 -0.78680389573E+02  0.24157292251E+03  0.25779313802E+03  0.00000000000E+00 0.  1.
</event>
<event>
 7    1  0.5194496E-006  0.7856728E+02  0.7818608E-02  0.1375815E+00
          2   -1    0    0  502    0  0.00000000000E+00  0.00000000000E+00  0.12712779449E+03  0.12712779449E+03  0.00000000000E+00 0. -1.
          1   -1    0    0  501    0 -0.00000000000E+00 -0.00000000000E+00 -0.23828127045E+04  0.23828127045E+04  0.00000000000E+00 0. -1.
         25    2    1    2    0    0  0.67527658147E+02  0.11019441955E+03 -0.83622399236E+02  0.19829381358E+03  0.12499974454E+03 0.  0.
          2    1    1    2  501    0 -0.27328609810E+02 -0.73047782042E+02 -0.22303358483E+04  0.22316990899E+04  0.00000000000E+00 0. -1.
          1    1    1    2  502    0 -0.40199048337E+02 -0.37146637505E+02  0.58273337544E+02  0.79947595546E+02  0.00000000000E+00 0. -1.
         22    1    3    3    0    0  0.87576804439E+02  0.40158572944E+02 -0.80211989958E+02  0.12536495120E+03  0.00000000000E+00 0.  1.
         22    1    3    3    0    0 -0.20049146292E+02  0.70035846604E+02 -0.34104092781E+01  0.72928862380E+02  0.00000000000E+00 0.  1.
</event>
<event>
 7    1  0.5194496E-006  0.6183223E+02  0.7818608E-02  0.1426076E+00
          2   -1    0    0  502    0  0.00000000000E+00  0.00000000000E+00  0.21961417966E+04  0.21961417966E+04  0.00000000000E+00 0. -1.
          1   -1    0    0  501    0 -0.00000000000E+00 -0.00000000000E+00 -0.87115677866E+03  0.87115677866E+03  0.00000000000E+00 0. -1.
         25    2    1    2    0    0 -0.22327053833E+02 -0.90771598007E+01  0.69536224287E+03  0.70691915326E+03  0.12500059314E+03 0.  0.
          2    1    1    2  501    0 -0.22029133973E+02 -0.41216800657E+02 -0.86399448929E+03  0.86525752520E+03  0.00000000000E+00 0. -1.
          1    1    1    2  502    0  0.44356187806E+02  0.50293960457E+02  0.14936172644E+04  0.14951218968E+04  0.00000000000E+00 0. -1.
         22    1    3    3    0    0 -0.59695421424E+02  0.25774201724E+02  0.52636324210E+03  0.53036413477E+03  0.00000000000E+00 0. -1.
         22    1    3    3    0    0  0.37368367592E+02 -0.34851361524E+02  0.16899900077E+03  0.17655501850E+03  0.00000000000E+00 0. -1.
</event>
<event>
 7    1  0.5194496E-006  0.6913440E+02  0.7818608E-02  0.1410989E+00
          2   -1    0    0  502    0  0.00000000000E+00  0.00000000000E+00  0.24369518153E+04  0.24369518153E+04  0.00000000000E+00 0. -1.
          1   -1    0    0  501    0 -0.00000000000E+00 -0.00000000000E+00 -0.16613001174E+04  0.16613001174E+04  0.00000000000E+00 0. -1.
         25    2    1    2    0    0  0.82704312354E+02  0.21321424701E+02 -0.70168609519E+02  0.16686386923E+03  0.12500124263E+03 0.  0.
          2    1    1    2  501    0 -0.36237692699E+02  0.29855411461E+02 -0.15419263518E+04  0.15426410439E+04  0.00000000000E+00 0. -1.
          1    1    1    2  502    0 -0.46466619655E+02 -0.51176836162E+02  0.23877466592E+04  0.23887470196E+04  0.00000000000E+00 0. -1.
         22    1    3    3    0    0  0.58197791253E+02  0.56558652755E+02  0.39118845070E+01  0.81247565801E+02  0.00000000000E+00 0.  1.
         22    1    3    3    0    0  0.24506521101E+02 -0.35237228055E+02 -0.74080494026E+02  0.85616303427E+02  0.00000000000E+00 0.  1.
</event>
<event>
 7    1  0.5194496E-006  0.5317673E+02  0.7818608E-02  0.1531293E+00
          2   -1    0    0  502    0  0.00000000000E+00  0.00000000000E+00  0.16722040709E+04  0.16722040709E+04  0.00000000000E+00 0. -1.
          1   -1    0    0  501    0 -0.00000000000E+00 -0.00000000000E+00 -0.37299191218E+02  0.37299191218E+02  0.00000000000E+00 0. -1.
         25    2    1    2    0    0 -0.30436079571E+02  0.69844485271E+02  0.71206234387E+03  0.72695442058E+03  0.12500136389E+03 0.  0.
          2    1    1    2  501    0  0.13032326739E+02 -0.50820635071E+02 -0.64844677207E+01  0.52864229975E+02  0.00000000000E+00 0. -1.
          1    1    1    2  502    0  0.17403752832E+02 -0.19023850200E+02  0.92932700355E+03  0.92968461158E+03  0.00000000000E+00 0. -1.
         22    1    3    3    0    0  0.30794033022E+02  0.64070748962E+02  0.53088156197E+03  0.53561979630E+03  0.00000000000E+00 0.  1.
         22    1    3    3    0    0 -0.61230112592E+02  0.57737363092E+01  0.18118078190E+03  0.19133462428E+03  0.00000000000E+00 0.  1.
</event>
<event>
 7    1  0.5194496E-006  0.4621239E+02  0.7818608E-02  0.1479227E+00
          2   -1    0    0  502    0  0.00000000000E+00  0.00000000000E+00  0.12209615966E+04  0.12209615966E+04  0.00000000000E+00 0. -1.
          1   -1    0    0  501    0 -0.00000000000E+00 -0.00000000000E+00 -0.23172806117E+03  0.23172806117E+03  0.00000000000E+00 0. -1.
         25    2    1    2    0    0  0.69963762173E+02 -0.55901397347E+01  0.28143274890E+03  0.31584063328E+03  0.12499894319E+03 0.  0.
          2    1    1    2  501    0 -0.30665820584E+02  0.29174253438E+02 -0.21186010041E+03  0.21604682771E+03  0.00000000000E+00 0. -1.
          1    1    1    2  502    0 -0.39297941589E+02 -0.23584113703E+02  0.91966088697E+03  0.92080219682E+03  0.00000000000E+00 0. -1.
         22    1    3    3    0    0 -0.10203357744E+02 -0.47774397413E+02  0.13593608994E+03  0.14444764486E+03  0.00000000000E+00 0. -1.
         22    1    3    3    0    0  0.80167119918E+02  0.42184257678E+02  0.14549665896E+03  0.17139298842E+03  0.00000000000E+00 0. -1.
</event>
<event>
 7    1  0.5194496E-006  0.8545971E+02  0.7818608E-02  0.1330090E+00
          2   -1    0    0  502    0  0.00000000000E+00  0.00000000000E+00  0.20604408759E+04  0.20604408759E+04  0.00000000000E+00 0. -1.
          1   -1    0    0  501    0 -0.00000000000E+00 -0.00000000000E+00 -0.59816478224E+02  0.59816478224E+02  0.00000000000E+00 0. -1.
         25    2    1    2    0    0 -0.98202690423E+02 -0.44375694812E+02  0.71101206366E+03  0.72991504859E+03  0.12499941116E+03 0.  0.
          2    1    1    2  501    0  0.32704483048E+02  0.79257162901E+02 -0.12036094176E+02  0.86580301718E+02  0.00000000000E+00 0. -1.
          1    1    1    2  502    0  0.65498207375E+02 -0.34881468088E+02  0.13016484282E+04  0.13037620038E+04  0.00000000000E+00 0. -1.
         22    1    3    3    0    0 -0.14925502241E+02  0.32759672393E+02  0.34068557759E+03  0.34258229599E+03  0.00000000000E+00 0.  1.
         22    1    3    3    0    0 -0.83277188183E+02 -0.77135367205E+02  0.37032648607E+03  0.38733275259E+03  0.00000000000E+00 0.  1.
</event>
<event>
 7    1  0.5194496E-006  0.9631670E+02  0.7818608E-02  0.1383007E+00
          2   -1    0    0  502    0  0.00000000000E+00  0.00000000000E+00  0.12833457576E+04  0.12833457576E+04  0.00000000000E+00 0. -1.
          1   -1    0    0  501    0 -0.00000000000E+00 -0.00000000000E+00 -0.49047806105E+03  0.49047806105E+03  0.00000000000E+00 0. -1.
         25    2    1    2    0    0  0.11860947950E+03  0.74734203519E+01  0.66254004300E+03  0.68462265920E+03  0.12499926508E+03 0.  0.
          2    1    1    2  501    0 -0.30573582235E+02 -0.28945587900E+02 -0.47513413298E+03  0.47699584412E+03  0.00000000000E+00 0. -1.
          1    1    1    2  502    0 -0.88035897262E+02  0.21472167548E+02  0.60546178649E+03  0.61220531530E+03  0.00000000000E+00 0. -1.
         22    1    3    3    0    0  0.13176562003E+03 -0.24391224811E+02  0.45813390611E+03  0.47732985073E+03  0.00000000000E+00 0. -1.
         22    1    3    3    0    0 -0.13156140531E+02  0.31864645163E+02  0.20440613689E+03  0.20729280847E+03  0.00000000000E+00 0. -1.
</event>
<event>
 7    1  0.5194496E-006  0.6175159E+02  0.7818608E-02  0.1423914E+00
          2   -1    0    0  502    0  0.00000000000E+00  0.00000000000E+00  0.28930697040E+03  0.28930697040E+03  0.00000000000E+00 0. -1.
          1   -1    0    0  501    0 -0.00000000000E+00 -0.00000000000E+00 -0.25222272458E+04  0.25222272458E+04  0.00000000000E+00 0. -1.
         25    2    1    2    0    0 -0.96759728133E+02 -0.42330665827E+02 -0.20400139153E+03  0.26152990269E+03  0.12500796773E+03 0.  0.
          2    1    1    2  501    0  0.36900543063E+02  0.30027721166E+02 -0.22856272877E+04  0.22861223529E+04  0.00000000000E+00 0. -1.
          1    1    1    2  502    0  0.59859185070E+02  0.12302944661E+02  0.25670840389E+03  0.26388196056E+03  0.00000000000E+00 0. -1.
         22    1    3    3    0    0 -0.12046847564E+03 -0.56324155447E+02 -0.18594737696E+03  0.22860772320E+03  0.00000000000E+00 0. -1.
         22    1    3    3    0    0  0.23708747508E+02  0.13993489619E+02 -0.18054014576E+02  0.32922179491E+02  0.00000000000E+00 0. -1.
</event>
<event>
 7    1  0.5194496E-006  0.5263556E+02  0.7818608E-02  0.1464980E+00
          2   -1    0    0  502    0  0.00000000000E+00  0.00000000000E+00  0.37243788281E+03  0.37243788281E+03  0.00000000000E+00 0. -1.
          1   -1    0    0  501    0 -0.00000000000E+00 -0.00000000000E+00 -0.10964297889E+04  0.10964297889E+04  0.00000000000E+00 0. -1.
         25    2    1    2    0    0  0.89193517834E+02 -0.11521817441E+02 -0.11305165220E+03  0.19103756104E+03  0.12500575091E+03 0.  0.
          2    1    1    2  501    0 -0.37342933536E+02  0.17266691922E+02 -0.94189294922E+03  0.94279104849E+03  0.00000000000E+00 0. -1.
          1    1    1    2  502    0 -0.51850584299E+02 -0.57448744810E+01  0.33095269530E+03  0.33503906221E+03  0.00000000000E+00 0. -1.
         22    1    3    3    0    0 -0.16595329305E+02 -0.28706167648E+02  0.27245129499E+01  0.33269685701E+02  0.00000000000E+00 0. -1.
         22    1    3    3    0    0  0.10578884714E+03  0.17184350207E+02 -0.11577616515E+03  0.15776787534E+03  0.00000000000E+00 0. -1.
</event>
<event>
 7    1  0.5194496E-006  0.8201389E+02  0.7818608E-02  0.1360977E+00
          2   -1    0    0  502    0  0.00000000000E+00  0.00000000000E+00  0.85697619769E+03  0.85697619769E+03  0.00000000000E+00 0. -1.
          1   -1    0    0  501    0 -0.00000000000E+00 -0.00000000000E+00 -0.36246385218E+03  0.36246385218E+03  0.00000000000E+00 0. -1.
         25    2    1    2    0    0 -0.45730647336E+02  0.39317380922E+02  0.21042513136E+03  0.25207225392E+03  0.12499814694E+03 0.  0.
          2    1    1    2  501    0  0.35576600586E+02  0.47447706714E+02 -0.33598174890E+03  0.34117549000E+03  0.00000000000E+00 0. -1.
          1    1    1    2  502    0  0.10154046751E+02 -0.86765087636E+02  0.62006896305E+03  0.62619230595E+03  0.00000000000E+00 0. -1.
         22    1    3    3    0    0 -0.39191708067E+02 -0.35888152472E+02  0.42800673662E+02  0.68233768289E+02  0.00000000000E+00 0. -1.
         22    1    3    3    0    0 -0.65389392698E+01  0.75205533395E+02  0.16762445770E+03  0.18383848563E+03  0.00000000000E+00 0. -1.
</event>
<event>
 7    1  0.5194496E-006  0.4409008E+02  0.7818608E-02  0.1484321E+00
          2   -1    0    0  502    0  0.00000000000E+00  0.00000000000E+00  0.30406046600E+03  0.30406046600E+03  0.00000000000E+00 0. -1.
          1   -1    0    0  501    0 -0.00000000000E+00 -0.00000000000E+00 -0.12517165430E+03  0.12517165430E+03  0.00000000000E+00 0. -1.
         25    2    1    2    0    0 -0.60554361418E+01  0.10172581484E+02  0.22409701832E+03  0.25687417917E+03  0.12499888233E+03 0.  0.
          2    1    1    2  501    0  0.43803238751E+02  0.10000177890E+02 -0.95966319275E+02  0.10596349238E+03  0.00000000000E+00 0. -1.
          1    1    1    2  502    0 -0.37747802609E+02 -0.20172759374E+02  0.50758112658E+02  0.66394448738E+02  0.00000000000E+00 0. -1.
         22    1    3    3    0    0  0.53044891891E+02  0.31580838707E+02  0.95154197057E+02  0.11342588394E+03  0.00000000000E+00 0. -1.
         22    1    3    3    0    0 -0.59100328032E+02 -0.21408257223E+02  0.12894282126E+03  0.14344829524E+03  0.00000000000E+00 0. -1.
</event>
<event>
 7    1  0.5194496E-006  0.1522010E+03  0.7818608E-02  0.1403623E+00
          2   -1    0    0  502    0  0.00000000000E+00  0.00000000000E+00  0.12127472155E+04  0.12127472155E+04  0.00000000000E+00 0. -1.
          1   -1    0    0  501    0 -0.00000000000E+00 -0.00000000000E+00 -0.43386763015E+03  0.43386763015E+03  0.00000000000E+00 0. -1.
         25    2    1    2    0    0  0.16500284904E+03  0.42421152276E+00  0.21287295435E+03  0.29692767799E+03  0.12500012446E+03 0.  0.
          2    1    1    2  501    0 -0.15057155191E+03  0.16960382331E+02 -0.37705142697E+03  0.40635849369E+03  0.00000000000E+00 0. -1.
          1    1    1    2  502    0 -0.14431297134E+02 -0.17384593853E+02  0.94305805802E+03  0.94332867403E+03  0.00000000000E+00 0. -1.
         22    1    3    3    0    0  0.89111407157E+02  0.47762045088E+02  0.16987260030E+03  0.19768347470E+03  0.00000000000E+00 0. -1.
         22    1    3    3    0    0  0.75891441885E+02 -0.47337833565E+02  0.43000354042E+02  0.99244203285E+02  0.00000000000E+00 0. -1.
</event>
<event>
 7    1  0.5194496E-006  0.1905637E+03  0.7818608E-02  0.1278839E+00
          2   -1    0    0  502    0  0.00000000000E+00  0.00000000000E+00  0.37709829969E+03  0.37709829969E+03  0.00000000000E+00 0. -1.
          1   -1    0    0  501    0 -0.00000000000E+00 -0.00000000000E+00 -0.83951951097E+03  0.83951951097E+03  0.00000000000E+00 0. -1.
         25    2    1    2    0    0 -0.85671971544E+02  0.11487803998E+03 -0.25434230159E+03  0.31757073334E+03  0.12499805406E+03 0.  0.
          2    1    1    2  501    0 -0.41826426408E+02  0.32889496926E+02 -0.52454574431E+03  0.52723752410E+03  0.00000000000E+00 0. -1.
          1    1    1    2  502    0  0.12749839795E+03 -0.14776753690E+03  0.31646683462E+03  0.37180955321E+03  0.00000000000E+00 0. -1.
         22    1    3    3    0    0 -0.64508786278E+02  0.14091370477E+03 -0.19170669490E+03  0.24651473094E+03  0.00000000000E+00 0. -1.
         22    1    3    3    0    0 -0.21163185266E+02 -0.26035664795E+02 -0.62635606693E+02  0.71056002405E+02  0.00000000000E+00 0. -1.
</event>
<event>
 7    1  0.6093020E-006  0.2069055E+03  0.7818608E-02  0.1228659E+00
          2   -1    0    0  502    0  0.00000000000E+00  0.00000000000E+00  0.79246990760E+03  0.79246990760E+03  0.00000000000E+00 0. -1.
          1   -1    0    0  501    0 -0.00000000000E+00 -0.00000000000E+00 -0.21191487398E+04  0.21191487398E+04  0.00000000000E+00 0. -1.
         25    2    1    2    0    0  0.64126889111E+02  0.13248610057E+03 -0.83512372226E+03  0.85715866308E+03  0.12499806981E+03 0.  0.
          2    1    1    2  501    0 -0.33736099274E+02  0.73274928034E+02 -0.12578526128E+04  0.12604366446E+04  0.00000000000E+00 0. -1.
          1    1    1    2  502    0 -0.30390789837E+02 -0.20576102860E+03  0.76629750291E+03  0.79402333969E+03  0.00000000000E+00 0. -1.
         22    1    3    3    0    0  0.11044959288E+02  0.11629137569E+03 -0.35243026033E+03  0.37128528597E+03  0.00000000000E+00 0.  1.
         22    1    3    3    0    0  0.53081929823E+02  0.16194724879E+02 -0.48269346193E+03  0.48587337710E+03  0.00000000000E+00 0.  1.
</event>
<event>
 7    1  0.5194496E-006  0.1058918E+03  0.7818608E-02  0.1290932E+00
          2   -1    0    0  502    0  0.00000000000E+00  0.00000000000E+00  0.31497910237E+04  0.31497910237E+04  0.00000000000E+00 0. -1.
          1   -1    0    0  501    0 -0.00000000000E+00 -0.00000000000E+00 -0.51335411614E+02  0.51335411614E+02  0.00000000000E+00 0. -1.
         25    2    1    2    0    0  0.24771349624E+02 -0.18364230254E+03  0.72145727023E+03  0.75529045113E+03  0.12499983103E+03 0.  0.
          2    1    1    2  501    0 -0.20817756783E+02  0.82847567960E+02  0.21378803531E+02  0.88057661534E+02  0.00000000000E+00 0. -1.
          1    1    1    2  502    0 -0.39535928403E+01  0.10079473458E+03  0.23556195384E+04  0.23577783227E+04  0.00000000000E+00 0. -1.
         22    1    3    3    0    0  0.87877921386E+01 -0.71260637081E+02  0.51237951763E+03  0.51738580747E+03  0.00000000000E+00 0. -1.
         22    1    3    3    0    0  0.15983557485E+02 -0.11238166546E+03  0.20907775260E+03  0.23790464366E+03  0.00000000000E+00 0. -1.
</event>
<event>
 7    1  0.5194496E-006  0.1049324E+03  0.7818608E-02  0.1393394E+00
          2   -1    0    0  502    0  0.00000000000E+00  0.00000000000E+00  0.94110365936E+03  0.94110365936E+03  0.00000000000E+00 0. -1.
          1   -1    0    0  501    0 -0.00000000000E+00 -0.00000000000E+00 -0.12827528027E+03  0.12827528027E+03  0.00000000000E+00 0. -1.
         25    2    1    2    0    0 -0.11815451902E+03 -0.51401692801E+02  0.25690918660E+02  0.18134554673E+03  0.12499423839E+03 0.  0.
          2    1    1    2  501    0  0.15971346680E+02  0.31752209798E+02 -0.40497644327E+02  0.53882705369E+02  0.00000000000E+00 0. -1.
          1    1    1    2  502    0  0.10218317234E+03  0.19649483003E+02  0.82763510475E+03  0.83415068753E+03  0.00000000000E+00 0. -1.
         22    1    3    3    0    0 -0.13215163886E+03 -0.63687242070E+01  0.16989480517E+02  0.13339137434E+03  0.00000000000E+00 0.  1.
         22    1    3    3    0    0  0.13997119837E+02 -0.45032968594E+02  0.87014381426E+01  0.47954172392E+02  0.00000000000E+00 0.  1.
</event>
<event>
 7    1  0.5194496E-006  0.1291918E+03  0.7818608E-02  0.1343913E+00
          2   -1    0    0  502    0  0.00000000000E+00  0.00000000000E+00  0.26144589778E+03  0.26144589778E+03  0.00000000000E+00 0. -1.
          1   -1    0    0  501    0 -0.00000000000E+00 -0.00000000000E+00 -0.37562471806E+03  0.37562471806E+03  0.00000000000E+00 0. -1.
         25    2    1    2    0    0 -0.14736201051E+03  0.27529728465E+01 -0.62151170965E+02  0.20300393562E+03  0.12499875529E+03 0.  0.
          2    1    1    2  501    0  0.12043779738E+03 -0.36949834439E+02 -0.22382448352E+03  0.25684227208E+03  0.00000000000E+00 0. -1.
          1    1    1    2  502    0  0.26924213134E+02  0.34196861593E+02  0.17179683421E+03  0.17722440814E+03  0.00000000000E+00 0. -1.
         22    1    3    3    0    0 -0.19784974074E+02  0.46879930685E+02 -0.43078514546E+02  0.66670319600E+02  0.00000000000E+00 0. -1.
         22    1    3    3    0    0 -0.12757703644E+03 -0.44126957838E+02 -0.19072656419E+02  0.13633361602E+03  0.00000000000E+00 0. -1.
</event>
<event>
 7    1  0.5194496E-006  0.1278839E+03  0.7818608E-02  0.1301841E+00
          2   -1    0    0  502    0  0.00000000000E+00  0.00000000000E+00  0.85056417221E+02  0.85056417221E+02  0.00000000000E+00 0. -1.
          1   -1    0    0  501    0 -0.00000000000E+00 -0.00000000000E+00 -0.66828248152E+03  0.66828248152E+03  0.00000000000E+00 0. -1.
         25    2    1    2    0    0 -0.81455341341E+02  0.43662367868E+02 -0.22939626990E+03  0.27710523320E+03  0.12499314630E+03 0.  0.
          2    1    1    2  501    0 -0.11925046755E+02  0.62807571495E+02 -0.32561576631E+03  0.33183222424E+03  0.00000000000E+00 0. -1.
          1    1    1    2  502    0  0.93380388096E+02 -0.10646993936E+03 -0.28214028094E+02  0.14440144130E+03  0.00000000000E+00 0. -1.
         22    1    3    3    0    0 -0.73950729210E+01  0.50225247007E+02 -0.19420334966E+02  0.54354502579E+02  0.00000000000E+00 0.  1.
         22    1    3    3    0    0 -0.74060268420E+02 -0.65628791390E+01 -0.20997593493E+03  0.22275073062E+03  0.00000000000E+00 0.  1.
</event>
<event>
 7    1  0.5194496E-006  0.1035882E+03  0.7818608E-02  0.1450826E+00
          2   -1    0    0  502    0  0.00000000000E+00  0.00000000000E+00  0.32072395809E+04  0.32072395809E+04  0.00000000000E+00 0. -1.
          1   -1    0    0  501    0 -0.00000000000E+00 -0.00000000000E+00 -0.68802910492E+01  0.68802910492E+01  0.00000000000E+00 0. -1.
         25    2    1    2    0    0 -0.86831904294E+02 -0.17424664557E+02  0.20848083757E+04  0.20904293089E+04  0.12500133516E+03 0.  0.
          2    1    1    2  501    0  0.10977330766E+03  0.14137548998E+02  0.97195307559E+03  0.97823454780E+03  0.00000000000E+00 0. -1.
          1    1    1    2  502    0 -0.22941403369E+02  0.32871155598E+01  0.14359783856E+03  0.14545601519E+03  0.00000000000E+00 0. -1.
         22    1    3    3    0    0 -0.40014050100E+02  0.54834369434E+01  0.16351466290E+03  0.16842873053E+03  0.00000000000E+00 0. -1.
         22    1    3    3    0    0 -0.46817854194E+02 -0.22908101501E+02  0.19212937128E+04  0.19220005784E+04  0.00000000000E+00 0. -1.
</event>
<event>
 7    1  0.5194496E-006  0.1388074E+03  0.7818608E-02  0.1231714E+00
          2   -1    0    0  502    0  0.00000000000E+00  0.00000000000E+00  0.21901886747E+03  0.21901886747E+03  0.00000000000E+00 0. -1.
          1   -1    0    0  501    0 -0.00000000000E+00 -0.00000000000E+00 -0.16014864344E+04  0.16014864344E+04  0.00000000000E+00 0. -1.
         25    2    1    2    0    0 -0.15716760689E+03  0.54800742457E+02 -0.25919649879E+03  0.33243481093E+03  0.12500120201E+03 0.  0.
          2    1    1    2  501    0  0.93223428334E+02  0.69886937516E+02 -0.12757053098E+04  0.12810147653E+04  0.00000000000E+00 0. -1.
          1    1    1    2  502    0  0.63944178560E+02 -0.12468767997E+03  0.15243424159E+03  0.20705572564E+03  0.00000000000E+00 0. -1.
         22    1    3    3    0    0 -0.15768485963E+03  0.44132397021E+01 -0.19435934761E+03  0.25031889191E+03  0.00000000000E+00 0. -1.
         22    1    3    3    0    0  0.51725274032E+00  0.50387502755E+02 -0.64837151177E+02  0.82115919023E+02  0.00000000000E+00 0. -1.
</event>
<event>
 7    1  0.5194496E-006  0.7875658E+02  0.7818608E-02  0.1353580E+00
          2   -1    0    0  502    0  0.00000000000E+00  0.00000000000E+00  0.17482362064E+03  0.17482362064E+03  0.00000000000E+00 0. -1.
          1   -1    0    0  501    0 -0.00000000000E+00 -0.00000000000E+00 -0.68230256513E+03  0.68230256513E+03  0.00000000000E+00 0. -1.
         25    2    1    2    0    0 -0.53738611740E+02 -0.36365346872E+01 -0.44506787549E+03  0.46540330001E+03  0.12495501224E+03 0.  0.
          2    1    1    2  501    0  0.11543717135E+03  0.26314495924E+02 -0.20385887881E+03  0.23574697389E+03  0.00000000000E+00 0. -1.
          1    1    1    2  502    0 -0.61698559613E+02 -0.22677961237E+02  0.14144780982E+03  0.15597591188E+03  0.00000000000E+00 0. -1.
         22    1    3    3    0    0 -0.69820900844E+02  0.43775262590E+02 -0.22241832946E+03  0.23719431926E+03  0.00000000000E+00 0. -1.
         22    1    3    3    0    0  0.16082289105E+02 -0.47411797277E+02 -0.22264954603E+03  0.22820898074E+03  0.00000000000E+00 0. -1.
</event>
<event>
 7    1  0.5194496E-006  0.1094046E+03  0.7818608E-02  0.1282602E+00
          2   -1    0    0  502    0  0.00000000000E+00  0.00000000000E+00  0.76477143084E+02  0.76477143084E+02  0.00000000000E+00 0. -1.
          1   -1    0    0  501    0 -0.00000000000E+00 -0.00000000000E+00 -0.18764131007E+04  0.18764131007E+04  0.00000000000E+00 0. -1.
         25    2    1    2    0    0  0.56965741198E+02 -0.17776587443E+03 -0.39037872063E+03  0.45040819003E+03  0.12500476127E+03 0.  0.
          2    1    1    2  501    0 -0.40797461982E+02  0.79575664425E+02 -0.13996209132E+04  0.14024747484E+04  0.00000000000E+00 0. -1.
          1    1    1    2  502    0 -0.16168279216E+02  0.98190210005E+02 -0.99363237958E+01  0.10000730535E+03  0.00000000000E+00 0. -1.
         22    1    3    3    0    0 -0.16422125878E+02 -0.12106087783E+03 -0.15459651652E+03  0.19704188713E+03  0.00000000000E+00 0. -1.
         22    1    3    3    0    0  0.73387867076E+02 -0.56704996596E+02 -0.23578220411E+03  0.25336630290E+03  0.00000000000E+00 0. -1.
</event>
<event>
 7    1  0.5194496E-006  0.2560456E+03  0.7818608E-02  0.1251408E+00
          2   -1    0    0  502    0  0.00000000000E+00  0.00000000000E+00  0.57157628848E+03  0.57157628848E+03  0.00000000000E+00 0. -1.
          1   -1    0    0  501    0 -0.00000000000E+00 -0.00000000000E+00 -0.85270776415E+03  0.85270776415E+03  0.00000000000E+00 0. -1.
         25    2    1    2    0    0  0.72569116518E+02 -0.28896730977E+03  0.57360218590E+02  0.32815205491E+03  0.12500077470E+03 0.  0.
          2    1    1    2  501    0 -0.81041882894E+02  0.23792554439E+03 -0.69335963878E+03  0.73751199322E+03  0.00000000000E+00 0. -1.
          1    1    1    2  502    0  0.84727663759E+01  0.51041765380E+02  0.35486794452E+03  0.35862000451E+03  0.00000000000E+00 0. -1.
         22    1    3    3    0    0 -0.23909367696E+02 -0.12806721427E+03 -0.52113720354E+01  0.13038415407E+03  0.00000000000E+00 0.  1.
         22    1    3    3    0    0  0.96478484214E+02 -0.16090009550E+03  0.62571590625E+02  0.19776790084E+03  0.00000000000E+00 0.  1.
</event>
<event>
 7    1  0.5194496E-006  0.8193804E+02  0.7818608E-02  0.1342696E+00
          2   -1    0    0  502    0  0.00000000000E+00  0.00000000000E+00  0.69785766097E+03  0.69785766097E+03  0.00000000000E+00 0. -1.
          1   -1    0    0  501    0 -0.00000000000E+00 -0.00000000000E+00 -0.17952513123E+04  0.17952513123E+04  0.00000000000E+00 0. -1.
         25    2    1    2    0    0 -0.86409991612E+02 -0.48658427545E+01  0.38168892039E+03  0.41085700506E+03  0.12500673413E+03 0.  0.
          2    1    1    2  501    0  0.29270134498E+02 -0.62868688798E+02 -0.17734652062E+04  0.17748205685E+04  0.00000000000E+00 0. -1.
          1    1    1    2  502    0  0.57139857114E+02  0.67734531553E+02  0.29438263448E+03  0.30743139970E+03  0.00000000000E+00 0. -1.
         22    1    3    3    0    0 -0.52846140477E+02 -0.28494210941E+02  0.54444530673E+02  0.81048390118E+02  0.00000000000E+00 0. -1.
         22    1    3    3    0    0 -0.33563851134E+02  0.23628368186E+02  0.32724438972E+03  0.32980861494E+03  0.00000000000E+00 0. -1.
</event>
<event>
 7    1  0.5194496E-006  0.6993730E+02  0.7818608E-02  0.1514741E+00
          2   -1    0    0  502    0  0.00000000000E+00  0.00000000000E+00  0.10324317501E+03  0.10324317501E+03  0.00000000000E+00 0. -1.
          1   -1    0    0  501    0 -0.00000000000E+00 -0.00000000000E+00 -0.24342455553E+03  0.24342455553E+03  0.00000000000E+00 0. -1.
         25    2    1    2    0    0  0.74941431120E+02  0.34969683229E+02  0.14652043551E+02  0.15059490132E+03  0.12500018032E+03 0.  0.
          2    1    1    2  501    0 -0.18420003790E+02 -0.11825250309E+02 -0.12714119651E+03  0.12901169301E+03  0.00000000000E+00 0. -1.
          1    1    1    2  502    0 -0.56521427330E+02 -0.23144432919E+02 -0.27692227559E+02  0.67061136210E+02  0.00000000000E+00 0. -1.
         22    1    3    3    0    0  0.40031643785E+02 -0.24699208881E+02 -0.40569177178E+02  0.62116355015E+02  0.00000000000E+00 0.  1.
         22    1    3    3    0    0  0.34909787336E+02  0.59668892110E+02  0.55221220729E+02  0.88478546305E+02  0.00000000000E+00 0.  1.
</event>
<event>
 7    1  0.5194496E-006  0.5506748E+02  0.7818608E-02  0.1437302E+00
          2   -1    0    0  502    0  0.00000000000E+00  0.00000000000E+00  0.95930264633E+02  0.95930264633E+02  0.00000000000E+00 0. -1.
          1   -1    0    0  501    0 -0.00000000000E+00 -0.00000000000E+00 -0.11238576665E+04  0.11238576665E+04  0.00000000000E+00 0. -1.
         25    2    1    2    0    0  0.23594093405E+01  0.11020338952E+02 -0.44056146752E+03  0.45808799004E+03  0.12499274087E+03 0.  0.
          2    1    1    2  501    0 -0.30155370397E+02  0.37607363701E+02 -0.66457107084E+03  0.66631701791E+03  0.00000000000E+00 0. -1.
          1    1    1    2  502    0  0.27795961056E+02 -0.48627702653E+02  0.77205136542E+02  0.95382923130E+02  0.00000000000E+00 0. -1.
         22    1    3    3    0    0 -0.35127036508E+02 -0.24141964517E+02 -0.36008801105E+03  0.36260187375E+03  0.00000000000E+00 0.  1.
         22    1    3    3    0    0  0.37486445848E+02  0.35162303469E+02 -0.80473456471E+02  0.95486116289E+02  0.00000000000E+00 0.  1.
</event>
<event>
 7    1  0.5194496E-006  0.5243306E+02  0.7818608E-02  0.1450567E+00
          2   -1    0    0  502    0  0.00000000000E+00  0.00000000000E+00  0.42085880642E+03  0.42085880642E+03  0.00000000000E+00 0. -1.
          1   -1    0    0  501    0 -0.00000000000E+00 -0.00000000000E+00 -0.10032067413E+04  0.10032067413E+04  0.00000000000E+00 0. -1.
         25    2    1    2    0    0 -0.16905823698E+02 -0.47944663195E+02 -0.33457353619E+03  0.36077032929E+03  0.12502512459E+03 0.  0.
          2    1    1    2  501    0  0.45699395851E+02  0.39995428251E+01 -0.65303449902E+03  0.65464378714E+03  0.00000000000E+00 0. -1.
          1    1    1    2  502    0 -0.28793572152E+02  0.43945120370E+02  0.40526010031E+03  0.40865143131E+03  0.00000000000E+00 0. -1.
         22    1    3    3    0    0 -0.66697270802E+02 -0.38303080107E+02 -0.25553855175E+03  0.26686251762E+03  0.00000000000E+00 0. -1.
         22    1    3    3    0    0  0.49791447104E+02 -0.96415830877E+01 -0.79034984433E+02  0.93907811674E+02  0.00000000000E+00 0. -1.
</event>
<event>
 7    1  0.5194496E-006  0.5310760E+02  0.7818608E-02  0.1499014E+00
          2   -1    0    0  502    0  0.00000000000E+00  0.00000000000E+00  0.47233716557E+03  0.47233716557E+03  0.00000000000E+00 0. -1.
          1   -1    0    0  501    0 -0.00000000000E+00 -0.00000000000E+00 -0.84171490258E+03  0.84171490258E+03  0.00000000000E+00 0. -1.
         25    2    1    2    0    0 -0.74879871322E+02  0.28541312155E+02 -0.55491124171E+02  0.15851134916E+03  0.12499992529E+03 0.  0.
          2    1    1    2  501    0  0.32010125207E+02  0.21608879893E+01 -0.73270948131E+03  0.73341154992E+03  0.00000000000E+00 0. -1.
          1    1    1    2  502    0  0.42869746114E+02 -0.30702200144E+02  0.41882286847E+03  0.42212916907E+03  0.00000000000E+00 0. -1.
         22    1    3    3    0    0  0.57197645525E+01 -0.39872206642E+02 -0.27716845600E+01  0.40375621411E+02  0.00000000000E+00 0.  1.
         22    1    3    3    0    0 -0.80599635874E+02  0.68413518797E+02 -0.52719439611E+02  0.11813572775E+03  0.00000000000E+00 0.  1.
</event>
<event>
 7    1  0.5194496E-006  0.5299827E+02  0.7818608E-02  0.1481814E+00
          2   -1    0    0  502    0  0.00000000000E+00  0.00000000000E+00  0.29495922439E+03  0.29495922439E+03  0.00000000000E+00 0. -1.
          1   -1    0    0  501    0 -0.00000000000E+00 -0.00000000000E+00 -0.19097796997E+03  0.19097796997E+03  0.00000000000E+00 0. -1.
         25    2    1    2    0    0  0.83044432883E+02  0.23983385661E+02  0.13240122046E+03  0.20156088800E+03  0.12500051108E+03 0.  0.
          2    1    1    2  501    0 -0.46819550550E+02 -0.22959822548E+02 -0.14931910383E+03  0.15816263317E+03  0.00000000000E+00 0. -1.
          1    1    1    2  502    0 -0.36224882333E+02 -0.10235631127E+01  0.12089913778E+03  0.12621367318E+03  0.00000000000E+00 0. -1.
         22    1    3    3    0    0 -0.21710428590E+02  0.44034944082E+01  0.79606630935E+02  0.82631405418E+02  0.00000000000E+00 0. -1.
         22    1    3    3    0    0  0.10475486147E+03  0.19579891252E+02  0.52794589528E+02  0.11892948258E+03  0.00000000000E+00 0. -1.
</event>
<event>
 7    1  0.5194496E-006  0.1125521E+03  0.7818608E-02  0.1262826E+00
          2   -1    0    0  502    0  0.00000000000E+00  0.00000000000E+00  0.21679369490E+04  0.21679369490E+04  0.00000000000E+00 0. -1.
          1   -1    0    0  501    0 -0.00000000000E+00 -0.00000000000E+00 -0.12222972491E+04  0.12222972491E+04  0.00000000000E+00 0. -1.
         25    2    1    2    0    0  0.82003864775E+02 -0.56084010164E+02  0.19647168193E+03  0.25317587353E+03  0.12500740419E+03 0.  0.
          2    1    1    2  501    0 -0.10309935450E+03 -0.46933137187E+02 -0.11898303800E+04  0.11952106632E+04  0.00000000000E+00 0. -1.
          1    1    1    2  502    0  0.21095489728E+02  0.10301714735E+03  0.19389983980E+04  0.19418476613E+04  0.00000000000E+00 0. -1.
         22    1    3    3    0    0  0.21931729899E+02  0.36312966577E+02  0.24699202817E+02  0.49088521446E+02  0.00000000000E+00 0. -1.
         22    1    3    3    0    0  0.60072134876E+02 -0.92396976741E+02  0.17177247911E+03  0.20408735208E+03  0.00000000000E+00 0. -1.
</event>
<event>
 7    1  0.5194496E-006  0.7453495E+02  0.7818608E-02  0.1381368E+00
          2   -1    0    0  502    0  0.00000000000E+00  0.00000000000E+00  0.14778553366E+04  0.14778553366E+04  0.00000000000E+00 0. -1.
          1   -1    0    0  501    0 -0.00000000000E+00 -0.00000000000E+00 -0.90196497314E+03  0.90196497314E+03  0.00000000000E+00 0. -1.
         25    2    1    2    0    0  0.15568730164E+01  0.10780297707E+03  0.10357494874E+03  0.19487874814E+03  0.12500420293E+03 0.  0.
          2    1    1    2  501    0  0.34302567698E+02 -0.65921912979E+02 -0.85412704457E+03  0.85735370357E+03  0.00000000000E+00 0. -1.
          1    1    1    2  502    0 -0.35859440714E+02 -0.41881064088E+02  0.13264424593E+04  0.13275878580E+04  0.00000000000E+00 0. -1.
         22    1    3    3    0    0 -0.12881572874E+02  0.16722898303E+02 -0.27466936327E+02  0.34641345796E+02  0.00000000000E+00 0. -1.
         22    1    3    3    0    0  0.14438445890E+02  0.91080078764E+02  0.13104188507E+03  0.16023740234E+03  0.00000000000E+00 0. -1.
</event>
<event>
 7    1  0.5194496E-006  0.1154478E+03  0.7818608E-02  0.1313088E+00
          2   -1    0    0  502    0  0.00000000000E+00  0.00000000000E+00  0.26370926907E+04  0.26370926907E+04  0.00000000000E+00 0. -1.
          1   -1    0    0  501    0 -0.00000000000E+00 -0.00000000000E+00 -0.23142026856E+03  0.23142026856E+03  0.00000000000E+00 0. -1.
         25    2    1    2    0    0  0.30236041446E+02  0.11691392104E+03  0.10206177363E+03  0.20155347401E+03  0.12499645641E+03 0.  0.
          2    1    1    2  501    0 -0.63630442291E+02 -0.60673735014E+01 -0.17465885091E+03  0.18598752756E+03  0.00000000000E+00 0. -1.
          1    1    1    2  502    0  0.33394400845E+02 -0.11084654753E+03  0.24782694994E+04  0.24809719576E+04  0.00000000000E+00 0. -1.
         22    1    3    3    0    0 -0.20928475432E+02  0.75917148429E+02 -0.17533868511E+01  0.78768577967E+02  0.00000000000E+00 0. -1.
         22    1    3    3    0    0  0.51164516877E+02  0.40996772607E+02  0.10381516048E+03  0.12278489605E+03  0.00000000000E+00 0. -1.
</event>
<event>
 7    1  0.5194496E-006  0.5668500E+02  0.7818608E-02  0.1486187E+00
          2   -1    0    0  502    0  0.00000000000E+00  0.00000000000E+00  0.28759564081E+03  0.28759564081E+03  0.00000000000E+00 0. -1.
          1   -1    0    0  501    0 -0.00000000000E+00 -0.00000000000E+00 -0.15105969099E+03  0.15105969099E+03  0.00000000000E+00 0. -1.
         25    2    1    2    0    0 -0.26095142918E+02 -0.49351228699E+02  0.76212344927E+02  0.15668114997E+03  0.12499664386E+03 0.  0.
          2    1    1    2  501    0 -0.58561554950E+01  0.57014455949E+02 -0.10165364539E+03  0.11669792785E+03  0.00000000000E+00 0. -1.
          1    1    1    2  502    0  0.31951298413E+02 -0.76632272496E+01  0.16197725028E+03  0.16527625399E+03  0.00000000000E+00 0. -1.
         22    1    3    3    0    0  0.87455186419E+01 -0.72680598482E+02  0.86687678683E+02  0.11346235996E+03  0.00000000000E+00 0. -1.
         22    1    3    3    0    0 -0.34840661560E+02  0.23329369782E+02 -0.10475333755E+02  0.43218790007E+02  0.00000000000E+00 0. -1.
</event>
<event>
 7    1  0.5194496E-006  0.4466089E+02  0.7818608E-02  0.1479850E+00
          2   -1    0    0  502    0  0.00000000000E+00  0.00000000000E+00  0.16227542489E+04  0.16227542489E+04  0.00000000000E+00 0. -1.
          1   -1    0    0  501    0 -0.00000000000E+00 -0.00000000000E+00 -0.30751364743E+03  0.30751364743E+03  0.00000000000E+00 0. -1.
         25    2    1    2    0    0  0.13348799894E+02 -0.30077145747E+02 -0.90370764492E+02  0.15772200059E+03  0.12500611681E+03 0.  0.
          2    1    1    2  501    0  0.29742221048E+02  0.36749535297E+02 -0.18011690036E+03  0.18621822106E+03  0.00000000000E+00 0. -1.
          1    1    1    2  502    0 -0.43091020942E+02 -0.66723895497E+01  0.15857282663E+04  0.15863276747E+04  0.00000000000E+00 0. -1.
         22    1    3    3    0    0  0.33202950840E+01 -0.19937790484E+02 -0.12166445816E+03  0.12333199191E+03  0.00000000000E+00 0. -1.
         22    1    3    3    0    0  0.10028504810E+02 -0.10139355263E+02  0.31293693665E+02  0.34390008681E+02  0.00000000000E+00 0. -1.
</event>
<event>
 7    1  0.5194496E-006  0.1001423E+03  0.7818608E-02  0.1404263E+00
          2   -1    0    0  502    0  0.00000000000E+00  0.00000000000E+00  0.52326455597E+02  0.52326455597E+02  0.00000000000E+00 0. -1.
          1   -1    0    0  501    0 -0.00000000000E+00 -0.00000000000E+00 -0.89826552513E+03  0.89826552513E+03  0.00000000000E+00 0. -1.
         25    2    1    2    0    0 -0.49788471097E+02 -0.56178574136E+02 -0.24360856487E+03  0.28391045878E+03  0.12500036671E+03 0.  0.
          2    1    1    2  501    0 -0.25279784473E+02 -0.22984720707E+02 -0.53990976750E+03  0.54098976139E+03  0.00000000000E+00 0. -1.
          1    1    1    2  502    0  0.75068255570E+02  0.79163294843E+02 -0.62420737168E+02  0.12569176056E+03  0.00000000000E+00 0. -1.
         22    1    3    3    0    0  0.22253055627E+02 -0.11298747640E+02  0.10174568406E+01  0.24977898258E+02  0.00000000000E+00 0.  1.
         22    1    3    3    0    0 -0.72041526724E+02 -0.44879826496E+02 -0.24462602171E+03  0.25893256052E+03  0.00000000000E+00 0.  1.
</event>
<event>
 7    1  0.5194496E-006  0.1683730E+03  0.7818608E-02  0.1321853E+00
          2   -1    0    0  502    0  0.00000000000E+00  0.00000000000E+00  0.68375309219E+03  0.68375309219E+03  0.00000000000E+00 0. -1.
          1   -1    0    0  501    0 -0.00000000000E+00 -0.00000000000E+00 -0.71437793629E+03  0.71437793629E+03  0.00000000000E+00 0. -1.
         25    2    1    2    0    0  0.13304554692E+03 -0.15531655036E+03  0.45636657503E+02  0.24399092016E+03  0.12499806495E+03 0.  0.
          2    1    1    2  501    0 -0.99792645977E+02  0.13217362762E+03 -0.60326308801E+03  0.62558356227E+03  0.00000000000E+00 0. -1.
          1    1    1    2  502    0 -0.33252900946E+02  0.23142922732E+02  0.52700158641E+03  0.52855654605E+03  0.00000000000E+00 0. -1.
         22    1    3    3    0    0  0.11397804348E+03 -0.11855544739E+03 -0.20734702171E+02  0.16575981532E+03  0.00000000000E+00 0. -1.
         22    1    3    3    0    0  0.19067503448E+02 -0.36761102961E+02  0.66371359674E+02  0.78231104834E+02  0.00000000000E+00 0. -1.
</event>
<event>
 7    1  0.5194496E-006  0.1835054E+03  0.7818608E-02  0.1219289E+00
          2   -1    0    0  502    0  0.00000000000E+00  0.00000000000E+00  0.13003725497E+03  0.13003725497E+03  0.00000000000E+00 0. -1.
          1   -1    0    0  501    0 -0.00000000000E+00 -0.00000000000E+00 -0.84230648592E+03  0.84230648592E+03  0.00000000000E+00 0. -1.
         25    2    1    2    0    0  0.12264307858E+03  0.67781209493E+02 -0.29719775217E+03  0.35154895039E+03  0.12499817417E+03 0.  0.
          2    1    1    2  501    0 -0.10326035725E+02  0.99758670752E+02 -0.40673568836E+03  0.41891805833E+03  0.00000000000E+00 0. -1.
          1    1    1    2  502    0 -0.11231704286E+03 -0.16753988024E+03 -0.83357904190E+01  0.20187673217E+03  0.00000000000E+00 0. -1.
         22    1    3    3    0    0  0.82136160403E+02  0.10428051477E+03 -0.22207981342E+03  0.25872807759E+03  0.00000000000E+00 0. -1.
         22    1    3    3    0    0  0.40506918176E+02 -0.36499305275E+02 -0.75117938750E+02  0.92820872802E+02  0.00000000000E+00 0. -1.
</event>
<event>
 7    1  0.5194496E-006  0.8084118E+02  0.7818608E-02  0.1344919E+00
          2   -1    0    0  502    0  0.00000000000E+00  0.00000000000E+00  0.10879346416E+04  0.10879346416E+04  0.00000000000E+00 0. -1.
          1   -1    0    0  501    0 -0.00000000000E+00 -0.00000000000E+00 -0.12653570441E+03  0.12653570441E+03  0.00000000000E+00 0. -1.
         25    2    1    2    0    0 -0.36852063782E+01 -0.28653826029E+02  0.31409211261E+02  0.13208497632E+03  0.12500111969E+03 0.  0.
          2    1    1    2  501    0  0.84120207012E+02  0.20560211192E+02 -0.49379155781E+02  0.99685668668E+02  0.00000000000E+00 0. -1.
          1    1    1    2  502    0 -0.80435000634E+02  0.80936148366E+01  0.97936888176E+03  0.98269970107E+03  0.00000000000E+00 0. -1.
         22    1    3    3    0    0 -0.10574436938E+02  0.25701704706E+02  0.62987214092E+02  0.68846099965E+02  0.00000000000E+00 0. -1.
         22    1    3    3    0    0  0.68892305599E+01 -0.54355530735E+02 -0.31578002831E+02  0.63238876350E+02  0.00000000000E+00 0. -1.
</event>
<event>
 7    1  0.5194496E-006  0.6362043E+02  0.7818608E-02  0.1407616E+00
          2   -1    0    0  502    0  0.00000000000E+00  0.00000000000E+00  0.12074097844E+03  0.12074097844E+03  0.00000000000E+00 0. -1.
          1   -1    0    0  501    0 -0.00000000000E+00 -0.00000000000E+00 -0.60071960579E+03  0.60071960579E+03  0.00000000000E+00 0. -1.
         25    2    1    2    0    0 -0.18547765782E+02 -0.38137675755E+02  0.46161195136E+02  0.13983696407E+03  0.12500007462E+03 0.  0.
          2    1    1    2  501    0 -0.30391151643E+02  0.56819271468E+02 -0.52529608462E+03  0.52923343453E+03  0.00000000000E+00 0. -1.
          1    1    1    2  502    0  0.48938917425E+02 -0.18681595712E+02 -0.84373786358E+00  0.52390185633E+02  0.00000000000E+00 0. -1.
         22    1    3    3    0    0 -0.45507887709E+02 -0.55985160660E+02  0.69330510513E+02  0.10006011066E+03  0.00000000000E+00 0. -1.
         22    1    3    3    0    0  0.26960121926E+02  0.17847484905E+02 -0.23169315377E+02  0.39776853404E+02  0.00000000000E+00 0. -1.
</event>
<event>
 7    1  0.5194496E-006  0.7368391E+02  0.7818608E-02  0.1422826E+00
          2   -1    0    0  502    0  0.00000000000E+00  0.00000000000E+00  0.15040368933E+03  0.15040368933E+03  0.00000000000E+00 0. -1.
          1   -1    0    0  501    0 -0.00000000000E+00 -0.00000000000E+00 -0.95266461033E+03  0.95266461033E+03  0.00000000000E+00 0. -1.
         25    2    1    2    0    0  0.15238297504E+02 -0.58894370790E+02 -0.73714542677E+03  0.75013899294E+03  0.12499750355E+03 0.  0.
          2    1    1    2  501    0 -0.38582256221E+02 -0.11301655172E+02 -0.19735303736E+03  0.20140640323E+03  0.00000000000E+00 0. -1.
          1    1    1    2  502    0  0.23343958717E+02  0.70196025963E+02  0.13223754314E+03  0.15152290350E+03  0.00000000000E+00 0. -1.
         22    1    3    3    0    0  0.26019703744E+02 -0.32007408247E+02 -0.62578944333E+02  0.74950806796E+02  0.00000000000E+00 0. -1.
         22    1    3    3    0    0 -0.10781406240E+02 -0.26886962543E+02 -0.67456648244E+03  0.67518818614E+03  0.00000000000E+00 0. -1.
</event>
<event>
 7    1  0.5194496E-006  0.6728681E+02  0.7818608E-02  0.1472121E+00
          2   -1    0    0  502    0  0.00000000000E+00  0.00000000000E+00  0.17918622851E+03  0.17918622851E+03  0.00000000000E+00 0. -1.
          1   -1    0    0  501    0 -0.00000000000E+00 -0.00000000000E+00 -0.79487797269E+03  0.79487797269E+03  0.00000000000E+00 0. -1.
         25    2    1    2    0    0 -0.47047305123E+02 -0.80296517123E+02 -0.23520941397E+03  0.28215084780E+03  0.12499861166E+03 0.  0.
          2    1    1    2  501    0  0.41582492512E+02  0.50213404262E+02 -0.53269012319E+03  0.53666493923E+03  0.00000000000E+00 0. -1.
          1    1    1    2  502    0  0.54648126102E+01  0.30083112861E+02  0.15220779299E+03  0.15524841417E+03  0.00000000000E+00 0. -1.
         22    1    3    3    0    0 -0.47995184387E+02 -0.11310439562E+03 -0.18043201347E+03  0.21829304505E+03  0.00000000000E+00 0. -1.
         22    1    3    3    0    0  0.94787926467E+00  0.32807878500E+02 -0.54777400502E+02  0.63857802754E+02  0.00000000000E+00 0. -1.
</event>
<event>
 7    1  0.5194496E-006  0.4615572E+02  0.7818608E-02  0.1535169E+00
          2   -1    0    0  502    0  0.00000000000E+00  0.00000000000E+00  0.16133510661E+04  0.16133510661E+04  0.00000000000E+00 0. -1.
          1   -1    0    0  501    0 -0.00000000000E+00 -0.00000000000E+00 -0.65140752757E+03  0.65140752757E+03  0.00000000000E+00 0. -1.
         25    2    1    2    0    0 -0.39940066705E+02 -0.54593895432E+02  0.52753909230E+03  0.54634929379E+03  0.12499741828E+03 0.  0.
          2    1    1    2  501    0  0.27487318516E+01  0.28828276750E+02 -0.64120003535E+03  0.64185365185E+03  0.00000000000E+00 0. -1.
          1    1    1    2  502    0  0.37191334853E+02  0.25765618683E+02  0.10756044815E+04  0.10765556480E+04  0.00000000000E+00 0. -1.
         22    1    3    3    0    0  0.64667610505E+01 -0.91809568614E+00 -0.55424418341E+01  0.85662453653E+01  0.00000000000E+00 0. -1.
         22    1    3    3    0    0 -0.46406827755E+02 -0.53675799746E+02  0.53308153414E+03  0.53778304843E+03  0.00000000000E+00 0. -1.
</event>
<event>
 7    1  0.5194496E-006  0.4849104E+02  0.7818608E-02  0.1528537E+00
          2   -1    0    0  502    0  0.00000000000E+00  0.00000000000E+00  0.20741253249E+03  0.20741253249E+03  0.00000000000E+00 0. -1.
          1   -1    0    0  501    0 -0.00000000000E+00 -0.00000000000E+00 -0.48205337851E+03  0.48205337851E+03  0.00000000000E+00 0. -1.
         25    2    1    2    0    0 -0.19159631832E+02 -0.21853424007E+02 -0.31521095939E+03  0.34033415939E+03  0.12499890998E+03 0.  0.
          2    1    1    2  501    0  0.28768180304E+02  0.48996967152E+02 -0.14791893860E+03  0.15845606137E+03  0.00000000000E+00 0. -1.
          1    1    1    2  502    0 -0.96085484719E+01 -0.27143543145E+02  0.18848905197E+03  0.19067569024E+03  0.00000000000E+00 0. -1.
         22    1    3    3    0    0 -0.68845337984E+02 -0.31912922685E+02 -0.16059930540E+03  0.17762390631E+03  0.00000000000E+00 0. -1.
         22    1    3    3    0    0  0.49685706152E+02  0.10059498678E+02 -0.15461165399E+03  0.16271025309E+03  0.00000000000E+00 0. -1.
</event>
<event>
 7    1  0.5194496E-006  0.7287920E+02  0.7818608E-02  0.1412173E+00
          2   -1    0    0  502    0  0.00000000000E+00  0.00000000000E+00  0.80196791922E+03  0.80196791922E+03  0.00000000000E+00 0. -1.
          1   -1    0    0  501    0 -0.00000000000E+00 -0.00000000000E+00 -0.17415781212E+03  0.17415781212E+03  0.00000000000E+00 0. -1.
         25    2    1    2    0    0  0.29248340639E+02  0.81809090761E+01  0.60896680279E+03  0.62240502611E+03  0.12500022771E+03 0.  0.
          2    1    1    2  501    0 -0.18088438392E+02  0.70598766710E+02 -0.15016716890E+03  0.16691781235E+03  0.00000000000E+00 0. -1.
          1    1    1    2  502    0 -0.11159902247E+02 -0.78779675786E+02  0.16901047321E+03  0.18680289288E+03  0.00000000000E+00 0. -1.
         22    1    3    3    0    0 -0.27960922608E+02 -0.38453690384E+02  0.14477928699E+03  0.15238615895E+03  0.00000000000E+00 0. -1.
         22    1    3    3    0    0  0.57209263247E+02  0.46634599461E+02  0.46418751579E+03  0.47001886716E+03  0.00000000000E+00 0. -1.
</event>
<event>
 7    1  0.5194496E-006  0.7984947E+02  0.7818608E-02  0.1370488E+00
          2   -1    0    0  502    0  0.00000000000E+00  0.00000000000E+00  0.21820813588E+02  0.21820813588E+02  0.00000000000E+00 0. -1.
          1   -1    0    0  501    0 -0.00000000000E+00 -0.00000000000E+00 -0.16286440827E+04  0.16286440827E+04  0.00000000000E+00 0. -1.
         25    2    1    2    0    0 -0.41593287176E+02 -0.10139000108E+03 -0.63810658573E+03  0.65940532290E+03  0.12500172500E+03 0.  0.
          2    1    1    2  501    0 -0.17066745018E+02  0.53620976178E+02 -0.83907761221E+03  0.84096237858E+03  0.00000000000E+00 0. -1.
          1    1    1    2  502    0  0.58660032194E+02  0.47769024899E+02 -0.12963907116E+03  0.15009719480E+03  0.00000000000E+00 0. -1.
         22    1    3    3    0    0  0.10791814491E+02 -0.12496425416E+02 -0.39453687475E+03  0.39488222225E+03  0.00000000000E+00 0.  1.
         22    1    3    3    0    0 -0.52385101666E+02 -0.88893575660E+02 -0.24356971098E+03  0.26452310065E+03  0.00000000000E+00 0.  1.
</event>
<event>
 7    1  0.5194496E-006  0.5182468E+02  0.7818608E-02  0.1441809E+00
          2   -1    0    0  502    0  0.00000000000E+00  0.00000000000E+00  0.12283497632E+04  0.12283497632E+04  0.00000000000E+00 0. -1.
          1   -1    0    0  501    0 -0.00000000000E+00 -0.00000000000E+00 -0.52759076361E+02  0.52759076361E+02  0.00000000000E+00 0. -1.
         25    2    1    2    0    0  0.32585250278E+02 -0.33039835981E+02  0.25724693067E+03  0.28974849344E+03  0.12499910725E+03 0.  0.
          2    1    1    2  501    0 -0.52350781236E+02 -0.12368217486E+02 -0.15675232914E+02  0.56029367538E+02  0.00000000000E+00 0. -1.
          1    1    1    2  502    0  0.19765530958E+02  0.45408053467E+02  0.93401898912E+03  0.93533097862E+03  0.00000000000E+00 0. -1.
         22    1    3    3    0    0  0.27375751346E+01  0.44003131824E+02  0.50126060183E+02  0.66756211976E+02  0.00000000000E+00 0. -1.
         22    1    3    3    0    0  0.29847675143E+02 -0.77042967805E+02  0.20712087049E+03  0.22299228146E+03  0.00000000000E+00 0. -1.
</event>
<event>
 7    1  0.5194496E-006  0.8224966E+02  0.7818608E-02  0.1356105E+00
          2   -1    0    0  502    0  0.00000000000E+00  0.00000000000E+00  0.14435635465E+04  0.14435635465E+04  0.00000000000E+00 0. -1.
          1   -1    0    0  501    0 -0.00000000000E+00 -0.00000000000E+00 -0.70433160373E+02  0.70433160373E+02  0.00000000000E+00 0. -1.
         25    2    1    2    0    0  0.11001005438E+03 -0.76725817085E+00  0.18834037272E+03  0.25139596874E+03  0.12500014540E+03 0.  0.
          2    1    1    2  501    0 -0.41538172285E+02  0.45502420378E+02 -0.12210517387E+02  0.62809129526E+02  0.00000000000E+00 0. -1.
          1    1    1    2  502    0 -0.68471882098E+02 -0.44735162207E+02  0.11970005308E+04  0.11997916086E+04  0.00000000000E+00 0. -1.
         22    1    3    3    0    0  0.87405803429E+02 -0.46719450486E+02  0.17041417551E+03  0.19713820721E+03  0.00000000000E+00 0. -1.
         22    1    3    3    0    0  0.22604250954E+02  0.45952192315E+02  0.17926197216E+02  0.54257761531E+02  0.00000000000E+00 0. -1.
</event>
<event>
 7    1  0.5194496E-006  0.6218045E+02  0.7818608E-02  0.1495618E+00
          2   -1    0    0  502    0  0.00000000000E+00  0.00000000000E+00  0.65675984306E+03  0.65675984306E+03  0.00000000000E+00 0. -1.
          1   -1    0    0  501    0 -0.00000000000E+00 -0.00000000000E+00 -0.49207834419E+03  0.49207834419E+03  0.00000000000E+00 0. -1.
         25    2    1    2    0    0  0.10294704276E+02 -0.57864075479E+02 -0.25031728829E+03  0.28589867985E+03  0.12500031261E+03 0.  0.
          2    1    1    2  501    0 -0.37741004625E+02  0.52071288622E+02 -0.21903739252E+03  0.22828311775E+03  0.00000000000E+00 0. -1.
          1    1    1    2  502    0  0.27446300349E+02  0.57927868565E+01  0.63403617968E+03  0.63465638965E+03  0.00000000000E+00 0. -1.
         22    1    3    3    0    0  0.14582831660E+02  0.33921602869E+02 -0.31362947042E+02  0.48445521646E+02  0.00000000000E+00 0.  1.
         22    1    3    3    0    0 -0.42881273840E+01 -0.91785678348E+02 -0.21895434125E+03  0.23745315820E+03  0.00000000000E+00 0.  1.
</event>
<event>
 7    1  0.5194496E-006  0.6948512E+02  0.7818608E-02  0.1455210E+00
          2   -1    0    0  502    0  0.00000000000E+00  0.00000000000E+00  0.74602517950E+03  0.74602517950E+03  0.00000000000E+00 0. -1.
          1   -1    0    0  501    0 -0.00000000000E+00 -0.00000000000E+00 -0.64092891996E+03  0.64092891996E+03  0.00000000000E+00 0. -1.
         25    2    1    2    0    0  0.24485618957E+02 -0.43172336311E+02  0.31332591588E+03  0.34097232316E+03  0.12500239773E+03 0.  0.
          2    1    1    2  501    0  0.33105445988E+02 -0.48366454586E+01 -0.62329830895E+03  0.62419559886E+03  0.00000000000E+00 0. -1.
          1    1    1    2  502    0 -0.57591064946E+02  0.48008981770E+02  0.41506865261E+03  0.42178617743E+03  0.00000000000E+00 0. -1.
         22    1    3    3    0    0 -0.20021432795E+02 -0.75270985946E+02  0.20999990392E+03  0.22397888013E+03  0.00000000000E+00 0.  1.
         22    1    3    3    0    0  0.44507051752E+02  0.32098649635E+02  0.10332601196E+03  0.11699344303E+03  0.00000000000E+00 0.  1.
</event>
<event>
 7    1  0.5194496E-006  0.2365490E+03  0.7818608E-02  0.1331580E+00
          2   -1    0    0  502    0  0.00000000000E+00  0.00000000000E+00  0.18265021086E+04  0.18265021086E+04  0.00000000000E+00 0. -1.
          1   -1    0    0  501    0 -0.00000000000E+00 -0.00000000000E+00 -0.38811003757E+03  0.38811003757E+03  0.00000000000E+00 0. -1.
         25    2    1    2    0    0  0.14278437545E+03  0.16093561988E+03  0.16342387274E+03  0.29769302886E+03  0.12500450246E+03 0.  0.
          2    1    1    2  501    0 -0.15445073052E+03 -0.18468583461E+03 -0.27570003814E+03  0.36602513123E+03  0.00000000000E+00 0. -1.
          1    1    1    2  502    0  0.11666355069E+02  0.23750214724E+02  0.15506682364E+04  0.15508939861E+04  0.00000000000E+00 0. -1.
         22    1    3    3    0    0  0.71174739262E+00  0.86633460753E+01 -0.18962845933E+02  0.20860241500E+02  0.00000000000E+00 0. -1.
         22    1    3    3    0    0  0.14207262805E+03  0.15227227381E+03  0.18238671867E+03  0.27683278736E+03  0.00000000000E+00 0. -1.
</event>
<event>
 7    1  0.5194496E-006  0.7360566E+02  0.7818608E-02  0.1487256E+00
          2   -1    0    0  502    0  0.00000000000E+00  0.00000000000E+00  0.94432029278E+03  0.94432029278E+03  0.00000000000E+00 0. -1.
          1   -1    0    0  501    0 -0.00000000000E+00 -0.00000000000E+00 -0.19544291096E+03  0.19544291096E+03  0.00000000000E+00 0. -1.
         25    2    1    2    0    0 -0.22676628293E+02  0.65736851380E+02 -0.93512122798E+01  0.14334573552E+03  0.12499996648E+03 0.  0.
          2    1    1    2  501    0  0.23798443530E+02  0.80259794373E+01 -0.11619964213E+03  0.11888287973E+03  0.00000000000E+00 0. -1.
          1    1    1    2  502    0 -0.11218152377E+01 -0.73762830817E+02  0.87442823623E+03  0.87753458849E+03  0.00000000000E+00 0. -1.
         22    1    3    3    0    0 -0.46180507791E+02 -0.19768889581E+02 -0.19923007434E+02  0.54040489638E+02  0.00000000000E+00 0.  1.
         22    1    3    3    0    0  0.23503879498E+02  0.85505740961E+02  0.10571795155E+02  0.89305245879E+02  0.00000000000E+00 0.  1.
</event>
<event>
 7    1  0.5194496E-006  0.3669661E+02  0.7818608E-02  0.1541256E+00
          2   -1    0    0  502    0  0.00000000000E+00  0.00000000000E+00  0.12968689482E+04  0.12968689482E+04  0.00000000000E+00 0. -1.
          1   -1    0    0  501    0 -0.00000000000E+00 -0.00000000000E+00 -0.62328199282E+03  0.62328199282E+03  0.00000000000E+00 0. -1.
         25    2    1    2    0    0 -0.25656352112E+01  0.24243092107E+01 -0.76148723461E+02  0.14640802835E+03  0.12499689164E+03 0.  0.
          2    1    1    2  501    0  0.37319705913E+02  0.17637923022E+01 -0.51107879216E+03  0.51244258528E+03  0.00000000000E+00 0. -1.
          1    1    1    2  502    0 -0.34754070702E+02 -0.41881015129E+01  0.12608144710E+04  0.12613003274E+04  0.00000000000E+00 0. -1.
         22    1    3    3    0    0 -0.13236148840E+02  0.56604369687E+02 -0.79754766478E+01  0.58675876913E+02  0.00000000000E+00 0. -1.
         22    1    3    3    0    0  0.10670513629E+02 -0.54180060476E+02 -0.68173246813E+02  0.87732151434E+02  0.00000000000E+00 0. -1.
</event>
<event>
 7    1  0.5194496E-006  0.6367419E+02  0.7818608E-02  0.1392051E+00
          2   -1    0    0  502    0  0.00000000000E+00  0.00000000000E+00  0.15502549977E+03  0.15502549977E+03  0.00000000000E+00 0. -1.
          1   -1    0    0  501    0 -0.00000000000E+00 -0.00000000000E+00 -0.27561473745E+03  0.27561473745E+03  0.00000000000E+00 0. -1.
         25    2    1    2    0    0  0.28460807123E+02  0.67254522026E+02 -0.15934131297E+03  0.21528594994E+03  0.12500079178E+03 0.  0.
          2    1    1    2  501    0  0.33325871686E+02 -0.48936234967E+02 -0.68307201452E+02  0.90394925668E+02  0.00000000000E+00 0. -1.
          1    1    1    2  502    0 -0.61786678808E+02 -0.18318287060E+02  0.10705927674E+03  0.12495936162E+03  0.00000000000E+00 0. -1.
         22    1    3    3    0    0 -0.31052786488E+02 -0.20895837800E+02 -0.52999050281E+02  0.64883055698E+02  0.00000000000E+00 0. -1.
         22    1    3    3    0    0  0.59513593611E+02  0.88150359826E+02 -0.10634226269E+03  0.15040289424E+03  0.00000000000E+00 0. -1.
</event>
<event>
 7    1  0.5194496E-006  0.3844324E+02  0.7818608E-02  0.1569432E+00
          2   -1    0    0  502    0  0.00000000000E+00  0.00000000000E+00  0.18442312546E+03  0.18442312546E+03  0.00000000000E+00 0. -1.
          1   -1    0    0  501    0 -0.00000000000E+00 -0.00000000000E+00 -0.79235151825E+03  0.79235151825E+03  0.00000000000E+00 0. -1.
         25    2    1    2    0    0 -0.22425033900E+02  0.71085197075E+01 -0.16040966690E+03  0.20471511384E+03  0.12499441348E+03 0.  0.
          2    1    1    2  501    0  0.49950366868E+01  0.27468309052E+02 -0.60715379987E+03  0.60779535626E+03  0.00000000000E+00 0. -1.
          1    1    1    2  502    0  0.17429997213E+02 -0.34576828759E+02  0.15963507397E+03  0.16426417361E+03  0.00000000000E+00 0. -1.
         22    1    3    3    0    0 -0.15494844390E+02  0.59141025513E+02 -0.13095652789E+03  0.14452461140E+03  0.00000000000E+00 0.  1.
         22    1    3    3    0    0 -0.69301895095E+01 -0.52032505806E+02 -0.29453139003E+02  0.60190502442E+02  0.00000000000E+00 0.  1.
</event>
<event>
 7    1  0.5194496E-006  0.3480236E+02  0.7818608E-02  0.1555739E+00
          2   -1    0    0  502    0  0.00000000000E+00  0.00000000000E+00  0.12583113768E+04  0.12583113768E+04  0.00000000000E+00 0. -1.
          1   -1    0    0  501    0 -0.00000000000E+00 -0.00000000000E+00 -0.43826827755E+02  0.43826827755E+02  0.00000000000E+00 0. -1.
         25    2    1    2    0    0 -0.92742924471E+01  0.40555519948E+02  0.46919213097E+03  0.48733560968E+03  0.12499591192E+03 0.  0.
          2    1    1    2  501    0  0.31035526307E+02 -0.12941828400E+02 -0.26126623142E+02  0.42582804655E+02  0.00000000000E+00 0. -1.
          1    1    1    2  502    0 -0.21761233860E+02 -0.27613691548E+02  0.77141904119E+03  0.77221979019E+03  0.00000000000E+00 0. -1.
         22    1    3    3    0    0  0.53349306792E+02 -0.59429112040E+01  0.18412561074E+03  0.19179079034E+03  0.00000000000E+00 0. -1.
         22    1    3    3    0    0 -0.62623599239E+02  0.46498431152E+02  0.28506652023E+03  0.29554481934E+03  0.00000000000E+00 0. -1.
</event>
<event>
 7    1  0.5194496E-006  0.1637432E+03  0.7818608E-02  0.1245100E+00
          2   -1    0    0  502    0  0.00000000000E+00  0.00000000000E+00  0.50514345933E+03  0.50514345933E+03  0.00000000000E+00 0. -1.
          1   -1    0    0  501    0 -0.00000000000E+00 -0.00000000000E+00 -0.12980669805E+04  0.12980669805E+04  0.00000000000E+00 0. -1.
         25    2    1    2    0    0 -0.19768541733E+02 -0.22354182854E+03 -0.42483732353E+02  0.26036743615E+03  0.12499835976E+03 0.  0.
          2    1    1    2  501    0 -0.35237023470E+02  0.15719457999E+03 -0.11362046930E+04  0.11475682499E+04  0.00000000000E+00 0. -1.
          1    1    1    2  502    0  0.55005565203E+02  0.66347248545E+02  0.38576490424E+03  0.39527475373E+03  0.00000000000E+00 0. -1.
         22    1    3    3    0    0  0.23283427132E+02 -0.12572864532E+03 -0.75527849167E+02  0.14850678851E+03  0.00000000000E+00 0. -1.
         22    1    3    3    0    0 -0.43051968866E+02 -0.97813183217E+02  0.33044116814E+02  0.11186064764E+03  0.00000000000E+00 0. -1.
</event>
<event>
 7    1  0.5194496E-006  0.5294109E+02  0.7818608E-02  0.1522193E+00
          2   -1    0    0  502    0  0.00000000000E+00  0.00000000000E+00  0.14793662248E+03  0.14793662248E+03  0.00000000000E+00 0. -1.
          1   -1    0    0  501    0 -0.00000000000E+00 -0.00000000000E+00 -0.12237708810E+04  0.12237708810E+04  0.00000000000E+00 0. -1.
         25    2    1    2    0    0  0.34316582548E+02  0.33689985138E+02 -0.59972127826E+02  0.14676425262E+03  0.12502178528E+03 0.  0.
          2    1    1    2  501    0 -0.13286169560E+02 -0.51421710311E+02 -0.11179517239E+04  0.11192125676E+04  0.00000000000E+00 0. -1.
          1    1    1    2  502    0 -0.21030412988E+02  0.17731725173E+02  0.10208959317E+03  0.10573068326E+03  0.00000000000E+00 0. -1.
         22    1    3    3    0    0  0.24668901286E+02  0.67577849934E+02  0.57748947812E+01  0.72171115428E+02  0.00000000000E+00 0. -1.
         22    1    3    3    0    0  0.96476812620E+01 -0.33887864796E+02 -0.65747022607E+02  0.74593137190E+02  0.00000000000E+00 0. -1.
</event>
<event>
 7    1  0.5194496E-006  0.4385117E+02  0.7818608E-02  0.1520005E+00
          2   -1    0    0  502    0  0.00000000000E+00  0.00000000000E+00  0.17755546181E+03  0.17755546181E+03  0.00000000000E+00 0. -1.
          1   -1    0    0  501    0 -0.00000000000E+00 -0.00000000000E+00 -0.54271623212E+03  0.54271623212E+03  0.00000000000E+00 0. -1.
         25    2    1    2    0    0 -0.16750588867E+02 -0.66138901984E+02  0.10424132158E+03  0.17647131370E+03  0.12498373835E+03 0.  0.
          2    1    1    2  501    0  0.18161334489E+02  0.28386343891E+02 -0.49628827597E+03  0.49743107206E+03  0.00000000000E+00 0. -1.
          1    1    1    2  502    0 -0.14107456219E+01  0.37752558094E+02  0.26886184073E+02  0.46369308166E+02  0.00000000000E+00 0. -1.
         22    1    3    3    0    0 -0.31980690159E+01  0.34345381269E+02  0.54776352233E+01  0.34926169953E+02  0.00000000000E+00 0. -1.
         22    1    3    3    0    0 -0.13552519851E+02 -0.10048428325E+03  0.98763686355E+02  0.14154514374E+03  0.00000000000E+00 0. -1.
</event>
<event>
 7    1  0.5194496E-006  0.7764953E+02  0.7818608E-02  0.1405941E+00
          2   -1    0    0  502    0  0.00000000000E+00  0.00000000000E+00  0.23748925009E+04  0.23748925009E+04  0.00000000000E+00 0. -1.
          1   -1    0    0  501    0 -0.00000000000E+00 -0.00000000000E+00 -0.74372043124E+03  0.74372043124E+03  0.00000000000E+00 0. -1.
         25    2    1    2    0    0  0.42415881933E+02  0.11183309984E+03  0.13687912613E+03  0.22060873556E+03  0.12500627894E+03 0.  0.
          2    1    1    2  501    0 -0.20145472010E+02 -0.74482008609E+02 -0.69951889912E+03  0.70376139413E+03  0.00000000000E+00 0. -1.
          1    1    1    2  502    0 -0.22270409923E+02 -0.37351091235E+02  0.21938118426E+04  0.21942428025E+04  0.00000000000E+00 0. -1.
         22    1    3    3    0    0 -0.11129528737E+02  0.11811181406E+03  0.10144754229E+03  0.15609571060E+03  0.00000000000E+00 0. -1.
         22    1    3    3    0    0  0.53545410670E+02 -0.62787142172E+01  0.35431583843E+02  0.64513024961E+02  0.00000000000E+00 0. -1.
</event>
<event>
 7    1  0.5194496E-006  0.1154833E+03  0.7818608E-02  0.1254526E+00
          2   -1    0    0  502    0  0.00000000000E+00  0.00000000000E+00  0.20908208590E+03  0.20908208590E+03  0.00000000000E+00 0. -1.
          1   -1    0    0  501    0 -0.00000000000E+00 -0.00000000000E+00 -0.75653628451E+03  0.75653628451E+03  0.00000000000E+00 0. -1.
         25    2    1    2    0    0  0.64220570488E+02 -0.48534347841E+01 -0.35794902626E+03  0.38457713448E+03  0.12499691780E+03 0.  0.
          2    1    1    2  501    0 -0.23411757987E+02  0.11308527428E+03 -0.35828077364E+03  0.37643260012E+03  0.00000000000E+00 0. -1.
          1    1    1    2  502    0 -0.40808812501E+02 -0.10823183950E+03  0.16877560129E+03  0.20460863581E+03  0.00000000000E+00 0. -1.
         22    1    3    3    0    0  0.52307999935E+02 -0.30311276128E+02 -0.59556908209E+02  0.84864159886E+02  0.00000000000E+00 0. -1.
         22    1    3    3    0    0  0.11912570554E+02  0.25457841344E+02 -0.29839211805E+03  0.29971297459E+03  0.00000000000E+00 0. -1.
</event>
<event>
 7    1  0.5194496E-006  0.1730752E+03  0.7818608E-02  0.1211262E+00
          2   -1    0    0  502    0  0.00000000000E+00  0.00000000000E+00  0.21107685320E+03  0.21107685320E+03  0.00000000000E+00 0. -1.
          1   -1    0    0  501    0 -0.00000000000E+00 -0.00000000000E+00 -0.14071294193E+04  0.14071294193E+04  0.00000000000E+00 0. -1.
         25    2    1    2    0    0 -0.22277432117E+03  0.10956505371E+03 -0.93015219600E+02  0.29310315934E+03  0.12499892708E+03 0.  0.
          2    1    1    2  501    0  0.11574716873E+03  0.18914982258E+01 -0.11559801123E+04  0.11617620260E+04  0.00000000000E+00 0. -1.
          1    1    1    2  502    0  0.10702715244E+03 -0.11145655193E+03  0.52942765809E+02  0.16334108724E+03  0.00000000000E+00 0. -1.
         22    1    3    3    0    0 -0.17632959935E+03  0.13507440157E+03 -0.57924251953E+02  0.22954834029E+03  0.00000000000E+00 0.  1.
         22    1    3    3    0    0 -0.46444721824E+02 -0.25509347869E+02 -0.35090967647E+02  0.63554819049E+02  0.00000000000E+00 0.  1.
</event>
<event>
 7    1  0.5194496E-006  0.8211130E+02  0.7818608E-02  0.1457181E+00
          2   -1    0    0  502    0  0.00000000000E+00  0.00000000000E+00  0.13675563075E+04  0.13675563075E+04  0.00000000000E+00 0. -1.
          1   -1    0    0  501    0 -0.00000000000E+00 -0.00000000000E+00 -0.40486424193E+03  0.40486424193E+03  0.00000000000E+00 0. -1.
         25    2    1    2    0    0  0.74629632847E+02 -0.20843008771E+02  0.94564399257E+02  0.17484738929E+03  0.12500068328E+03 0.  0.
          2    1    1    2  501    0 -0.74409573606E+01 -0.26897397648E+02 -0.36280867378E+03  0.36388043589E+03  0.00000000000E+00 0. -1.
          1    1    1    2  502    0 -0.67188675487E+02  0.47740406419E+02  0.12309363401E+04  0.12336927243E+04  0.00000000000E+00 0. -1.
         22    1    3    3    0    0  0.38345975543E+02 -0.33429012304E+02  0.11893849717E+03  0.12936104055E+03  0.00000000000E+00 0. -1.
         22    1    3    3    0    0  0.36283657304E+02  0.12586003532E+02 -0.24374097911E+02  0.45486348735E+02  0.00000000000E+00 0. -1.
</event>
<event>
 7    1  0.5194496E-006  0.5748280E+02  0.7818608E-02  0.1414003E+00
          2   -1    0    0  502    0  0.00000000000E+00  0.00000000000E+00  0.20191612563E+03  0.20191612563E+03  0.00000000000E+00 0. -1.
          1   -1    0    0  501    0 -0.00000000000E+00 -0.00000000000E+00 -0.25251998372E+04  0.25251998372E+04  0.00000000000E+00 0. -1.
         25    2    1    2    0    0 -0.14693507411E+02 -0.25729998177E+01 -0.16451538428E+03  0.20715307501E+03  0.12499826133E+03 0.  0.
          2    1    1    2  501    0  0.28890533970E+02 -0.50730248555E+02 -0.23347800738E+04  0.23355098403E+04  0.00000000000E+00 0. -1.
          1    1    1    2  502    0 -0.14197026559E+02  0.53303248372E+02  0.17601174648E+03  0.18445304755E+03  0.00000000000E+00 0. -1.
         22    1    3    3    0    0  0.31618502502E+02 -0.49024839113E+02 -0.95739896502E+02  0.11211285534E+03  0.00000000000E+00 0.  1.
         22    1    3    3    0    0 -0.46312009913E+02  0.46451839295E+02 -0.68775487774E+02  0.95040219669E+02  0.00000000000E+00 0.  1.
</event>
<event>
 7    1  0.5194496E-006  0.8662567E+02  0.7818608E-02  0.1324468E+00
          2   -1    0    0  502    0  0.00000000000E+00  0.00000000000E+00  0.12261661760E+04  0.12261661760E+04  0.00000000000E+00 0. -1.
          1   -1    0    0  501    0 -0.00000000000E+00 -0.00000000000E+00 -0.34938105062E+03  0.34938105062E+03  0.00000000000E+00 0. -1.
         25    2    1    2    0    0  0.37270864096E+02  0.21696806352E+02  0.23406040139E+03  0.26882707175E+03  0.12499541707E+03 0.  0.
          2    1    1    2  501    0 -0.26418385354E+02  0.72258464773E+02 -0.32520432997E+03  0.33418119792E+03  0.00000000000E+00 0. -1.
          1    1    1    2  502    0 -0.10852478743E+02 -0.93955271125E+02  0.96792905396E+03  0.97253895694E+03  0.00000000000E+00 0. -1.
         22    1    3    3    0    0  0.68527780864E+02 -0.74664722075E+01  0.66071914460E+02  0.95484568585E+02  0.00000000000E+00 0.  1.
         22    1    3    3    0    0 -0.31256916768E+02  0.29163278559E+02  0.16798848693E+03  0.17334250316E+03  0.00000000000E+00 0.  1.
</event>
<event>
 7    1  0.5194496E-006  0.9860889E+02  0.7818608E-02  0.1310365E+00
          2   -1    0    0  502    0  0.00000000000E+00  0.00000000000E+00  0.93470016395E+03  0.93470016395E+03  0.00000000000E+00 0. -1.
          1   -1    0    0  501    0 -0.00000000000E+00 -0.00000000000E+00 -0.58562818401E+03  0.58562818401E+03  0.00000000000E+00 0. -1.
         25    2    1    2    0    0 -0.52775833099E+02  0.83606901936E+02  0.14811932235E+03  0.21757619272E+03  0.12499865349E+03 0.  0.
          2    1    1    2  501    0 -0.22806327222E+02 -0.96661170037E+02 -0.54443965834E+03  0.55342393509E+03  0.00000000000E+00 0. -1.
          1    1    1    2  502    0  0.75582160321E+02  0.13054268101E+02  0.74539231592E+03  0.74932822015E+03  0.00000000000E+00 0. -1.
         22    1    3    3    0    0 -0.76814642397E+02  0.33732194496E+02  0.13769201864E+03  0.16123722346E+03  0.00000000000E+00 0.  1.
         22    1    3    3    0    0  0.24038809298E+02  0.49874707440E+02  0.10427303713E+02  0.56338969261E+02  0.00000000000E+00 0.  1.
</event>
<event>
 7    1  0.5194496E-006  0.1183169E+03  0.7818608E-02  0.1328640E+00
          2   -1    0    0  502    0  0.00000000000E+00  0.00000000000E+00  0.12323818054E+04  0.12323818054E+04  0.00000000000E+00 0. -1.
          1   -1    0    0  501    0 -0.00000000000E+00 -0.00000000000E+00 -0.71362437429E+03  0.71362437429E+03  0.00000000000E+00 0. -1.
         25    2    1    2    0    0 -0.65846556644E+02  0.33621757964E+02 -0.94334313328E+02  0.17317718547E+03  0.12500073306E+03 0.  0.
          2    1    1    2  501    0  0.11979908378E+03 -0.39650923189E+02 -0.57237469961E+03  0.58612013525E+03  0.00000000000E+00 0. -1.
          1    1    1    2  502    0 -0.53952527138E+02  0.60291652243E+01  0.11854664441E+04  0.11867088590E+04  0.00000000000E+00 0. -1.
         22    1    3    3    0    0 -0.19466698998E+02  0.78289137327E+02 -0.48359406055E+02  0.94057288645E+02  0.00000000000E+00 0. -1.
         22    1    3    3    0    0 -0.46379857646E+02 -0.44667379362E+02 -0.45974907273E+02  0.79119896822E+02  0.00000000000E+00 0. -1.
</event>
<event>
 7    1  0.5194496E-006  0.6336552E+02  0.7818608E-02  0.1423323E+00
          2   -1    0    0  502    0  0.00000000000E+00  0.00000000000E+00  0.68257721875E+03  0.68257721875E+03  0.00000000000E+00 0. -1.
          1   -1    0    0  501    0 -0.00000000000E+00 -0.00000000000E+00 -0.29581771496E+03  0.29581771496E+03  0.00000000000E+00 0. -1.
         25    2    1    2    0    0 -0.54815432026E+02 -0.78803972872E+02 -0.15855934052E+03  0.22356578858E+03  0.12500319846E+03 0.  0.
          2    1    1    2  501    0  0.48782532727E+00  0.46570158342E+02 -0.97954014916E+02  0.10846200560E+03  0.00000000000E+00 0. -1.
          1    1    1    2  502    0  0.54327606699E+02  0.32233814530E+02  0.64327285923E+03  0.64636713953E+03  0.00000000000E+00 0. -1.
         22    1    3    3    0    0  0.19916185155E+00  0.24158928384E+02  0.28906849864E+01  0.24332068260E+02  0.00000000000E+00 0. -1.
         22    1    3    3    0    0 -0.55014593878E+02 -0.10296290126E+03 -0.16145002551E+03  0.19923372032E+03  0.00000000000E+00 0. -1.
</event>
<event>
 7    1  0.5194496E-006  0.1505337E+03  0.7818608E-02  0.1270720E+00
          2   -1    0    0  502    0  0.00000000000E+00  0.00000000000E+00  0.10206499152E+04  0.10206499152E+04  0.00000000000E+00 0. -1.
          1   -1    0    0  501    0 -0.00000000000E+00 -0.00000000000E+00 -0.15492644156E+03  0.15492644156E+03  0.00000000000E+00 0. -1.
         25    2    1    2    0    0 -0.65094206740E+02  0.67978223008E+02  0.30832827395E+03  0.34575907863E+03  0.12499888552E+03 0.  0.
          2    1    1    2  501    0  0.75560993328E+02 -0.14003811649E+03 -0.86977891078E+02  0.18134302115E+03  0.00000000000E+00 0. -1.
          1    1    1    2  502    0 -0.10466786587E+02  0.72059893479E+02  0.64437309075E+03  0.64847425697E+03  0.00000000000E+00 0. -1.
         22    1    3    3    0    0 -0.47880998143E+02  0.88631141827E+02  0.12533307437E+03  0.16079940552E+03  0.00000000000E+00 0.  1.
         22    1    3    3    0    0 -0.17213208598E+02 -0.20652918819E+02  0.18299519958E+03  0.18495967310E+03  0.00000000000E+00 0.  1.
</event>
<event>
 7    1  0.5194496E-006  0.1942812E+03  0.7818608E-02  0.1239171E+00
          2   -1    0    0  502    0  0.00000000000E+00  0.00000000000E+00  0.15181691452E+04  0.15181691452E+04  0.00000000000E+00 0. -1.
          1   -1    0    0  501    0 -0.00000000000E+00 -0.00000000000E+00 -0.13039236331E+04  0.13039236331E+04  0.00000000000E+00 0. -1.
         25    2    1    2    0    0  0.12635749466E+03 -0.18996775467E+03  0.14913355886E+03  0.29986495463E+03  0.12499683343E+03 0.  0.
          2    1    1    2  501    0 -0.15355505150E+03  0.11779348361E+03 -0.12197727003E+04  0.12350303232E+04  0.00000000000E+00 0. -1.
          1    1    1    2  502    0  0.27197556845E+02  0.72174271060E+02  0.12848846535E+04  0.12871975005E+04  0.00000000000E+00 0. -1.
         22    1    3    3    0    0  0.93284157749E+02 -0.10371477054E+03  0.15346238478E+03  0.20738705663E+03  0.00000000000E+00 0. -1.
         22    1    3    3    0    0  0.33073336911E+02 -0.86252984128E+02 -0.43288259150E+01  0.92477898003E+02  0.00000000000E+00 0. -1.
</event>
<event>
 7    1  0.5194496E-006  0.1522737E+03  0.7818608E-02  0.1369224E+00
          2   -1    0    0  502    0  0.00000000000E+00  0.00000000000E+00  0.27133388542E+03  0.27133388542E+03  0.00000000000E+00 0. -1.
          1   -1    0    0  501    0 -0.00000000000E+00 -0.00000000000E+00 -0.32555853465E+04  0.32555853465E+04  0.00000000000E+00 0. -1.
         25    2    1    2    0    0  0.12408864434E+03 -0.17457020847E+01 -0.10594380732E+03  0.20555202251E+03  0.12500601794E+03 0.  0.
          2    1    1    2  501    0 -0.15310999090E+03  0.85924298802E+01 -0.30969281712E+04  0.31007225927E+04  0.00000000000E+00 0. -1.
          1    1    1    2  502    0  0.29021346558E+02 -0.68467277955E+01  0.21862051745E+03  0.22064461672E+03  0.00000000000E+00 0. -1.
         22    1    3    3    0    0 -0.12674019527E+02  0.31675102780E+02 -0.11421326631E+02  0.35977626507E+02  0.00000000000E+00 0.  1.
         22    1    3    3    0    0  0.13676266387E+03 -0.33420804864E+02 -0.94522480687E+02  0.16957439601E+03  0.00000000000E+00 0.  1.
</event>
<event>
 7    1  0.5194496E-006  0.2257923E+03  0.7818608E-02  0.1146664E+00
          2   -1    0    0  502    0  0.00000000000E+00  0.00000000000E+00  0.11612383316E+04  0.11612383316E+04  0.00000000000E+00 0. -1.
          1   -1    0    0  501    0 -0.00000000000E+00 -0.00000000000E+00 -0.39961637288E+03  0.39961637288E+03  0.00000000000E+00 0. -1.
         25    2    1    2    0    0  0.89967310529E+02 -0.55955814664E+02  0.51773861580E+02  0.17184707739E+03  0.12500286039E+03 0.  0.
          2    1    1    2  501    0  0.17407362060E+03  0.58838744420E+02 -0.29637475131E+03  0.34871423322E+03  0.00000000000E+00 0. -1.
          1    1    1    2  502    0 -0.26404093113E+03 -0.28829297560E+01  0.10062228484E+04  0.10402933938E+04  0.00000000000E+00 0. -1.
         22    1    3    3    0    0  0.12067127324E+03 -0.33484713551E+02  0.45742788608E+02  0.13332360983E+03  0.00000000000E+00 0. -1.
         22    1    3    3    0    0 -0.30703962714E+02 -0.22471101113E+02  0.60310729725E+01  0.38523467559E+02  0.00000000000E+00 0. -1.
</event>
<event>
 7    1  0.5194496E-006  0.8313947E+02  0.7818608E-02  0.1348693E+00
          2   -1    0    0  502    0  0.00000000000E+00  0.00000000000E+00  0.30390143043E+04  0.30390143043E+04  0.00000000000E+00 0. -1.
          1   -1    0    0  501    0 -0.00000000000E+00 -0.00000000000E+00 -0.18437391356E+03  0.18437391356E+03  0.00000000000E+00 0. -1.
         25    2    1    2    0    0 -0.81115197604E+02 -0.23684443061E+02  0.18357305465E+03  0.23762076097E+03  0.12499572602E+03 0.  0.
          2    1    1    2  501    0  0.41426078246E+02 -0.49978715521E+02 -0.15000798483E+03  0.16345148355E+03  0.00000000000E+00 0. -1.
          1    1    1    2  502    0  0.39689119358E+02  0.73663158582E+02  0.28210753209E+04  0.28223159733E+04  0.00000000000E+00 0. -1.
         22    1    3    3    0    0 -0.84958508848E+02 -0.66498568619E+02  0.13047411201E+03  0.16930298804E+03  0.00000000000E+00 0. -1.
         22    1    3    3    0    0  0.38433112438E+01  0.42814125558E+02  0.53098942640E+02  0.68317772930E+02  0.00000000000E+00 0. -1.
</event>
<event>
 7    1  0.5194496E-006  0.1362611E+03  0.7818608E-02  0.1372207E+00
          2   -1    0    0  502    0  0.00000000000E+00  0.00000000000E+00  0.21720796076E+04  0.21720796076E+04  0.00000000000E+00 0. -1.
          1   -1    0    0  501    0 -0.00000000000E+00 -0.00000000000E+00 -0.54696233864E+02  0.54696233864E+02  0.00000000000E+00 0. -1.
         25    2    1    2    0    0 -0.11137648197E+03 -0.67429844496E+01  0.56622008431E+03  0.59049105722E+03  0.12499726479E+03 0.  0.
          2    1    1    2  501    0 -0.31476790210E+02  0.81319693176E+01 -0.32630161892E+02  0.46061314701E+02  0.00000000000E+00 0. -1.
          1    1    1    2  502    0  0.14285327218E+03 -0.13889848680E+01  0.15837934513E+04  0.15902234695E+04  0.00000000000E+00 0. -1.
         22    1    3    3    0    0 -0.12538478425E+03 -0.20721969279E+02  0.55116142956E+03  0.56562325409E+03  0.00000000000E+00 0. -1.
         22    1    3    3    0    0  0.14008302281E+02  0.13978984829E+02  0.15058654754E+02  0.24867803133E+02  0.00000000000E+00 0. -1.
</event>
<event>
 7    1  0.5194496E-006  0.1508203E+03  0.7818608E-02  0.1216268E+00
          2   -1    0    0  502    0  0.00000000000E+00  0.00000000000E+00  0.17479469757E+04  0.17479469757E+04  0.00000000000E+00 0. -1.
          1   -1    0    0  501    0 -0.00000000000E+00 -0.00000000000E+00 -0.25418961912E+03  0.25418961912E+03  0.00000000000E+00 0. -1.
         25    2    1    2    0    0 -0.50247966874E+02 -0.51439852861E+02  0.96091089692E+03  0.97167151498E+03  0.12499945826E+03 0.  0.
          2    1    1    2  501    0  0.15179021314E+03 -0.23114144690E+02 -0.21937498351E+03  0.26776839971E+03  0.00000000000E+00 0. -1.
          1    1    1    2  502    0 -0.10154224626E+03  0.74553997551E+02  0.75222144320E+03  0.76269668016E+03  0.00000000000E+00 0. -1.
         22    1    3    3    0    0 -0.48919509424E+02  0.20303767495E+02  0.18450811398E+03  0.19195990597E+03  0.00000000000E+00 0.  1.
         22    1    3    3    0    0 -0.13284574500E+01 -0.71743620356E+02  0.77640278294E+03  0.77971160901E+03  0.00000000000E+00 0.  1.
</event>
<event>
 7    1  0.5194496E-006  0.7502074E+02  0.7818608E-02  0.1413316E+00
          2   -1    0    0  502    0  0.00000000000E+00  0.00000000000E+00  0.54275172359E+03  0.54275172359E+03  0.00000000000E+00 0. -1.
          1   -1    0    0  501    0 -0.00000000000E+00 -0.00000000000E+00 -0.98161049638E+03  0.98161049638E+03  0.00000000000E+00 0. -1.
         25    2    1    2    0    0  0.29632938879E+02  0.66865720608E+02 -0.70725520968E+03  0.72193165174E+03  0.12500496993E+03 0.  0.
          2    1    1    2  501    0 -0.67120801611E+02 -0.46859733399E+02 -0.25986987273E+03  0.27245804700E+03  0.00000000000E+00 0. -1.
          1    1    1    2  502    0  0.37487862732E+02 -0.20005987209E+02  0.52826630962E+03  0.52997252123E+03  0.00000000000E+00 0. -1.
         22    1    3    3    0    0  0.66933168575E+02  0.32278091497E+02 -0.22394560084E+03  0.23595244517E+03  0.00000000000E+00 0. -1.
         22    1    3    3    0    0 -0.37300229696E+02  0.34587629111E+02 -0.48330960884E+03  0.48597920657E+03  0.00000000000E+00 0. -1.
</event>
<event>
 7    1  0.5194496E-006  0.1646024E+03  0.7818608E-02  0.1352403E+00
          2   -1    0    0  502    0  0.00000000000E+00  0.00000000000E+00  0.14024960929E+04  0.14024960929E+04  0.00000000000E+00 0. -1.
          1   -1    0    0  501    0 -0.00000000000E+00 -0.00000000000E+00 -0.96609056159E+03  0.96609056159E+03  0.00000000000E+00 0. -1.
         25    2    1    2    0    0 -0.11173582822E+03  0.11502702944E+03  0.10168864601E+03  0.22733592405E+03  0.12499971530E+03 0.  0.
          2    1    1    2  501    0  0.21510325698E+02  0.23376874201E+02 -0.89747239851E+03  0.89803445281E+03  0.00000000000E+00 0. -1.
          1    1    1    2  502    0  0.90225502522E+02 -0.13840390364E+03  0.12321892838E+04  0.12432162776E+04  0.00000000000E+00 0. -1.
         22    1    3    3    0    0 -0.13650319470E+03  0.83035602678E+02  0.64238100624E+02  0.17220501458E+03  0.00000000000E+00 0.  1.
         22    1    3    3    0    0  0.24767366479E+02  0.31991426762E+02  0.37450545387E+02  0.55130909464E+02  0.00000000000E+00 0.  1.
</event>
<event>
 7    1  0.5194496E-006  0.1530859E+03  0.7818608E-02  0.1307662E+00
          2   -1    0    0  502    0  0.00000000000E+00  0.00000000000E+00  0.62235326589E+03  0.62235326589E+03  0.00000000000E+00 0. -1.
          1   -1    0    0  501    0 -0.00000000000E+00 -0.00000000000E+00 -0.27028776779E+03  0.27028776779E+03  0.00000000000E+00 0. -1.
         25    2    1    2    0    0  0.10439329481E+03 -0.10867283346E+03  0.28556886246E+03  0.34624004163E+03  0.12499938596E+03 0.  0.
          2    1    1    2  501    0 -0.13705179310E+03  0.69977398369E+02 -0.21276755570E+03  0.26258344014E+03  0.00000000000E+00 0. -1.
          1    1    1    2  502    0  0.32658498292E+02  0.38695435088E+02  0.27926419135E+03  0.28381755192E+03  0.00000000000E+00 0. -1.
         22    1    3    3    0    0  0.20760247566E+02  0.26722278010E+02  0.30272742591E+02  0.45403821040E+02  0.00000000000E+00 0. -1.
         22    1    3    3    0    0  0.83633047241E+02 -0.13539511147E+03  0.25529611987E+03  0.30083622059E+03  0.00000000000E+00 0. -1.
</event>
<event>
 7    1  0.5194496E-006  0.1361716E+03  0.7818608E-02  0.1428377E+00
          2   -1    0    0  502    0  0.00000000000E+00  0.00000000000E+00  0.30826213405E+04  0.30826213405E+04  0.00000000000E+00 0. -1.
          1   -1    0    0  501    0 -0.00000000000E+00 -0.00000000000E+00 -0.77508191930E+02  0.77508191930E+02  0.00000000000E+00 0. -1.
         25    2    1    2    0    0  0.68693724116E+02 -0.13219381608E+03  0.61075823743E+03  0.64097180319E+03  0.12500078062E+03 0.  0.
          2    1    1    2  501    0 -0.19745293953E+02  0.67044581155E+01 -0.58758562266E+02  0.62348977790E+02  0.00000000000E+00 0. -1.
          1    1    1    2  502    0 -0.48948430164E+02  0.12548935797E+03  0.24531134734E+04  0.24568087514E+04  0.00000000000E+00 0. -1.
         22    1    3    3    0    0  0.71766082480E+02 -0.11883087629E+02  0.26808433089E+03  0.27777830519E+03  0.00000000000E+00 0.  1.
         22    1    3    3    0    0 -0.30723583631E+01 -0.12031072845E+03  0.34267390654E+03  0.36319349800E+03  0.00000000000E+00 0.  1.
</event>
<event>
 7    1  0.5194496E-006  0.1114957E+03  0.7818608E-02  0.1334993E+00
          2   -1    0    0  502    0  0.00000000000E+00  0.00000000000E+00  0.37534636527E+04  0.37534636527E+04  0.00000000000E+00 0. -1.
          1   -1    0    0  501    0 -0.00000000000E+00 -0.00000000000E+00 -0.42203718411E+03  0.42203718411E+03  0.00000000000E+00 0. -1.
         25    2    1    2    0    0  0.14785897699E+03  0.45543302360E+02  0.12026071254E+04  0.12189443156E+04  0.12499950733E+03 0.  0.
          2    1    1    2  501    0 -0.54320868754E+02  0.42515301198E+01 -0.41096562659E+03  0.41456191157E+03  0.00000000000E+00 0. -1.
          1    1    1    2  502    0 -0.93538108240E+02 -0.49794832479E+02  0.25397849698E+04  0.25419946097E+04  0.00000000000E+00 0. -1.
         22    1    3    3    0    0 -0.11177587836E+02  0.21748613982E+02  0.37884696036E+03  0.37963529874E+03  0.00000000000E+00 0. -1.
         22    1    3    3    0    0  0.15903656483E+03  0.23794688378E+02  0.82376016507E+03  0.83930901681E+03  0.00000000000E+00 0. -1.
</event>
<event>
 7    1  0.5194496E-006  0.8767914E+02  0.7818608E-02  0.1384321E+00
          2   -1    0    0  502    0  0.00000000000E+00  0.00000000000E+00  0.12353775996E+03  0.12353775996E+03  0.00000000000E+00 0. -1.
          1   -1    0    0  501    0 -0.00000000000E+00 -0.00000000000E+00 -0.17526202615E+03  0.17526202615E+03  0.00000000000E+00 0. -1.
         25    2    1    2    0    0 -0.43378883805E+02 -0.92672711561E+02 -0.57399046090E+02  0.17142558915E+03  0.12498849185E+03 0.  0.
          2    1    1    2  501    0 -0.43688716177E+00  0.79477697534E+02  0.14447592129E+02  0.80781360437E+02  0.00000000000E+00 0. -1.
          1    1    1    2  502    0  0.43815770967E+02  0.13195014027E+02 -0.87728122318E+01  0.46592836521E+02  0.00000000000E+00 0. -1.
         22    1    3    3    0    0  0.34346346690E+02 -0.71108507757E+02 -0.41510585769E+02  0.89214461481E+02  0.00000000000E+00 0. -1.
         22    1    3    3    0    0 -0.77725230495E+02 -0.21564203803E+02 -0.15888460321E+02  0.82211127669E+02  0.00000000000E+00 0. -1.
</event>
<event>
 7    1  0.5194496E-006  0.1644221E+03  0.7818608E-02  0.1222383E+00
          2   -1    0    0  502    0  0.00000000000E+00  0.00000000000E+00  0.86853170136E+03  0.86853170136E+03  0.00000000000E+00 0. -1.
          1   -1    0    0  501    0 -0.00000000000E+00 -0.00000000000E+00 -0.43750653571E+03  0.43750653571E+03  0.00000000000E+00 0. -1.
         25    2    1    2    0    0  0.17703136929E+03  0.14552927448E+03 -0.10382822505E+03  0.28093513285E+03  0.12500149243E+03 0.  0.
          2    1    1    2  501    0 -0.10834612950E+03  0.17131536922E+01 -0.22411626066E+03  0.24893757645E+03  0.00000000000E+00 0. -1.
          1    1    1    2  502    0 -0.68685239783E+02 -0.14724242818E+03  0.75896965136E+03  0.77616552778E+03  0.00000000000E+00 0. -1.
         22    1    3    3    0    0  0.76609006313E+02  0.96779986222E+02  0.70039920277E+01  0.12362993766E+03  0.00000000000E+00 0.  1.
         22    1    3    3    0    0  0.10042236297E+03  0.48749288261E+02 -0.11083221708E+03  0.15730519519E+03  0.00000000000E+00 0.  1.
</event>
<event>
 7    1  0.5194496E-006  0.1067845E+03  0.7818608E-02  0.1311264E+00
          2   -1    0    0  502    0  0.00000000000E+00  0.00000000000E+00  0.30496504113E+03  0.30496504113E+03  0.00000000000E+00 0. -1.
          1   -1    0    0  501    0 -0.00000000000E+00 -0.00000000000E+00 -0.15553700514E+03  0.15553700514E+03  0.00000000000E+00 0. -1.
         25    2    1    2    0    0 -0.13419374439E+03 -0.49748560709E+02  0.69244956650E+02  0.20224540364E+03  0.12500183577E+03 0.  0.
          2    1    1    2  501    0  0.65963564627E+02 -0.24175048241E+02 -0.55371431873E+02  0.89451776301E+02  0.00000000000E+00 0. -1.
          1    1    1    2  502    0  0.68230179760E+02  0.73923608950E+02  0.13555451121E+03  0.16880486634E+03  0.00000000000E+00 0. -1.
         22    1    3    3    0    0 -0.26151628961E+02 -0.29346673476E+02  0.82609366267E+02  0.91484656289E+02  0.00000000000E+00 0.  1.
         22    1    3    3    0    0 -0.10804211543E+03 -0.20401887233E+02 -0.13364409617E+02  0.11076074735E+03  0.00000000000E+00 0.  1.
</event>
<event>
 7    1  0.5194496E-006  0.5514927E+02  0.7818608E-02  0.1501258E+00
          2   -1    0    0  502    0  0.00000000000E+00  0.00000000000E+00  0.38761183627E+04  0.38761183627E+04  0.00000000000E+00 0. -1.
          1   -1    0    0  501    0 -0.00000000000E+00 -0.00000000000E+00 -0.62748853796E+03  0.62748853796E+03  0.00000000000E+00 0. -1.
         25    2    1    2    0    0 -0.58135692719E+02  0.55892529780E+02  0.51572662403E+02  0.15744384226E+03  0.12500036122E+03 0.  0.
          2    1    1    2  501    0  0.10298958363E+02 -0.28626358414E+02 -0.57394910343E+03  0.57475482623E+03  0.00000000000E+00 0. -1.
          1    1    1    2  502    0  0.47836734356E+02 -0.27266171366E+02  0.37710062657E+04  0.37714082321E+04  0.00000000000E+00 0. -1.
         22    1    3    3    0    0 -0.87894720861E+02  0.40952254394E+02  0.10958694250E+01  0.96973037619E+02  0.00000000000E+00 0. -1.
         22    1    3    3    0    0  0.29759028142E+02  0.14940275385E+02  0.50476792978E+02  0.60470804641E+02  0.00000000000E+00 0. -1.
</event>
<event>
 7    1  0.5194496E-006  0.3065464E+03  0.7818608E-02  0.1119102E+00
          2   -1    0    0  502    0  0.00000000000E+00  0.00000000000E+00  0.11017146961E+04  0.11017146961E+04  0.00000000000E+00 0. -1.
          1   -1    0    0  501    0 -0.00000000000E+00 -0.00000000000E+00 -0.33745625251E+04  0.33745625251E+04  0.00000000000E+00 0. -1.
         25    2    1    2    0    0 -0.44173397349E+03 -0.14334447187E+03 -0.28933150246E+03  0.56126116667E+03  0.12499935180E+03 0.  0.
          2    1    1    2  501    0  0.18888777879E+03 -0.15609002875E+02 -0.29230332635E+04  0.29291715029E+04  0.00000000000E+00 0. -1.
          1    1    1    2  502    0  0.25284619470E+03  0.15895347474E+03  0.93951693694E+03  0.98584455170E+03  0.00000000000E+00 0. -1.
         22    1    3    3    0    0 -0.21332361044E+03 -0.40466974401E+02 -0.69519004150E+02  0.22798559324E+03  0.00000000000E+00 0.  1.
         22    1    3    3    0    0 -0.22841036305E+03 -0.10287749747E+03 -0.21981249831E+03  0.33327557343E+03  0.00000000000E+00 0.  1.
</event>
<event>
 7    1  0.5194496E-006  0.7295405E+02  0.7818608E-02  0.1459268E+00
          2   -1    0    0  502    0  0.00000000000E+00  0.00000000000E+00  0.16089560463E+04  0.16089560463E+04  0.00000000000E+00 0. -1.
          1   -1    0    0  501    0 -0.00000000000E+00 -0.00000000000E+00 -0.39125528272E+03  0.39125528272E+03  0.00000000000E+00 0. -1.
         25    2    1    2    0    0 -0.46593006152E+02  0.34267840907E+02  0.23872527370E+03  0.27560292792E+03  0.12498809717E+03 0.  0.
          2    1    1    2  501    0  0.71486772595E+02 -0.15899777467E+02 -0.36904088529E+03  0.37623707499E+03  0.00000000000E+00 0. -1.
          1    1    1    2  502    0 -0.24893766443E+02 -0.18368063440E+02  0.13480163751E+04  0.13483713261E+04  0.00000000000E+00 0. -1.
         22    1    3    3    0    0  0.41781944917E+02  0.80419988313E+01  0.50644966716E+02  0.66146181446E+02  0.00000000000E+00 0. -1.
         22    1    3    3    0    0 -0.88374951069E+02  0.26225842075E+02  0.18808030698E+03  0.20945674647E+03  0.00000000000E+00 0. -1.
</event>
<event>
 7    1  0.5194496E-006  0.6674643E+02  0.7818608E-02  0.1475361E+00
          2   -1    0    0  502    0  0.00000000000E+00  0.00000000000E+00  0.16926149947E+04  0.16926149947E+04  0.00000000000E+00 0. -1.
          1   -1    0    0  501    0 -0.00000000000E+00 -0.00000000000E+00 -0.54203937156E+03  0.54203937156E+03  0.00000000000E+00 0. -1.
         25    2    1    2    0    0 -0.54598979179E+02 -0.59314256272E+02  0.12236529772E+03  0.19261244492E+03  0.12500823304E+03 0.  0.
          2    1    1    2  501    0  0.59677465822E+02  0.29626061965E+02 -0.50457794010E+03  0.50895775966E+03  0.00000000000E+00 0. -1.
          1    1    1    2  502    0 -0.50784866426E+01  0.29688194307E+02  0.15327882655E+04  0.15330841617E+04  0.00000000000E+00 0. -1.
         22    1    3    3    0    0  0.30275702589E+02 -0.26069016635E+02 -0.92987950011E-01  0.39952727596E+02  0.00000000000E+00 0. -1.
         22    1    3    3    0    0 -0.84874681769E+02 -0.33245239637E+02  0.12245828567E+03  0.15265971732E+03  0.00000000000E+00 0. -1.
</event>
<event>
 7    1  0.5194496E-006  0.7411423E+02  0.7818608E-02  0.1396937E+00
          2   -1    0    0  502    0  0.00000000000E+00  0.00000000000E+00  0.16087925502E+04  0.16087925502E+04  0.00000000000E+00 0. -1.
          1   -1    0    0  501    0 -0.00000000000E+00 -0.00000000000E+00 -0.11696214906E+04  0.11696214906E+04  0.00000000000E+00 0. -1.
         25    2    1    2    0    0 -0.91371967110E+02  0.74883181538E+02  0.34039792903E+03  0.38138227314E+03  0.12500144368E+03 0.  0.
          2    1    1    2  501    0  0.66260610148E+02 -0.32899676506E+02 -0.11474582665E+04  0.11498405674E+04  0.00000000000E+00 0. -1.
          1    1    1    2  502    0  0.25111356963E+02 -0.41983505032E+02  0.12462313970E+04  0.12471912002E+04  0.00000000000E+00 0. -1.
         22    1    3    3    0    0 -0.17502040144E+02  0.68790179582E+02  0.26994141118E+03  0.27911785268E+03  0.00000000000E+00 0.  1.
         22    1    3    3    0    0 -0.73869926967E+02  0.60930019566E+01  0.70456517851E+02  0.10226442045E+03  0.00000000000E+00 0.  1.
</event>
<event>
 7    1  0.5194496E-006  0.2048178E+03  0.7818608E-02  0.1232891E+00
          2   -1    0    0  502    0  0.00000000000E+00  0.00000000000E+00  0.88828552177E+03  0.88828552177E+03  0.00000000000E+00 0. -1.
          1   -1    0    0  501    0 -0.00000000000E+00 -0.00000000000E+00 -0.67716485756E+03  0.67716485756E+03  0.00000000000E+00 0. -1.
         25    2    1    2    0    0 -0.15150596733E+03  0.99286558155E+02  0.90446030965E+02  0.23794443077E+03  0.12500075541E+03 0.  0.
          2    1    1    2  501    0  0.12010475392E+03 -0.17069841121E+03 -0.58314736301E+03  0.61937383420E+03  0.00000000000E+00 0. -1.
          1    1    1    2  502    0  0.31401213408E+02  0.71411853059E+02  0.70382199626E+03  0.70813211435E+03  0.00000000000E+00 0. -1.
         22    1    3    3    0    0 -0.10421562434E+03  0.61142789669E+01  0.82679203404E+02  0.13316955898E+03  0.00000000000E+00 0.  1.
         22    1    3    3    0    0 -0.47290342991E+02  0.93172279188E+02  0.77668275603E+01  0.10477487179E+03  0.00000000000E+00 0.  1.
</event>
<event>
 7    1  0.5194496E-006  0.2397837E+03  0.7818608E-02  0.1295736E+00
          2   -1    0    0  502    0  0.00000000000E+00  0.00000000000E+00  0.24007615966E+04  0.24007615966E+04  0.00000000000E+00 0. -1.
          1   -1    0    0  501    0 -0.00000000000E+00 -0.00000000000E+00 -0.20600047437E+04  0.20600047437E+04  0.00000000000E+00 0. -1.
         25    2    1    2    0    0 -0.40080747587E+02 -0.26334053989E+03 -0.13283589685E+04  0.13605570920E+04  0.12499338013E+03 0.  0.
          2    1    1    2  501    0 -0.18532748632E+02  0.30948221613E+02 -0.70906506132E+03  0.70998205356E+03  0.00000000000E+00 0. -1.
          1    1    1    2  502    0  0.58613496218E+02  0.23239231828E+03  0.23781808828E+04  0.23902271948E+04  0.00000000000E+00 0. -1.
         22    1    3    3    0    0 -0.49373336087E+02 -0.81256580533E+02 -0.69516309980E+03  0.70163529951E+03  0.00000000000E+00 0. -1.
         22    1    3    3    0    0  0.92925885000E+01 -0.18208395936E+03 -0.63319586867E+03  0.65892179244E+03  0.00000000000E+00 0. -1.
</event>
<event>
 7    1  0.5194496E-006  0.5894998E+02  0.7818608E-02  0.1470174E+00
          2   -1    0    0  502    0  0.00000000000E+00  0.00000000000E+00  0.28202240985E+03  0.28202240985E+03  0.00000000000E+00 0. -1.
          1   -1    0    0  501    0 -0.00000000000E+00 -0.00000000000E+00 -0.50629790689E+03  0.50629790689E+03  0.00000000000E+00 0. -1.
         25    2    1    2    0    0 -0.80744572783E+02 -0.36706086028E+02  0.25864073744E+02  0.15545430676E+03  0.12502027194E+03 0.  0.
          2    1    1    2  501    0  0.57508039205E+02  0.10014800437E+02 -0.43791323431E+03  0.44178668108E+03  0.00000000000E+00 0. -1.
          1    1    1    2  502    0  0.23236533579E+02  0.26691285590E+02  0.18777366352E+03  0.19107932890E+03  0.00000000000E+00 0. -1.
         22    1    3    3    0    0 -0.62924722134E+02  0.34893332047E+02 -0.11309642646E+02  0.72835247606E+02  0.00000000000E+00 0. -1.
         22    1    3    3    0    0 -0.17819850649E+02 -0.71599418074E+02  0.37173716390E+02  0.82619059157E+02  0.00000000000E+00 0. -1.
</event>
<event>
 7    1  0.7548839E-006  0.1540604E+03  0.7818608E-02  0.1248135E+00
          2   -1    0    0  502    0  0.00000000000E+00  0.00000000000E+00  0.74298061438E+03  0.74298061438E+03  0.00000000000E+00 0. -1.
          1   -1    0    0  501    0 -0.00000000000E+00 -0.00000000000E+00 -0.17299617049E+04  0.17299617049E+04  0.00000000000E+00 0. -1.
         25    2    1    2    0    0  0.59473513395E+02 -0.34700120893E+02 -0.18206984117E+03  0.23133717583E+03  0.12500505858E+03 0.  0.
          2    1    1    2  501    0  0.79350664926E+02 -0.39972963915E+02 -0.15132917230E+04  0.15158978213E+04  0.00000000000E+00 0. -1.
          1    1    1    2  502    0 -0.13882417832E+03  0.74673084808E+02  0.70838047359E+03  0.72570732217E+03  0.00000000000E+00 0. -1.
         22    1    3    3    0    0 -0.37153733292E+02  0.10717573971E+01 -0.30600971242E+02  0.48145280167E+02  0.00000000000E+00 0. -1.
         22    1    3    3    0    0  0.96627246687E+02 -0.35771878290E+02 -0.15146886993E+03  0.18319189566E+03  0.00000000000E+00 0. -1.
</event>
<event>
 7    1  0.5194496E-006  0.1352198E+03  0.7818608E-02  0.1287278E+00
          2   -1    0    0  502    0  0.00000000000E+00  0.00000000000E+00  0.18061628643E+04  0.18061628643E+04  0.00000000000E+00 0. -1.
          1   -1    0    0  501    0 -0.00000000000E+00 -0.00000000000E+00 -0.50873130302E+03  0.50873130302E+03  0.00000000000E+00 0. -1.
         25    2    1    2    0    0  0.71519306152E+02  0.11914495372E+03  0.12770635625E+04  0.12906691597E+04  0.12500002373E+03 0.  0.
          2    1    1    2  501    0 -0.41915691764E+01 -0.13525335139E+03 -0.49043061653E+03  0.50875655076E+03  0.00000000000E+00 0. -1.
          1    1    1    2  502    0 -0.67327736975E+02  0.16108397666E+02  0.51079861528E+03  0.51546845686E+03  0.00000000000E+00 0. -1.
         22    1    3    3    0    0  0.17816700893E+02  0.57952725405E+02  0.16772318969E+03  0.17834523143E+03  0.00000000000E+00 0. -1.
         22    1    3    3    0    0  0.53702605259E+02  0.61192228316E+02  0.11093403728E+04  0.11123239283E+04  0.00000000000E+00 0. -1.
</event>
<event>
 7    1  0.5194496E-006  0.1027570E+03  0.7818608E-02  0.1463747E+00
          2   -1    0    0  502    0  0.00000000000E+00  0.00000000000E+00  0.34558139006E+03  0.34558139006E+03  0.00000000000E+00 0. -1.
          1   -1    0    0  501    0 -0.00000000000E+00 -0.00000000000E+00 -0.97819076613E+03  0.97819076613E+03  0.00000000000E+00 0. -1.
         25    2    1    2    0    0 -0.95507455917E+01 -0.81315552945E+02 -0.65973324155E+03  0.67644346108E+03  0.12499748056E+03 0.  0.
          2    1    1    2  501    0  0.19048847186E+00 -0.21261717324E+02 -0.30185428889E+03  0.30260222840E+03  0.00000000000E+00 0. -1.
          1    1    1    2  502    0  0.93602571199E+01  0.10257727027E+03  0.32897815437E+03  0.34472646670E+03  0.00000000000E+00 0. -1.
         22    1    3    3    0    0 -0.65279916261E+01  0.23960050138E+02 -0.35117985325E+02  0.43011295848E+02  0.00000000000E+00 0. -1.
         22    1    3    3    0    0 -0.30227539656E+01 -0.10527560308E+03 -0.62461525622E+03  0.63343216523E+03  0.00000000000E+00 0. -1.
</event>
<event>
 7    1  0.5194496E-006  0.5275579E+02  0.7818608E-02  0.1444435E+00
          2   -1    0    0  502    0  0.00000000000E+00  0.00000000000E+00  0.69917957567E+03  0.69917957567E+03  0.00000000000E+00 0. -1.
          1   -1    0    0  501    0 -0.00000000000E+00 -0.00000000000E+00 -0.17298708765E+03  0.17298708765E+03  0.00000000000E+00 0. -1.
         25    2    1    2    0    0  0.22441759004E+02 -0.49408492504E+02  0.14513447918E+03  0.19908417511E+03  0.12500264019E+03 0.  0.
          2    1    1    2  501    0 -0.51955604770E+02  0.11925375846E+02 -0.14002059981E+03  0.14982445671E+03  0.00000000000E+00 0. -1.
          1    1    1    2  502    0  0.29513845765E+02  0.37483116658E+02  0.52107860866E+03  0.52325803150E+03  0.00000000000E+00 0. -1.
         22    1    3    3    0    0 -0.33916188225E+02 -0.60990937496E+02  0.11400010197E+03  0.13366460088E+03  0.00000000000E+00 0. -1.
         22    1    3    3    0    0  0.56357947229E+02  0.11582444992E+02  0.31134377213E+02  0.65419574229E+02  0.00000000000E+00 0. -1.
</event>
<event>
 7    1  0.5194496E-006  0.6002348E+02  0.7818608E-02  0.1414758E+00
          2   -1    0    0  502    0  0.00000000000E+00  0.00000000000E+00  0.11645600187E+04  0.11645600187E+04  0.00000000000E+00 0. -1.
          1   -1    0    0  501    0 -0.00000000000E+00 -0.00000000000E+00 -0.24244225720E+02  0.24244225720E+02  0.00000000000E+00 0. -1.
         25    2    1    2    0    0  0.28133785377E+01  0.10748704998E+03  0.68218678214E+03  0.70183042677E+03  0.12500304474E+03 0.  0.
          2    1    1    2  501    0 -0.83188625836E+01 -0.55258339192E+02  0.48502775967E+02  0.73994640356E+02  0.00000000000E+00 0. -1.
          1    1    1    2  502    0  0.55054840459E+01 -0.52228710792E+02  0.40962623485E+03  0.41297917727E+03  0.00000000000E+00 0. -1.
         22    1    3    3    0    0  0.34828385141E+02  0.47551270428E+02  0.10300895910E+03  0.11868018110E+03  0.00000000000E+00 0.  1.
         22    1    3    3    0    0 -0.32015006603E+02  0.59935779556E+02  0.57917782304E+03  0.58315024567E+03  0.00000000000E+00 0.  1.
</event>
<event>
 7    1  0.5194496E-006  0.1648015E+03  0.7818608E-02  0.1393513E+00
          2   -1    0    0  502    0  0.00000000000E+00  0.00000000000E+00  0.10863747591E+04  0.10863747591E+04  0.00000000000E+00 0. -1.
          1   -1    0    0  501    0 -0.00000000000E+00 -0.00000000000E+00 -0.17952074482E+03  0.17952074482E+03  0.00000000000E+00 0. -1.
         25    2    1    2    0    0 -0.14706228944E+02 -0.17085627950E+03  0.56619970892E+03  0.60466099504E+03  0.12499866851E+03 0.  0.
          2    1    1    2  501    0 -0.69216543925E+01  0.16426742039E+03 -0.11777752067E+03  0.20224549210E+03  0.00000000000E+00 0. -1.
          1    1    1    2  502    0  0.21627883336E+02  0.65888591126E+01  0.45843182604E+03  0.45898901678E+03  0.00000000000E+00 0. -1.
         22    1    3    3    0    0  0.49262537140E+02 -0.34922617793E+02  0.19761259176E+03  0.20663282223E+03  0.00000000000E+00 0. -1.
         22    1    3    3    0    0 -0.63968766083E+02 -0.13593366171E+03  0.36858711716E+03  0.39802817281E+03  0.00000000000E+00 0. -1.
</event>
<event>
 7    1  0.5194496E-006  0.3982515E+02  0.7818608E-02  0.1591721E+00
          2   -1    0    0  502    0  0.00000000000E+00  0.00000000000E+00  0.90107659263E+03  0.90107659263E+03  0.00000000000E+00 0. -1.
          1   -1    0    0  501    0 -0.00000000000E+00 -0.00000000000E+00 -0.12104027909E+04  0.12104027909E+04  0.00000000000E+00 0. -1.
         25    2    1    2    0    0 -0.42026576045E+02  0.25334266115E+02 -0.68651331377E+03  0.69952386049E+03  0.12500017309E+03 0.  0.
          2    1    1    2  501    0  0.22516215412E+01 -0.23379090211E+02 -0.51667409229E+03  0.51720766555E+03  0.00000000000E+00 0. -1.
          1    1    1    2  502    0  0.39774954504E+02 -0.19551759035E+01  0.89386120779E+03  0.89474785750E+03  0.00000000000E+00 0. -1.
         22    1    3    3    0    0 -0.69286714280E+02  0.74889566519E+01 -0.63333685370E+03  0.63715955891E+03  0.00000000000E+00 0.  1.
         22    1    3    3    0    0  0.27260138235E+02  0.17845309463E+02 -0.53176460072E+02  0.62364301585E+02  0.00000000000E+00 0.  1.
</event>
<event>
 7    1  0.5194496E-006  0.1362002E+03  0.7818608E-02  0.1278809E+00
          2   -1    0    0  502    0  0.00000000000E+00  0.00000000000E+00  0.58551423272E+03  0.58551423272E+03  0.00000000000E+00 0. -1.
          1   -1    0    0  501    0 -0.00000000000E+00 -0.00000000000E+00 -0.57114586232E+03  0.57114586232E+03  0.00000000000E+00 0. -1.
         25    2    1    2    0    0 -0.86443440755E+02 -0.18625200892E+03  0.11401684059E+03  0.26605917030E+03  0.12500145155E+03 0.  0.
          2    1    1    2  501    0  0.42823582643E+02  0.12589578633E+03 -0.48254346288E+03  0.50053151930E+03  0.00000000000E+00 0. -1.
          1    1    1    2  502    0  0.43619858112E+02  0.60356222589E+02  0.38289499269E+03  0.39006940543E+03  0.00000000000E+00 0. -1.
         22    1    3    3    0    0 -0.11742218138E+03 -0.12724872984E+03  0.90633274121E+02  0.19543438363E+03  0.00000000000E+00 0.  1.
         22    1    3    3    0    0  0.30978740625E+02 -0.59003279073E+02  0.23383566467E+02  0.70624786675E+02  0.00000000000E+00 0.  1.
</event>
<event>
 7    1  0.5194496E-006  0.9719091E+02  0.7818608E-02  0.1391888E+00
          2   -1    0    0  502    0  0.00000000000E+00  0.00000000000E+00  0.34811674862E+03  0.34811674862E+03  0.00000000000E+00 0. -1.
          1   -1    0    0  501    0 -0.00000000000E+00 -0.00000000000E+00 -0.75580474357E+03  0.75580474357E+03  0.00000000000E+00 0. -1.
         25    2    1    2    0    0 -0.12176974603E+03  0.42371119490E+02 -0.17725708576E+03  0.25232500523E+03  0.12499860399E+03 0.  0.
          2    1    1    2  501    0  0.82962313199E+02 -0.43940324173E+02 -0.53570133314E+03  0.54386525522E+03  0.00000000000E+00 0. -1.
          1    1    1    2  502    0  0.38807432830E+02  0.15692046831E+01  0.30527042395E+03  0.30773123174E+03  0.00000000000E+00 0. -1.
         22    1    3    3    0    0 -0.67830542458E+02  0.17831519961E+02 -0.17981711774E+03  0.19301072878E+03  0.00000000000E+00 0. -1.
         22    1    3    3    0    0 -0.53939203572E+02  0.24539599529E+02  0.25600319802E+01  0.59314276450E+02  0.00000000000E+00 0. -1.
</event>
<event>
 7    1  0.5194496E-006  0.1914971E+03  0.7818608E-02  0.1217036E+00
          2   -1    0    0  502    0  0.00000000000E+00  0.00000000000E+00  0.77200132206E+03  0.77200132206E+03  0.00000000000E+00 0. -1.
          1   -1    0    0  501    0 -0.00000000000E+00 -0.00000000000E+00 -0.12353246789E+04  0.12353246789E+04  0.00000000000E+00 0. -1.
         25    2    1    2    0    0 -0.23401405060E+03 -0.45693881735E+02  0.11736743342E+03  0.29368512625E+03  0.12500132898E+03 0.  0.
          2    1    1    2  501    0  0.18609416323E+03 -0.40265183735E+02 -0.11349004038E+04  0.11507611608E+04  0.00000000000E+00 0. -1.
          1    1    1    2  502    0  0.47919887363E+02  0.85959065470E+02  0.55420961357E+03  0.56287971390E+03  0.00000000000E+00 0. -1.
         22    1    3    3    0    0 -0.11949941662E+03 -0.85452696207E+02  0.77364961766E+02  0.16603496972E+03  0.00000000000E+00 0.  1.
         22    1    3    3    0    0 -0.11451463398E+03  0.39758814472E+02  0.40002471656E+02  0.12765015653E+03  0.00000000000E+00 0.  1.
</event>
<event>
 7    1  0.5194496E-006  0.3629439E+02  0.7818608E-02  0.1538936E+00
          2   -1    0    0  502    0  0.00000000000E+00  0.00000000000E+00  0.91360886718E+03  0.91360886718E+03  0.00000000000E+00 0. -1.
          1   -1    0    0  501    0 -0.00000000000E+00 -0.00000000000E+00 -0.35517119006E+03  0.35517119006E+03  0.00000000000E+00 0. -1.
         25    2    1    2    0    0 -0.57775721884E+02 -0.81405144687E+01 -0.48367191001E+02  0.14618142454E+03  0.12500128679E+03 0.  0.
          2    1    1    2  501    0  0.31864026582E+02 -0.16752870996E+02 -0.25626494502E+03  0.25878117575E+03  0.00000000000E+00 0. -1.
          1    1    1    2  502    0  0.25911695303E+02  0.24893385465E+02  0.86306981313E+03  0.86381745695E+03  0.00000000000E+00 0. -1.
         22    1    3    3    0    0 -0.50291298341E+02  0.37565429018E+02 -0.70884045454E+02  0.94683282822E+02  0.00000000000E+00 0. -1.
         22    1    3    3    0    0 -0.74844235429E+01 -0.45705943486E+02  0.22516854453E+02  0.51498141716E+02  0.00000000000E+00 0. -1.
</event>
<event>
 7    1  0.5194496E-006  0.2902423E+02  0.7818608E-02  0.1664575E+00
          2   -1    0    0  502    0  0.00000000000E+00  0.00000000000E+00  0.11335836711E+04  0.11335836711E+04  0.00000000000E+00 0. -1.
          1   -1    0    0  501    0 -0.00000000000E+00 -0.00000000000E+00 -0.48178180749E+02  0.48178180749E+02  0.00000000000E+00 0. -1.
         25    2    1    2    0    0  0.26804054374E+02 -0.14974334425E+02  0.36023819196E+03  0.38254427840E+03  0.12500352781E+03 0.  0.
          2    1    1    2  501    0 -0.97597343652E+01  0.27429770084E+02 -0.31131555580E+02  0.42624153417E+02  0.00000000000E+00 0. -1.
          1    1    1    2  502    0 -0.17044320009E+02 -0.12455435659E+02  0.75629885400E+03  0.75659342006E+03  0.00000000000E+00 0. -1.
         22    1    3    3    0    0 -0.12307982367E+02  0.43125725246E+02  0.64065430827E+02  0.78202902984E+02  0.00000000000E+00 0.  1.
         22    1    3    3    0    0  0.39112036741E+02 -0.58100059671E+02  0.29617276113E+03  0.30434137541E+03  0.00000000000E+00 0.  1.
</event>
<event>
 7    1  0.6997150E-006  0.8408194E+02  0.7818608E-02  0.1342039E+00
          2   -1    0    0  502    0  0.00000000000E+00  0.00000000000E+00  0.23201613708E+04  0.23201613708E+04  0.00000000000E+00 0. -1.
          1   -1    0    0  501    0 -0.00000000000E+00 -0.00000000000E+00 -0.73208845047E+03  0.73208845047E+03  0.00000000000E+00 0. -1.
         25    2    1    2    0    0 -0.14500467054E+03  0.41146864748E+02 -0.12957698299E+03  0.23480771605E+03  0.12500020016E+03 0.  0.
          2    1    1    2  501    0  0.62428359964E+02 -0.26866727529E+02 -0.54701815142E+03  0.55122407345E+03  0.00000000000E+00 0. -1.
          1    1    1    2  502    0  0.82576310572E+02 -0.14280137219E+02  0.22646680547E+04  0.22662180318E+04  0.00000000000E+00 0. -1.
         22    1    3    3    0    0 -0.75343922085E+02  0.46543400579E+00 -0.13430890121E+03  0.15399936418E+03  0.00000000000E+00 0.  1.
         22    1    3    3    0    0 -0.69660748451E+02  0.40681430743E+02  0.47319182203E+01  0.80808351871E+02  0.00000000000E+00 0.  1.
</event>
<event>
 7    1  0.5194496E-006  0.1286928E+03  0.7818608E-02  0.1237211E+00
          2   -1    0    0  502    0  0.00000000000E+00  0.00000000000E+00  0.89291210796E+03  0.89291210796E+03  0.00000000000E+00 0. -1.
          1   -1    0    0  501    0 -0.00000000000E+00 -0.00000000000E+00 -0.62252683492E+03  0.62252683492E+03  0.00000000000E+00 0. -1.
         25    2    1    2    0    0 -0.15770821959E+02 -0.65878771483E+02  0.50271565133E+02  0.15079921786E+03  0.12499776994E+03 0.  0.
          2    1    1    2  501    0 -0.11336906214E+03  0.60903892305E+02 -0.55964133483E+03  0.57424755289E+03  0.00000000000E+00 0. -1.
          1    1    1    2  502    0  0.12913988410E+03  0.49748791780E+01  0.77975504274E+03  0.79039217213E+03  0.00000000000E+00 0. -1.
         22    1    3    3    0    0 -0.14998100459E+02 -0.58253307545E+02  0.91149431012E+02  0.10920901809E+03  0.00000000000E+00 0. -1.
         22    1    3    3    0    0 -0.77272150017E+00 -0.76254639376E+01 -0.40877865880E+02  0.41590199779E+02  0.00000000000E+00 0. -1.
</event>
<event>
 7    1  0.5194496E-006  0.3815047E+02  0.7818608E-02  0.1548295E+00
          2   -1    0    0  502    0  0.00000000000E+00  0.00000000000E+00  0.31037651872E+04  0.31037651872E+04  0.00000000000E+00 0. -1.
          1   -1    0    0  501    0 -0.00000000000E+00 -0.00000000000E+00 -0.65236829836E+02  0.65236829836E+02  0.00000000000E+00 0. -1.
         25    2    1    2    0    0  0.79161418308E+01  0.50579710975E+02  0.34569749517E+03  0.37113056390E+03  0.12494064524E+03 0.  0.
          2    1    1    2  501    0 -0.26965917284E+02 -0.17548019398E+02 -0.47448064367E+02  0.57327240400E+02  0.00000000000E+00 0. -1.
          1    1    1    2  502    0  0.19049775453E+02 -0.33031691577E+02  0.27402789266E+04  0.27405442128E+04  0.00000000000E+00 0. -1.
         22    1    3    3    0    0  0.41833168827E+02  0.47038636005E+02  0.32542696949E+03  0.33145943910E+03  0.00000000000E+00 0.  1.
         22    1    3    3    0    0 -0.33917026996E+02  0.35410749697E+01  0.20270525674E+02  0.39671124805E+02  0.00000000000E+00 0.  1.
</event>
<event>
 7    1  0.5194496E-006  0.5785945E+02  0.7818608E-02  0.1473195E+00
          2   -1    0    0  502    0  0.00000000000E+00  0.00000000000E+00  0.18805652327E+03  0.18805652327E+03  0.00000000000E+00 0. -1.
          1   -1    0    0  501    0 -0.00000000000E+00 -0.00000000000E+00 -0.95517579495E+03  0.95517579495E+03  0.00000000000E+00 0. -1.
         25    2    1    2    0    0 -0.73101297804E+02  0.30995348338E+02 -0.13889747094E+03  0.20303165273E+03  0.12499933286E+03 0.  0.
          2    1    1    2  501    0  0.33634180722E+02  0.10669030269E+02 -0.77851953510E+03  0.77931877486E+03  0.00000000000E+00 0. -1.
          1    1    1    2  502    0  0.39467117082E+02 -0.41664378607E+02  0.15029773437E+03  0.16088189063E+03  0.00000000000E+00 0. -1.
         22    1    3    3    0    0 -0.23400079712E+02 -0.20506869723E+02 -0.12665301477E+03  0.13041886975E+03  0.00000000000E+00 0.  1.
         22    1    3    3    0    0 -0.49701218092E+02  0.51502218061E+02 -0.12244456172E+02  0.72612782979E+02  0.00000000000E+00 0.  1.
</event>
<event>
 7    1  0.5194496E-006  0.5559114E+02  0.7818608E-02  0.1522187E+00
          2   -1    0    0  502    0  0.00000000000E+00  0.00000000000E+00  0.85910376147E+02  0.85910376147E+02  0.00000000000E+00 0. -1.
          1   -1    0    0  501    0 -0.00000000000E+00 -0.00000000000E+00 -0.38328462009E+03  0.38328462009E+03  0.00000000000E+00 0. -1.
         25    2    1    2    0    0  0.46537724063E+02  0.53434186092E+02 -0.14383132944E+01  0.14369515932E+03  0.12500103225E+03 0.  0.
          2    1    1    2  501    0 -0.23381493798E+02 -0.11816449820E+02 -0.27000309676E+03  0.27127107291E+03  0.00000000000E+00 0. -1.
          1    1    1    2  502    0 -0.23156230265E+02 -0.41617736272E+02 -0.25932833897E+02  0.54228764013E+02  0.00000000000E+00 0. -1.
         22    1    3    3    0    0  0.51787958750E+02  0.19423389563E+02  0.54737191498E+02  0.77816584779E+02  0.00000000000E+00 0. -1.
         22    1    3    3    0    0 -0.52502346870E+01  0.34010796530E+02 -0.56175504793E+02  0.65878574541E+02  0.00000000000E+00 0. -1.
</event>
<event>
 7    1  0.5194496E-006  0.8320245E+02  0.7818608E-02  0.1450524E+00
          2   -1    0    0  502    0  0.00000000000E+00  0.00000000000E+00  0.18216805821E+04  0.18216805821E+04  0.00000000000E+00 0. -1.
          1   -1    0    0  501    0 -0.00000000000E+00 -0.00000000000E+00 -0.41360882262E+03  0.41360882262E+03  0.00000000000E+00 0. -1.
         25    2    1    2    0    0  0.49964947884E+02 -0.25446195972E+02  0.47954960526E+03  0.49873470778E+03  0.12499791970E+03 0.  0.
          2    1    1    2  501    0 -0.68518973922E+02  0.47627731882E+02 -0.39954841955E+03  0.40816931560E+03  0.00000000000E+00 0. -1.
          1    1    1    2  502    0  0.18554026039E+02 -0.22181535909E+02  0.13280705738E+04  0.13283853813E+04  0.00000000000E+00 0. -1.
         22    1    3    3    0    0  0.67966937277E+02 -0.64404034258E+02  0.30953793069E+03  0.32339003499E+03  0.00000000000E+00 0. -1.
         22    1    3    3    0    0 -0.18001989393E+02  0.38957838285E+02  0.17001167457E+03  0.17534467279E+03  0.00000000000E+00 0. -1.
</event>
<event>
 7    1  0.5194496E-006  0.2818947E+03  0.7818608E-02  0.1176511E+00
          2   -1    0    0  502    0  0.00000000000E+00  0.00000000000E+00  0.93551075103E+03  0.93551075103E+03  0.00000000000E+00 0. -1.
          1   -1    0    0  501    0 -0.00000000000E+00 -0.00000000000E+00 -0.10363713619E+04  0.10363713619E+04  0.00000000000E+00 0. -1.
         25    2    1    2    0    0  0.23435704939E+03 -0.23698763091E+03  0.39697772500E+03  0.53319998624E+03  0.12499818949E+03 0.  0.
          2    1    1    2  501    0 -0.13587815279E+02  0.10318921740E+03 -0.92972086859E+03  0.93552847995E+03  0.00000000000E+00 0. -1.
          1    1    1    2  502    0 -0.22076923411E+03  0.13379841351E+03  0.43188253271E+03  0.50315364676E+03  0.00000000000E+00 0. -1.
         22    1    3    3    0    0  0.22446123581E+03 -0.15441584956E+03  0.31401935408E+03  0.41573459769E+03  0.00000000000E+00 0.  1.
         22    1    3    3    0    0  0.98958135786E+01 -0.82571781353E+02  0.82958370918E+02  0.11746538855E+03  0.00000000000E+00 0.  1.
</event>
<event>
 7    1  0.5194496E-006  0.7524819E+02  0.7818608E-02  0.1454016E+00
          2   -1    0    0  502    0  0.00000000000E+00  0.00000000000E+00  0.18657866259E+03  0.18657866259E+03  0.00000000000E+00 0. -1.
          1   -1    0    0  501    0 -0.00000000000E+00 -0.00000000000E+00 -0.54594936680E+03  0.54594936680E+03  0.00000000000E+00 0. -1.
         25    2    1    2    0    0 -0.18722983158E+02 -0.96045824184E+02 -0.20509236960E+03  0.25934993069E+03  0.12499662412E+03 0.  0.
          2    1    1    2  501    0 -0.11568179726E+01  0.72043818309E+02 -0.30800676285E+03  0.31632232920E+03  0.00000000000E+00 0. -1.
          1    1    1    2  502    0  0.19879801131E+02  0.24002005875E+02  0.15372842824E+03  0.15685576951E+03  0.00000000000E+00 0. -1.
         22    1    3    3    0    0 -0.37488573301E+02  0.16616084206E+02 -0.80412538806E+02  0.90264410372E+02  0.00000000000E+00 0.  1.
         22    1    3    3    0    0  0.18765590143E+02 -0.11266190839E+03 -0.12467983079E+03  0.16908552032E+03  0.00000000000E+00 0.  1.
</event>
<event>
 7    1  0.5194496E-006  0.1168394E+03  0.7818608E-02  0.1417955E+00
          2   -1    0    0  502    0  0.00000000000E+00  0.00000000000E+00  0.64477385144E+02  0.64477385144E+02  0.00000000000E+00 0. -1.
          1   -1    0    0  501    0 -0.00000000000E+00 -0.00000000000E+00 -0.66594240686E+03  0.66594240686E+03  0.00000000000E+00 0. -1.
         25    2    1    2    0    0  0.24207875431E+02  0.12225004246E+03 -0.38041709480E+03  0.41937205080E+03  0.12499862742E+03 0.  0.
          2    1    1    2  501    0 -0.25511584529E+02 -0.64781405193E+01 -0.18912547709E+03  0.19094830016E+03  0.00000000000E+00 0. -1.
          1    1    1    2  502    0  0.13037090980E+01 -0.11577190194E+03 -0.31922449824E+02  0.12009944105E+03  0.00000000000E+00 0. -1.
         22    1    3    3    0    0  0.17091756895E+02  0.45456348798E+02 -0.31357832114E+03  0.31731651594E+03  0.00000000000E+00 0. -1.
         22    1    3    3    0    0  0.71161185362E+01  0.76793693665E+02 -0.66838773661E+02  0.10205553485E+03  0.00000000000E+00 0. -1.
</event>
<event>
 7    1  0.5194496E-006  0.8124682E+02  0.7818608E-02  0.1370168E+00
          2   -1    0    0  502    0  0.00000000000E+00  0.00000000000E+00  0.26658217536E+04  0.26658217536E+04  0.00000000000E+00 0. -1.
          1   -1    0    0  501    0 -0.00000000000E+00 -0.00000000000E+00 -0.35867147406E+02  0.35867147406E+02  0.00000000000E+00 0. -1.
         25    2    1    2    0    0 -0.36471382685E+02 -0.46053170055E+02  0.29673675571E+03  0.32730464472E+03  0.12499828816E+03 0.  0.
          2    1    1    2  501    0  0.41435359803E+02 -0.36849164740E+02  0.18909183043E+02  0.58585895805E+02  0.00000000000E+00 0. -1.
          1    1    1    2  502    0 -0.49639771175E+01  0.82902334795E+02  0.23143086674E+04  0.23157983604E+04  0.00000000000E+00 0. -1.
         22    1    3    3    0    0 -0.17221136508E+02 -0.58723679790E+02  0.48726707338E+02  0.78226147282E+02  0.00000000000E+00 0.  1.
         22    1    3    3    0    0 -0.19250246177E+02  0.12670509734E+02  0.24801004837E+03  0.24907849744E+03  0.00000000000E+00 0.  1.
</event>
<event>
 7    1  0.5194496E-006  0.7308792E+02  0.7818608E-02  0.1362340E+00
          2   -1    0    0  502    0  0.00000000000E+00  0.00000000000E+00  0.30483490837E+03  0.30483490837E+03  0.00000000000E+00 0. -1.
          1   -1    0    0  501    0 -0.00000000000E+00 -0.00000000000E+00 -0.11894726613E+04  0.11894726613E+04  0.00000000000E+00 0. -1.
         25    2    1    2    0    0  0.72059578254E+02 -0.11014652729E+03 -0.23964933453E+03  0.30063541116E+03  0.12500002646E+03 0.  0.
          2    1    1    2  501    0 -0.52433036151E+02  0.47351217171E+02 -0.91400298022E+03  0.91672940876E+03  0.00000000000E+00 0. -1.
          1    1    1    2  502    0 -0.19626542103E+02  0.62795310115E+02  0.26901456185E+03  0.27694274971E+03  0.00000000000E+00 0. -1.
         22    1    3    3    0    0  0.34964962900E+02 -0.34103151373E+02 -0.25688478083E+01  0.48909840965E+02  0.00000000000E+00 0.  1.
         22    1    3    3    0    0  0.37094615354E+02 -0.76043375912E+02 -0.23708048672E+03  0.25172557020E+03  0.00000000000E+00 0.  1.
</event>
<event>
 7    1  0.5194496E-006  0.1624586E+03  0.7818608E-02  0.1250474E+00
          2   -1    0    0  502    0  0.00000000000E+00  0.00000000000E+00  0.40171263934E+03  0.40171263934E+03  0.00000000000E+00 0. -1.
          1   -1    0    0  501    0 -0.00000000000E+00 -0.00000000000E+00 -0.92908466934E+03  0.92908466934E+03  0.00000000000E+00 0. -1.
         25    2    1    2    0    0  0.94464509662E+02 -0.42553491708E+02 -0.15882046478E+03  0.22712322686E+03  0.12500670744E+03 0.  0.
          2    1    1    2  501    0 -0.15123368303E+03  0.10215288483E+03 -0.71997229255E+03  0.74274284971E+03  0.00000000000E+00 0. -1.
          1    1    1    2  502    0  0.56769173372E+02 -0.59599393125E+02  0.35142072734E+03  0.36093123210E+03  0.00000000000E+00 0. -1.
         22    1    3    3    0    0  0.12361241709E+03 -0.39032425069E+02 -0.14554276028E+03  0.19490062836E+03  0.00000000000E+00 0.  1.
         22    1    3    3    0    0 -0.29147907426E+02 -0.35210666391E+01 -0.13277704509E+02  0.32222598508E+02  0.00000000000E+00 0.  1.
</event>
<event>
 7    1  0.5194496E-006  0.1370058E+03  0.7818608E-02  0.1347289E+00
          2   -1    0    0  502    0  0.00000000000E+00  0.00000000000E+00  0.33577685818E+03  0.33577685818E+03  0.00000000000E+00 0. -1.
          1   -1    0    0  501    0 -0.00000000000E+00 -0.00000000000E+00 -0.14467408639E+04  0.14467408639E+04  0.00000000000E+00 0. -1.
         25    2    1    2    0    0 -0.23228265467E+02  0.12578015541E+03 -0.10112177053E+04  0.10269114670E+04  0.12500285494E+03 0.  0.
          2    1    1    2  501    0 -0.39683421245E+02 -0.38420411963E+01 -0.41231978945E+03  0.41424285628E+03  0.00000000000E+00 0. -1.
          1    1    1    2  502    0  0.62911686712E+02 -0.12193811421E+03  0.31257348901E+03  0.34136339882E+03  0.00000000000E+00 0. -1.
         22    1    3    3    0    0  0.40683580241E+02  0.99978960337E+02 -0.68910255078E+03  0.69750503346E+03  0.00000000000E+00 0. -1.
         22    1    3    3    0    0 -0.63911845708E+02  0.25801195070E+02 -0.32211515447E+03  0.32940643350E+03  0.00000000000E+00 0. -1.
</event>
<event>
 7    1  0.5194496E-006  0.7951330E+02  0.7818608E-02  0.1402548E+00
          2   -1    0    0  502    0  0.00000000000E+00  0.00000000000E+00  0.15519674028E+03  0.15519674028E+03  0.00000000000E+00 0. -1.
          1   -1    0    0  501    0 -0.00000000000E+00 -0.00000000000E+00 -0.50953884409E+03  0.50953884409E+03  0.00000000000E+00 0. -1.
         25    2    1    2    0    0 -0.32248791942E+02  0.59029810149E+02 -0.28022498766E+01  0.14197558195E+03  0.12499884078E+03 0.  0.
          2    1    1    2  501    0  0.34758179549E+02  0.26348629471E+02 -0.41441152335E+03  0.41670048237E+03  0.00000000000E+00 0. -1.
          1    1    1    2  502    0 -0.25093876078E+01 -0.85378439619E+02  0.62871669422E+02  0.10605952005E+03  0.00000000000E+00 0. -1.
         22    1    3    3    0    0 -0.14567213999E+01 -0.28831865485E+02 -0.33239146420E+02  0.44025439911E+02  0.00000000000E+00 0. -1.
         22    1    3    3    0    0 -0.30792070542E+02  0.87861675634E+02  0.30436896543E+02  0.97950142035E+02  0.00000000000E+00 0. -1.
</event>
<event>
 7    1  0.5194496E-006  0.5219560E+02  0.7818608E-02  0.1487103E+00
          2   -1    0    0  502    0  0.00000000000E+00  0.00000000000E+00  0.11730954031E+04  0.11730954031E+04  0.00000000000E+00 0. -1.
          1   -1    0    0  501    0 -0.00000000000E+00 -0.00000000000E+00 -0.46618290501E+03  0.46618290501E+03  0.00000000000E+00 0. -1.
         25    2    1    2    0    0 -0.17750745452E+02  0.30252701449E+02  0.76826152830E+03  0.77915410974E+03  0.12500014378E+03 0.  0.
          2    1    1    2  501    0 -0.35455481296E+02  0.31306732299E-01 -0.45770086600E+03  0.45907208026E+03  0.00000000000E+00 0. -1.
          1    1    1    2  502    0  0.53206226748E+02 -0.30284008181E+02  0.39635183576E+03  0.40105211809E+03  0.00000000000E+00 0. -1.
         22    1    3    3    0    0  0.87972384638E+01  0.52293661574E+02  0.13631371989E+03  0.14626499470E+03  0.00000000000E+00 0. -1.
         22    1    3    3    0    0 -0.26547983916E+02 -0.22040960125E+02  0.63194780841E+03  0.63288911503E+03  0.00000000000E+00 0. -1.
</event>
<event>
 7    1  0.5194496E-006  0.8717224E+02  0.7818608E-02  0.1372375E+00
          2   -1    0    0  502    0  0.00000000000E+00  0.00000000000E+00  0.41695204534E+03  0.41695204534E+03  0.00000000000E+00 0. -1.
          1   -1    0    0  501    0 -0.00000000000E+00 -0.00000000000E+00 -0.41482802090E+03  0.41482802090E+03  0.00000000000E+00 0. -1.
         25    2    1    2    0    0  0.16624242836E+02 -0.84874369136E+02 -0.14437793889E+03  0.20964304775E+03  0.12500077699E+03 0.  0.
          2    1    1    2  501    0  0.45285838959E+02  0.22901408400E+02 -0.23002405323E+03  0.23555540067E+03  0.00000000000E+00 0. -1.
          1    1    1    2  502    0 -0.61910081795E+02  0.61972960736E+02  0.37652601656E+03  0.38658161782E+03  0.00000000000E+00 0. -1.
         22    1    3    3    0    0 -0.50127255797E+02 -0.32421333390E+02 -0.28922333333E+02  0.66335405312E+02  0.00000000000E+00 0. -1.
         22    1    3    3    0    0  0.66751498633E+02 -0.52453035746E+02 -0.11545560555E+03  0.14330764244E+03  0.00000000000E+00 0. -1.
</event>
<event>
 7    1  0.5194496E-006  0.5494414E+02  0.7818608E-02  0.1460082E+00
          2   -1    0    0  502    0  0.00000000000E+00  0.00000000000E+00  0.14258829545E+03  0.14258829545E+03  0.00000000000E+00 0. -1.
          1   -1    0    0  501    0 -0.00000000000E+00 -0.00000000000E+00 -0.10487729075E+04  0.10487729075E+04  0.00000000000E+00 0. -1.
         25    2    1    2    0    0  0.90876597398E+02  0.64672620758E+01 -0.25309520817E+03  0.29662170804E+03  0.12500748716E+03 0.  0.
          2    1    1    2  501    0 -0.52835176951E+02  0.83777515290E+01 -0.76950883040E+03  0.77136604975E+03  0.00000000000E+00 0. -1.
          1    1    1    2  502    0 -0.38041420447E+02 -0.14845013605E+02  0.11641942652E+03  0.12337344516E+03  0.00000000000E+00 0. -1.
         22    1    3    3    0    0  0.21105210884E+02  0.46577779478E+02 -0.29616705178E+02  0.59093728036E+02  0.00000000000E+00 0.  1.
         22    1    3    3    0    0  0.69771386514E+02 -0.40110517402E+02 -0.22347850300E+03  0.23752798000E+03  0.00000000000E+00 0.  1.
</event>
<event>
 7    1  0.5194496E-006  0.1130435E+03  0.7818608E-02  0.1351450E+00
          2   -1    0    0  502    0  0.00000000000E+00  0.00000000000E+00  0.15510134974E+04  0.15510134974E+04  0.00000000000E+00 0. -1.
          1   -1    0    0  501    0 -0.00000000000E+00 -0.00000000000E+00 -0.67317635336E+02  0.67317635336E+02  0.00000000000E+00 0. -1.
         25    2    1    2    0    0  0.12572906981E+03  0.68700837203E+02  0.15441043246E+03  0.24493873200E+03  0.12499918702E+03 0.  0.
          2    1    1    2  501    0 -0.84062660777E+02 -0.47758404630E+02  0.86490277880E+02  0.12972264381E+03  0.00000000000E+00 0. -1.
          1    1    1    2  502    0 -0.41666409033E+02 -0.20942432572E+02  0.12427951517E+04  0.12436697569E+04  0.00000000000E+00 0. -1.
         22    1    3    3    0    0  0.66774879957E+02 -0.26068422251E+02  0.29738056770E+02  0.77606695925E+02  0.00000000000E+00 0. -1.
         22    1    3    3    0    0  0.58954189852E+02  0.94769259454E+02  0.12467237569E+03  0.16733203608E+03  0.00000000000E+00 0. -1.
</event>
<event>
 7    1  0.5194496E-006  0.1132635E+03  0.7818608E-02  0.1267904E+00
          2   -1    0    0  502    0  0.00000000000E+00  0.00000000000E+00  0.98072314258E+03  0.98072314258E+03  0.00000000000E+00 0. -1.
          1   -1    0    0  501    0 -0.00000000000E+00 -0.00000000000E+00 -0.18675321622E+04  0.18675321622E+04  0.00000000000E+00 0. -1.
         25    2    1    2    0    0 -0.61767594692E+02  0.16614128664E+02  0.55624621907E+03  0.57369518852E+03  0.12500019230E+03 0.  0.
          2    1    1    2  501    0 -0.11291375279E+03  0.88939481084E+01 -0.18382460936E+04  0.18417321517E+04  0.00000000000E+00 0. -1.
          1    1    1    2  502    0  0.17468134748E+03 -0.25508076773E+02  0.39519085490E+03  0.43282796459E+03  0.00000000000E+00 0. -1.
         22    1    3    3    0    0 -0.10263822832E+02  0.39066589824E+02  0.46350960784E+03  0.46526626899E+03  0.00000000000E+00 0. -1.
         22    1    3    3    0    0 -0.51503771860E+02 -0.22452461159E+02  0.92736611231E+02  0.10842891953E+03  0.00000000000E+00 0. -1.
</event>
<event>
 7    1  0.5194496E-006  0.1849406E+03  0.7818608E-02  0.1242019E+00
          2   -1    0    0  502    0  0.00000000000E+00  0.00000000000E+00  0.38081479678E+03  0.38081479678E+03  0.00000000000E+00 0. -1.
          1   -1    0    0  501    0 -0.00000000000E+00 -0.00000000000E+00 -0.19253857432E+04  0.19253857432E+04  0.00000000000E+00 0. -1.
         25    2    1    2    0    0 -0.24202651813E+03  0.96099249793E+02 -0.66465240360E+03  0.72470642792E+03  0.12499875109E+03 0.  0.
          2    1    1    2  501    0  0.75896809101E+02 -0.20878353267E+02 -0.12056339647E+04  0.12082009303E+04  0.00000000000E+00 0. -1.
          1    1    1    2  502    0  0.16612970903E+03 -0.75220896525E+02  0.32571542185E+03  0.37329318173E+03  0.00000000000E+00 0. -1.
         22    1    3    3    0    0 -0.83207049875E+02 -0.25478600106E+02 -0.24053998550E+03  0.25579690544E+03  0.00000000000E+00 0.  1.
         22    1    3    3    0    0 -0.15881946826E+03  0.12157784990E+03 -0.42411241810E+03  0.46890952248E+03  0.00000000000E+00 0.  1.
</event>
<event>
 7    1  0.5194496E-006  0.6560273E+02  0.7818608E-02  0.1376396E+00
          2   -1    0    0  502    0  0.00000000000E+00  0.00000000000E+00  0.12752656347E+04  0.12752656347E+04  0.00000000000E+00 0. -1.
          1   -1    0    0  501    0 -0.00000000000E+00 -0.00000000000E+00 -0.30934531043E+03  0.30934531043E+03  0.00000000000E+00 0. -1.
         25    2    1    2    0    0 -0.72728152076E+02 -0.28562853373E+02  0.68598235525E+03  0.70164306015E+03  0.12500388575E+03 0.  0.
          2    1    1    2  501    0  0.54091907388E+02 -0.37118513757E+02 -0.29590587602E+03  0.30309075534E+03  0.00000000000E+00 0. -1.
          1    1    1    2  502    0  0.18636244688E+02  0.65681367129E+02  0.57584384506E+03  0.57987712965E+03  0.00000000000E+00 0. -1.
         22    1    3    3    0    0 -0.16902515050E+02 -0.61812725285E+01  0.57606744608E+03  0.57634851052E+03  0.00000000000E+00 0.  1.
         22    1    3    3    0    0 -0.55825637026E+02 -0.22381580844E+02  0.10991490917E+03  0.12529454963E+03  0.00000000000E+00 0.  1.
</event>
<event>
 7    1  0.5194496E-006  0.7588595E+02  0.7818608E-02  0.1348120E+00
          2   -1    0    0  502    0  0.00000000000E+00  0.00000000000E+00  0.67471666473E+03  0.67471666473E+03  0.00000000000E+00 0. -1.
          1   -1    0    0  501    0 -0.00000000000E+00 -0.00000000000E+00 -0.19477209399E+04  0.19477209399E+04  0.00000000000E+00 0. -1.
         25    2    1    2    0    0 -0.82937534668E+02 -0.45207482543E+02  0.21760094054E+03  0.26813889806E+03  0.12500379273E+03 0.  0.
          2    1    1    2  501    0  0.64985896490E+02 -0.29745220180E+02 -0.19183423954E+04  0.19196732771E+04  0.00000000000E+00 0. -1.
          1    1    1    2  502    0  0.17951638178E+02  0.74952702723E+02  0.42773717974E+03  0.43462542941E+03  0.00000000000E+00 0. -1.
         22    1    3    3    0    0 -0.46126291361E+02  0.73951942040E+00  0.20204411024E+03  0.20724382772E+03  0.00000000000E+00 0.  1.
         22    1    3    3    0    0 -0.36811243306E+02 -0.45947001963E+02  0.15556830295E+02  0.60895070342E+02  0.00000000000E+00 0.  1.
</event>
<event>
 7    1  0.5194496E-006  0.8416488E+02  0.7818608E-02  0.1386165E+00
          2   -1    0    0  502    0  0.00000000000E+00  0.00000000000E+00  0.36287024714E+03  0.36287024714E+03  0.00000000000E+00 0. -1.
          1   -1    0    0  501    0 -0.00000000000E+00 -0.00000000000E+00 -0.14864328759E+04  0.14864328759E+04  0.00000000000E+00 0. -1.
         25    2    1    2    0    0 -0.41153134994E+02  0.73535769381E+02 -0.17294974989E+03  0.22942898129E+03  0.12499980629E+03 0.  0.
          2    1    1    2  501    0  0.45695283566E+02  0.10842411403E+02 -0.12794713459E+04  0.12803329809E+04  0.00000000000E+00 0. -1.
          1    1    1    2  502    0 -0.45421485720E+01 -0.84378180784E+02  0.32885846712E+03  0.33954116084E+03  0.00000000000E+00 0. -1.
         22    1    3    3    0    0 -0.52417284678E+02 -0.14559023572E+02 -0.32848395973E+02  0.63549618554E+02  0.00000000000E+00 0.  1.
         22    1    3    3    0    0  0.11264149684E+02  0.88094792953E+02 -0.14010135392E+03  0.16587936274E+03  0.00000000000E+00 0.  1.
</event>
<event>
 7    1  0.5194496E-006  0.1414342E+03  0.7818608E-02  0.1317520E+00
          2   -1    0    0  502    0  0.00000000000E+00  0.00000000000E+00  0.84664639433E+03  0.84664639433E+03  0.00000000000E+00 0. -1.
          1   -1    0    0  501    0 -0.00000000000E+00 -0.00000000000E+00 -0.18406466016E+03  0.18406466016E+03  0.00000000000E+00 0. -1.
         25    2    1    2    0    0 -0.13667950933E+03 -0.53136479738E+02  0.24942607941E+03  0.31518809724E+03  0.12500157521E+03 0.  0.
          2    1    1    2  501    0  0.29867896306E+02 -0.40266762293E+02 -0.13777534440E+03  0.14661360407E+03  0.00000000000E+00 0. -1.
          1    1    1    2  502    0  0.10681161302E+03  0.93403242031E+02  0.55093099915E+03  0.56890935317E+03  0.00000000000E+00 0. -1.
         22    1    3    3    0    0 -0.12106811213E+03 -0.89887786411E+02  0.21412838594E+03  0.26189361883E+03  0.00000000000E+00 0.  1.
         22    1    3    3    0    0 -0.15611397198E+02  0.36751306673E+02  0.35297693469E+02  0.53294478409E+02  0.00000000000E+00 0.  1.
</event>
<event>
 7    1  0.5194496E-006  0.1750455E+03  0.7818608E-02  0.1211873E+00
          2   -1    0    0  502    0  0.00000000000E+00  0.00000000000E+00  0.15969584930E+04  0.15969584930E+04  0.00000000000E+00 0. -1.
          1   -1    0    0  501    0 -0.00000000000E+00 -0.00000000000E+00 -0.26024372382E+04  0.26024372382E+04  0.00000000000E+00 0. -1.
         25    2    1    2    0    0 -0.24480149318E+03 -0.89400318989E+02 -0.49999331008E+03  0.57752810595E+03  0.12500085975E+03 0.  0.
          2    1    1    2  501    0  0.11138180190E+03 -0.22930720727E+02 -0.20572207901E+04  0.20603614010E+04  0.00000000000E+00 0. -1.
          1    1    1    2  502    0  0.13341969128E+03  0.11233103972E+03  0.15517353549E+04  0.15615062242E+04  0.00000000000E+00 0. -1.
         22    1    3    3    0    0 -0.14331379760E+03  0.14184526548E+02 -0.25180548920E+03  0.29007938529E+03  0.00000000000E+00 0.  1.
         22    1    3    3    0    0 -0.10148769558E+03 -0.10358484554E+03 -0.24818782087E+03  0.28744872066E+03  0.00000000000E+00 0.  1.
</event>
<event>
 7    1  0.5194496E-006  0.6142011E+02  0.7818608E-02  0.1446638E+00
          2   -1    0    0  502    0  0.00000000000E+00  0.00000000000E+00  0.15431313098E+04  0.15431313098E+04  0.00000000000E+00 0. -1.
          1   -1    0    0  501    0 -0.00000000000E+00 -0.00000000000E+00 -0.22134682442E+03  0.22134682442E+03  0.00000000000E+00 0. -1.
         25    2    1    2    0    0  0.86553856798E+02 -0.23217737353E+02  0.60912564436E+03  0.62825007147E+03  0.12503386831E+03 0.  0.
          2    1    1    2  501    0 -0.27728585441E+02  0.29263505698E+02 -0.20890982705E+03  0.21276405489E+03  0.00000000000E+00 0. -1.
          1    1    1    2  502    0 -0.58825271356E+02 -0.60457683457E+01  0.92156866811E+03  0.92346400791E+03  0.00000000000E+00 0. -1.
         22    1    3    3    0    0  0.39481910013E+02 -0.67874849040E+02  0.21651679826E+03  0.23031574040E+03  0.00000000000E+00 0.  1.
         22    1    3    3    0    0  0.47071946784E+02  0.44657111688E+02  0.39260884611E+03  0.39793433106E+03  0.00000000000E+00 0.  1.
</event>
<event>
 7    1  0.5194496E-006  0.1271775E+03  0.7818608E-02  0.1302040E+00
          2   -1    0    0  502    0  0.00000000000E+00  0.00000000000E+00  0.31754694454E+04  0.31754694454E+04  0.00000000000E+00 0. -1.
          1   -1    0    0  501    0 -0.00000000000E+00 -0.00000000000E+00 -0.86979256696E+02  0.86979256696E+02  0.00000000000E+00 0. -1.
         25    2    1    2    0    0  0.35289635708E+02 -0.18192879700E+03  0.59726048048E+03  0.63772017296E+03  0.12499396743E+03 0.  0.
          2    1    1    2  501    0 -0.31115196877E+02  0.11789744610E+03 -0.10306880545E+02  0.12236909356E+03  0.00000000000E+00 0. -1.
          1    1    1    2  502    0 -0.41744388310E+01  0.64031350896E+02  0.25015365888E+04  0.25023594356E+04  0.00000000000E+00 0. -1.
         22    1    3    3    0    0  0.52617730365E+02 -0.29337777850E+02  0.94869754962E+02  0.11238149832E+03  0.00000000000E+00 0. -1.
         22    1    3    3    0    0 -0.17328094657E+02 -0.15259101914E+03  0.50239072552E+03  0.52533867465E+03  0.00000000000E+00 0. -1.
</event>
<event>
 7    1  0.5194496E-006  0.1634104E+03  0.7818608E-02  0.1409912E+00
          2   -1    0    0  502    0  0.00000000000E+00  0.00000000000E+00  0.66689640228E+03  0.66689640228E+03  0.00000000000E+00 0. -1.
          1   -1    0    0  501    0 -0.00000000000E+00 -0.00000000000E+00 -0.10125381388E+04  0.10125381388E+04  0.00000000000E+00 0. -1.
         25    2    1    2    0    0  0.13560970255E+03  0.68385633234E+02  0.33481486171E+03  0.38832065225E+03  0.12500140432E+03 0.  0.
          2    1    1    2  501    0 -0.13777446948E+03 -0.88299989397E+02 -0.97865568861E+03  0.99224273715E+03  0.00000000000E+00 0. -1.
          1    1    1    2  502    0  0.21647669304E+01  0.19914356162E+02  0.29819909038E+03  0.29887115167E+03  0.00000000000E+00 0. -1.
         22    1    3    3    0    0  0.59891046309E+02  0.34078498320E+02  0.35180697230E+02  0.77369004991E+02  0.00000000000E+00 0.  1.
         22    1    3    3    0    0  0.75718656243E+02  0.34307134914E+02  0.29963416448E+03  0.31095164726E+03  0.00000000000E+00 0.  1.
</event>
<event>
 7    1  0.5194496E-006  0.9078209E+02  0.7818608E-02  0.1435767E+00
          2   -1    0    0  502    0  0.00000000000E+00  0.00000000000E+00  0.20821917630E+04  0.20821917630E+04  0.00000000000E+00 0. -1.
          1   -1    0    0  501    0 -0.00000000000E+00 -0.00000000000E+00 -0.65585929237E+02  0.65585929237E+02  0.00000000000E+00 0. -1.
         25    2    1    2    0    0 -0.41225033883E+02 -0.49324332180E+02  0.35569317471E+03  0.38245607558E+03  0.12499048786E+03 0.  0.
          2    1    1    2  501    0  0.58631608315E+02  0.73239698409E+02 -0.98173947831E+01  0.94329741635E+02  0.00000000000E+00 0. -1.
          1    1    1    2  502    0 -0.17406574432E+02 -0.23915366229E+02  0.16707300538E+04  0.16709918750E+04  0.00000000000E+00 0. -1.
         22    1    3    3    0    0 -0.24779029533E+02 -0.20943797870E+02  0.82619520141E+01  0.33479886871E+02  0.00000000000E+00 0.  1.
         22    1    3    3    0    0 -0.16446004350E+02 -0.28380534311E+02  0.34743122269E+03  0.34897618871E+03  0.00000000000E+00 0.  1.
</event>
<event>
 7    1  0.5194496E-006  0.6966299E+02  0.7818608E-02  0.1366189E+00
          2   -1    0    0  502    0  0.00000000000E+00  0.00000000000E+00  0.25142443076E+04  0.25142443076E+04  0.00000000000E+00 0. -1.
          1   -1    0    0  501    0 -0.00000000000E+00 -0.00000000000E+00 -0.64603186388E+03  0.64603186388E+03  0.00000000000E+00 0. -1.
         25    2    1    2    0    0 -0.32271024106E+02 -0.51947398366E+02  0.92839267796E+03  0.93876545945E+03  0.12501068817E+03 0.  0.
          2    1    1    2  501    0  0.64839855532E+02 -0.16239769013E+02 -0.63819589155E+03  0.64168678726E+03  0.00000000000E+00 0. -1.
          1    1    1    2  502    0 -0.32568831426E+02  0.68187167379E+02  0.15780156573E+04  0.15798239248E+04  0.00000000000E+00 0. -1.
         22    1    3    3    0    0 -0.28417603505E+02 -0.65805666472E+01  0.41616588399E+02  0.50821299435E+02  0.00000000000E+00 0. -1.
         22    1    3    3    0    0 -0.38534206008E+01 -0.45366831719E+02  0.88677608957E+03  0.88794416001E+03  0.00000000000E+00 0. -1.
</event>
<event>
 7    1  0.5194496E-006  0.7506045E+02  0.7818608E-02  0.1437062E+00
          2   -1    0    0  502    0  0.00000000000E+00  0.00000000000E+00  0.74786241402E+03  0.74786241402E+03  0.00000000000E+00 0. -1.
          1   -1    0    0  501    0 -0.00000000000E+00 -0.00000000000E+00 -0.28824681144E+04  0.28824681144E+04  0.00000000000E+00 0. -1.
         25    2    1    2    0    0  0.53241957465E+02 -0.58522451165E+01 -0.54170294230E+03  0.55851232439E+03  0.12499993594E+03 0.  0.
          2    1    1    2  501    0 -0.66609379242E+02  0.38662144314E+02 -0.23312998521E+04  0.23325716648E+04  0.00000000000E+00 0. -1.
          1    1    1    2  502    0  0.13367421776E+02 -0.32809899197E+02  0.73839709399E+03  0.73924653930E+03  0.00000000000E+00 0. -1.
         22    1    3    3    0    0 -0.25381224980E+02 -0.29385567791E+02 -0.31552039611E+03  0.31790067402E+03  0.00000000000E+00 0. -1.
         22    1    3    3    0    0  0.78623182445E+02  0.23533322675E+02 -0.22618254619E+03  0.24061165037E+03  0.00000000000E+00 0. -1.
</event>
<event>
 7    1  0.5194496E-006  0.1906592E+03  0.7818608E-02  0.1221155E+00
          2   -1    0    0  502    0  0.00000000000E+00  0.00000000000E+00  0.31458407358E+03  0.31458407358E+03  0.00000000000E+00 0. -1.
          1   -1    0    0  501    0 -0.00000000000E+00 -0.00000000000E+00 -0.39755896485E+03  0.39755896485E+03  0.00000000000E+00 0. -1.
         25    2    1    2    0    0 -0.19090190453E+02 -0.26347602288E+03  0.13267038064E+02  0.29254862467E+03  0.12499853398E+03 0.  0.
          2    1    1    2  501    0 -0.14868634334E+02  0.17512115030E+03 -0.20854176037E+03  0.27272359522E+03  0.00000000000E+00 0. -1.
          1    1    1    2  502    0  0.33958824786E+02  0.88354872579E+02  0.11229983103E+03  0.14687081854E+03  0.00000000000E+00 0. -1.
         22    1    3    3    0    0  0.17891181421E+02 -0.21727808461E+03  0.48956818753E+02  0.22344267840E+03  0.00000000000E+00 0. -1.
         22    1    3    3    0    0 -0.36981371874E+02 -0.46197938265E+02 -0.35689780689E+02  0.69105946280E+02  0.00000000000E+00 0. -1.
</event>
<event>
 7    1  0.5194496E-006  0.9651005E+02  0.7818608E-02  0.1393109E+00
          2   -1    0    0  502    0  0.00000000000E+00  0.00000000000E+00  0.36801022408E+03  0.36801022408E+03  0.00000000000E+00 0. -1.
          1   -1    0    0  501    0 -0.00000000000E+00 -0.00000000000E+00 -0.19314608916E+03  0.19314608916E+03  0.00000000000E+00 0. -1.
         25    2    1    2    0    0 -0.18654465391E+02  0.12299285335E+03  0.13956310970E+03  0.22489646572E+03  0.12500131059E+03 0.  0.
          2    1    1    2  501    0  0.19694301681E+02 -0.33352086044E+02 -0.13681757210E+03  0.14219449778E+03  0.00000000000E+00 0. -1.
          1    1    1    2  502    0 -0.10398362905E+01 -0.89640767310E+02  0.17211859733E+03  0.19406534974E+03  0.00000000000E+00 0. -1.
         22    1    3    3    0    0 -0.26922762010E+02  0.11973001849E+03  0.46226166031E+02  0.13113722152E+03  0.00000000000E+00 0.  1.
         22    1    3    3    0    0  0.82682966194E+01  0.32628348654E+01  0.93336943664E+02  0.93759244200E+02  0.00000000000E+00 0.  1.
</event>
<event>
 7    1  0.5194496E-006  0.1012268E+03  0.7818608E-02  0.1287025E+00
          2   -1    0    0  502    0  0.00000000000E+00  0.00000000000E+00  0.11052406740E+04  0.11052406740E+04  0.00000000000E+00 0. -1.
          1   -1    0    0  501    0 -0.00000000000E+00 -0.00000000000E+00 -0.29304196331E+03  0.29304196331E+03  0.00000000000E+00 0. -1.
         25    2    1    2    0    0 -0.79569013563E+02  0.57662156877E+02  0.60255808470E+03  0.62318323744E+03  0.12499979889E+03 0.  0.
          2    1    1    2  501    0 -0.36558357245E+02 -0.85181798345E+02 -0.26758065678E+03  0.28318167338E+03  0.00000000000E+00 0. -1.
          1    1    1    2  502    0  0.11612737081E+03  0.27519641468E+02  0.47722128276E+03  0.49191772650E+03  0.00000000000E+00 0. -1.
         22    1    3    3    0    0  0.28643434620E+02  0.27585328863E+02  0.25069712164E+03  0.25383152584E+03  0.00000000000E+00 0.  1.
         22    1    3    3    0    0 -0.10821244818E+03  0.30076828014E+02  0.35186096307E+03  0.36935171159E+03  0.00000000000E+00 0.  1.
</event>
<event>
 7    1  0.5194496E-006  0.1337511E+03  0.7818608E-02  0.1285902E+00
          2   -1    0    0  502    0  0.00000000000E+00  0.00000000000E+00  0.47478869958E+03  0.47478869958E+03  0.00000000000E+00 0. -1.
          1   -1    0    0  501    0 -0.00000000000E+00 -0.00000000000E+00 -0.33699376905E+04  0.33699376905E+04  0.00000000000E+00 0. -1.
         25    2    1    2    0    0 -0.86441730457E+02  0.11037181201E+01  0.62325833816E+02  0.16426874994E+03  0.12500528665E+03 0.  0.
          2    1    1    2  501    0 -0.55504324524E+02  0.44115209281E+02 -0.33032211334E+04  0.33039819519E+04  0.00000000000E+00 0. -1.
          1    1    1    2  502    0  0.14194605498E+03 -0.45218927401E+02  0.34574630868E+03  0.37647568831E+03  0.00000000000E+00 0. -1.
         22    1    3    3    0    0 -0.43496993265E+02 -0.37233963012E+02 -0.22695826042E+02  0.61591045977E+02  0.00000000000E+00 0.  1.
         22    1    3    3    0    0 -0.42944737192E+02  0.38337681132E+02  0.85021659858E+02  0.10267770397E+03  0.00000000000E+00 0.  1.
</event>
<event>
 7    1  0.5194496E-006  0.2985247E+02  0.7818608E-02  0.1614066E+00
          2   -1    0    0  502    0  0.00000000000E+00  0.00000000000E+00  0.45803239802E+02  0.45803239802E+02  0.00000000000E+00 0. -1.
          1   -1    0    0  501    0 -0.00000000000E+00 -0.00000000000E+00 -0.87201193436E+03  0.87201193436E+03  0.00000000000E+00 0. -1.
         25    2    1    2    0    0 -0.41618600179E+02 -0.11635770043E+00 -0.68030005838E+03  0.69294072725E+03  0.12500624237E+03 0.  0.
          2    1    1    2  501    0  0.21971909851E+02  0.19223333700E+02 -0.17930876219E+03  0.18166984774E+03  0.00000000000E+00 0. -1.
          1    1    1    2  502    0  0.19646690327E+02 -0.19106976000E+02  0.33400126005E+02  0.43204599174E+02  0.00000000000E+00 0. -1.
         22    1    3    3    0    0  0.19663880394E+02  0.47629497451E+02 -0.34023254436E+03  0.34411251279E+03  0.00000000000E+00 0. -1.
         22    1    3    3    0    0 -0.61282480572E+02 -0.47745855151E+02 -0.34006751402E+03  0.34882821446E+03  0.00000000000E+00 0. -1.
</event>
<event>
 7    1  0.5194496E-006  0.9456321E+02  0.7818608E-02  0.1312971E+00
          2   -1    0    0  502    0  0.00000000000E+00  0.00000000000E+00  0.78538649118E+03  0.78538649118E+03  0.00000000000E+00 0. -1.
          1   -1    0    0  501    0 -0.00000000000E+00 -0.00000000000E+00 -0.51318842858E+03  0.51318842858E+03  0.00000000000E+00 0. -1.
         25    2    1    2    0    0  0.81681069404E+02 -0.13509970909E+02  0.42281143003E+01  0.14999137608E+03  0.12500087813E+03 0.  0.
          2    1    1    2  501    0 -0.48739266510E+02  0.84342636509E+02 -0.43272171010E+03  0.44355075789E+03  0.00000000000E+00 0. -1.
          1    1    1    2  502    0 -0.32941802894E+02 -0.70832665600E+02  0.70069165840E+03  0.70503278580E+03  0.00000000000E+00 0. -1.
         22    1    3    3    0    0  0.67947093833E+02 -0.47702995299E+02  0.45493883778E+02  0.94668245901E+02  0.00000000000E+00 0.  1.
         22    1    3    3    0    0  0.13733975571E+02  0.34193024390E+02 -0.41265769477E+02  0.55323130176E+02  0.00000000000E+00 0.  1.
</event>
<event>
 7    1  0.5194496E-006  0.1295874E+03  0.7818608E-02  0.1328641E+00
          2   -1    0    0  502    0  0.00000000000E+00  0.00000000000E+00  0.15647830660E+04  0.15647830660E+04  0.00000000000E+00 0. -1.
          1   -1    0    0  501    0 -0.00000000000E+00 -0.00000000000E+00 -0.97478407463E+03  0.97478407463E+03  0.00000000000E+00 0. -1.
         25    2    1    2    0    0  0.17272181204E+03 -0.15955600453E+02  0.15369651237E+03  0.26331536189E+03  0.12499982541E+03 0.  0.
          2    1    1    2  501    0 -0.45513725421E+02  0.19629754867E+02 -0.91631809912E+03  0.91765771683E+03  0.00000000000E+00 0. -1.
          1    1    1    2  502    0 -0.12720808661E+03 -0.36741544139E+01  0.13526205782E+04  0.13585940620E+04  0.00000000000E+00 0. -1.
         22    1    3    3    0    0  0.19083884492E+03 -0.16961500969E+02  0.15295052967E+03  0.24515509739E+03  0.00000000000E+00 0.  1.
         22    1    3    3    0    0 -0.18117032888E+02  0.10059005167E+01  0.74598269438E+00  0.18160264500E+02  0.00000000000E+00 0.  1.
</event>
<event>
 7    1  0.5194496E-006  0.6493438E+02  0.7818608E-02  0.1475152E+00
          2   -1    0    0  502    0  0.00000000000E+00  0.00000000000E+00  0.17237729564E+04  0.17237729564E+04  0.00000000000E+00 0. -1.
          1   -1    0    0  501    0 -0.00000000000E+00 -0.00000000000E+00 -0.51822874499E+02  0.51822874499E+02  0.00000000000E+00 0. -1.
         25    2    1    2    0    0  0.46218743863E+02 -0.14299354505E+02  0.36396866211E+03  0.38786425247E+03  0.12499939008E+03 0.  0.
          2    1    1    2  501    0  0.23921533875E+01 -0.30913616386E+02 -0.32899725310E+02  0.45208030276E+02  0.00000000000E+00 0. -1.
          1    1    1    2  502    0 -0.48610897250E+02  0.45212970891E+02  0.13408811451E+04  0.13425235481E+04  0.00000000000E+00 0. -1.
         22    1    3    3    0    0 -0.28602329472E+02  0.22876388538E+02  0.44410264914E+02  0.57564694332E+02  0.00000000000E+00 0.  1.
         22    1    3    3    0    0  0.74821073335E+02 -0.37175743043E+02  0.31955839720E+03  0.33029955814E+03  0.00000000000E+00 0.  1.
</event>
<event>
 7    1  0.5194496E-006  0.4431240E+02  0.7818608E-02  0.1532067E+00
          2   -1    0    0  502    0  0.00000000000E+00  0.00000000000E+00  0.12474531364E+04  0.12474531364E+04  0.00000000000E+00 0. -1.
          1   -1    0    0  501    0 -0.00000000000E+00 -0.00000000000E+00 -0.22155378694E+03  0.22155378694E+03  0.00000000000E+00 0. -1.
         25    2    1    2    0    0 -0.61611985960E+02 -0.22548111455E+02  0.42990246082E+03  0.45249073395E+03  0.12500913704E+03 0.  0.
          2    1    1    2  501    0  0.44140447981E+02 -0.27978980983E+01 -0.20763574165E+03  0.21229415581E+03  0.00000000000E+00 0. -1.
          1    1    1    2  502    0  0.17471537980E+02  0.25346009553E+02  0.80363263033E+03  0.80422203363E+03  0.00000000000E+00 0. -1.
         22    1    3    3    0    0  0.38776296075E+02 -0.76749319763E+01  0.13062417178E+03  0.13647410000E+03  0.00000000000E+00 0. -1.
         22    1    3    3    0    0 -0.10038828204E+03 -0.14873179478E+02  0.29927828904E+03  0.31601663394E+03  0.00000000000E+00 0. -1.
</event>
<event>
 7    1  0.5194496E-006  0.6938464E+02  0.7818608E-02  0.1430774E+00
          2   -1    0    0  502    0  0.00000000000E+00  0.00000000000E+00  0.14652083460E+04  0.14652083460E+04  0.00000000000E+00 0. -1.
          1   -1    0    0  501    0 -0.00000000000E+00 -0.00000000000E+00 -0.82371567217E+02  0.82371567217E+02  0.00000000000E+00 0. -1.
         25    2    1    2    0    0 -0.72251524791E+02  0.75009536093E+02  0.40805056593E+03  0.43929201673E+03  0.12500199303E+03 0.  0.
          2    1    1    2  501    0  0.35452086857E+02 -0.18924992939E+02 -0.59515657326E+02  0.71813085766E+02  0.00000000000E+00 0. -1.
          1    1    1    2  502    0  0.36799437934E+02 -0.56084543154E+02  0.10343018702E+04  0.10364748107E+04  0.00000000000E+00 0. -1.
         22    1    3    3    0    0  0.14225148722E+02 -0.21943586880E+02  0.31389993311E+02  0.40855936428E+02  0.00000000000E+00 0. -1.
         22    1    3    3    0    0 -0.86476673513E+02  0.96953122974E+02  0.37666057262E+03  0.39843608030E+03  0.00000000000E+00 0. -1.
</event>
<event>
 7    1  0.5194496E-006  0.8197574E+02  0.7818608E-02  0.1472076E+00
          2   -1    0    0  502    0  0.00000000000E+00  0.00000000000E+00  0.91293651248E+03  0.91293651248E+03  0.00000000000E+00 0. -1.
          1   -1    0    0  501    0 -0.00000000000E+00 -0.00000000000E+00 -0.59940207356E+03  0.59940207356E+03  0.00000000000E+00 0. -1.
         25    2    1    2    0    0 -0.70267477327E+02  0.26066761081E+01 -0.14319969538E+03  0.20266539865E+03  0.12499119139E+03 0.  0.
          2    1    1    2  501    0 -0.92057289031E+01 -0.23356011708E+02 -0.42418792984E+03  0.42493016903E+03  0.00000000000E+00 0. -1.
          1    1    1    2  502    0  0.79473206230E+02  0.20749335600E+02  0.88092206414E+03  0.88474301835E+03  0.00000000000E+00 0. -1.
         22    1    3    3    0    0 -0.61432088840E+02 -0.59950443238E+01 -0.28654029962E+01  0.61790392700E+02  0.00000000000E+00 0.  1.
         22    1    3    3    0    0 -0.88353884863E+01  0.86017204318E+01 -0.14033429238E+03  0.14087500595E+03  0.00000000000E+00 0.  1.
</event>
<event>
 7    1  0.5194496E-006  0.1374867E+03  0.7818608E-02  0.1286151E+00
          2   -1    0    0  502    0  0.00000000000E+00  0.00000000000E+00  0.22787814738E+04  0.22787814738E+04  0.00000000000E+00 0. -1.
          1   -1    0    0  501    0 -0.00000000000E+00 -0.00000000000E+00 -0.14454503643E+04  0.14454503643E+04  0.00000000000E+00 0. -1.
         25    2    1    2    0    0  0.78869162152E+02  0.90820685460E+02  0.52799047610E+03  0.55575517755E+03  0.12498453054E+03 0.  0.
          2    1    1    2  501    0 -0.26249631790E+02 -0.13516444080E+03 -0.14275727906E+04  0.14341975253E+04  0.00000000000E+00 0. -1.
          1    1    1    2  502    0 -0.52619530362E+02  0.44343755342E+02  0.17329134240E+04  0.17342791352E+04  0.00000000000E+00 0. -1.
         22    1    3    3    0    0  0.50570844235E+02  0.10878315106E+03  0.26814134124E+03  0.29375323509E+03  0.00000000000E+00 0. -1.
         22    1    3    3    0    0  0.28298317917E+02 -0.17962465600E+02  0.25984913486E+03  0.26200194247E+03  0.00000000000E+00 0. -1.
</event>
<event>
 7    1  0.5194496E-006  0.1466726E+03  0.7818608E-02  0.1329939E+00
          2   -1    0    0  502    0  0.00000000000E+00  0.00000000000E+00  0.74558560407E+03  0.74558560407E+03  0.00000000000E+00 0. -1.
          1   -1    0    0  501    0 -0.00000000000E+00 -0.00000000000E+00 -0.12867785210E+03  0.12867785210E+03  0.00000000000E+00 0. -1.
         25    2    1    2    0    0 -0.14784553647E+03 -0.20156872915E+02  0.20351897612E+03  0.28161678461E+03  0.12499375005E+03 0.  0.
          2    1    1    2  501    0  0.14549406921E+03 -0.23074099011E+02 -0.27313270641E+02  0.14982307223E+03  0.00000000000E+00 0. -1.
          1    1    1    2  502    0  0.23514672610E+01  0.43230971926E+02  0.44070204650E+03  0.44282359933E+03  0.00000000000E+00 0. -1.
         22    1    3    3    0    0 -0.12219099628E+03  0.31777492439E+02  0.17821539210E+03  0.21840598568E+03  0.00000000000E+00 0.  1.
         22    1    3    3    0    0 -0.25654540193E+02 -0.51934365354E+02  0.25303584013E+02  0.63210798929E+02  0.00000000000E+00 0.  1.
</event>
<event>
 7    1  0.5194496E-006  0.1152966E+03  0.7818608E-02  0.1453842E+00
          2   -1    0    0  502    0  0.00000000000E+00  0.00000000000E+00  0.81125122027E+02  0.81125122027E+02  0.00000000000E+00 0. -1.
          1   -1    0    0  501    0 -0.00000000000E+00 -0.00000000000E+00 -0.48180229810E+03  0.48180229810E+03  0.00000000000E+00 0. -1.
         25    2    1    2    0    0  0.77067090887E+02  0.94185231488E+02 -0.83590746625E+02  0.19344995059E+03  0.12500110453E+03 0.  0.
          2    1    1    2  501    0 -0.57284347764E+02 -0.99025234671E+02 -0.32728316103E+03  0.34670125626E+03  0.00000000000E+00 0. -1.
          1    1    1    2  502    0 -0.19782743123E+02  0.48400031826E+01  0.10196731581E+02  0.22776213277E+02  0.00000000000E+00 0. -1.
         22    1    3    3    0    0  0.71622893167E+02  0.12203203220E+03 -0.84956305587E+02  0.16504311427E+03  0.00000000000E+00 0. -1.
         22    1    3    3    0    0  0.54441977202E+01 -0.27846800709E+02  0.13655589614E+01  0.28406836322E+02  0.00000000000E+00 0. -1.
</event>
<event>
 7    1  0.5194496E-006  0.7783305E+02  0.7818608E-02  0.1452739E+00
          2   -1    0    0  502    0  0.00000000000E+00  0.00000000000E+00  0.12546751992E+03  0.12546751992E+03  0.00000000000E+00 0. -1.
          1   -1    0    0  501    0 -0.00000000000E+00 -0.00000000000E+00 -0.92157316718E+03  0.92157316718E+03  0.00000000000E+00 0. -1.
         25    2    1    2    0    0 -0.46550372123E+02  0.22814905798E+02  0.26972891954E+02  0.13799176326E+03  0.12500693083E+03 0.  0.
          2    1    1    2  501    0  0.60589452243E+02 -0.49795011951E+02 -0.85866344705E+03  0.86223751962E+03  0.00000000000E+00 0. -1.
          1    1    1    2  502    0 -0.14039080120E+02  0.26980106153E+02  0.35584907841E+02  0.46811404216E+02  0.00000000000E+00 0. -1.
         22    1    3    3    0    0 -0.72346839632E+02  0.57221130480E+02  0.20687561441E+02  0.94531995517E+02  0.00000000000E+00 0. -1.
         22    1    3    3    0    0  0.25796467509E+02 -0.34406224683E+02  0.62853305129E+01  0.43459767745E+02  0.00000000000E+00 0. -1.
</event>
<event>
 7    1  0.5194496E-006  0.9183470E+02  0.7818608E-02  0.1418417E+00
          2   -1    0    0  502    0  0.00000000000E+00  0.00000000000E+00  0.67795505708E+03  0.67795505708E+03  0.00000000000E+00 0. -1.
          1   -1    0    0  501    0 -0.00000000000E+00 -0.00000000000E+00 -0.10257712783E+04  0.10257712783E+04  0.00000000000E+00 0. -1.
         25    2    1    2    0    0 -0.62224704676E+02  0.33531195525E+01 -0.18695420542E+03  0.23336701093E+03  0.12500051832E+03 0.  0.
          2    1    1    2  501    0  0.94813524395E+02 -0.10526232360E+02 -0.81239278625E+03  0.81797459931E+03  0.00000000000E+00 0. -1.
          1    1    1    2  502    0 -0.32588819719E+02  0.71731128078E+01  0.65153077046E+03  0.65238472513E+03  0.00000000000E+00 0. -1.
         22    1    3    3    0    0 -0.42984273667E+02 -0.54500715628E+02 -0.56981503460E+02  0.89804607471E+02  0.00000000000E+00 0. -1.
         22    1    3    3    0    0 -0.19240431009E+02  0.57853835180E+02 -0.12997270196E+03  0.14356240345E+03  0.00000000000E+00 0. -1.
</event>
<event>
 7    1  0.5194496E-006  0.8152375E+02  0.7818608E-02  0.1439973E+00
          2   -1    0    0  502    0  0.00000000000E+00  0.00000000000E+00  0.74349484648E+03  0.74349484648E+03  0.00000000000E+00 0. -1.
          1   -1    0    0  501    0 -0.00000000000E+00 -0.00000000000E+00 -0.70317023032E+03  0.70317023032E+03  0.00000000000E+00 0. -1.
         25    2    1    2    0    0  0.12480063752E+02 -0.64446785362E+02  0.19617831117E+03  0.24168913114E+03  0.12497426216E+03 0.  0.
          2    1    1    2  501    0  0.30902797507E+02 -0.79794758407E+01 -0.67663927416E+03  0.67739158709E+03  0.00000000000E+00 0. -1.
          1    1    1    2  502    0 -0.43382861259E+02  0.72426261202E+02  0.52078557914E+03  0.52758435857E+03  0.00000000000E+00 0. -1.
         22    1    3    3    0    0  0.79283973343E+01  0.50709254719E+01  0.16516227936E+03  0.16543020369E+03  0.00000000000E+00 0.  1.
         22    1    3    3    0    0  0.45516664174E+01 -0.69517710834E+02  0.31016031815E+02  0.76258927453E+02  0.00000000000E+00 0.  1.
</event>
<event>
 7    1  0.5194496E-006  0.1442128E+03  0.7818608E-02  0.1239342E+00
          2   -1    0    0  502    0  0.00000000000E+00  0.00000000000E+00  0.13358908766E+04  0.13358908766E+04  0.00000000000E+00 0. -1.
          1   -1    0    0  501    0 -0.00000000000E+00 -0.00000000000E+00 -0.56812193490E+03  0.56812193490E+03  0.00000000000E+00 0. -1.
         25    2    1    2    0    0  0.10699984623E+03 -0.72804121455E+01 -0.36670700849E+02  0.16873374853E+03  0.12499746438E+03 0.  0.
          2    1    1    2  501    0 -0.12416989738E+03 -0.95014271203E+02 -0.45008756649E+03  0.47647108271E+03  0.00000000000E+00 0. -1.
          1    1    1    2  502    0  0.17170051157E+02  0.10229468335E+03  0.12545272090E+04  0.12588079802E+04  0.00000000000E+00 0. -1.
         22    1    3    3    0    0  0.11748202863E+03 -0.43400974081E+02 -0.38651005373E+02  0.13107086563E+03  0.00000000000E+00 0. -1.
         22    1    3    3    0    0 -0.10482182401E+02  0.36120561935E+02  0.19803045241E+01  0.37662882901E+02  0.00000000000E+00 0. -1.
</event>
<event>
 7    1  0.5194496E-006  0.4069162E+02  0.7818608E-02  0.1557988E+00
          2   -1    0    0  502    0  0.00000000000E+00  0.00000000000E+00  0.11751555832E+04  0.11751555832E+04  0.00000000000E+00 0. -1.
          1   -1    0    0  501    0 -0.00000000000E+00 -0.00000000000E+00 -0.11728678496E+03  0.11728678496E+03  0.00000000000E+00 0. -1.
         25    2    1    2    0    0  0.56530757122E+02  0.26639872676E+02  0.73437172507E+03  0.74755072797E+03  0.12499940400E+03 0.  0.
          2    1    1    2  501    0 -0.28337095751E+02 -0.86896504543E+00 -0.10802452601E+03  0.11168278433E+03  0.00000000000E+00 0. -1.
          1    1    1    2  502    0 -0.28193661371E+02 -0.25770907631E+02  0.43152159920E+03  0.43320885586E+03  0.00000000000E+00 0. -1.
         22    1    3    3    0    0 -0.12292854990E+02 -0.39382014761E+02  0.30063904337E+03  0.30345657312E+03  0.00000000000E+00 0.  1.
         22    1    3    3    0    0  0.68823612111E+02  0.66021887437E+02  0.43373268170E+03  0.44409415486E+03  0.00000000000E+00 0.  1.
</event>
<event>
 7    1  0.5194496E-006  0.1218502E+03  0.7818608E-02  0.1377101E+00
          2   -1    0    0  502    0  0.00000000000E+00  0.00000000000E+00  0.13625397607E+04  0.13625397607E+04  0.00000000000E+00 0. -1.
          1   -1    0    0  501    0 -0.00000000000E+00 -0.00000000000E+00 -0.15573862089E+04  0.15573862089E+04  0.00000000000E+00 0. -1.
         25    2    1    2    0    0  0.87130444697E+02 -0.12098808820E+03  0.24157840997E+02  0.19605489392E+03  0.12499635302E+03 0.  0.
          2    1    1    2  501    0 -0.21746004042E+01  0.34853966676E+02 -0.14683079568E+04  0.14687231815E+04  0.00000000000E+00 0. -1.
          1    1    1    2  502    0 -0.84955844293E+02  0.86134121527E+02  0.12493036676E+04  0.12551478942E+04  0.00000000000E+00 0. -1.
         22    1    3    3    0    0  0.12618164897E+02 -0.38157453079E+02  0.65808821095E+02  0.77110377024E+02  0.00000000000E+00 0.  1.
         22    1    3    3    0    0  0.74512279800E+02 -0.82830635124E+02 -0.41650980098E+02  0.11894451689E+03  0.00000000000E+00 0.  1.
</event>
<event>
 7    1  0.5194496E-006  0.5281165E+02  0.7818608E-02  0.1541572E+00
          2   -1    0    0  502    0  0.00000000000E+00  0.00000000000E+00  0.12645816530E+04  0.12645816530E+04  0.00000000000E+00 0. -1.
          1   -1    0    0  501    0 -0.00000000000E+00 -0.00000000000E+00 -0.81573940182E+03  0.81573940182E+03  0.00000000000E+00 0. -1.
         25    2    1    2    0    0 -0.68257837228E+01 -0.28306328060E+02  0.75794807129E+02  0.14905826913E+03  0.12500270108E+03 0.  0.
          2    1    1    2  501    0  0.18014621170E+02  0.49847759169E+02 -0.77807811402E+03  0.77988132250E+03  0.00000000000E+00 0. -1.
          1    1    1    2  502    0 -0.11188837448E+02 -0.21541431109E+02  0.11511255581E+04  0.11513814632E+04  0.00000000000E+00 0. -1.
         22    1    3    3    0    0 -0.91966324252E+01 -0.78028163468E+02  0.45935823900E+02  0.91011385329E+02  0.00000000000E+00 0. -1.
         22    1    3    3    0    0  0.23708487024E+01  0.49721835408E+02  0.29858983230E+02  0.58046883805E+02  0.00000000000E+00 0. -1.
</event>
<event>
 7    1  0.5194496E-006  0.2562744E+03  0.7818608E-02  0.1277263E+00
          2   -1    0    0  502    0  0.00000000000E+00  0.00000000000E+00  0.13904958573E+04  0.13904958573E+04  0.00000000000E+00 0. -1.
          1   -1    0    0  501    0 -0.00000000000E+00 -0.00000000000E+00 -0.63064380818E+03  0.63064380818E+03  0.00000000000E+00 0. -1.
         25    2    1    2    0    0 -0.15303947567E+03  0.17661259047E+03  0.27393414138E+03  0.38115393735E+03  0.12500128767E+03 0.  0.
          2    1    1    2  501    0  0.19293189657E+03 -0.17193863610E+03 -0.54768941325E+03  0.60559830307E+03  0.00000000000E+00 0. -1.
          1    1    1    2  502    0 -0.39892420905E+02 -0.46739543746E+01  0.10336073210E+04  0.10343874250E+04  0.00000000000E+00 0. -1.
         22    1    3    3    0    0 -0.16052510300E+03  0.16964908220E+03  0.20288403726E+03  0.30937202906E+03  0.00000000000E+00 0. -1.
         22    1    3    3    0    0  0.74856273328E+01  0.69635082678E+01  0.71050104111E+02  0.71781908293E+02  0.00000000000E+00 0. -1.
</event>
<event>
 7    1  0.5204489E-006  0.8573004E+02  0.7818608E-02  0.1421108E+00
          2   -1    0    0  502    0  0.00000000000E+00  0.00000000000E+00  0.57474750745E+03  0.57474750745E+03  0.00000000000E+00 0. -1.
          1   -1    0    0  501    0 -0.00000000000E+00 -0.00000000000E+00 -0.17050529280E+04  0.17050529280E+04  0.00000000000E+00 0. -1.
         25    2    1    2    0    0 -0.11114809403E+03  0.36026242519E+02 -0.12253424309E+04  0.12372332800E+04  0.12502130761E+03 0.  0.
          2    1    1    2  501    0  0.26512421589E+02 -0.22868544599E+02 -0.46988559530E+03  0.47118823362E+03  0.00000000000E+00 0. -1.
          1    1    1    2  502    0  0.84635672442E+02 -0.13157697920E+02  0.56492260556E+03  0.57137892186E+03  0.00000000000E+00 0. -1.
         22    1    3    3    0    0 -0.93658453341E+02  0.38304566044E+02 -0.12088773278E+04  0.12131049169E+04  0.00000000000E+00 0. -1.
         22    1    3    3    0    0 -0.17489640690E+02 -0.22783235253E+01 -0.16465103072E+02  0.24128363159E+02  0.00000000000E+00 0. -1.
</event>
<event>
 7    1  0.5194496E-006  0.4111194E+02  0.7818608E-02  0.1581396E+00
          2   -1    0    0  502    0  0.00000000000E+00  0.00000000000E+00  0.70905443762E+03  0.70905443762E+03  0.00000000000E+00 0. -1.
          1   -1    0    0  501    0 -0.00000000000E+00 -0.00000000000E+00 -0.17620291255E+02  0.17620291255E+02  0.00000000000E+00 0. -1.
         25    2    1    2    0    0  0.31791300201E+02  0.39958146291E+02  0.31648471961E+03  0.34408478845E+03  0.12499769465E+03 0.  0.
          2    1    1    2  501    0 -0.76160411571E+01 -0.38233291127E+02  0.11327958911E+03  0.11980005819E+03  0.00000000000E+00 0. -1.
          1    1    1    2  502    0 -0.24175259044E+02 -0.17248551642E+01  0.26166983764E+03  0.26278988224E+03  0.00000000000E+00 0. -1.
         22    1    3    3    0    0 -0.26337998569E+02 -0.32691987976E+02  0.98614840112E+02  0.10717902284E+03  0.00000000000E+00 0. -1.
         22    1    3    3    0    0  0.58129298770E+02  0.72650134266E+02  0.21786987950E+03  0.23690576561E+03  0.00000000000E+00 0. -1.
</event>
<event>
 7    1  0.5194496E-006  0.2684306E+03  0.7818608E-02  0.1232941E+00
          2   -1    0    0  502    0  0.00000000000E+00  0.00000000000E+00  0.13265852460E+04  0.13265852460E+04  0.00000000000E+00 0. -1.
          1   -1    0    0  501    0 -0.00000000000E+00 -0.00000000000E+00 -0.33095717570E+03  0.33095717570E+03  0.00000000000E+00 0. -1.
         25    2    1    2    0    0 -0.27867255071E+03  0.13230695439E+03  0.61179666215E+02  0.33842697670E+03  0.12500538508E+03 0.  0.
          2    1    1    2  501    0  0.21989988756E+03 -0.12307710732E+03 -0.10857642259E+03  0.27439528865E+03  0.00000000000E+00 0. -1.
          1    1    1    2  502    0  0.58772663157E+02 -0.92298470669E+01  0.10430248266E+04  0.10447201563E+04  0.00000000000E+00 0. -1.
         22    1    3    3    0    0 -0.21553944179E+03  0.12690043052E+03 -0.32421675392E+00  0.25012212087E+03  0.00000000000E+00 0.  1.
         22    1    3    3    0    0 -0.63133108926E+02  0.54065238670E+01  0.61503882969E+02  0.88304855830E+02  0.00000000000E+00 0.  1.
</event>
<event>
 7    1  0.5194496E-006  0.2130451E+03  0.7818608E-02  0.1228554E+00
          2   -1    0    0  502    0  0.00000000000E+00  0.00000000000E+00  0.47434098055E+03  0.47434098055E+03  0.00000000000E+00 0. -1.
          1   -1    0    0  501    0 -0.00000000000E+00 -0.00000000000E+00 -0.36347727487E+03  0.36347727487E+03  0.00000000000E+00 0. -1.
         25    2    1    2    0    0 -0.12608308029E+03 -0.10720984553E+03  0.34516319241E+03  0.40268358637E+03  0.12500218887E+03 0.  0.
          2    1    1    2  501    0  0.20137586435E+03  0.85255047072E+02 -0.27126386029E+03  0.34843183507E+03  0.00000000000E+00 0. -1.
          1    1    1    2  502    0 -0.75292784062E+02  0.21954798463E+02  0.36964373545E+02  0.86702833973E+02  0.00000000000E+00 0. -1.
         22    1    3    3    0    0 -0.64955566384E+02 -0.12731037925E+03  0.24459292235E+03  0.28328935019E+03  0.00000000000E+00 0.  1.
         22    1    3    3    0    0 -0.61127513909E+02  0.20100533717E+02  0.10057027006E+03  0.11939423618E+03  0.00000000000E+00 0.  1.
</event>
<event>
 7    1  0.5194496E-006  0.1588319E+03  0.7818608E-02  0.1216542E+00
          2   -1    0    0  502    0  0.00000000000E+00  0.00000000000E+00  0.60012466936E+03  0.60012466936E+03  0.00000000000E+00 0. -1.
          1   -1    0    0  501    0 -0.00000000000E+00 -0.00000000000E+00 -0.60278712799E+03  0.60278712799E+03  0.00000000000E+00 0. -1.
         25    2    1    2    0    0 -0.12938669787E+03 -0.13349452596E+02 -0.27481112570E+03  0.32873300757E+03  0.12500043995E+03 0.  0.
          2    1    1    2  501    0  0.19521293994E+03 -0.86114976962E+02 -0.25569775857E+03  0.33302436084E+03  0.00000000000E+00 0. -1.
          1    1    1    2  502    0 -0.65826242068E+02  0.99464429558E+02  0.52784642564E+03  0.54115442893E+03  0.00000000000E+00 0. -1.
         22    1    3    3    0    0  0.25342762245E+01 -0.44355546889E+02 -0.78289573689E+02  0.90017189715E+02  0.00000000000E+00 0.  1.
         22    1    3    3    0    0 -0.13192097409E+03  0.31006094293E+02 -0.19652155201E+03  0.23871581785E+03  0.00000000000E+00 0.  1.
</event>
<event>
 7    1  0.5194496E-006  0.9010204E+02  0.7818608E-02  0.1488703E+00
          2   -1    0    0  502    0  0.00000000000E+00  0.00000000000E+00  0.56094092331E+03  0.56094092331E+03  0.00000000000E+00 0. -1.
          1   -1    0    0  501    0 -0.00000000000E+00 -0.00000000000E+00 -0.52087461492E+03  0.52087461492E+03  0.00000000000E+00 0. -1.
         25    2    1    2    0    0 -0.47347229852E+02 -0.98409432865E+02 -0.24974257126E+03  0.29987135011E+03  0.12500119226E+03 0.  0.
          2    1    1    2  501    0  0.13476494238E+02  0.15195778989E+02 -0.24187335083E+03  0.24272462882E+03  0.00000000000E+00 0. -1.
          1    1    1    2  502    0  0.33870735613E+02  0.83213653876E+02  0.53168223047E+03  0.53921955929E+03  0.00000000000E+00 0. -1.
         22    1    3    3    0    0  0.27375699961E+02 -0.79461464764E+02 -0.16591313558E+03  0.18598581099E+03  0.00000000000E+00 0.  1.
         22    1    3    3    0    0 -0.74722929812E+02 -0.18947968101E+02 -0.83829435677E+02  0.11388553912E+03  0.00000000000E+00 0.  1.
</event>
<event>
 7    1  0.5194496E-006  0.1003880E+03  0.7818608E-02  0.1322451E+00
          2   -1    0    0  502    0  0.00000000000E+00  0.00000000000E+00  0.20977202726E+04  0.20977202726E+04  0.00000000000E+00 0. -1.
          1   -1    0    0  501    0 -0.00000000000E+00 -0.00000000000E+00 -0.13410438943E+04  0.13410438943E+04  0.00000000000E+00 0. -1.
         25    2    1    2    0    0  0.38403433005E+02  0.33894858566E+02  0.12317229388E+03  0.18281217620E+03  0.12500077073E+03 0.  0.
          2    1    1    2  501    0 -0.20450006447E+02 -0.99056388652E+02 -0.13086846762E+04  0.13125875029E+04  0.00000000000E+00 0. -1.
          1    1    1    2  502    0 -0.17953426558E+02  0.65161530086E+02  0.19421887606E+04  0.19433644878E+04  0.00000000000E+00 0. -1.
         22    1    3    3    0    0  0.44239771676E+02 -0.34759874694E+02  0.22010187959E+02  0.60414027019E+02  0.00000000000E+00 0. -1.
         22    1    3    3    0    0 -0.58363386708E+01  0.68654733260E+02  0.10116210592E+03  0.12239814918E+03  0.00000000000E+00 0. -1.
</event>
<event>
 7    1  0.5194496E-006  0.4068961E+02  0.7818608E-02  0.1548050E+00
          2   -1    0    0  502    0  0.00000000000E+00  0.00000000000E+00  0.70832477907E+03  0.70832477907E+03  0.00000000000E+00 0. -1.
          1   -1    0    0  501    0 -0.00000000000E+00 -0.00000000000E+00 -0.25856627929E+04  0.25856627929E+04  0.00000000000E+00 0. -1.
         25    2    1    2    0    0  0.81417742002E+00  0.23066573320E+02  0.39732940307E+03  0.41716653666E+03  0.12499814028E+03 0.  0.
          2    1    1    2  501    0  0.28871367541E+02 -0.28686099383E+02 -0.25748250450E+04  0.25751466872E+04  0.00000000000E+00 0. -1.
          1    1    1    2  502    0 -0.29685544961E+02  0.56195260632E+01  0.30015762807E+03  0.30167434817E+03  0.00000000000E+00 0. -1.
         22    1    3    3    0    0  0.16818829542E+02  0.67045335142E+02  0.14624446671E+03  0.16175720706E+03  0.00000000000E+00 0. -1.
         22    1    3    3    0    0 -0.16004652122E+02 -0.43978761822E+02  0.25108493635E+03  0.25540932960E+03  0.00000000000E+00 0. -1.
</event>
<event>
 7    1  0.5194496E-006  0.1983417E+03  0.7818608E-02  0.1259837E+00
          2   -1    0    0  502    0  0.00000000000E+00  0.00000000000E+00  0.88787952120E+03  0.88787952120E+03  0.00000000000E+00 0. -1.
          1   -1    0    0  501    0 -0.00000000000E+00 -0.00000000000E+00 -0.62558378300E+03  0.62558378300E+03  0.00000000000E+00 0. -1.
         25    2    1    2    0    0 -0.10570301232E+03  0.10404747057E+03  0.55986496499E+02  0.20188313660E+03  0.12499324024E+03 0.  0.
          2    1    1    2  501    0  0.16327067059E+03 -0.12553399503E+03 -0.53212688219E+03  0.57059189841E+03  0.00000000000E+00 0. -1.
          1    1    1    2  502    0 -0.57567658270E+02  0.21486524460E+02  0.73843612389E+03  0.74098826919E+03  0.00000000000E+00 0. -1.
         22    1    3    3    0    0 -0.11762090828E+03  0.12374435040E+03  0.46192329361E+02  0.17686456291E+03  0.00000000000E+00 0.  1.
         22    1    3    3    0    0  0.11917895965E+02 -0.19696879831E+02  0.97941671384E+01  0.25018573685E+02  0.00000000000E+00 0.  1.
</event>
<event>
 7    1  0.5194496E-006  0.1605771E+03  0.7818608E-02  0.1357068E+00
          2   -1    0    0  502    0  0.00000000000E+00  0.00000000000E+00  0.53628046932E+03  0.53628046932E+03  0.00000000000E+00 0. -1.
          1   -1    0    0  501    0 -0.00000000000E+00 -0.00000000000E+00 -0.55806732932E+03  0.55806732932E+03  0.00000000000E+00 0. -1.
         25    2    1    2    0    0  0.17363143111E+03  0.66551742554E+02  0.84410763380E+02  0.23943391781E+03  0.12500566274E+03 0.  0.
          2    1    1    2  501    0 -0.30815559608E+02 -0.54983983700E+01 -0.46389541197E+03  0.46495030310E+03  0.00000000000E+00 0. -1.
          1    1    1    2  502    0 -0.14281587151E+03 -0.61053344184E+02  0.35769778859E+03  0.38996357773E+03  0.00000000000E+00 0. -1.
         22    1    3    3    0    0  0.17966182740E+03  0.30300826380E+02  0.49634921153E+02  0.18883891998E+03  0.00000000000E+00 0. -1.
         22    1    3    3    0    0 -0.60303962836E+01  0.36250916174E+02  0.34775842228E+02  0.50594997830E+02  0.00000000000E+00 0. -1.
</event>
<event>
 7    1  0.5194496E-006  0.1327653E+03  0.7818608E-02  0.1238182E+00
          2   -1    0    0  502    0  0.00000000000E+00  0.00000000000E+00  0.93876845332E+03  0.93876845332E+03  0.00000000000E+00 0. -1.
          1   -1    0    0  501    0 -0.00000000000E+00 -0.00000000000E+00 -0.13027039427E+04  0.13027039427E+04  0.00000000000E+00 0. -1.
         25    2    1    2    0    0  0.16177642356E+03 -0.63067412740E+02 -0.23145553628E+03  0.31519185595E+03  0.12500052406E+03 0.  0.
          2    1    1    2  501    0 -0.12470030622E+03 -0.44742592703E+02 -0.10214620480E+04  0.10300178549E+04  0.00000000000E+00 0. -1.
          1    1    1    2  502    0 -0.37076117335E+02  0.10781000544E+03  0.88898209489E+03  0.89626268515E+03  0.00000000000E+00 0. -1.
         22    1    3    3    0    0  0.94704401612E+02 -0.43666982681E+02 -0.22129252569E+03  0.24463464797E+03  0.00000000000E+00 0. -1.
         22    1    3    3    0    0  0.67072021947E+02 -0.19400430059E+02 -0.10163010592E+02  0.70557207987E+02  0.00000000000E+00 0. -1.
</event>
<event>
 7    1  0.5194496E-006  0.6089772E+02  0.7818608E-02  0.1533199E+00
          2   -1    0    0  502    0  0.00000000000E+00  0.00000000000E+00  0.80537901978E+03  0.80537901978E+03  0.00000000000E+00 0. -1.
          1   -1    0    0  501    0 -0.00000000000E+00 -0.00000000000E+00 -0.29282523440E+03  0.29282523440E+03  0.00000000000E+00 0. -1.
         25    2    1    2    0    0 -0.43313154500E+02  0.44712498875E+01  0.55234304707E+03  0.56798127015E+03  0.12499544060E+03 0.  0.
          2    1    1    2  501    0  0.56865369393E+02 -0.22097845298E+02 -0.28122461635E+03  0.28776599841E+03  0.00000000000E+00 0. -1.
          1    1    1    2  502    0 -0.13552214892E+02  0.17626595411E+02  0.24143535465E+03  0.24245698561E+03  0.00000000000E+00 0. -1.
         22    1    3    3    0    0  0.30767986250E+00  0.19917210752E+01  0.49911028343E+03  0.49911435227E+03  0.00000000000E+00 0. -1.
         22    1    3    3    0    0 -0.43620834363E+02  0.24795288123E+01  0.53232763644E+02  0.68866917884E+02  0.00000000000E+00 0. -1.
</event>
<event>
 7    1  0.5194496E-006  0.6251766E+02  0.7818608E-02  0.1463663E+00
          2   -1    0    0  502    0  0.00000000000E+00  0.00000000000E+00  0.10047474056E+04  0.10047474056E+04  0.00000000000E+00 0. -1.
          1   -1    0    0  501    0 -0.00000000000E+00 -0.00000000000E+00 -0.46578125384E+03  0.46578125384E+03  0.00000000000E+00 0. -1.
         25    2    1    2    0    0  0.32170183076E+02  0.37430098598E+02 -0.87444408785E+02  0.16033808042E+03  0.12500336973E+03 0.  0.
          2    1    1    2  501    0 -0.89634637382E+01 -0.63589195579E+02 -0.33855496712E+03  0.34459163548E+03  0.00000000000E+00 0. -1.
          1    1    1    2  502    0 -0.23206719337E+02  0.26159096981E+02  0.96496552772E+03  0.96559894359E+03  0.00000000000E+00 0. -1.
         22    1    3    3    0    0 -0.37915775168E+02  0.44839327976E+02 -0.62038422030E+02  0.85422111586E+02  0.00000000000E+00 0. -1.
         22    1    3    3    0    0  0.70085958244E+02 -0.74092293777E+01 -0.25405986755E+02  0.74915968831E+02  0.00000000000E+00 0. -1.
</event>
<event>
 7    1  0.5194496E-006  0.5903663E+02  0.7818608E-02  0.1466808E+00
          2   -1    0    0  502    0  0.00000000000E+00  0.00000000000E+00  0.56316059424E+03  0.56316059424E+03  0.00000000000E+00 0. -1.
          1   -1    0    0  501    0 -0.00000000000E+00 -0.00000000000E+00 -0.64803466401E+03  0.64803466401E+03  0.00000000000E+00 0. -1.
         25    2    1    2    0    0  0.38290505852E+02  0.14913378435E+02  0.17253459319E+03  0.21698528757E+03  0.12500342988E+03 0.  0.
          2    1    1    2  501    0 -0.57001524795E+02  0.16076997356E+02 -0.62351335078E+03  0.62631984024E+03  0.00000000000E+00 0. -1.
          1    1    1    2  502    0  0.18711018942E+02 -0.30990375790E+02  0.36610468783E+03  0.36789013044E+03  0.00000000000E+00 0. -1.
         22    1    3    3    0    0  0.26778851710E+02  0.12796289426E+02  0.19199537238E+03  0.19427577033E+03  0.00000000000E+00 0.  1.
         22    1    3    3    0    0  0.11511654142E+02  0.21170890092E+01 -0.19460779188E+02  0.22709517247E+02  0.00000000000E+00 0.  1.
</event>
<event>
 7    1  0.5194496E-006  0.5828575E+02  0.7818608E-02  0.1458940E+00
          2   -1    0    0  502    0  0.00000000000E+00  0.00000000000E+00  0.40291731259E+03  0.40291731259E+03  0.00000000000E+00 0. -1.
          1   -1    0    0  501    0 -0.00000000000E+00 -0.00000000000E+00 -0.84136427544E+03  0.84136427544E+03  0.00000000000E+00 0. -1.
         25    2    1    2    0    0 -0.27379025183E+02 -0.25282121895E+02 -0.11164853260E+03  0.17169551708E+03  0.12500063619E+03 0.  0.
          2    1    1    2  501    0  0.20326354042E+02 -0.33067133370E+02 -0.69683286993E+03  0.69791306377E+03  0.00000000000E+00 0. -1.
          1    1    1    2  502    0  0.70526711416E+01  0.58349255265E+02  0.37003443967E+03  0.37467300717E+03  0.00000000000E+00 0. -1.
         22    1    3    3    0    0 -0.44414117553E+02  0.32735468988E+02 -0.14135305160E+02  0.56956401044E+02  0.00000000000E+00 0. -1.
         22    1    3    3    0    0  0.17035092370E+02 -0.58017590882E+02 -0.97513227436E+02  0.11473911604E+03  0.00000000000E+00 0. -1.
</event>
<event>
 7    1  0.5194496E-006  0.8603617E+02  0.7818608E-02  0.1323453E+00
          2   -1    0    0  502    0  0.00000000000E+00  0.00000000000E+00  0.25013125584E+04  0.25013125584E+04  0.00000000000E+00 0. -1.
          1   -1    0    0  501    0 -0.00000000000E+00 -0.00000000000E+00 -0.27187080235E+03  0.27187080235E+03  0.00000000000E+00 0. -1.
         25    2    1    2    0    0  0.84701479306E+02 -0.31007005519E+02  0.28231004333E+03  0.32165176325E+03  0.12500048499E+03 0.  0.
          2    1    1    2  501    0 -0.58172772764E+02 -0.52207566909E+02 -0.24525304827E+03  0.25740776838E+03  0.00000000000E+00 0. -1.
          1    1    1    2  502    0 -0.26528706542E+02  0.83214572428E+02  0.21923847610E+04  0.21941238291E+04  0.00000000000E+00 0. -1.
         22    1    3    3    0    0  0.41768520608E+02  0.34702918570E+02  0.41423159166E+02  0.68299194625E+02  0.00000000000E+00 0. -1.
         22    1    3    3    0    0  0.42932958698E+02 -0.65709924090E+02  0.24088688416E+03  0.25335256862E+03  0.00000000000E+00 0. -1.
</event>
<event>
 7    1  0.5194496E-006  0.1252213E+03  0.7818608E-02  0.1326200E+00
          2   -1    0    0  502    0  0.00000000000E+00  0.00000000000E+00  0.12397053272E+04  0.12397053272E+04  0.00000000000E+00 0. -1.
          1   -1    0    0  501    0 -0.00000000000E+00 -0.00000000000E+00 -0.35507395246E+03  0.35507395246E+03  0.00000000000E+00 0. -1.
         25    2    1    2    0    0 -0.16672936865E+03 -0.29212836408E+02  0.34765424795E+03  0.40637682089E+03  0.12500628887E+03 0.  0.
          2    1    1    2  501    0  0.52268402833E+02 -0.38827732135E+01 -0.31945285425E+03  0.32372393788E+03  0.00000000000E+00 0. -1.
          1    1    1    2  502    0  0.11446096582E+03  0.33095609621E+02  0.85642998107E+03  0.86467852092E+03  0.00000000000E+00 0. -1.
         22    1    3    3    0    0  0.15284288393E+02 -0.23628422537E+02  0.40955570682E+02  0.49691755786E+02  0.00000000000E+00 0. -1.
         22    1    3    3    0    0 -0.18201365705E+03 -0.55844138708E+01  0.30669867727E+03  0.35668506511E+03  0.00000000000E+00 0. -1.
</event>
<event>
 7    1  0.5194496E-006  0.5988702E+02  0.7818608E-02  0.1400590E+00
          2   -1    0    0  502    0  0.00000000000E+00  0.00000000000E+00  0.20481674504E+04  0.20481674504E+04  0.00000000000E+00 0. -1.
          1   -1    0    0  501    0 -0.00000000000E+00 -0.00000000000E+00 -0.93408916390E+03  0.93408916390E+03  0.00000000000E+00 0. -1.
         25    2    1    2    0    0 -0.97161502413E+01  0.10666130150E+02  0.91761942197E+02  0.15573841459E+03  0.12500411927E+03 0.  0.
          2    1    1    2  501    0 -0.43964806274E+02 -0.39065166937E+02 -0.90066246028E+03  0.90258066610E+03  0.00000000000E+00 0. -1.
          1    1    1    2  502    0  0.53680956515E+02  0.28399036787E+02  0.19229788046E+04  0.19239375336E+04  0.00000000000E+00 0. -1.
         22    1    3    3    0    0 -0.63339275500E+02 -0.13090838258E+02  0.63480486294E+02  0.90625636590E+02  0.00000000000E+00 0. -1.
         22    1    3    3    0    0  0.53623125259E+02  0.23756968408E+02  0.28281455902E+02  0.65112777997E+02  0.00000000000E+00 0. -1.
</event>
<event>
 7    1  0.5194496E-006  0.2346855E+02  0.7818608E-02  0.1706824E+00
          2   -1    0    0  502    0  0.00000000000E+00  0.00000000000E+00  0.11201862212E+03  0.11201862212E+03  0.00000000000E+00 0. -1.
          1   -1    0    0  501    0 -0.00000000000E+00 -0.00000000000E+00 -0.35881796840E+03  0.35881796840E+03  0.00000000000E+00 0. -1.
         25    2    1    2    0    0  0.27611871467E+02  0.88415869620E+01 -0.49625554626E+02  0.13758327404E+03  0.12500349003E+03 0.  0.
          2    1    1    2  501    0 -0.67176090604E+01 -0.19663063280E+02 -0.26275667706E+03  0.26357699761E+03  0.00000000000E+00 0. -1.
          1    1    1    2  502    0 -0.20894262407E+02  0.10821476318E+02  0.65582885411E+02  0.69676318861E+02  0.00000000000E+00 0. -1.
         22    1    3    3    0    0  0.30201716599E+02  0.60889302094E+02 -0.51751894198E+02  0.85427801962E+02  0.00000000000E+00 0.  1.
         22    1    3    3    0    0 -0.25898451319E+01 -0.52047715132E+02  0.21263395715E+01  0.52155472083E+02  0.00000000000E+00 0.  1.
</event>
<event>
 7    1  0.5194496E-006  0.1737760E+03  0.7818608E-02  0.1228364E+00
          2   -1    0    0  502    0  0.00000000000E+00  0.00000000000E+00  0.75909663212E+03  0.75909663212E+03  0.00000000000E+00 0. -1.
          1   -1    0    0  501    0 -0.00000000000E+00 -0.00000000000E+00 -0.83727133505E+03  0.83727133505E+03  0.00000000000E+00 0. -1.
         25    2    1    2    0    0  0.18447743136E+03  0.17483523374E+03 -0.61663931468E+02  0.28987837516E+03  0.12501100074E+03 0.  0.
          2    1    1    2  501    0 -0.14111432008E+03 -0.88804948796E+02 -0.64727803497E+03  0.66840737938E+03  0.00000000000E+00 0. -1.
          1    1    1    2  502    0 -0.43363111280E+02 -0.86030284941E+02  0.63076726351E+03  0.63808221262E+03  0.00000000000E+00 0. -1.
         22    1    3    3    0    0  0.19059609802E+03  0.13946438994E+03 -0.23266699235E+02  0.23731525011E+03  0.00000000000E+00 0.  1.
         22    1    3    3    0    0 -0.61186666533E+01  0.35370843797E+02 -0.38397232233E+02  0.52563125056E+02  0.00000000000E+00 0.  1.
</event>
<event>
 7    1  0.5194496E-006  0.4998904E+02  0.7818608E-02  0.1519368E+00
          2   -1    0    0  502    0  0.00000000000E+00  0.00000000000E+00  0.21055710125E+04  0.21055710125E+04  0.00000000000E+00 0. -1.
          1   -1    0    0  501    0 -0.00000000000E+00 -0.00000000000E+00 -0.20600639569E+02  0.20600639569E+02  0.00000000000E+00 0. -1.
         25    2    1    2    0    0  0.78034545238E+01 -0.24252908446E+02  0.41983344061E+03  0.43878737543E+03  0.12500058206E+03 0.  0.
          2    1    1    2  501    0 -0.13280767821E+02 -0.26551191041E+02  0.98062631682E+01  0.31265113737E+02  0.00000000000E+00 0. -1.
          1    1    1    2  502    0  0.54773132976E+01  0.50804099487E+02  0.16553306692E+04  0.16561191629E+04  0.00000000000E+00 0. -1.
         22    1    3    3    0    0 -0.40472389530E+02 -0.56364102371E+02  0.21640543490E+03  0.22725808810E+03  0.00000000000E+00 0.  1.
         22    1    3    3    0    0  0.48275844054E+02  0.32111193925E+02  0.20342800570E+03  0.21152928733E+03  0.00000000000E+00 0.  1.
</event>
<event>
 7    1  0.5194496E-006  0.5819483E+02  0.7818608E-02  0.1497077E+00
          2   -1    0    0  502    0  0.00000000000E+00  0.00000000000E+00  0.29132608241E+04  0.29132608241E+04  0.00000000000E+00 0. -1.
          1   -1    0    0  501    0 -0.00000000000E+00 -0.00000000000E+00 -0.26506973624E+02  0.26506973624E+02  0.00000000000E+00 0. -1.
         25    2    1    2    0    0 -0.18236602728E+02  0.64406621498E+02  0.53999255827E+03  0.55829948822E+03  0.12500227592E+03 0.  0.
          2    1    1    2  501    0  0.28770449163E+02 -0.72578007063E+01 -0.40429269878E+01  0.29945945882E+02  0.00000000000E+00 0. -1.
          1    1    1    2  502    0 -0.10533846435E+02 -0.57148820792E+02  0.23508042192E+04  0.23515223637E+04  0.00000000000E+00 0. -1.
         22    1    3    3    0    0 -0.63395776313E+02  0.20671118522E+02  0.39009214880E+03  0.39575017897E+03  0.00000000000E+00 0.  1.
         22    1    3    3    0    0  0.45159173584E+02  0.43735502976E+02  0.14990040946E+03  0.16254930925E+03  0.00000000000E+00 0.  1.
</event>
<event>
 7    1  0.5194496E-006  0.1001112E+03  0.7818608E-02  0.1443752E+00
          2   -1    0    0  502    0  0.00000000000E+00  0.00000000000E+00  0.35604181055E+03  0.35604181055E+03  0.00000000000E+00 0. -1.
          1   -1    0    0  501    0 -0.00000000000E+00 -0.00000000000E+00 -0.47058073976E+03  0.47058073976E+03  0.00000000000E+00 0. -1.
         25    2    1    2    0    0  0.94198582527E+02  0.71020005207E+02 -0.16474676197E+03  0.23808357650E+03  0.12500031892E+03 0.  0.
          2    1    1    2  501    0 -0.69335639058E+02 -0.66509900484E+02 -0.26006183452E+03  0.27724205214E+03  0.00000000000E+00 0. -1.
          1    1    1    2  502    0 -0.24862943469E+02 -0.45101047237E+01  0.31026966728E+03  0.31129692166E+03  0.00000000000E+00 0. -1.
         22    1    3    3    0    0 -0.18743540424E+02 -0.10104562607E+02 -0.60938789684E+02  0.64551983558E+02  0.00000000000E+00 0. -1.
         22    1    3    3    0    0  0.11294212295E+03  0.81124567815E+02 -0.10380797229E+03  0.17353159295E+03  0.00000000000E+00 0. -1.
</event>
<event>
 7    1  0.6808288E-006  0.9233179E+02  0.7818608E-02  0.1383160E+00
          2   -1    0    0  502    0  0.00000000000E+00  0.00000000000E+00  0.93501713940E+03  0.93501713940E+03  0.00000000000E+00 0. -1.
          1   -1    0    0  501    0 -0.00000000000E+00 -0.00000000000E+00 -0.21830129787E+04  0.21830129787E+04  0.00000000000E+00 0. -1.
         25    2    1    2    0    0  0.55616369855E+02  0.15521087398E+02 -0.24956390898E+03  0.28502715472E+03  0.12499699803E+03 0.  0.
          2    1    1    2  501    0 -0.78747356951E+02 -0.52791140098E+02 -0.19140191180E+04  0.19163656318E+04  0.00000000000E+00 0. -1.
          1    1    1    2  502    0  0.23130987096E+02  0.37270052700E+02  0.91558718768E+03  0.91663733157E+03  0.00000000000E+00 0. -1.
         22    1    3    3    0    0 -0.25700177570E+01  0.17574491486E+02 -0.21814735584E+03  0.21886922260E+03  0.00000000000E+00 0.  1.
         22    1    3    3    0    0  0.58186387612E+02 -0.20534040874E+01 -0.31416553133E+02  0.66157932120E+02  0.00000000000E+00 0.  1.
</event>
<event>
 7    1  0.5194496E-006  0.5885063E+02  0.7818608E-02  0.1448364E+00
          2   -1    0    0  502    0  0.00000000000E+00  0.00000000000E+00  0.57538604542E+03  0.57538604542E+03  0.00000000000E+00 0. -1.
          1   -1    0    0  501    0 -0.00000000000E+00 -0.00000000000E+00 -0.12431716471E+03  0.12431716471E+03  0.00000000000E+00 0. -1.
         25    2    1    2    0    0 -0.23174637833E+02 -0.17839148744E+02 -0.10683667457E+02  0.12882188080E+03  0.12500254860E+03 0.  0.
          2    1    1    2  501    0  0.51015831547E+02  0.48669538408E+02 -0.30541103135E+02  0.76838128673E+02  0.00000000000E+00 0. -1.
          1    1    1    2  502    0 -0.27841193714E+02 -0.30830389664E+02  0.49229365131E+03  0.49404320065E+03  0.00000000000E+00 0. -1.
         22    1    3    3    0    0 -0.34589329147E+02  0.18625890567E+02  0.45980984580E+02  0.60478065720E+02  0.00000000000E+00 0. -1.
         22    1    3    3    0    0  0.11414691314E+02 -0.36465039311E+02 -0.56664652038E+02  0.68343815084E+02  0.00000000000E+00 0. -1.
</event>
<event>
 7    1  0.5194496E-006  0.1652013E+03  0.7818608E-02  0.1250977E+00
          2   -1    0    0  502    0  0.00000000000E+00  0.00000000000E+00  0.26651312381E+03  0.26651312381E+03  0.00000000000E+00 0. -1.
          1   -1    0    0  501    0 -0.00000000000E+00 -0.00000000000E+00 -0.19929648278E+04  0.19929648278E+04  0.00000000000E+00 0. -1.
         25    2    1    2    0    0  0.62267023024E+02 -0.21929724360E+03 -0.18841334734E+03  0.32108053896E+03  0.12499863934E+03 0.  0.
          2    1    1    2  501    0 -0.58127936263E+01  0.16185825543E+03 -0.17261700756E+04  0.17337517162E+04  0.00000000000E+00 0. -1.
          1    1    1    2  502    0 -0.56454229398E+02  0.57438988170E+02  0.18813171899E+03  0.20464569643E+03  0.00000000000E+00 0. -1.
         22    1    3    3    0    0 -0.10302181398E+02  0.93027709296E+01 -0.31626193474E+02  0.34538277348E+02  0.00000000000E+00 0. -1.
         22    1    3    3    0    0  0.72569204422E+02 -0.22860001453E+03 -0.15678715386E+03  0.28654226161E+03  0.00000000000E+00 0. -1.
</event>
<event>
 7    1  0.5194496E-006  0.1397050E+03  0.7818608E-02  0.1311551E+00
          2   -1    0    0  502    0  0.00000000000E+00  0.00000000000E+00  0.60067812805E+03  0.60067812805E+03  0.00000000000E+00 0. -1.
          1   -1    0    0  501    0 -0.00000000000E+00 -0.00000000000E+00 -0.11812670639E+04  0.11812670639E+04  0.00000000000E+00 0. -1.
         25    2    1    2    0    0  0.46788322106E+02 -0.10679654318E+03 -0.11207192226E+03  0.20439629467E+03  0.12499232294E+03 0.  0.
          2    1    1    2  501    0 -0.40933747310E+02 -0.34540815025E+02 -0.10132925573E+04  0.10147070742E+04  0.00000000000E+00 0. -1.
          1    1    1    2  502    0 -0.58545747959E+01  0.14133735821E+03  0.54477554371E+03  0.56284182316E+03  0.00000000000E+00 0. -1.
         22    1    3    3    0    0  0.47483823587E+02 -0.13327068928E+03 -0.79040947925E+02  0.16205943839E+03  0.00000000000E+00 0. -1.
         22    1    3    3    0    0 -0.69550148065E+00  0.26474146098E+02 -0.33030974332E+02  0.42336856275E+02  0.00000000000E+00 0. -1.
</event>
<event>
 7    1  0.5194496E-006  0.3075311E+02  0.7818608E-02  0.1608586E+00
          2   -1    0    0  502    0  0.00000000000E+00  0.00000000000E+00  0.11308736795E+04  0.11308736795E+04  0.00000000000E+00 0. -1.
          1   -1    0    0  501    0 -0.00000000000E+00 -0.00000000000E+00 -0.31735663794E+02  0.31735663794E+02  0.00000000000E+00 0. -1.
         25    2    1    2    0    0 -0.27178974616E+02  0.12499582139E+02  0.58653985439E+03  0.60045642319E+03  0.12499591652E+03 0.  0.
          2    1    1    2  501    0  0.27100307460E+02  0.14981879073E+02 -0.14602702621E+02  0.34236271538E+02  0.00000000000E+00 0. -1.
          1    1    1    2  502    0  0.78667155850E-01 -0.27481461213E+02  0.52720086390E+03  0.52791664853E+03  0.00000000000E+00 0. -1.
         22    1    3    3    0    0 -0.10926285753E+02  0.36340846460E+02  0.48208101584E+02  0.61351951070E+02  0.00000000000E+00 0. -1.
         22    1    3    3    0    0 -0.16252688863E+02 -0.23841264320E+02  0.53833175281E+03  0.53910447212E+03  0.00000000000E+00 0. -1.
</event>
<event>
 7    1  0.5194496E-006  0.1260405E+03  0.7818608E-02  0.1257995E+00
          2   -1    0    0  502    0  0.00000000000E+00  0.00000000000E+00  0.44429908721E+03  0.44429908721E+03  0.00000000000E+00 0. -1.
          1   -1    0    0  501    0 -0.00000000000E+00 -0.00000000000E+00 -0.19049168300E+03  0.19049168300E+03  0.00000000000E+00 0. -1.
         25    2    1    2    0    0 -0.45711107317E+02 -0.37166791130E+02  0.11370474891E+03  0.17895433460E+03  0.12500003301E+03 0.  0.
          2    1    1    2  501    0  0.48126837623E+02  0.13560126236E+03 -0.11383782113E+03  0.18347464231E+03  0.00000000000E+00 0. -1.
          1    1    1    2  502    0 -0.24157303061E+01 -0.98434471230E+02  0.25394047643E+03  0.27236179330E+03  0.00000000000E+00 0. -1.
         22    1    3    3    0    0  0.69798317108E+01 -0.67174286729E+02  0.92886960776E+02  0.11484376487E+03  0.00000000000E+00 0. -1.
         22    1    3    3    0    0 -0.52690939027E+02  0.30007495599E+02  0.20817788130E+02  0.64110569724E+02  0.00000000000E+00 0. -1.
</event>
<event>
 7    1  0.5194496E-006  0.1871515E+03  0.7818608E-02  0.1232059E+00
          2   -1    0    0  502    0  0.00000000000E+00  0.00000000000E+00  0.65239308603E+03  0.65239308603E+03  0.00000000000E+00 0. -1.
          1   -1    0    0  501    0 -0.00000000000E+00 -0.00000000000E+00 -0.77893555742E+03  0.77893555742E+03  0.00000000000E+00 0. -1.
         25    2    1    2    0    0  0.15698832330E+03 -0.19738511718E+03 -0.41847910516E+03  0.50433721640E+03  0.12500019302E+03 0.  0.
          2    1    1    2  501    0 -0.81386772714E+02  0.28121840059E+02 -0.29717604408E+03  0.30939981551E+03  0.00000000000E+00 0. -1.
          1    1    1    2  502    0 -0.75601550586E+02  0.16926327712E+03  0.58911267786E+03  0.61759161154E+03  0.00000000000E+00 0. -1.
         22    1    3    3    0    0  0.13435913260E+03 -0.13546942403E+03 -0.20122056087E+03  0.27729777402E+03  0.00000000000E+00 0. -1.
         22    1    3    3    0    0  0.22629190703E+02 -0.61915693150E+02 -0.21725854429E+03  0.22703944238E+03  0.00000000000E+00 0. -1.
</event>
<event>
 7    1  0.5194496E-006  0.8163681E+02  0.7818608E-02  0.1344535E+00
          2   -1    0    0  502    0  0.00000000000E+00  0.00000000000E+00  0.53597143013E+03  0.53597143013E+03  0.00000000000E+00 0. -1.
          1   -1    0    0  501    0 -0.00000000000E+00 -0.00000000000E+00 -0.13132878323E+04  0.13132878323E+04  0.00000000000E+00 0. -1.
         25    2    1    2    0    0 -0.14524822403E+03  0.11617423033E+01 -0.34073774334E+03  0.39092997436E+03  0.12500255554E+03 0.  0.
          2    1    1    2  501    0  0.77281597647E+02  0.74486572045E+01 -0.94355550282E+03  0.94674437666E+03  0.00000000000E+00 0. -1.
          1    1    1    2  502    0  0.67966626381E+02 -0.86103995078E+01  0.50697684397E+03  0.51158491143E+03  0.00000000000E+00 0. -1.
         22    1    3    3    0    0 -0.13218172464E+03 -0.17014117002E+02 -0.15745441289E+03  0.20628470773E+03  0.00000000000E+00 0. -1.
         22    1    3    3    0    0 -0.13066499389E+02  0.18175859305E+02 -0.18328333046E+03  0.18464526664E+03  0.00000000000E+00 0. -1.
</event>
<event>
 7    1  0.5194496E-006  0.1489369E+03  0.7818608E-02  0.1402687E+00
          2   -1    0    0  502    0  0.00000000000E+00  0.00000000000E+00  0.54142822691E+03  0.54142822691E+03  0.00000000000E+00 0. -1.
          1   -1    0    0  501    0 -0.00000000000E+00 -0.00000000000E+00 -0.67788767246E+03  0.67788767246E+03  0.00000000000E+00 0. -1.
         25    2    1    2    0    0 -0.14422170825E+03 -0.17651230378E+02 -0.28080234377E+03  0.33998044547E+03  0.12500111987E+03 0.  0.
          2    1    1    2  501    0 -0.48150494902E+01  0.22756210828E+02 -0.35624713597E+03  0.35700567464E+03  0.00000000000E+00 0. -1.
          1    1    1    2  502    0  0.14903675774E+03 -0.51049804495E+01  0.50059003419E+03  0.52232977927E+03  0.00000000000E+00 0. -1.
         22    1    3    3    0    0 -0.56699361821E+02  0.54676362800E+01 -0.14594799037E+02  0.58802388016E+02  0.00000000000E+00 0.  1.
         22    1    3    3    0    0 -0.87522346430E+02 -0.23118866658E+02 -0.26620754473E+03  0.28117805745E+03  0.00000000000E+00 0.  1.
</event>
<event>
 7    1  0.5194496E-006  0.2040701E+03  0.7818608E-02  0.1367187E+00
          2   -1    0    0  502    0  0.00000000000E+00  0.00000000000E+00  0.27465667516E+03  0.27465667516E+03  0.00000000000E+00 0. -1.
          1   -1    0    0  501    0 -0.00000000000E+00 -0.00000000000E+00 -0.98180517764E+03  0.98180517764E+03  0.00000000000E+00 0. -1.
         25    2    1    2    0    0  0.62996662955E+02  0.21639950256E+03 -0.64267843448E+03  0.69242718128E+03  0.12499002748E+03 0.  0.
          2    1    1    2  501    0 -0.64815248116E+01 -0.21681129378E+02 -0.27256106546E+03  0.27349884084E+03  0.00000000000E+00 0. -1.
          1    1    1    2  502    0 -0.56515138143E+02 -0.19471837318E+03  0.20809099746E+03  0.29053583069E+03  0.00000000000E+00 0. -1.
         22    1    3    3    0    0 -0.28571810058E+00  0.13039186706E+03 -0.21353405698E+03  0.25019775003E+03  0.00000000000E+00 0.  1.
         22    1    3    3    0    0  0.63282381055E+02  0.86007635496E+02 -0.42914437751E+03  0.44222943125E+03  0.00000000000E+00 0.  1.
</event>
<event>
 7    1  0.5194496E-006  0.1322231E+03  0.7818608E-02  0.1276593E+00
          2   -1    0    0  502    0  0.00000000000E+00  0.00000000000E+00  0.93497764655E+03  0.93497764655E+03  0.00000000000E+00 0. -1.
          1   -1    0    0  501    0 -0.00000000000E+00 -0.00000000000E+00 -0.59187665215E+03  0.59187665215E+03  0.00000000000E+00 0. -1.
         25    2    1    2    0    0 -0.44967805313E+02 -0.10184469379E+03 -0.33388116151E+03  0.37349626547E+03  0.12501353982E+03 0.  0.
          2    1    1    2  501    0  0.72639925039E+01  0.17052509081E+03 -0.20565200024E+03  0.26725328321E+03  0.00000000000E+00 0. -1.
          1    1    1    2  502    0  0.37703812809E+02 -0.68680397022E+02  0.88263415614E+03  0.88610475003E+03  0.00000000000E+00 0. -1.
         22    1    3    3    0    0 -0.28766597979E+02 -0.93955970694E+02 -0.34042702332E+03  0.35432442732E+03  0.00000000000E+00 0. -1.
         22    1    3    3    0    0 -0.16201207334E+02 -0.78887230968E+01  0.65458618087E+01  0.19171838148E+02  0.00000000000E+00 0. -1.
</event>
<event>
 7    1  0.5194496E-006  0.1310012E+03  0.7818608E-02  0.1304745E+00
          2   -1    0    0  502    0  0.00000000000E+00  0.00000000000E+00  0.49647634084E+03  0.49647634084E+03  0.00000000000E+00 0. -1.
          1   -1    0    0  501    0 -0.00000000000E+00 -0.00000000000E+00 -0.53840646392E+03  0.53840646392E+03  0.00000000000E+00 0. -1.
         25    2    1    2    0    0  0.39517815687E+02 -0.10302180635E+03 -0.29928672604E+03  0.34259955474E+03  0.12500704053E+03 0.  0.
          2    1    1    2  501    0 -0.91838094839E+02  0.13393044280E+03 -0.18477522304E+03  0.24599488251E+03  0.00000000000E+00 0. -1.
          1    1    1    2  502    0  0.52320279152E+02 -0.30908636450E+02  0.44213182600E+03  0.44628836752E+03  0.00000000000E+00 0. -1.
         22    1    3    3    0    0  0.73019998883E+02 -0.96928587877E+02 -0.27555458510E+03  0.30109367438E+03  0.00000000000E+00 0. -1.
         22    1    3    3    0    0 -0.33502183196E+02 -0.60932184724E+01 -0.23732140941E+02  0.41505880354E+02  0.00000000000E+00 0. -1.
</event>
<event>
 7    1  0.5194496E-006  0.8715994E+02  0.7818608E-02  0.1453647E+00
          2   -1    0    0  502    0  0.00000000000E+00  0.00000000000E+00  0.65709551307E+02  0.65709551307E+02  0.00000000000E+00 0. -1.
          1   -1    0    0  501    0 -0.00000000000E+00 -0.00000000000E+00 -0.23524793059E+04  0.23524793059E+04  0.00000000000E+00 0. -1.
         25    2    1    2    0    0  0.20520901131E+02 -0.62112601611E+02 -0.11025913286E+04  0.11115808600E+04  0.12500115184E+03 0.  0.
          2    1    1    2  501    0 -0.99744616372E+01 -0.25067814820E+02 -0.12136717372E+04  0.12139715692E+04  0.00000000000E+00 0. -1.
          1    1    1    2  502    0 -0.10546439494E+02  0.87180416432E+02  0.29493311081E+02  0.92636428006E+02  0.00000000000E+00 0. -1.
         22    1    3    3    0    0 -0.69894848813E+01 -0.10759801213E+02 -0.73411274960E+01  0.14782366995E+02  0.00000000000E+00 0. -1.
         22    1    3    3    0    0  0.27510386013E+02 -0.51352800398E+02 -0.10952502011E+04  0.10967984931E+04  0.00000000000E+00 0. -1.
</event>
<event>
 7    1  0.5194496E-006  0.5054293E+02  0.7818608E-02  0.1488890E+00
          2   -1    0    0  502    0  0.00000000000E+00  0.00000000000E+00  0.53978300599E+02  0.53978300599E+02  0.00000000000E+00 0. -1.
          1   -1    0    0  501    0 -0.00000000000E+00 -0.00000000000E+00 -0.11965197828E+04  0.11965197828E+04  0.00000000000E+00 0. -1.
         25    2    1    2    0    0  0.15253269528E+02 -0.28475919986E+01 -0.57606613219E+03  0.58967508994E+03  0.12499500803E+03 0.  0.
          2    1    1    2  501    0  0.36128400821E+02  0.15207202846E+01 -0.59893960998E+03  0.60003019119E+03  0.00000000000E+00 0. -1.
          1    1    1    2  502    0 -0.51381670348E+02  0.13268717139E+01  0.32464259945E+02  0.60792802289E+02  0.00000000000E+00 0. -1.
         22    1    3    3    0    0  0.59086185879E+02 -0.37080298180E+02 -0.34831152875E+03  0.35522816180E+03  0.00000000000E+00 0. -1.
         22    1    3    3    0    0 -0.43832916351E+02  0.34232706181E+02 -0.22775460343E+03  0.23444692814E+03  0.00000000000E+00 0. -1.
</event>
<event>
 7    1  0.5194496E-006  0.1066965E+03  0.7818608E-02  0.1344923E+00
          2   -1    0    0  502    0  0.00000000000E+00  0.00000000000E+00  0.17507479020E+04  0.17507479020E+04  0.00000000000E+00 0. -1.
          1   -1    0    0  501    0 -0.00000000000E+00 -0.00000000000E+00 -0.11243006075E+04  0.11243006075E+04  0.00000000000E+00 0. -1.
         25    2    1    2    0    0  0.19877693963E+02  0.68028237766E+02  0.77713938083E+02  0.16335805722E+03  0.12499373918E+03 0.  0.
          2    1    1    2  501    0 -0.34224232632E+02  0.39474102974E+02 -0.10790419865E+04  0.10803060268E+04  0.00000000000E+00 0. -1.
          1    1    1    2  502    0  0.14346538670E+02 -0.10750234074E+03  0.16277753430E+04  0.16313844254E+04  0.00000000000E+00 0. -1.
         22    1    3    3    0    0  0.37333520650E+02  0.85429746247E+02  0.95114361571E+02  0.13318699293E+03  0.00000000000E+00 0.  1.
         22    1    3    3    0    0 -0.17455826687E+02 -0.17401508481E+02 -0.17400423488E+02  0.30171064288E+02  0.00000000000E+00 0.  1.
</event>
<event>
 7    1  0.5194496E-006  0.3383039E+02  0.7818608E-02  0.1585529E+00
          2   -1    0    0  502    0  0.00000000000E+00  0.00000000000E+00  0.12367649281E+03  0.12367649281E+03  0.00000000000E+00 0. -1.
          1   -1    0    0  501    0 -0.00000000000E+00 -0.00000000000E+00 -0.94105642661E+03  0.94105642661E+03  0.00000000000E+00 0. -1.
         25    2    1    2    0    0 -0.55122309495E+02 -0.29111978562E+02 -0.54773312796E+02  0.15003681976E+03  0.12499982076E+03 0.  0.
          2    1    1    2  501    0  0.29549521493E+02  0.16052058949E+02 -0.83559038081E+03  0.83626677999E+03  0.00000000000E+00 0. -1.
          1    1    1    2  502    0  0.25572788001E+02  0.13059919613E+02  0.72983759809E+02  0.78429319660E+02  0.00000000000E+00 0. -1.
         22    1    3    3    0    0 -0.37834451617E+02 -0.26304455732E+01  0.36989519940E+02  0.52977255105E+02  0.00000000000E+00 0. -1.
         22    1    3    3    0    0 -0.17287857878E+02 -0.26481532988E+02 -0.91762832737E+02  0.97059564656E+02  0.00000000000E+00 0. -1.
</event>
<event>
 7    1  0.5194496E-006  0.3716996E+02  0.7818608E-02  0.1606798E+00
          2   -1    0    0  502    0  0.00000000000E+00  0.00000000000E+00  0.14898955848E+04  0.14898955848E+04  0.00000000000E+00 0. -1.
          1   -1    0    0  501    0 -0.00000000000E+00 -0.00000000000E+00 -0.12877660017E+02  0.12877660017E+02  0.00000000000E+00 0. -1.
         25    2    1    2    0    0 -0.28904063077E+02 -0.50419103055E+01  0.62734039338E+03  0.64034696991E+03  0.12500962755E+03 0.  0.
          2    1    1    2  501    0  0.26418818797E+02  0.27887910081E+02  0.53212189869E+02  0.65629464922E+02  0.00000000000E+00 0. -1.
          1    1    1    2  502    0  0.24852442797E+01 -0.22845999776E+02  0.79646534149E+03  0.79679680995E+03  0.00000000000E+00 0. -1.
         22    1    3    3    0    0 -0.72612476107E+02 -0.50541798040E+01  0.24695143032E+03  0.25745509386E+03  0.00000000000E+00 0. -1.
         22    1    3    3    0    0  0.43708413030E+02  0.12269498580E-01  0.38038896306E+03  0.38289187604E+03  0.00000000000E+00 0. -1.
</event>
<event>
 7    1  0.5194496E-006  0.7661367E+02  0.7818608E-02  0.1460614E+00
          2   -1    0    0  502    0  0.00000000000E+00  0.00000000000E+00  0.15253284806E+04  0.15253284806E+04  0.00000000000E+00 0. -1.
          1   -1    0    0  501    0 -0.00000000000E+00 -0.00000000000E+00 -0.50682318555E+03  0.50682318555E+03  0.00000000000E+00 0. -1.
         25    2    1    2    0    0  0.69662446033E+02  0.54042934761E+02  0.28031004449E+03  0.31932189105E+03  0.12497701339E+03 0.  0.
          2    1    1    2  501    0 -0.27594756459E+02  0.94637009451E+01 -0.48569543923E+03  0.48657074707E+03  0.00000000000E+00 0. -1.
          1    1    1    2  502    0 -0.42067689575E+02 -0.63506635706E+02  0.12238906898E+04  0.12262590281E+04  0.00000000000E+00 0. -1.
         22    1    3    3    0    0 -0.19950326561E+02  0.51656213500E+02  0.15982430534E+03  0.16914546551E+03  0.00000000000E+00 0. -1.
         22    1    3    3    0    0  0.89612772594E+02  0.23867212608E+01  0.12048573915E+03  0.15017642554E+03  0.00000000000E+00 0. -1.
</event>
<event>
 7    1  0.5194496E-006  0.1452578E+03  0.7818608E-02  0.1377868E+00
          2   -1    0    0  502    0  0.00000000000E+00  0.00000000000E+00  0.11387137338E+04  0.11387137338E+04  0.00000000000E+00 0. -1.
          1   -1    0    0  501    0 -0.00000000000E+00 -0.00000000000E+00 -0.58019132958E+03  0.58019132958E+03  0.00000000000E+00 0. -1.
         25    2    1    2    0    0 -0.14759792417E+03 -0.20986411996E+02  0.59785735652E+03  0.62871714062E+03  0.12500498974E+03 0.  0.
          2    1    1    2  501    0  0.11786914516E+02 -0.26617794840E+02 -0.55451819778E+03  0.55528179335E+03  0.00000000000E+00 0. -1.
          1    1    1    2  502    0  0.13581100966E+03  0.47604206836E+02  0.51518324546E+03  0.53490612939E+03  0.00000000000E+00 0. -1.
         22    1    3    3    0    0  0.57696229557E+01 -0.31817204220E+02  0.19218874844E+03  0.19489006660E+03  0.00000000000E+00 0.  1.
         22    1    3    3    0    0 -0.15336754713E+03  0.10830792224E+02  0.40566860808E+03  0.43382707402E+03  0.00000000000E+00 0.  1.
</event>
<event>
 7    1  0.5194496E-006  0.1159037E+03  0.7818608E-02  0.1374709E+00
          2   -1    0    0  502    0  0.00000000000E+00  0.00000000000E+00  0.15519250341E+04  0.15519250341E+04  0.00000000000E+00 0. -1.
          1   -1    0    0  501    0 -0.00000000000E+00 -0.00000000000E+00 -0.10609229790E+03  0.10609229790E+03  0.00000000000E+00 0. -1.
         25    2    1    2    0    0  0.92077927518E+02  0.31708855746E+02  0.42633365565E+03  0.45482885500E+03  0.12500042054E+03 0.  0.
          2    1    1    2  501    0  0.76089193927E+01  0.36659616593E+02 -0.84588107639E+02  0.92503897740E+02  0.00000000000E+00 0. -1.
          1    1    1    2  502    0 -0.99686846911E+02 -0.68368472339E+02  0.11040871882E+04  0.11106845792E+04  0.00000000000E+00 0. -1.
         22    1    3    3    0    0  0.66373940721E+02 -0.42050442944E+02  0.24772665748E+03  0.25988889277E+03  0.00000000000E+00 0.  1.
         22    1    3    3    0    0  0.25703986797E+02  0.73759298690E+02  0.17860699816E+03  0.19493996223E+03  0.00000000000E+00 0.  1.
</event>
<event>
 7    1  0.5194496E-006  0.1418325E+03  0.7818608E-02  0.1273742E+00
          2   -1    0    0  502    0  0.00000000000E+00  0.00000000000E+00  0.13002595533E+04  0.13002595533E+04  0.00000000000E+00 0. -1.
          1   -1    0    0  501    0 -0.00000000000E+00 -0.00000000000E+00 -0.19617078035E+04  0.19617078035E+04  0.00000000000E+00 0. -1.
         25    2    1    2    0    0 -0.61847372955E+01 -0.14698594334E+03 -0.21650027141E+03  0.29007340224E+03  0.12500837032E+03 0.  0.
          2    1    1    2  501    0  0.76491790131E+02  0.12068508359E+03 -0.17043138837E+04  0.17102928689E+04  0.00000000000E+00 0. -1.
          1    1    1    2  502    0 -0.70307052836E+02  0.26300859752E+02  0.12593659049E+04  0.12616010857E+04  0.00000000000E+00 0. -1.
         22    1    3    3    0    0 -0.56473407816E+02 -0.63283353423E+02 -0.14872141458E+03  0.17120773278E+03  0.00000000000E+00 0.  1.
         22    1    3    3    0    0  0.50288670521E+02 -0.83702589918E+02 -0.67778856836E+02  0.11886566946E+03  0.00000000000E+00 0.  1.
</event>
<event>
 7    1  0.5194496E-006  0.8785483E+02  0.7818608E-02  0.1321721E+00
          2   -1    0    0  502    0  0.00000000000E+00  0.00000000000E+00  0.23088657068E+04  0.23088657068E+04  0.00000000000E+00 0. -1.
          1   -1    0    0  501    0 -0.00000000000E+00 -0.00000000000E+00 -0.30003836924E+02  0.30003836924E+02  0.00000000000E+00 0. -1.
         25    2    1    2    0    0  0.26494539441E+02 -0.30086978125E+02  0.72812146578E+03  0.73986497303E+03  0.12502848681E+03 0.  0.
          2    1    1    2  501    0 -0.20597798843E+02 -0.74956765374E+02  0.45460523554E+02  0.90052458014E+02  0.00000000000E+00 0. -1.
          1    1    1    2  502    0 -0.58967405981E+01  0.10504374350E+03  0.15052798805E+04  0.15089521126E+04  0.00000000000E+00 0. -1.
         22    1    3    3    0    0 -0.43979347281E+02 -0.39729486214E+02  0.28831196776E+03  0.29434062889E+03  0.00000000000E+00 0. -1.
         22    1    3    3    0    0  0.70473886723E+02  0.96425080895E+01  0.43980949802E+03  0.44552434414E+03  0.00000000000E+00 0. -1.
</event>
<event>
 7    1  0.5194496E-006  0.5797406E+02  0.7818608E-02  0.1415196E+00
          2   -1    0    0  502    0  0.00000000000E+00  0.00000000000E+00  0.89850819758E+03  0.89850819758E+03  0.00000000000E+00 0. -1.
          1   -1    0    0  501    0 -0.00000000000E+00 -0.00000000000E+00 -0.69457975998E+03  0.69457975998E+03  0.00000000000E+00 0. -1.
         25    2    1    2    0    0 -0.66755063319E+02  0.84862438013E+02 -0.24372502585E+02  0.16696464933E+03  0.12500121351E+03 0.  0.
          2    1    1    2  501    0  0.43529016280E+02 -0.32277425483E+02 -0.59668311194E+03  0.59913883494E+03  0.00000000000E+00 0. -1.
          1    1    1    2  502    0  0.23226047039E+02 -0.52585012530E+02  0.82498405212E+03  0.82698447329E+03  0.00000000000E+00 0. -1.
         22    1    3    3    0    0 -0.27051718378E+02  0.75196299902E+01 -0.65146704977E+02  0.70939646685E+02  0.00000000000E+00 0.  1.
         22    1    3    3    0    0 -0.39703344941E+02  0.77342808023E+02  0.40774202392E+02  0.96025002645E+02  0.00000000000E+00 0.  1.
</event>
<event>
 7    1  0.5194496E-006  0.7232933E+02  0.7818608E-02  0.1476270E+00
          2   -1    0    0  502    0  0.00000000000E+00  0.00000000000E+00  0.45123611211E+03  0.45123611211E+03  0.00000000000E+00 0. -1.
          1   -1    0    0  501    0 -0.00000000000E+00 -0.00000000000E+00 -0.14318635954E+04  0.14318635954E+04  0.00000000000E+00 0. -1.
         25    2    1    2    0    0 -0.24037079000E+02 -0.40727233581E+02 -0.12331647022E+03  0.18182103309E+03  0.12496178426E+03 0.  0.
          2    1    1    2  501    0  0.46823953439E+02  0.56327939064E+02 -0.12777930465E+04  0.12798907723E+04  0.00000000000E+00 0. -1.
          1    1    1    2  502    0 -0.22786874438E+02 -0.15600705483E+02  0.42048203341E+03  0.42138790215E+03  0.00000000000E+00 0. -1.
         22    1    3    3    0    0 -0.57741315196E+02 -0.35693721134E+02 -0.13040321136E+03  0.14701394063E+03  0.00000000000E+00 0. -1.
         22    1    3    3    0    0  0.33704236196E+02 -0.50335124463E+01  0.70867411382E+01  0.34807092454E+02  0.00000000000E+00 0. -1.
</event>
<event>
 7    1  0.5194496E-006  0.8874893E+02  0.7818608E-02  0.1462975E+00
          2   -1    0    0  502    0  0.00000000000E+00  0.00000000000E+00  0.89883361714E+03  0.89883361714E+03  0.00000000000E+00 0. -1.
          1   -1    0    0  501    0 -0.00000000000E+00 -0.00000000000E+00 -0.48880189308E+03  0.48880189308E+03  0.00000000000E+00 0. -1.
         25    2    1    2    0    0  0.39014957068E+02 -0.10405734668E+03  0.27197317109E+03  0.31928684656E+03  0.12499834526E+03 0.  0.
          2    1    1    2  501    0 -0.22638437928E+02  0.85491650693E+02 -0.46068325020E+03  0.46909527628E+03  0.00000000000E+00 0. -1.
          1    1    1    2  502    0 -0.16376519140E+02  0.18565695983E+02  0.59874180316E+03  0.59925338739E+03  0.00000000000E+00 0. -1.
         22    1    3    3    0    0 -0.17381565279E+02  0.20716078684E+02  0.24656624342E+02  0.36595407520E+02  0.00000000000E+00 0.  1.
         22    1    3    3    0    0  0.56396522348E+02 -0.12477342536E+03  0.24731654675E+03  0.28269143904E+03  0.00000000000E+00 0.  1.
</event>
<event>
 7    1  0.5194496E-006  0.2180950E+03  0.7818608E-02  0.1220835E+00
          2   -1    0    0  502    0  0.00000000000E+00  0.00000000000E+00  0.21602347815E+04  0.21602347815E+04  0.00000000000E+00 0. -1.
          1   -1    0    0  501    0 -0.00000000000E+00 -0.00000000000E+00 -0.91247831081E+03  0.91247831081E+03  0.00000000000E+00 0. -1.
         25    2    1    2    0    0  0.18453801332E+03  0.47675089034E+02 -0.43930610483E+02  0.23212319972E+03  0.12499635530E+03 0.  0.
          2    1    1    2  501    0 -0.75382977489E+01  0.82684229796E+02 -0.76635586720E+03  0.77084033560E+03  0.00000000000E+00 0. -1.
          1    1    1    2  502    0 -0.17699971557E+03 -0.13035931883E+03  0.20580429483E+04  0.20697495570E+04  0.00000000000E+00 0. -1.
         22    1    3    3    0    0  0.95133382773E+02  0.86200984139E+02 -0.89971072450E+01  0.12869311607E+03  0.00000000000E+00 0.  1.
         22    1    3    3    0    0  0.89404630542E+02 -0.38525895105E+02 -0.34933503238E+02  0.10343008365E+03  0.00000000000E+00 0.  1.
</event>
<event>
 7    1  0.5194496E-006  0.4808189E+02  0.7818608E-02  0.1493660E+00
          2   -1    0    0  502    0  0.00000000000E+00  0.00000000000E+00  0.73285809334E+02  0.73285809334E+02  0.00000000000E+00 0. -1.
          1   -1    0    0  501    0 -0.00000000000E+00 -0.00000000000E+00 -0.17573488962E+04  0.17573488962E+04  0.00000000000E+00 0. -1.
         25    2    1    2    0    0 -0.49650893984E+01  0.30987764600E+02 -0.68050934689E+03  0.69260590596E+03  0.12500030443E+03 0.  0.
          2    1    1    2  501    0  0.41671441041E+02 -0.28806984157E+02 -0.10651164548E+04  0.10663205023E+04  0.00000000000E+00 0. -1.
          1    1    1    2  502    0 -0.36706351643E+02 -0.21807804424E+01  0.61562714774E+02  0.71708297320E+02  0.00000000000E+00 0. -1.
         22    1    3    3    0    0  0.56306018112E+02  0.36005695588E+02 -0.38682781406E+03  0.39255895802E+03  0.00000000000E+00 0. -1.
         22    1    3    3    0    0 -0.61271107510E+02 -0.50179309885E+01 -0.29368153282E+03  0.30004694794E+03  0.00000000000E+00 0. -1.
</event>
<event>
 7    1  0.5194496E-006  0.5874610E+02  0.7818608E-02  0.1457645E+00
          2   -1    0    0  502    0  0.00000000000E+00  0.00000000000E+00  0.16001930172E+03  0.16001930172E+03  0.00000000000E+00 0. -1.
          1   -1    0    0  501    0 -0.00000000000E+00 -0.00000000000E+00 -0.19497378961E+04  0.19497378961E+04  0.00000000000E+00 0. -1.
         25    2    1    2    0    0 -0.25581056373E+02 -0.19969400031E+02 -0.99803357544E+03  0.10063539995E+04  0.12499674915E+03 0.  0.
          2    1    1    2  501    0  0.64399471937E+02  0.17862328985E+02 -0.94391998454E+03  0.94628288160E+03  0.00000000000E+00 0. -1.
          1    1    1    2  502    0 -0.38818415564E+02  0.21070710459E+01  0.15223496565E+03  0.15712031665E+03  0.00000000000E+00 0. -1.
         22    1    3    3    0    0  0.25150349934E+02 -0.19048728825E+01 -0.43356521223E+02  0.50159311948E+02  0.00000000000E+00 0.  1.
         22    1    3    3    0    0 -0.50731406307E+02 -0.18064527149E+02 -0.95467705421E+03  0.95619468759E+03  0.00000000000E+00 0.  1.
</event>
<event>
 7    1  0.5194496E-006  0.6331404E+02  0.7818608E-02  0.1389943E+00
          2   -1    0    0  502    0  0.00000000000E+00  0.00000000000E+00  0.95458894884E+03  0.95458894884E+03  0.00000000000E+00 0. -1.
          1   -1    0    0  501    0 -0.00000000000E+00 -0.00000000000E+00 -0.37935906480E+03  0.37935906480E+03  0.00000000000E+00 0. -1.
         25    2    1    2    0    0 -0.55625338132E+02  0.19853213998E+02  0.42300780794E+03  0.44502717641E+03  0.12500101525E+03 0.  0.
          2    1    1    2  501    0  0.38359338595E+02  0.46860169493E+02 -0.36355318846E+03  0.36856238981E+03  0.00000000000E+00 0. -1.
          1    1    1    2  502    0  0.17265999537E+02 -0.66713383492E+02  0.51577526456E+03  0.52035844742E+03  0.00000000000E+00 0. -1.
         22    1    3    3    0    0 -0.52472954869E+02  0.69525276425E+02  0.23790160931E+03  0.25334630600E+03  0.00000000000E+00 0. -1.
         22    1    3    3    0    0 -0.31523832630E+01 -0.49672062426E+02  0.18510619863E+03  0.19168087040E+03  0.00000000000E+00 0. -1.
</event>
<event>
 7    1  0.5194496E-006  0.6606215E+02  0.7818608E-02  0.1510098E+00
          2   -1    0    0  502    0  0.00000000000E+00  0.00000000000E+00  0.25291464914E+03  0.25291464914E+03  0.00000000000E+00 0. -1.
          1   -1    0    0  501    0 -0.00000000000E+00 -0.00000000000E+00 -0.12707529002E+04  0.12707529002E+04  0.00000000000E+00 0. -1.
         25    2    1    2    0    0 -0.15918659479E+02  0.86285356256E+02 -0.34154709803E+02  0.15648890790E+03  0.12499467056E+03 0.  0.
          2    1    1    2  501    0  0.99953116595E+01 -0.21722239042E+02 -0.11698249302E+04  0.11700692840E+04  0.00000000000E+00 0. -1.
          1    1    1    2  502    0  0.59233478191E+01 -0.64563117214E+02  0.18614138892E+03  0.19710935752E+03  0.00000000000E+00 0. -1.
         22    1    3    3    0    0 -0.42901341194E-01  0.80057193020E+02  0.33451495450E+02  0.86764961492E+02  0.00000000000E+00 0.  1.
         22    1    3    3    0    0 -0.15875758137E+02  0.62281632353E+01 -0.67606205253E+02  0.69723946406E+02  0.00000000000E+00 0.  1.
</event>
<event>
 7    1  0.5194496E-006  0.3121523E+03  0.7818608E-02  0.1164624E+00
          2   -1    0    0  502    0  0.00000000000E+00  0.00000000000E+00  0.24718722230E+04  0.24718722230E+04  0.00000000000E+00 0. -1.
          1   -1    0    0  501    0 -0.00000000000E+00 -0.00000000000E+00 -0.77820843887E+03  0.77820843887E+03  0.00000000000E+00 0. -1.
         25    2    1    2    0    0 -0.13652552326E+03 -0.25357582695E+03 -0.20919703678E+03  0.37726568430E+03  0.12500431127E+03 0.  0.
          2    1    1    2  501    0 -0.97756591246E+02  0.45115794703E+02 -0.46854899021E+03  0.48075975527E+03  0.00000000000E+00 0. -1.
          1    1    1    2  502    0  0.23428211450E+03  0.20846003225E+03  0.23714098111E+04  0.23920552223E+04  0.00000000000E+00 0. -1.
         22    1    3    3    0    0 -0.85317967774E+02 -0.59331130982E+02 -0.30234194945E+02  0.10822867121E+03  0.00000000000E+00 0.  1.
         22    1    3    3    0    0 -0.51207555483E+02 -0.19424469597E+03 -0.17896284184E+03  0.26903701309E+03  0.00000000000E+00 0.  1.
</event>
<event>
 7    1  0.5194496E-006  0.8460052E+02  0.7818608E-02  0.1364455E+00
          2   -1    0    0  502    0  0.00000000000E+00  0.00000000000E+00  0.38514841830E+03  0.38514841830E+03  0.00000000000E+00 0. -1.
          1   -1    0    0  501    0 -0.00000000000E+00 -0.00000000000E+00 -0.14520977290E+04  0.14520977290E+04  0.00000000000E+00 0. -1.
         25    2    1    2    0    0  0.13909225887E+03  0.11999882607E+02 -0.70540127229E+03  0.72986666054E+03  0.12499493415E+03 0.  0.
          2    1    1    2  501    0 -0.55835732775E+02  0.81426733732E+00 -0.72862473026E+03  0.73076144509E+03  0.00000000000E+00 0. -1.
          1    1    1    2  502    0 -0.83256526093E+02 -0.12814149944E+02  0.36707669188E+03  0.37661804165E+03  0.00000000000E+00 0. -1.
         22    1    3    3    0    0  0.72261964290E+02  0.44152433537E+02 -0.56278011820E+03  0.56911570907E+03  0.00000000000E+00 0. -1.
         22    1    3    3    0    0  0.66830294578E+02 -0.32152550930E+02 -0.14262115409E+03  0.16075095147E+03  0.00000000000E+00 0. -1.
</event>
<event>
 7    1  0.5194496E-006  0.4818751E+02  0.7818608E-02  0.1472442E+00
          2   -1    0    0  502    0  0.00000000000E+00  0.00000000000E+00  0.16761139458E+04  0.16761139458E+04  0.00000000000E+00 0. -1.
          1   -1    0    0  501    0 -0.00000000000E+00 -0.00000000000E+00 -0.15576689421E+03  0.15576689421E+03  0.00000000000E+00 0. -1.
         25    2    1    2    0    0 -0.10062522101E+02  0.18547673013E+02  0.41652598807E+02  0.13345191691E+03  0.12501681732E+03 0.  0.
          2    1    1    2  501    0 -0.38432096095E+02 -0.18368764234E+02 -0.10535346237E+03  0.11363885578E+03  0.00000000000E+00 0. -1.
          1    1    1    2  502    0  0.48494618197E+02 -0.17890877834E+00  0.15840479152E+04  0.15847900674E+04  0.00000000000E+00 0. -1.
         22    1    3    3    0    0  0.42477542999E+02 -0.37174675754E+01 -0.21987631589E+02  0.47975172405E+02  0.00000000000E+00 0.  1.
         22    1    3    3    0    0 -0.52540065100E+02  0.22265140588E+02  0.63640230396E+02  0.85476744504E+02  0.00000000000E+00 0.  1.
</event>
<event>
 7    1  0.5194496E-006  0.8491408E+02  0.7818608E-02  0.1453706E+00
          2   -1    0    0  502    0  0.00000000000E+00  0.00000000000E+00  0.15380826702E+04  0.15380826702E+04  0.00000000000E+00 0. -1.
          1   -1    0    0  501    0 -0.00000000000E+00 -0.00000000000E+00 -0.11575687930E+03  0.11575687930E+03  0.00000000000E+00 0. -1.
         25    2    1    2    0    0  0.59863750749E+01 -0.64183277449E+02  0.14963546831E+03  0.20536872920E+03  0.12502084533E+03 0.  0.
          2    1    1    2  501    0  0.21647198158E+02 -0.17251873136E+02 -0.84315398775E+02  0.88742970344E+02  0.00000000000E+00 0. -1.
          1    1    1    2  502    0 -0.27633573233E+02  0.81435150585E+02  0.13570057214E+04  0.13597278500E+04  0.00000000000E+00 0. -1.
         22    1    3    3    0    0 -0.20636782169E+02 -0.37870825760E+02 -0.75528850489E+01  0.43784955117E+02  0.00000000000E+00 0. -1.
         22    1    3    3    0    0  0.26623157244E+02 -0.26312451689E+02  0.15718835335E+03  0.16158377408E+03  0.00000000000E+00 0. -1.
</event>
<event>
 7    1  0.5194496E-006  0.8809119E+02  0.7818608E-02  0.1429103E+00
          2   -1    0    0  502    0  0.00000000000E+00  0.00000000000E+00  0.17787650244E+03  0.17787650244E+03  0.00000000000E+00 0. -1.
          1   -1    0    0  501    0 -0.00000000000E+00 -0.00000000000E+00 -0.85834604997E+03  0.85834604997E+03  0.00000000000E+00 0. -1.
         25    2    1    2    0    0  0.32671103566E+02  0.61005278477E+02 -0.16538094336E+03  0.21855238835E+03  0.12500098005E+03 0.  0.
          2    1    1    2  501    0 -0.64628688808E+02 -0.63524454150E+02 -0.66155693372E+03  0.66773482780E+03  0.00000000000E+00 0. -1.
          1    1    1    2  502    0  0.31957585242E+02  0.25191756725E+01  0.14646832956E+03  0.14993533627E+03  0.00000000000E+00 0. -1.
         22    1    3    3    0    0  0.29882347211E+02  0.91132533735E+02 -0.16179532894E+03  0.18808461353E+03  0.00000000000E+00 0. -1.
         22    1    3    3    0    0  0.27887563545E+01 -0.30127255258E+02 -0.35856144188E+01  0.30467774814E+02  0.00000000000E+00 0. -1.
</event>
<event>
 7    1  0.5194496E-006  0.1667488E+03  0.7818608E-02  0.1195957E+00
          2   -1    0    0  502    0  0.00000000000E+00  0.00000000000E+00  0.32531607934E+03  0.32531607934E+03  0.00000000000E+00 0. -1.
          1   -1    0    0  501    0 -0.00000000000E+00 -0.00000000000E+00 -0.59557867258E+03  0.59557867258E+03  0.00000000000E+00 0. -1.
         25    2    1    2    0    0  0.11040594600E+03 -0.11434462751E+03 -0.22599883436E+03  0.30325734929E+03  0.12500152004E+03 0.  0.
          2    1    1    2  501    0  0.62247370854E+02  0.12733659521E+03 -0.28664170602E+03  0.31976993493E+03  0.00000000000E+00 0. -1.
          1    1    1    2  502    0 -0.17265331686E+03 -0.12991967696E+02  0.24237794715E+03  0.29786746769E+03  0.00000000000E+00 0. -1.
         22    1    3    3    0    0  0.13836496408E+03 -0.93235375442E+02 -0.19312797224E+03  0.25521777403E+03  0.00000000000E+00 0. -1.
         22    1    3    3    0    0 -0.27959018077E+02 -0.21109252071E+02 -0.32870862118E+02  0.48039575260E+02  0.00000000000E+00 0. -1.
</event>
<event>
 7    1  0.5194496E-006  0.4203260E+02  0.7818608E-02  0.1577678E+00
          2   -1    0    0  502    0  0.00000000000E+00  0.00000000000E+00  0.57570105919E+03  0.57570105919E+03  0.00000000000E+00 0. -1.
          1   -1    0    0  501    0 -0.00000000000E+00 -0.00000000000E+00 -0.73247926339E+02  0.73247926339E+02  0.00000000000E+00 0. -1.
         25    2    1    2    0    0  0.32557793754E+02  0.17043864746E+02 -0.10384025685E+01  0.13029819591E+03  0.12500415320E+03 0.  0.
          2    1    1    2  501    0 -0.13114084098E+02  0.20406050933E+02  0.15386241718E+02  0.28724946486E+02  0.00000000000E+00 0. -1.
          1    1    1    2  502    0 -0.19443709655E+02 -0.37449915680E+02  0.48810529370E+03  0.48992584313E+03  0.00000000000E+00 0. -1.
         22    1    3    3    0    0 -0.10774979722E+02  0.11935914477E+02 -0.57064000875E+02  0.59286309029E+02  0.00000000000E+00 0.  1.
         22    1    3    3    0    0  0.43332773475E+02  0.51079502694E+01  0.56025598306E+02  0.71011886882E+02  0.00000000000E+00 0.  1.
</event>
<event>
 7    1  0.5194496E-006  0.8197912E+02  0.7818608E-02  0.1378753E+00
          2   -1    0    0  502    0  0.00000000000E+00  0.00000000000E+00  0.40738914302E+03  0.40738914302E+03  0.00000000000E+00 0. -1.
          1   -1    0    0  501    0 -0.00000000000E+00 -0.00000000000E+00 -0.31857607291E+03  0.31857607291E+03  0.00000000000E+00 0. -1.
         25    2    1    2    0    0  0.11545958292E+03 -0.55756206974E+02 -0.21648244003E+03  0.28094301530E+03  0.12499864438E+03 0.  0.
          2    1    1    2  501    0 -0.36818885749E+02  0.35591817069E+02 -0.55318476009E+02  0.75382634460E+02  0.00000000000E+00 0. -1.
          1    1    1    2  502    0 -0.78640697169E+02  0.20164389905E+02  0.36061398615E+03  0.36963956617E+03  0.00000000000E+00 0. -1.
         22    1    3    3    0    0  0.33992141188E+02  0.14073863765E+02  0.27169384839E+01  0.36890663568E+02  0.00000000000E+00 0.  1.
         22    1    3    3    0    0  0.81467441730E+02 -0.69830070739E+02 -0.21919937852E+03  0.24405235173E+03  0.00000000000E+00 0.  1.
</event>
<event>
 7    1  0.5194496E-006  0.1493034E+03  0.7818608E-02  0.1303274E+00
          2   -1    0    0  502    0  0.00000000000E+00  0.00000000000E+00  0.14129200757E+04  0.14129200757E+04  0.00000000000E+00 0. -1.
          1   -1    0    0  501    0 -0.00000000000E+00 -0.00000000000E+00 -0.18150364332E+03  0.18150364332E+03  0.00000000000E+00 0. -1.
         25    2    1    2    0    0 -0.11650310841E+03  0.71964889734E+02  0.56450504568E+03  0.59417377661E+03  0.12499844236E+03 0.  0.
          2    1    1    2  501    0 -0.38230187399E+02 -0.38196859128E+02 -0.15451604320E+03  0.16369408933E+03  0.00000000000E+00 0. -1.
          1    1    1    2  502    0  0.15473329581E+03 -0.33768030606E+02  0.82142742990E+03  0.83655585308E+03  0.00000000000E+00 0. -1.
         22    1    3    3    0    0  0.52165673621E+01  0.55872357663E+02  0.25717630584E+03  0.26322725013E+03  0.00000000000E+00 0. -1.
         22    1    3    3    0    0 -0.12171967577E+03  0.16092532070E+02  0.30732873984E+03  0.33094652648E+03  0.00000000000E+00 0. -1.
</event>
<event>
 7    1  0.5194496E-006  0.3735396E+02  0.7818608E-02  0.1601736E+00
          2   -1    0    0  502    0  0.00000000000E+00  0.00000000000E+00  0.77828910601E+03  0.77828910601E+03  0.00000000000E+00 0. -1.
          1   -1    0    0  501    0 -0.00000000000E+00 -0.00000000000E+00 -0.23176005209E+02  0.23176005209E+02  0.00000000000E+00 0. -1.
         25    2    1    2    0    0  0.24731689613E+02 -0.26115651952E+02  0.30031253988E+03  0.32727194781E+03  0.12500248984E+03 0.  0.
          2    1    1    2  501    0 -0.37784064044E+02  0.64887211306E+01  0.29845481542E+02  0.48584892364E+02  0.00000000000E+00 0. -1.
          1    1    1    2  502    0  0.13052374431E+02  0.19626930822E+02  0.42495507938E+03  0.42560827104E+03  0.00000000000E+00 0. -1.
         22    1    3    3    0    0 -0.13513861679E+02  0.39722645428E+02  0.18050015157E+03  0.18531275653E+03  0.00000000000E+00 0. -1.
         22    1    3    3    0    0  0.38245551292E+02 -0.65838297381E+02  0.11981238831E+03  0.14195919128E+03  0.00000000000E+00 0. -1.
</event>
<event>
 7    1  0.5194496E-006  0.1802256E+03  0.7818608E-02  0.1258223E+00
          2   -1    0    0  502    0  0.00000000000E+00  0.00000000000E+00  0.56969350974E+03  0.56969350974E+03  0.00000000000E+00 0. -1.
          1   -1    0    0  501    0 -0.00000000000E+00 -0.00000000000E+00 -0.12747050514E+04  0.12747050514E+04  0.00000000000E+00 0. -1.
         25    2    1    2    0    0  0.19670327921E+03  0.15154162042E+02 -0.25414413240E+03  0.34516158733E+03  0.12500181060E+03 0.  0.
          2    1    1    2  501    0 -0.33258426763E+02  0.60120177105E+02 -0.95834277308E+03  0.96080249237E+03  0.00000000000E+00 0. -1.
          1    1    1    2  502    0 -0.16344485245E+03 -0.75274339147E+02  0.50747536381E+03  0.53843448144E+03  0.00000000000E+00 0. -1.
         22    1    3    3    0    0  0.15616974713E+03 -0.38220406249E+02 -0.14195761531E+03  0.21448019470E+03  0.00000000000E+00 0.  1.
         22    1    3    3    0    0  0.40533532084E+02  0.53374568291E+02 -0.11218651709E+03  0.13068139263E+03  0.00000000000E+00 0.  1.
</event>
<event>
 7    1  0.5194496E-006  0.1106293E+03  0.7818608E-02  0.1356510E+00
          2   -1    0    0  502    0  0.00000000000E+00  0.00000000000E+00  0.52432251268E+02  0.52432251268E+02  0.00000000000E+00 0. -1.
          1   -1    0    0  501    0 -0.00000000000E+00 -0.00000000000E+00 -0.56548279269E+03  0.56548279269E+03  0.00000000000E+00 0. -1.
         25    2    1    2    0    0  0.49655988820E+02 -0.59007853658E+02 -0.36388148272E+03  0.39240470313E+03  0.12499629413E+03 0.  0.
          2    1    1    2  501    0  0.18563923285E+02 -0.41704534216E+02 -0.56226829790E+02  0.72424745841E+02  0.00000000000E+00 0. -1.
          1    1    1    2  502    0 -0.68219912105E+02  0.10071238787E+03 -0.92942228908E+02  0.15308559499E+03  0.00000000000E+00 0. -1.
         22    1    3    3    0    0  0.79960821637E+02 -0.70669909579E+02 -0.21504534913E+03  0.24006763900E+03  0.00000000000E+00 0. -1.
         22    1    3    3    0    0 -0.30304832817E+02  0.11662055921E+02 -0.14883613360E+03  0.15233706412E+03  0.00000000000E+00 0. -1.
</event>
<event>
 7    1  0.5194496E-006  0.1416928E+03  0.7818608E-02  0.1380197E+00
          2   -1    0    0  502    0  0.00000000000E+00  0.00000000000E+00  0.57749566247E+03  0.57749566247E+03  0.00000000000E+00 0. -1.
          1   -1    0    0  501    0 -0.00000000000E+00 -0.00000000000E+00 -0.11414308035E+04  0.11414308035E+04  0.00000000000E+00 0. -1.
         25    2    1    2    0    0  0.11581899904E+03  0.78444114157E+02 -0.86786610384E+02  0.20669819672E+03  0.12499883680E+03 0.  0.
          2    1    1    2  501    0 -0.13152792886E+03 -0.53733632723E+02 -0.98919432877E+03  0.99934594582E+03  0.00000000000E+00 0. -1.
          1    1    1    2  502    0  0.15708929822E+02 -0.24710481434E+02  0.51204579809E+03  0.51288232346E+03  0.00000000000E+00 0. -1.
         22    1    3    3    0    0  0.11200013466E+03  0.73513328733E+02 -0.11576352895E+03  0.17705771461E+03  0.00000000000E+00 0.  1.
         22    1    3    3    0    0  0.38188643768E+01  0.49307854235E+01  0.28976918571E+02  0.29640482113E+02  0.00000000000E+00 0.  1.
</event>
<event>
 7    1  0.5194496E-006  0.1025204E+03  0.7818608E-02  0.1366805E+00
          2   -1    0    0  502    0  0.00000000000E+00  0.00000000000E+00  0.14239221945E+04  0.14239221945E+04  0.00000000000E+00 0. -1.
          1   -1    0    0  501    0 -0.00000000000E+00 -0.00000000000E+00 -0.33448949531E+03  0.33448949531E+03  0.00000000000E+00 0. -1.
         25    2    1    2    0    0 -0.73503503155E+02 -0.85903694256E+02  0.12672865509E+03  0.21087245927E+03  0.12499932957E+03 0.  0.
          2    1    1    2  501    0 -0.18649268809E+02  0.41159500458E+02 -0.28856609854E+03  0.29208268167E+03  0.00000000000E+00 0. -1.
          1    1    1    2  502    0  0.92152771964E+02  0.44744193799E+02  0.12512701427E+04  0.12554565489E+04  0.00000000000E+00 0. -1.
         22    1    3    3    0    0 -0.22314739336E+02 -0.10828616520E+03  0.67921836925E+02  0.12975830261E+03  0.00000000000E+00 0.  1.
         22    1    3    3    0    0 -0.51188763819E+02  0.22382470947E+02  0.58806818163E+02  0.81114156652E+02  0.00000000000E+00 0.  1.
</event>
<event>
 7    1  0.5194496E-006  0.7141101E+02  0.7818608E-02  0.1415518E+00
          2   -1    0    0  502    0  0.00000000000E+00  0.00000000000E+00  0.47170757170E+03  0.47170757170E+03  0.00000000000E+00 0. -1.
          1   -1    0    0  501    0 -0.00000000000E+00 -0.00000000000E+00 -0.73374082301E+02  0.73374082301E+02  0.00000000000E+00 0. -1.
         25    2    1    2    0    0  0.36631847172E+02 -0.29296839656E+02  0.60022309249E+02  0.14638096197E+03  0.12499804549E+03 0.  0.
          2    1    1    2  501    0 -0.54291224142E+02  0.69471329853E+02  0.39377307040E+02  0.96562803398E+02  0.00000000000E+00 0. -1.
          1    1    1    2  502    0  0.17659376969E+02 -0.40174490197E+02  0.29893387311E+03  0.30213788864E+03  0.00000000000E+00 0. -1.
         22    1    3    3    0    0  0.80416368510E+02 -0.56253918407E+01  0.21469962566E+02  0.83422998330E+02  0.00000000000E+00 0. -1.
         22    1    3    3    0    0 -0.43784521338E+02 -0.23671447815E+02  0.38552346682E+02  0.62957963636E+02  0.00000000000E+00 0. -1.
</event>
<event>
 7    1  0.5194496E-006  0.1094850E+03  0.7818608E-02  0.1377251E+00
          2   -1    0    0  502    0  0.00000000000E+00  0.00000000000E+00  0.85452951141E+02  0.85452951141E+02  0.00000000000E+00 0. -1.
          1   -1    0    0  501    0 -0.00000000000E+00 -0.00000000000E+00 -0.21899332074E+04  0.21899332074E+04  0.00000000000E+00 0. -1.
         25    2    1    2    0    0 -0.15170507904E+02 -0.95417079694E+02 -0.66414833978E+03  0.68267746729E+03  0.12498377379E+03 0.  0.
          2    1    1    2  501    0 -0.20069478824E+02  0.11169486962E+03 -0.15093035020E+04  0.15135638701E+04  0.00000000000E+00 0. -1.
          1    1    1    2  502    0  0.35239986729E+02 -0.16277789927E+02  0.68971585479E+02  0.79144821138E+02  0.00000000000E+00 0. -1.
         22    1    3    3    0    0  0.43349213122E+02 -0.87730812867E+02 -0.45202145707E+03  0.46249242962E+03  0.00000000000E+00 0.  1.
         22    1    3    3    0    0 -0.58519721027E+02 -0.76862668273E+01 -0.21212688271E+03  0.22018503768E+03  0.00000000000E+00 0.  1.
</event>
<event>
 7    1  0.5194496E-006  0.7365130E+02  0.7818608E-02  0.1489868E+00
          2   -1    0    0  502    0  0.00000000000E+00  0.00000000000E+00  0.36598289277E+03  0.36598289277E+03  0.00000000000E+00 0. -1.
          1   -1    0    0  501    0 -0.00000000000E+00 -0.00000000000E+00 -0.21689563511E+03  0.21689563511E+03  0.00000000000E+00 0. -1.
         25    2    1    2    0    0 -0.49836262839E+02 -0.51710959147E+01 -0.46788565945E+02  0.14256495791E+03  0.12500081597E+03 0.  0.
          2    1    1    2  501    0 -0.24553093050E+02 -0.21416485889E+01 -0.11652079085E+03  0.11909884860E+03  0.00000000000E+00 0. -1.
          1    1    1    2  502    0  0.74389355889E+02  0.73127445036E+01  0.31239661446E+03  0.32121472137E+03  0.00000000000E+00 0. -1.
         22    1    3    3    0    0 -0.13824841351E+02 -0.46995735934E+02  0.22561993792E+02  0.53933004721E+02  0.00000000000E+00 0. -1.
         22    1    3    3    0    0 -0.36011421488E+02  0.41824640019E+02 -0.69350559736E+02  0.88631953189E+02  0.00000000000E+00 0. -1.
</event>
<event>
 7    1  0.5194496E-006  0.8464102E+02  0.7818608E-02  0.1450075E+00
          2   -1    0    0  502    0  0.00000000000E+00  0.00000000000E+00  0.91950024844E+03  0.91950024844E+03  0.00000000000E+00 0. -1.
          1   -1    0    0  501    0 -0.00000000000E+00 -0.00000000000E+00 -0.17131806482E+04  0.17131806482E+04  0.00000000000E+00 0. -1.
         25    2    1    2    0    0 -0.88290023781E+02  0.38898141848E+02  0.10746504016E+03  0.19100244458E+03  0.12500002096E+03 0.  0.
          2    1    1    2  501    0  0.64533541752E+02 -0.54680341072E+02 -0.16700772634E+04  0.16722178636E+04  0.00000000000E+00 0. -1.
          1    1    1    2  502    0  0.23756482029E+02  0.15782199224E+02  0.76893182340E+03  0.76946058853E+03  0.00000000000E+00 0. -1.
         22    1    3    3    0    0  0.11762735408E+02  0.42939714626E+02  0.55998723033E+00  0.44525213331E+02  0.00000000000E+00 0. -1.
         22    1    3    3    0    0 -0.10005275919E+03 -0.40415727784E+01  0.10690505293E+03  0.14647723124E+03  0.00000000000E+00 0. -1.
</event>
<event>
 7    1  0.5194496E-006  0.1064230E+03  0.7818608E-02  0.1464152E+00
          2   -1    0    0  502    0  0.00000000000E+00  0.00000000000E+00  0.89896359275E+03  0.89896359275E+03  0.00000000000E+00 0. -1.
          1   -1    0    0  501    0 -0.00000000000E+00 -0.00000000000E+00 -0.92197207769E+02  0.92197207769E+02  0.00000000000E+00 0. -1.
         25    2    1    2    0    0 -0.90149588422E+02 -0.14608926941E+02  0.16802730495E+03  0.22847025543E+03  0.12500045347E+03 0.  0.
          2    1    1    2  501    0  0.10708656391E+03  0.26105277731E+02 -0.12680340689E+02  0.11094957744E+03  0.00000000000E+00 0. -1.
          1    1    1    2  502    0 -0.16936975486E+02 -0.11496350790E+02  0.65141942072E+03  0.65174096765E+03  0.00000000000E+00 0. -1.
         22    1    3    3    0    0 -0.74458469476E+02  0.19167739428E+02  0.17448255337E+03  0.19067151686E+03  0.00000000000E+00 0.  1.
         22    1    3    3    0    0 -0.15691118946E+02 -0.33776666369E+02 -0.64552484220E+01  0.37798738563E+02  0.00000000000E+00 0.  1.
</event>
<event>
 7    1  0.5194496E-006  0.2244353E+03  0.7818608E-02  0.1144405E+00
          2   -1    0    0  502    0  0.00000000000E+00  0.00000000000E+00  0.35635780964E+03  0.35635780964E+03  0.00000000000E+00 0. -1.
          1   -1    0    0  501    0 -0.00000000000E+00 -0.00000000000E+00 -0.56195075072E+03  0.56195075072E+03  0.00000000000E+00 0. -1.
         25    2    1    2    0    0  0.13857136726E+03  0.37769297967E+02  0.10177731367E+02  0.19067651769E+03  0.12500161795E+03 0.  0.
          2    1    1    2  501    0  0.18901678453E+03  0.18439772627E+02 -0.32614485479E+03  0.37740937502E+03  0.00000000000E+00 0. -1.
          1    1    1    2  502    0 -0.32758815179E+03 -0.56209070594E+02  0.11037418234E+03  0.35022266765E+03  0.00000000000E+00 0. -1.
         22    1    3    3    0    0  0.71336719382E+02 -0.56016407058E+01  0.62557564712E+02  0.95046066797E+02  0.00000000000E+00 0. -1.
         22    1    3    3    0    0  0.67234647880E+02  0.43370938673E+02 -0.52379833346E+02  0.95630450894E+02  0.00000000000E+00 0. -1.
</event>
<event>
 7    1  0.5194496E-006  0.3795140E+02  0.7818608E-02  0.1578427E+00
          2   -1    0    0  502    0  0.00000000000E+00  0.00000000000E+00  0.41311376809E+02  0.41311376809E+02  0.00000000000E+00 0. -1.
          1   -1    0    0  501    0 -0.00000000000E+00 -0.00000000000E+00 -0.84445384659E+03  0.84445384659E+03  0.00000000000E+00 0. -1.
         25    2    1    2    0    0  0.12397060248E+02 -0.38661291396E+01 -0.33071048782E+03  0.35378211795E+03  0.12499490456E+03 0.  0.
          2    1    1    2  501    0 -0.38662589644E+02  0.88854092019E+01 -0.49524623863E+03  0.49683255048E+03  0.00000000000E+00 0. -1.
          1    1    1    2  502    0  0.26265529396E+02 -0.50192800622E+01  0.22814256679E+02  0.35150554968E+02  0.00000000000E+00 0. -1.
         22    1    3    3    0    0 -0.40640461130E+02  0.17239407946E+02 -0.47380962486E+02  0.64759554301E+02  0.00000000000E+00 0. -1.
         22    1    3    3    0    0  0.53037521378E+02 -0.21105537086E+02 -0.28332952534E+03  0.28902256365E+03  0.00000000000E+00 0. -1.
</event>
<event>
 7    1  0.5194496E-006  0.7867927E+02  0.7818608E-02  0.1434697E+00
          2   -1    0    0  502    0  0.00000000000E+00  0.00000000000E+00  0.93346214451E+03  0.93346214451E+03  0.00000000000E+00 0. -1.
          1   -1    0    0  501    0 -0.00000000000E+00 -0.00000000000E+00 -0.17580316721E+03  0.17580316721E+03  0.00000000000E+00 0. -1.
         25    2    1    2    0    0 -0.12330458579E+02  0.48345799042E+02 -0.29511232525E+02  0.13778451844E+03  0.12499721670E+03 0.  0.
          2    1    1    2  501    0 -0.28017467192E+02  0.19968479438E+02 -0.87083889326E+02  0.93633981113E+02  0.00000000000E+00 0. -1.
          1    1    1    2  502    0  0.40347925771E+02 -0.68314278480E+02  0.87425409915E+03  0.87784681217E+03  0.00000000000E+00 0. -1.
         22    1    3    3    0    0 -0.15909864531E+02 -0.32839570419E+02 -0.41921049375E+02  0.55578193164E+02  0.00000000000E+00 0.  1.
         22    1    3    3    0    0  0.35794059523E+01  0.81185369461E+02  0.12409816850E+02  0.82206325278E+02  0.00000000000E+00 0.  1.
</event>
<event>
 7    1  0.5194496E-006  0.6779625E+02  0.7818608E-02  0.1370977E+00
          2   -1    0    0  502    0  0.00000000000E+00  0.00000000000E+00  0.25149316715E+03  0.25149316715E+03  0.00000000000E+00 0. -1.
          1   -1    0    0  501    0 -0.00000000000E+00 -0.00000000000E+00 -0.17523390941E+04  0.17523390941E+04  0.00000000000E+00 0. -1.
         25    2    1    2    0    0  0.23344988238E+02  0.15213521630E+01 -0.11450882617E+03  0.17112657649E+03  0.12499892368E+03 0.  0.
          2    1    1    2  501    0 -0.59713881221E+01 -0.67532758223E+02 -0.16035691601E+04  0.16050016766E+04  0.00000000000E+00 0. -1.
          1    1    1    2  502    0 -0.17373600116E+02  0.66011406060E+02  0.21723205931E+03  0.22770400809E+03  0.00000000000E+00 0. -1.
         22    1    3    3    0    0  0.62567920972E+02 -0.36321384796E+02 -0.59256015248E+02  0.93516111293E+02  0.00000000000E+00 0.  1.
         22    1    3    3    0    0 -0.39222932734E+02  0.37842736959E+02 -0.55252810924E+02  0.77610465195E+02  0.00000000000E+00 0.  1.
</event>
<event>
 7    1  0.5194496E-006  0.1647521E+03  0.7818608E-02  0.1249874E+00
          2   -1    0    0  502    0  0.00000000000E+00  0.00000000000E+00  0.42533836375E+04  0.42533836375E+04  0.00000000000E+00 0. -1.
          1   -1    0    0  501    0 -0.00000000000E+00 -0.00000000000E+00 -0.77174886330E+02  0.77174886330E+02  0.00000000000E+00 0. -1.
         25    2    1    2    0    0  0.90334082401E+02 -0.12996208055E+03  0.10341632559E+03  0.22665050612E+03  0.12500050680E+03 0.  0.
          2    1    1    2  501    0 -0.44995037090E+02  0.19786836471E+03  0.66809367797E+03  0.69823033854E+03  0.00000000000E+00 0. -1.
          1    1    1    2  502    0 -0.45339045310E+02 -0.67906284155E+02  0.34046987476E+04  0.34056776791E+04  0.00000000000E+00 0. -1.
         22    1    3    3    0    0  0.78321850875E+02 -0.10010877630E+02  0.57387927870E+02  0.97610984324E+02  0.00000000000E+00 0.  1.
         22    1    3    3    0    0  0.12012231525E+02 -0.11995120292E+03  0.46028397724E+02  0.12903952180E+03  0.00000000000E+00 0.  1.
</event>
<event>
 7    1  0.5194496E-006  0.8496172E+02  0.7818608E-02  0.1344434E+00
          2   -1    0    0  502    0  0.00000000000E+00  0.00000000000E+00  0.87437058580E+03  0.87437058580E+03  0.00000000000E+00 0. -1.
          1   -1    0    0  501    0 -0.00000000000E+00 -0.00000000000E+00 -0.10173298053E+03  0.10173298053E+03  0.00000000000E+00 0. -1.
         25    2    1    2    0    0 -0.54572212574E+02  0.25631400115E+02  0.19772296021E+03  0.24156630935E+03  0.12499927103E+03 0.  0.
          2    1    1    2  501    0  0.27495879394E+02 -0.85696955022E+02 -0.52152256036E+02  0.10401850457E+03  0.00000000000E+00 0. -1.
          1    1    1    2  502    0  0.27076333180E+02  0.60065554908E+02  0.62706690109E+03  0.63051875242E+03  0.00000000000E+00 0. -1.
         22    1    3    3    0    0  0.11385724233E+02  0.25044380278E+02  0.16619770921E+03  0.16845929552E+03  0.00000000000E+00 0. -1.
         22    1    3    3    0    0 -0.65957936807E+02  0.58701983671E+00  0.31525251004E+02  0.73107013829E+02  0.00000000000E+00 0. -1.
</event>
<event>
 7    1  0.5194496E-006  0.4840833E+02  0.7818608E-02  0.1512295E+00
          2   -1    0    0  502    0  0.00000000000E+00  0.00000000000E+00  0.42553241362E+03  0.42553241362E+03  0.00000000000E+00 0. -1.
          1   -1    0    0  501    0 -0.00000000000E+00 -0.00000000000E+00 -0.54157348422E+03  0.54157348422E+03  0.00000000000E+00 0. -1.
         25    2    1    2    0    0 -0.17401188240E+01 -0.31814813987E+02 -0.18973347459E+02  0.13039055315E+03  0.12500599199E+03 0.  0.
          2    1    1    2  501    0  0.33673112841E+02  0.35545081497E+02 -0.46490476764E+03  0.46747596122E+03  0.00000000000E+00 0. -1.
          1    1    1    2  502    0 -0.31932994017E+02 -0.37302675097E+01  0.36783704449E+03  0.36923938347E+03  0.00000000000E+00 0. -1.
         22    1    3    3    0    0  0.50390111877E+02  0.10177942217E+02 -0.34194979408E+02  0.61741805120E+02  0.00000000000E+00 0.  1.
         22    1    3    3    0    0 -0.52130230701E+02 -0.41992756204E+02  0.15221631950E+02  0.68648748027E+02  0.00000000000E+00 0.  1.
</event>
<event>
 7    1  0.5194496E-006  0.3641744E+02  0.7818608E-02  0.1627516E+00
          2   -1    0    0  502    0  0.00000000000E+00  0.00000000000E+00  0.82128326711E+03  0.82128326711E+03  0.00000000000E+00 0. -1.
          1   -1    0    0  501    0 -0.00000000000E+00 -0.00000000000E+00 -0.43740575138E+03  0.43740575138E+03  0.00000000000E+00 0. -1.
         25    2    1    2    0    0  0.14309931413E+02  0.24531434710E+02 -0.28932708015E+03  0.31645416956E+03  0.12500606666E+03 0.  0.
          2    1    1    2  501    0 -0.17085414596E+02  0.11797851663E+02 -0.13330016248E+03  0.13490750169E+03  0.00000000000E+00 0. -1.
          1    1    1    2  502    0  0.27754831826E+01 -0.36329286373E+02  0.80650475835E+03  0.80732734724E+03  0.00000000000E+00 0. -1.
         22    1    3    3    0    0 -0.34153875491E+02  0.41121465181E+02 -0.23803679057E+03  0.24396511180E+03  0.00000000000E+00 0. -1.
         22    1    3    3    0    0  0.48463806904E+02 -0.16590030471E+02 -0.51290289573E+02  0.72489057762E+02  0.00000000000E+00 0. -1.
</event>
<event>
 7    1  0.5194496E-006  0.8150019E+02  0.7818608E-02  0.1425604E+00
          2   -1    0    0  502    0  0.00000000000E+00  0.00000000000E+00  0.51487963748E+03  0.51487963748E+03  0.00000000000E+00 0. -1.
          1   -1    0    0  501    0 -0.00000000000E+00 -0.00000000000E+00 -0.29986148212E+03  0.29986148212E+03  0.00000000000E+00 0. -1.
         25    2    1    2    0    0  0.27715883131E+02 -0.98432650894E+02  0.17311582613E+02  0.16241122912E+03  0.12498223679E+03 0.  0.
          2    1    1    2  501    0  0.28184405915E+01  0.80160211213E+02 -0.21945479065E+03  0.23365360731E+03  0.00000000000E+00 0. -1.
          1    1    1    2  502    0 -0.30534323722E+02  0.18272439681E+02  0.41716136340E+03  0.41867628317E+03  0.00000000000E+00 0. -1.
         22    1    3    3    0    0  0.52180237217E+02 -0.10603718970E+03  0.43352145511E+02  0.12588117920E+03  0.00000000000E+00 0. -1.
         22    1    3    3    0    0 -0.24464354086E+02  0.76045388099E+01 -0.26040562898E+02  0.36530049923E+02  0.00000000000E+00 0. -1.
</event>
<event>
 7    1  0.5194496E-006  0.6099730E+02  0.7818608E-02  0.1447618E+00
          2   -1    0    0  502    0  0.00000000000E+00  0.00000000000E+00  0.11101580729E+02  0.11101580729E+02  0.00000000000E+00 0. -1.
          1   -1    0    0  501    0 -0.00000000000E+00 -0.00000000000E+00 -0.16390510124E+04  0.16390510124E+04  0.00000000000E+00 0. -1.
         25    2    1    2    0    0  0.98941192136E+01  0.44694076169E+02 -0.12708962227E+04  0.12778489068E+04  0.12500066242E+03 0.  0.
          2    1    1    2  501    0  0.40185260471E+02 -0.30455090367E+01 -0.14085040552E+03  0.14650244714E+03  0.00000000000E+00 0. -1.
          1    1    1    2  502    0 -0.50079379685E+02 -0.41648567132E+02 -0.21620280347E+03  0.22580123924E+03  0.00000000000E+00 0. -1.
         22    1    3    3    0    0 -0.12239566056E+02 -0.34165077861E+02 -0.16598928565E+03  0.16991027771E+03  0.00000000000E+00 0.  1.
         22    1    3    3    0    0  0.22133685269E+02  0.78859154030E+02 -0.11049069370E+04  0.11079386290E+04  0.00000000000E+00 0.  1.
</event>
<event>
 7    1  0.5194496E-006  0.3757945E+02  0.7818608E-02  0.1558246E+00
          2   -1    0    0  502    0  0.00000000000E+00  0.00000000000E+00  0.58827340827E+03  0.58827340827E+03  0.00000000000E+00 0. -1.
          1   -1    0    0  501    0 -0.00000000000E+00 -0.00000000000E+00 -0.24509303748E+03  0.24509303748E+03  0.00000000000E+00 0. -1.
         25    2    1    2    0    0  0.60393378270E+01  0.73284986825E+01 -0.60467144673E+02  0.13917978504E+03  0.12499822593E+03 0.  0.
          2    1    1    2  501    0 -0.39707440176E+01  0.30389689043E+02 -0.14299399216E+03  0.14624151873E+03  0.00000000000E+00 0. -1.
          1    1    1    2  502    0 -0.20685938093E+01 -0.37718187726E+02  0.54664150762E+03  0.54794514198E+03  0.00000000000E+00 0. -1.
         22    1    3    3    0    0  0.10396590056E+02 -0.57135832216E+02 -0.14415917875E+02  0.59836536464E+02  0.00000000000E+00 0. -1.
         22    1    3    3    0    0 -0.43572522293E+01  0.64464330898E+02 -0.46051226798E+02  0.79343248577E+02  0.00000000000E+00 0. -1.
</event>
<event>
 7    1  0.5194496E-006  0.1119676E+03  0.7818608E-02  0.1332386E+00
          2   -1    0    0  502    0  0.00000000000E+00  0.00000000000E+00  0.63412876696E+02  0.63412876696E+02  0.00000000000E+00 0. -1.
          1   -1    0    0  501    0 -0.00000000000E+00 -0.00000000000E+00 -0.10050919356E+04  0.10050919356E+04  0.00000000000E+00 0. -1.
         25    2    1    2    0    0  0.10796746036E+03 -0.71986491074E+02 -0.17488360987E+03  0.25109509168E+03  0.12500176267E+03 0.  0.
          2    1    1    2  501    0 -0.11000342475E+03  0.16514817091E+02 -0.75169857213E+03  0.75988435697E+03  0.00000000000E+00 0. -1.
          1    1    1    2  502    0  0.20359643903E+01  0.55471673983E+02 -0.15096876858E+02  0.57525363591E+02  0.00000000000E+00 0. -1.
         22    1    3    3    0    0  0.10626830923E+03 -0.23419588006E+02 -0.55404381298E+02  0.12211091727E+03  0.00000000000E+00 0. -1.
         22    1    3    3    0    0  0.16991511265E+01 -0.48566903068E+02 -0.11947922857E+03  0.12898417441E+03  0.00000000000E+00 0. -1.
</event>
<event>
 7    1  0.5194496E-006  0.8814106E+02  0.7818608E-02  0.1463871E+00
          2   -1    0    0  502    0  0.00000000000E+00  0.00000000000E+00  0.86926940656E+02  0.86926940656E+02  0.00000000000E+00 0. -1.
          1   -1    0    0  501    0 -0.00000000000E+00 -0.00000000000E+00 -0.12304279165E+04  0.12304279165E+04  0.00000000000E+00 0. -1.
         25    2    1    2    0    0 -0.39479983954E+02  0.98440914720E+02 -0.19240886412E+03  0.25276990215E+03  0.12498867796E+03 0.  0.
          2    1    1    2  501    0  0.19630931021E+02 -0.15099229922E+02 -0.97525544460E+03  0.97556985522E+03  0.00000000000E+00 0. -1.
          1    1    1    2  502    0  0.19849052933E+02 -0.83341684799E+02  0.24163332901E+02  0.89015099754E+02  0.00000000000E+00 0. -1.
         22    1    3    3    0    0 -0.74783290742E+02  0.23222841661E+02 -0.71337617164E+02  0.10592873346E+03  0.00000000000E+00 0.  1.
         22    1    3    3    0    0  0.35303306789E+02  0.75218073059E+02 -0.12107124695E+03  0.14684116869E+03  0.00000000000E+00 0.  1.
</event>
<event>
 7    1  0.5194496E-006  0.2135161E+03  0.7818608E-02  0.1152748E+00
          2   -1    0    0  502    0  0.00000000000E+00  0.00000000000E+00  0.95323118983E+03  0.95323118983E+03  0.00000000000E+00 0. -1.
          1   -1    0    0  501    0 -0.00000000000E+00 -0.00000000000E+00 -0.32869591208E+03  0.32869591208E+03  0.00000000000E+00 0. -1.
         25    2    1    2    0    0 -0.26072909452E+03  0.55495061988E+02  0.15410155099E+03  0.33231262300E+03  0.12500011501E+03 0.  0.
          2    1    1    2  501    0  0.75877841771E+02 -0.16409906814E+03 -0.18580152332E+03  0.25924536081E+03  0.00000000000E+00 0. -1.
          1    1    1    2  502    0  0.18485125275E+03  0.10860400615E+03  0.65623525007E+03  0.69036911810E+03  0.00000000000E+00 0. -1.
         22    1    3    3    0    0 -0.20653365687E+03  0.95006750696E+02  0.11758825159E+03  0.25594810218E+03  0.00000000000E+00 0. -1.
         22    1    3    3    0    0 -0.54195437643E+02 -0.39511688708E+02  0.36513299399E+02  0.76364520812E+02  0.00000000000E+00 0. -1.
</event>
<event>
 7    1  0.5194496E-006  0.5500707E+02  0.7818608E-02  0.1517409E+00
          2   -1    0    0  502    0  0.00000000000E+00  0.00000000000E+00  0.29973198178E+04  0.29973198178E+04  0.00000000000E+00 0. -1.
          1   -1    0    0  501    0 -0.00000000000E+00 -0.00000000000E+00 -0.11815774236E+03  0.11815774236E+03  0.00000000000E+00 0. -1.
         25    2    1    2    0    0 -0.57110495478E+02 -0.15501874641E+02  0.26111554884E+03  0.29548002715E+03  0.12500079916E+03 0.  0.
          2    1    1    2  501    0  0.33084571751E+01  0.27134753383E+02 -0.98841545310E+02  0.10255189813E+03  0.00000000000E+00 0. -1.
          1    1    1    2  502    0  0.53802038303E+02 -0.11632878742E+02  0.27168880719E+04  0.27174456349E+04  0.00000000000E+00 0. -1.
         22    1    3    3    0    0 -0.68382093269E+01 -0.58595780909E+02  0.61725881552E+02  0.85383318631E+02  0.00000000000E+00 0.  1.
         22    1    3    3    0    0 -0.50272286151E+02  0.43093906268E+02  0.19938966729E+03  0.21009670852E+03  0.00000000000E+00 0.  1.
</event>
<event>
 7    1  0.5194496E-006  0.1080199E+03  0.7818608E-02  0.1354532E+00
          2   -1    0    0  502    0  0.00000000000E+00  0.00000000000E+00  0.57032180156E+03  0.57032180156E+03  0.00000000000E+00 0. -1.
          1   -1    0    0  501    0 -0.00000000000E+00 -0.00000000000E+00 -0.24733745293E+03  0.24733745293E+03  0.00000000000E+00 0. -1.
         25    2    1    2    0    0  0.94123196810E+02 -0.10925898120E+03 -0.59139895344E+02  0.19979920447E+03  0.12500197492E+03 0.  0.
          2    1    1    2  501    0 -0.69362424037E+02  0.68674787565E+02 -0.96277931782E+02  0.13710146777E+03  0.00000000000E+00 0. -1.
          1    1    1    2  502    0 -0.24760772773E+02  0.40584193640E+02  0.47840217576E+03  0.48075858225E+03  0.00000000000E+00 0. -1.
         22    1    3    3    0    0  0.80883740044E+02 -0.12065410811E+03 -0.76850462894E+01  0.14546014280E+03  0.00000000000E+00 0.  1.
         22    1    3    3    0    0  0.13239456766E+02  0.11395126900E+02 -0.51454849054E+02  0.54339061675E+02  0.00000000000E+00 0.  1.
</event>
<event>
 7    1  0.5194496E-006  0.1091219E+03  0.7818608E-02  0.1318125E+00
          2   -1    0    0  502    0  0.00000000000E+00  0.00000000000E+00  0.19876167304E+04  0.19876167304E+04  0.00000000000E+00 0. -1.
          1   -1    0    0  501    0 -0.00000000000E+00 -0.00000000000E+00 -0.10619617751E+03  0.10619617751E+03  0.00000000000E+00 0. -1.
         25    2    1    2    0    0 -0.37672679619E+02 -0.31631870277E+02  0.11434678217E+03  0.17641307132E+03  0.12500631637E+03 0.  0.
          2    1    1    2  501    0 -0.34614916120E+02 -0.54577263046E+02 -0.59211789265E+02  0.87652187922E+02  0.00000000000E+00 0. -1.
          1    1    1    2  502    0  0.72287595739E+02  0.86209133323E+02  0.18262855600E+04  0.18297476487E+04  0.00000000000E+00 0. -1.
         22    1    3    3    0    0  0.31922728609E+02 -0.41072542851E+02  0.13893717304E+02  0.53842824579E+02  0.00000000000E+00 0. -1.
         22    1    3    3    0    0 -0.69595408229E+02  0.94406725743E+01  0.10045306487E+03  0.12257024674E+03  0.00000000000E+00 0. -1.
</event>
<event>
 7    1  0.5194496E-006  0.4433492E+02  0.7818608E-02  0.1518336E+00
          2   -1    0    0  502    0  0.00000000000E+00  0.00000000000E+00  0.45536650855E+03  0.45536650855E+03  0.00000000000E+00 0. -1.
          1   -1    0    0  501    0 -0.00000000000E+00 -0.00000000000E+00 -0.18690712168E+03  0.18690712168E+03  0.00000000000E+00 0. -1.
         25    2    1    2    0    0 -0.76441116912E+01 -0.73319952961E+02  0.15766244197E+03  0.21428141923E+03  0.12499933229E+03 0.  0.
          2    1    1    2  501    0 -0.75640349667E+01  0.43240178708E+02 -0.15447322863E+03  0.16058924635E+03  0.00000000000E+00 0. -1.
          1    1    1    2  502    0  0.15208146658E+02  0.30079774253E+02  0.26527017353E+03  0.26740296466E+03  0.00000000000E+00 0. -1.
         22    1    3    3    0    0  0.37402550657E+02  0.46911288013E+01  0.10113484328E+03  0.10793152464E+03  0.00000000000E+00 0.  1.
         22    1    3    3    0    0 -0.45046662348E+02 -0.78011081762E+02  0.56527598690E+02  0.10634989459E+03  0.00000000000E+00 0.  1.
</event>
<event>
 7    1  0.5194496E-006  0.1160193E+03  0.7818608E-02  0.1289806E+00
          2   -1    0    0  502    0  0.00000000000E+00  0.00000000000E+00  0.31621916543E+04  0.31621916543E+04  0.00000000000E+00 0. -1.
          1   -1    0    0  501    0 -0.00000000000E+00 -0.00000000000E+00 -0.45830262205E+02  0.45830262205E+02  0.00000000000E+00 0. -1.
         25    2    1    2    0    0  0.76862939395E+02 -0.19044087986E+01  0.89320237056E+03  0.90517815392E+03  0.12500190936E+03 0.  0.
          2    1    1    2  501    0 -0.96511031027E+02 -0.74399055980E+02  0.55755435220E+02  0.13400845942E+03  0.00000000000E+00 0. -1.
          1    1    1    2  502    0  0.19648091632E+02  0.76303464779E+02  0.21674035863E+04  0.21688353032E+04  0.00000000000E+00 0. -1.
         22    1    3    3    0    0  0.53631873222E+02 -0.62097070927E+02  0.47741934204E+03  0.48441888093E+03  0.00000000000E+00 0.  1.
         22    1    3    3    0    0  0.23231066173E+02  0.60192662129E+02  0.41578302851E+03  0.42075927299E+03  0.00000000000E+00 0.  1.
</event>
<event>
 7    1  0.5194496E-006  0.5837905E+02  0.7818608E-02  0.1548800E+00
          2   -1    0    0  502    0  0.00000000000E+00  0.00000000000E+00  0.15623126294E+04  0.15623126294E+04  0.00000000000E+00 0. -1.
          1   -1    0    0  501    0 -0.00000000000E+00 -0.00000000000E+00 -0.12125728643E+03  0.12125728643E+03  0.00000000000E+00 0. -1.
         25    2    1    2    0    0 -0.38230299837E+02 -0.57603957159E+02  0.38330761038E+02  0.14790352977E+03  0.12500574055E+03 0.  0.
          2    1    1    2  501    0  0.17503257774E+02  0.54510079323E+02 -0.54053921646E+02  0.78737152767E+02  0.00000000000E+00 0. -1.
          1    1    1    2  502    0  0.20727042063E+02  0.30938778359E+01  0.14567785036E+04  0.14569292333E+04  0.00000000000E+00 0. -1.
         22    1    3    3    0    0 -0.64997964816E+01 -0.34638160069E+02  0.81993139209E+02  0.89246424940E+02  0.00000000000E+00 0. -1.
         22    1    3    3    0    0 -0.31730503355E+02 -0.22965797090E+02 -0.43662378171E+02  0.58657104827E+02  0.00000000000E+00 0. -1.
</event>
<event>
 7    1  0.6189921E-006  0.6115762E+02  0.7818608E-02  0.1416844E+00
          2   -1    0    0  502    0  0.00000000000E+00  0.00000000000E+00  0.24302795329E+04  0.24302795329E+04  0.00000000000E+00 0. -1.
          1   -1    0    0  501    0 -0.00000000000E+00 -0.00000000000E+00 -0.79193426195E+03  0.79193426195E+03  0.00000000000E+00 0. -1.
         25    2    1    2    0    0  0.34966604897E+02  0.13961033145E+02  0.58839099110E+02  0.14319571010E+03  0.12500159160E+03 0.  0.
          2    1    1    2  501    0  0.16279259368E+02 -0.48035539423E+02 -0.74849110449E+03  0.75020754518E+03  0.00000000000E+00 0. -1.
          1    1    1    2  502    0 -0.51245864265E+02  0.34074506278E+02  0.23279972764E+04  0.23288105396E+04  0.00000000000E+00 0. -1.
         22    1    3    3    0    0 -0.25151804878E+02 -0.41648459672E+02  0.22156512300E+02  0.53461374085E+02  0.00000000000E+00 0. -1.
         22    1    3    3    0    0  0.60118409775E+02  0.55609492818E+02  0.36682586810E+02  0.89734336017E+02  0.00000000000E+00 0. -1.
</event>
<event>
 7    1  0.5194496E-006  0.1933552E+03  0.7818608E-02  0.1374361E+00
          2   -1    0    0  502    0  0.00000000000E+00  0.00000000000E+00  0.33967199245E+03  0.33967199245E+03  0.00000000000E+00 0. -1.
          1   -1    0    0  501    0 -0.00000000000E+00 -0.00000000000E+00 -0.10251959668E+04  0.10251959668E+04  0.00000000000E+00 0. -1.
         25    2    1    2    0    0 -0.11908779745E+03 -0.17507664184E+03 -0.13581423154E+03  0.28089892703E+03  0.12499987079E+03 0.  0.
          2    1    1    2  501    0  0.11306368057E+03  0.15339009125E+03 -0.80522440552E+03  0.82746495950E+03  0.00000000000E+00 0. -1.
          1    1    1    2  502    0  0.60241168833E+01  0.21686550592E+02  0.25551466271E+03  0.25650407271E+03  0.00000000000E+00 0. -1.
         22    1    3    3    0    0 -0.11805049063E+03 -0.13034150715E+03 -0.47915076295E+02  0.18226541460E+03  0.00000000000E+00 0. -1.
         22    1    3    3    0    0 -0.10373068257E+01 -0.44735134688E+02 -0.87899155245E+02  0.98633512428E+02  0.00000000000E+00 0. -1.
</event>
<event>
 7    1  0.5194496E-006  0.3934103E+02  0.7818608E-02  0.1536716E+00
          2   -1    0    0  502    0  0.00000000000E+00  0.00000000000E+00  0.21175610200E+04  0.21175610200E+04  0.00000000000E+00 0. -1.
          1   -1    0    0  501    0 -0.00000000000E+00 -0.00000000000E+00 -0.10624358591E+03  0.10624358591E+03  0.00000000000E+00 0. -1.
         25    2    1    2    0    0  0.27556404363E+02  0.25151627227E+02  0.16870178544E+04  0.16920549300E+04  0.12501473993E+03 0.  0.
          2    1    1    2  501    0 -0.27538363215E+02  0.19308764105E+02 -0.99805693761E+02  0.10532030349E+03  0.00000000000E+00 0. -1.
          1    1    1    2  502    0 -0.18041148363E-01 -0.44460391331E+02  0.42410527346E+03  0.42642937246E+03  0.00000000000E+00 0. -1.
         22    1    3    3    0    0 -0.21355189606E+02  0.60436771112E+02  0.11214800085E+04  0.11233103120E+04  0.00000000000E+00 0. -1.
         22    1    3    3    0    0  0.48911593969E+02 -0.35285143885E+02  0.56553784584E+03  0.56874461798E+03  0.00000000000E+00 0. -1.
</event>
<event>
 7    1  0.5194496E-006  0.1138921E+03  0.7818608E-02  0.1307601E+00
          2   -1    0    0  502    0  0.00000000000E+00  0.00000000000E+00  0.31149140629E+04  0.31149140629E+04  0.00000000000E+00 0. -1.
          1   -1    0    0  501    0 -0.00000000000E+00 -0.00000000000E+00 -0.31034744039E+03  0.31034744039E+03  0.00000000000E+00 0. -1.
         25    2    1    2    0    0 -0.72673829842E+02 -0.36889780306E+02  0.12488285100E+03  0.19458564707E+03  0.12500202453E+03 0.  0.
          2    1    1    2  501    0  0.56481399107E+02  0.10303448651E+03 -0.26255558229E+03  0.28764854884E+03  0.00000000000E+00 0. -1.
          1    1    1    2  502    0  0.16192430735E+02 -0.66144706205E+02  0.29422393538E+04  0.29430273074E+04  0.00000000000E+00 0. -1.
         22    1    3    3    0    0  0.27287563878E+02 -0.19522507160E+02 -0.16827493818E+00  0.33552462573E+02  0.00000000000E+00 0.  1.
         22    1    3    3    0    0 -0.99961393720E+02 -0.17367273146E+02  0.12505112594E+03  0.16103318450E+03  0.00000000000E+00 0.  1.
</event>
<event>
 7    1  0.5194496E-006  0.7546181E+02  0.7818608E-02  0.1352808E+00
          2   -1    0    0  502    0  0.00000000000E+00  0.00000000000E+00  0.93152372097E+03  0.93152372097E+03  0.00000000000E+00 0. -1.
          1   -1    0    0  501    0 -0.00000000000E+00 -0.00000000000E+00 -0.12822714573E+04  0.12822714573E+04  0.00000000000E+00 0. -1.
         25    2    1    2    0    0 -0.32208250138E+02  0.12620535508E+03 -0.59393208116E+02  0.19004579497E+03  0.12499875194E+03 0.  0.
          2    1    1    2  501    0  0.44970025631E+02 -0.52406111431E+02 -0.11548997578E+04  0.11569624689E+04  0.00000000000E+00 0. -1.
          1    1    1    2  502    0 -0.12761775493E+02 -0.73799243651E+02  0.86354522967E+03  0.86678691439E+03  0.00000000000E+00 0. -1.
         22    1    3    3    0    0  0.11441675851E+02  0.49237156055E+02  0.34367307336E+02  0.61125455387E+02  0.00000000000E+00 0. -1.
         22    1    3    3    0    0 -0.43649925989E+02  0.76968199026E+02 -0.93760515452E+02  0.12892033958E+03  0.00000000000E+00 0. -1.
</event>
<event>
 7    1  0.5194496E-006  0.8010288E+02  0.7818608E-02  0.1348794E+00
          2   -1    0    0  502    0  0.00000000000E+00  0.00000000000E+00  0.22472792080E+03  0.22472792080E+03  0.00000000000E+00 0. -1.
          1   -1    0    0  501    0 -0.00000000000E+00 -0.00000000000E+00 -0.14124506030E+04  0.14124506030E+04  0.00000000000E+00 0. -1.
         25    2    1    2    0    0 -0.51936263108E+02 -0.67486989516E+02 -0.12674698138E+03  0.19733749229E+03  0.12500167757E+03 0.  0.
          2    1    1    2  501    0  0.80651156306E+02  0.66003747430E+01 -0.12430703448E+04  0.12457014314E+04  0.00000000000E+00 0. -1.
          1    1    1    2  502    0 -0.28714893199E+02  0.60886614773E+02  0.18209464403E+03  0.19413960011E+03  0.00000000000E+00 0. -1.
         22    1    3    3    0    0  0.26272568308E+02 -0.60838561076E+02 -0.29967759231E+02  0.72729945363E+02  0.00000000000E+00 0.  1.
         22    1    3    3    0    0 -0.78208831416E+02 -0.66484284402E+01 -0.96779222146E+02  0.12460754693E+03  0.00000000000E+00 0.  1.
</event>
<event>
 7    1  0.5194496E-006  0.7882065E+02  0.7818608E-02  0.1474108E+00
          2   -1    0    0  502    0  0.00000000000E+00  0.00000000000E+00  0.17032309190E+04  0.17032309190E+04  0.00000000000E+00 0. -1.
          1   -1    0    0  501    0 -0.00000000000E+00 -0.00000000000E+00 -0.11035973634E+03  0.11035973634E+03  0.00000000000E+00 0. -1.
         25    2    1    2    0    0  0.64379246404E+02  0.10028542840E+02  0.33438251594E+03  0.36287990927E+03  0.12499961019E+03 0.  0.
          2    1    1    2  501    0  0.15057162056E+02 -0.20869096034E+02 -0.93179105717E+02  0.96667383541E+02  0.00000000000E+00 0. -1.
          1    1    1    2  502    0 -0.79436408460E+02  0.10840553194E+02  0.13516677725E+04  0.13540433626E+04  0.00000000000E+00 0. -1.
         22    1    3    3    0    0  0.11489242985E+02 -0.48136879435E+02  0.61725019879E+02  0.79114726475E+02  0.00000000000E+00 0.  1.
         22    1    3    3    0    0  0.52890003419E+02  0.58165422275E+02  0.27265749606E+03  0.28376518279E+03  0.00000000000E+00 0.  1.
</event>
<event>
 7    1  0.5194496E-006  0.1795725E+03  0.7818608E-02  0.1249315E+00
          2   -1    0    0  502    0  0.00000000000E+00  0.00000000000E+00  0.13496607998E+04  0.13496607998E+04  0.00000000000E+00 0. -1.
          1   -1    0    0  501    0 -0.00000000000E+00 -0.00000000000E+00 -0.40573520820E+03  0.40573520820E+03  0.00000000000E+00 0. -1.
         25    2    1    2    0    0 -0.84157286139E+02 -0.23263727075E+03 -0.10734536555E+03  0.29725748406E+03  0.12504573472E+03 0.  0.
          2    1    1    2  501    0  0.46696576187E+02  0.59112602600E+02 -0.18992107996E+03  0.20431565438E+03  0.00000000000E+00 0. -1.
          1    1    1    2  502    0  0.37460709952E+02  0.17352466815E+03  0.12411920371E+04  0.12538228696E+04  0.00000000000E+00 0. -1.
         22    1    3    3    0    0 -0.85506345892E+01  0.92587632066E+01  0.11751901889E+02  0.17232099292E+02  0.00000000000E+00 0. -1.
         22    1    3    3    0    0 -0.75606651550E+02 -0.24189603395E+03 -0.11909726744E+03  0.28002538476E+03  0.00000000000E+00 0. -1.
</event>
<event>
 7    1  0.5194496E-006  0.1681976E+03  0.7818608E-02  0.1292644E+00
          2   -1    0    0  502    0  0.00000000000E+00  0.00000000000E+00  0.19026329511E+04  0.19026329511E+04  0.00000000000E+00 0. -1.
          1   -1    0    0  501    0 -0.00000000000E+00 -0.00000000000E+00 -0.86647654770E+03  0.86647654770E+03  0.00000000000E+00 0. -1.
         25    2    1    2    0    0 -0.15511775843E+03 -0.53876773318E+02 -0.41218412180E+03  0.46096190073E+03  0.12500359187E+03 0.  0.
          2    1    1    2  501    0  0.13968287781E+03  0.10450270070E+03 -0.41181456420E+03  0.44723970764E+03  0.00000000000E+00 0. -1.
          1    1    1    2  502    0  0.15434880621E+02 -0.50625927378E+02  0.18601550894E+04  0.18609078904E+04  0.00000000000E+00 0. -1.
         22    1    3    3    0    0 -0.18991099209E+02  0.37599211451E+02 -0.93550113918E+02  0.10259622978E+03  0.00000000000E+00 0.  1.
         22    1    3    3    0    0 -0.13612665922E+03 -0.91475984769E+02 -0.31863400788E+03  0.35836567095E+03  0.00000000000E+00 0.  1.
</event>
<event>
 7    1  0.5194496E-006  0.1008259E+03  0.7818608E-02  0.1307358E+00
          2   -1    0    0  502    0  0.00000000000E+00  0.00000000000E+00  0.19523244807E+03  0.19523244807E+03  0.00000000000E+00 0. -1.
          1   -1    0    0  501    0 -0.00000000000E+00 -0.00000000000E+00 -0.57241106138E+03  0.57241106138E+03  0.00000000000E+00 0. -1.
         25    2    1    2    0    0  0.96611820069E+01 -0.48961360937E+02 -0.22533670731E+02  0.13644339661E+03  0.12497392072E+03 0.  0.
          2    1    1    2  501    0 -0.39251872941E+02 -0.66352742812E+02 -0.46351077542E+03  0.46987831929E+03  0.00000000000E+00 0. -1.
          1    1    1    2  502    0  0.29590690934E+02  0.11531410375E+03  0.10886583284E+03  0.16132179355E+03  0.00000000000E+00 0. -1.
         22    1    3    3    0    0  0.25375427193E+02  0.24839656535E+02  0.28346486633E+02  0.45436154618E+02  0.00000000000E+00 0. -1.
         22    1    3    3    0    0 -0.15714245186E+02 -0.73801017473E+02 -0.50880157363E+02  0.91007241992E+02  0.00000000000E+00 0. -1.
</event>
<event>
 7    1  0.8983493E-006  0.8834850E+02  0.7818608E-02  0.1461084E+00
          2   -1    0    0  502    0  0.00000000000E+00  0.00000000000E+00  0.79450934647E+03  0.79450934647E+03  0.00000000000E+00 0. -1.
          1   -1    0    0  501    0 -0.00000000000E+00 -0.00000000000E+00 -0.17577144320E+04  0.17577144320E+04  0.00000000000E+00 0. -1.
         25    2    1    2    0    0 -0.96846461611E+02 -0.53190952132E+02 -0.12512852543E+04  0.12623571689E+04  0.12498927864E+03 0.  0.
          2    1    1    2  501    0  0.14870013322E+02  0.20359447955E+02 -0.49810245569E+03  0.49874009342E+03  0.00000000000E+00 0. -1.
          1    1    1    2  502    0  0.81976448289E+02  0.32831504177E+02  0.78618262439E+03  0.79112651620E+03  0.00000000000E+00 0. -1.
         22    1    3    3    0    0 -0.11620085171E+03 -0.19562434398E+02 -0.71265997344E+03  0.72233618525E+03  0.00000000000E+00 0. -1.
         22    1    3    3    0    0  0.19354390095E+02 -0.33628517734E+02 -0.53862528084E+03  0.54002098365E+03  0.00000000000E+00 0. -1.
</event>
<event>
 7    1  0.5194496E-006  0.1953599E+03  0.7818608E-02  0.1258193E+00
          2   -1    0    0  502    0  0.00000000000E+00  0.00000000000E+00  0.11609280116E+04  0.11609280116E+04  0.00000000000E+00 0. -1.
          1   -1    0    0  501    0 -0.00000000000E+00 -0.00000000000E+00 -0.41376705030E+03  0.41376705030E+03  0.00000000000E+00 0. -1.
         25    2    1    2    0    0  0.13867087286E+03 -0.28673408425E+02  0.20111408627E+03  0.27590572286E+03  0.12500126752E+03 0.  0.
          2    1    1    2  501    0 -0.20089441086E+03  0.16505650652E+02 -0.34817944050E+03  0.40231818702E+03  0.00000000000E+00 0. -1.
          1    1    1    2  502    0  0.62223538008E+02  0.12167757773E+02  0.89422631552E+03  0.89647115201E+03  0.00000000000E+00 0. -1.
         22    1    3    3    0    0  0.44982490562E+02  0.24309601906E+02  0.14658888783E+03  0.15525038884E+03  0.00000000000E+00 0. -1.
         22    1    3    3    0    0  0.93688382296E+02 -0.52983010331E+02  0.54525198443E+02  0.12065533401E+03  0.00000000000E+00 0. -1.
</event>
<event>
 7    1  0.5194496E-006  0.5911455E+02  0.7818608E-02  0.1424311E+00
          2   -1    0    0  502    0  0.00000000000E+00  0.00000000000E+00  0.10758405282E+04  0.10758405282E+04  0.00000000000E+00 0. -1.
          1   -1    0    0  501    0 -0.00000000000E+00 -0.00000000000E+00 -0.13126337933E+04  0.13126337933E+04  0.00000000000E+00 0. -1.
         25    2    1    2    0    0 -0.19348127717E+01 -0.98059070768E+02  0.27242714142E+03  0.31537356424E+03  0.12499845110E+03 0.  0.
          2    1    1    2  501    0 -0.20506911402E+02  0.45102959722E+02 -0.12896266179E+04  0.12905780194E+04  0.00000000000E+00 0. -1.
          1    1    1    2  502    0  0.22441724173E+02  0.52956111046E+02  0.78040621131E+03  0.78252273790E+03  0.00000000000E+00 0. -1.
         22    1    3    3    0    0 -0.41106457775E+02  0.11371463553E+02  0.73973882943E+02  0.85388444252E+02  0.00000000000E+00 0.  1.
         22    1    3    3    0    0  0.39171645003E+02 -0.10943053432E+03  0.19845325848E+03  0.22998511998E+03  0.00000000000E+00 0.  1.
</event>
<event>
 7    1  0.5194496E-006  0.7729542E+02  0.7818608E-02  0.1384992E+00
          2   -1    0    0  502    0  0.00000000000E+00  0.00000000000E+00  0.56095490026E+03  0.56095490026E+03  0.00000000000E+00 0. -1.
          1   -1    0    0  501    0 -0.00000000000E+00 -0.00000000000E+00 -0.14288918200E+04  0.14288918200E+04  0.00000000000E+00 0. -1.
         25    2    1    2    0    0 -0.36817335562E+02 -0.18242380979E+02  0.22508376964E+03  0.26072377475E+03  0.12500353075E+03 0.  0.
          2    1    1    2  501    0  0.75937461600E+02 -0.15444243296E+02 -0.14079043520E+04  0.14100353496E+04  0.00000000000E+00 0. -1.
          1    1    1    2  502    0 -0.39120126038E+02  0.33686624275E+02  0.31488366259E+03  0.31908759594E+03  0.00000000000E+00 0. -1.
         22    1    3    3    0    0  0.16605356436E+02  0.82730392638E+01  0.19126308423E+03  0.19216073592E+03  0.00000000000E+00 0. -1.
         22    1    3    3    0    0 -0.53422691998E+02 -0.26515420243E+02  0.33820685415E+02  0.68563038825E+02  0.00000000000E+00 0. -1.
</event>
<event>
 7    1  0.5194496E-006  0.4438842E+02  0.7818608E-02  0.1585273E+00
          2   -1    0    0  502    0  0.00000000000E+00  0.00000000000E+00  0.51578611996E+03  0.51578611996E+03  0.00000000000E+00 0. -1.
          1   -1    0    0  501    0 -0.00000000000E+00 -0.00000000000E+00 -0.80060125312E+02  0.80060125312E+02  0.00000000000E+00 0. -1.
         25    2    1    2    0    0  0.25469817042E+01  0.53176009768E+02  0.35600635225E+03  0.38105114437E+03  0.12500110659E+03 0.  0.
          2    1    1    2  501    0  0.15905611025E+02 -0.41346110420E+02 -0.59321221149E+02  0.74037129790E+02  0.00000000000E+00 0. -1.
          1    1    1    2  502    0 -0.18452592729E+02 -0.11829899348E+02  0.13904086355E+03  0.14075797112E+03  0.00000000000E+00 0. -1.
         22    1    3    3    0    0  0.56908221169E+02  0.28324837070E+02  0.26238962725E+03  0.26997992244E+03  0.00000000000E+00 0. -1.
         22    1    3    3    0    0 -0.54361239465E+02  0.24851172698E+02  0.93616725000E+02  0.11107122193E+03  0.00000000000E+00 0. -1.
</event>
<event>
 7    1  0.5194496E-006  0.8389899E+02  0.7818608E-02  0.1374251E+00
          2   -1    0    0  502    0  0.00000000000E+00  0.00000000000E+00  0.78136414471E+03  0.78136414471E+03  0.00000000000E+00 0. -1.
          1   -1    0    0  501    0 -0.00000000000E+00 -0.00000000000E+00 -0.48970341764E+02  0.48970341764E+02  0.00000000000E+00 0. -1.
         25    2    1    2    0    0  0.15708620627E+02 -0.97038313866E+02  0.37547327920E+03  0.40775986755E+03  0.12499892430E+03 0.  0.
          2    1    1    2  501    0  0.32267462579E+02  0.77192413902E+02  0.26008603856E+02  0.87614527219E+02  0.00000000000E+00 0. -1.
          1    1    1    2  502    0 -0.47976083206E+02  0.19845899964E+02  0.33091191989E+03  0.33496009170E+03  0.00000000000E+00 0. -1.
         22    1    3    3    0    0 -0.53003745682E+02 -0.23929001247E+02  0.12199159057E+03  0.13514415388E+03  0.00000000000E+00 0. -1.
         22    1    3    3    0    0  0.68712366308E+02 -0.73109312618E+02  0.25348168862E+03  0.27261571368E+03  0.00000000000E+00 0. -1.
</event>
<event>
 7    1  0.5194496E-006  0.1244919E+03  0.7818608E-02  0.1304912E+00
          2   -1    0    0  502    0  0.00000000000E+00  0.00000000000E+00  0.50477723306E+03  0.50477723306E+03  0.00000000000E+00 0. -1.
          1   -1    0    0  501    0 -0.00000000000E+00 -0.00000000000E+00 -0.15246101887E+04  0.15246101887E+04  0.00000000000E+00 0. -1.
         25    2    1    2    0    0  0.84292388083E+02  0.56472274183E+02 -0.34458730585E+03  0.38034217490E+03  0.12500173683E+03 0.  0.
          2    1    1    2  501    0  0.40802966977E+02 -0.49108565199E+02 -0.11531849352E+04  0.11549510934E+04  0.00000000000E+00 0. -1.
          1    1    1    2  502    0 -0.12509535506E+03 -0.73637089848E+01  0.47793928537E+03  0.49409415354E+03  0.00000000000E+00 0. -1.
         22    1    3    3    0    0  0.48178006341E+02  0.58597560658E+02 -0.69491761092E+02  0.10287807964E+03  0.00000000000E+00 0. -1.
         22    1    3    3    0    0  0.36114381742E+02 -0.21252864747E+01 -0.27509554476E+03  0.27746409526E+03  0.00000000000E+00 0. -1.
</event>
<event>
 7    1  0.5194496E-006  0.6655339E+02  0.7818608E-02  0.1515660E+00
          2   -1    0    0  502    0  0.00000000000E+00  0.00000000000E+00  0.36955773858E+04  0.36955773858E+04  0.00000000000E+00 0. -1.
          1   -1    0    0  501    0 -0.00000000000E+00 -0.00000000000E+00 -0.11420396599E+02  0.11420396599E+02  0.00000000000E+00 0. -1.
         25    2    1    2    0    0 -0.18073845427E+02 -0.77702275247E+02  0.19466671555E+04  0.19523072500E+04  0.12500510646E+03 0.  0.
          2    1    1    2  501    0  0.30359943081E+02  0.58424124928E+02  0.11868940747E+03  0.13572869985E+03  0.00000000000E+00 0. -1.
          1    1    1    2  502    0 -0.12286097655E+02  0.19278150319E+02  0.16188004263E+04  0.16189618326E+04  0.00000000000E+00 0. -1.
         22    1    3    3    0    0 -0.65356208926E+02 -0.74394046211E+02  0.11630746709E+04  0.11672825701E+04  0.00000000000E+00 0. -1.
         22    1    3    3    0    0  0.47282363499E+02 -0.33082290359E+01  0.78359248454E+03  0.78502467994E+03  0.00000000000E+00 0. -1.
</event>
<event>
 7    1  0.5194496E-006  0.8811128E+02  0.7818608E-02  0.1483492E+00
          2   -1    0    0  502    0  0.00000000000E+00  0.00000000000E+00  0.10750705193E+04  0.10750705193E+04  0.00000000000E+00 0. -1.
          1   -1    0    0  501    0 -0.00000000000E+00 -0.00000000000E+00 -0.44476180216E+02  0.44476180216E+02  0.00000000000E+00 0. -1.
         25    2    1    2    0    0 -0.63747701137E+02 -0.37423145035E+02  0.52635625476E+03  0.54602065638E+03  0.12499355616E+03 0.  0.
          2    1    1    2  501    0 -0.12986220969E+02 -0.17187436077E+02 -0.26695788828E+02  0.34303280238E+02  0.00000000000E+00 0. -1.
          1    1    1    2  502    0  0.76733922106E+02  0.54610581112E+02  0.53093387319E+03  0.53922276294E+03  0.00000000000E+00 0. -1.
         22    1    3    3    0    0  0.28604511474E+02 -0.37740274354E+02  0.25553087953E+03  0.25988185158E+03  0.00000000000E+00 0. -1.
         22    1    3    3    0    0 -0.92352212611E+02  0.31712931898E+00  0.27082537523E+03  0.28613880480E+03  0.00000000000E+00 0. -1.
</event>
<event>
 7    1  0.5194496E-006  0.3492992E+03  0.7818608E-02  0.1271098E+00
          2   -1    0    0  502    0  0.00000000000E+00  0.00000000000E+00  0.28444800610E+04  0.28444800610E+04  0.00000000000E+00 0. -1.
          1   -1    0    0  501    0 -0.00000000000E+00 -0.00000000000E+00 -0.47705924922E+03  0.47705924922E+03  0.00000000000E+00 0. -1.
         25    2    1    2    0    0  0.84618523096E+02  0.33337804042E+03  0.76192402635E+03  0.84525424217E+03  0.12500119872E+03 0.  0.
          2    1    1    2  501    0  0.31234194231E+02 -0.14186986507E+01 -0.41966551344E+03  0.42082862399E+03  0.00000000000E+00 0. -1.
          1    1    1    2  502    0 -0.11585271733E+03 -0.33195934177E+03  0.20251622989E+04  0.20554564441E+04  0.00000000000E+00 0. -1.
         22    1    3    3    0    0  0.91361882966E+02  0.34254001882E+03  0.73524797415E+03  0.81625378507E+03  0.00000000000E+00 0.  1.
         22    1    3    3    0    0 -0.67433598691E+01 -0.91619784023E+01  0.26676052201E+02  0.29000457093E+02  0.00000000000E+00 0.  1.
</event>
<event>
 7    1  0.5194496E-006  0.1741228E+03  0.7818608E-02  0.1244198E+00
          2   -1    0    0  502    0  0.00000000000E+00  0.00000000000E+00  0.11693369486E+03  0.11693369486E+03  0.00000000000E+00 0. -1.
          1   -1    0    0  501    0 -0.00000000000E+00 -0.00000000000E+00 -0.12339447754E+04  0.12339447754E+04  0.00000000000E+00 0. -1.
         25    2    1    2    0    0 -0.60896448111E+02  0.14118400555E+03 -0.53397070665E+03  0.56955383591E+03  0.12500222251E+03 0.  0.
          2    1    1    2  501    0 -0.77309526873E+02 -0.26688382350E+02 -0.59581177996E+03  0.60139896062E+03  0.00000000000E+00 0. -1.
          1    1    1    2  502    0  0.13820597498E+03 -0.11449562320E+03  0.12771406054E+02  0.17992567373E+03  0.00000000000E+00 0. -1.
         22    1    3    3    0    0 -0.17993491153E+02  0.13255797448E+03 -0.26294361532E+03  0.29501648626E+03  0.00000000000E+00 0.  1.
         22    1    3    3    0    0 -0.42902956958E+02  0.86260310682E+01 -0.27102709132E+03  0.27453734966E+03  0.00000000000E+00 0.  1.
</event>
<event>
 7    1  0.5194496E-006  0.1015582E+03  0.7818608E-02  0.1336177E+00
          2   -1    0    0  502    0  0.00000000000E+00  0.00000000000E+00  0.11722170605E+04  0.11722170605E+04  0.00000000000E+00 0. -1.
          1   -1    0    0  501    0 -0.00000000000E+00 -0.00000000000E+00 -0.27335546127E+02  0.27335546127E+02  0.00000000000E+00 0. -1.
         25    2    1    2    0    0  0.65824827809E+02 -0.72941742265E+02  0.37187711080E+03  0.40443880684E+03  0.12499902888E+03 0.  0.
          2    1    1    2  501    0 -0.49953114800E+02 -0.31777828828E+02  0.12265487921E+03  0.13619604795E+03  0.00000000000E+00 0. -1.
          1    1    1    2  502    0 -0.15871713009E+02  0.10471957109E+03  0.65034952432E+03  0.65891775179E+03  0.00000000000E+00 0. -1.
         22    1    3    3    0    0  0.38745851934E+02 -0.47551946988E+02  0.46553445852E+02  0.77004233813E+02  0.00000000000E+00 0.  1.
         22    1    3    3    0    0  0.27078975875E+02 -0.25389795278E+02  0.32532366495E+03  0.32743457303E+03  0.00000000000E+00 0.  1.
</event>
<event>
 7    1  0.5194496E-006  0.8877711E+02  0.7818608E-02  0.1400656E+00
          2   -1    0    0  502    0  0.00000000000E+00  0.00000000000E+00  0.14473836790E+04  0.14473836790E+04  0.00000000000E+00 0. -1.
          1   -1    0    0  501    0 -0.00000000000E+00 -0.00000000000E+00 -0.75548690593E+03  0.75548690593E+03  0.00000000000E+00 0. -1.
         25    2    1    2    0    0  0.11980060219E+03  0.44774595409E+02  0.19868195617E+03  0.26731133526E+03  0.12499552621E+03 0.  0.
          2    1    1    2  501    0 -0.83452309992E+02 -0.28926088230E+02 -0.71814229952E+03  0.72355329381E+03  0.00000000000E+00 0. -1.
          1    1    1    2  502    0 -0.36348292202E+02 -0.15848507178E+02  0.12113571164E+04  0.12120059558E+04  0.00000000000E+00 0. -1.
         22    1    3    3    0    0 -0.14623750732E+02  0.30840352041E+02  0.10656911776E+02  0.35756833865E+02  0.00000000000E+00 0. -1.
         22    1    3    3    0    0  0.13442435293E+03  0.13934243368E+02  0.18802504440E+03  0.23155450140E+03  0.00000000000E+00 0. -1.
</event>
<event>
 7    1  0.5194496E-006  0.1875869E+03  0.7818608E-02  0.1208397E+00
          2   -1    0    0  502    0  0.00000000000E+00  0.00000000000E+00  0.16506694766E+04  0.16506694766E+04  0.00000000000E+00 0. -1.
          1   -1    0    0  501    0 -0.00000000000E+00 -0.00000000000E+00 -0.65270947138E+03  0.65270947138E+03  0.00000000000E+00 0. -1.
         25    2    1    2    0    0  0.16554451613E+03  0.25772977189E+02  0.75092748929E+03  0.77947849197E+03  0.12500156836E+03 0.  0.
          2    1    1    2  501    0 -0.13499740247E+03 -0.13157693529E+03 -0.62096306848E+03  0.64894677824E+03  0.00000000000E+00 0. -1.
          1    1    1    2  502    0 -0.30547113658E+02  0.10580395810E+03  0.86799558444E+03  0.87495367781E+03  0.00000000000E+00 0. -1.
         22    1    3    3    0    0 -0.55664349677E+01 -0.25343165661E+02  0.16217590771E+03  0.16423850427E+03  0.00000000000E+00 0. -1.
         22    1    3    3    0    0  0.17111095109E+03  0.51116142849E+02  0.58875158158E+03  0.61523998769E+03  0.00000000000E+00 0. -1.
</event>
<event>
 7    1  0.5194496E-006  0.1677699E+03  0.7818608E-02  0.1282894E+00
          2   -1    0    0  502    0  0.00000000000E+00  0.00000000000E+00  0.11931080904E+04  0.11931080904E+04  0.00000000000E+00 0. -1.
          1   -1    0    0  501    0 -0.00000000000E+00 -0.00000000000E+00 -0.77924276520E+03  0.77924276520E+03  0.00000000000E+00 0. -1.
         25    2    1    2    0    0  0.36913491189E+01 -0.11744771574E+03  0.21907729628E+03  0.27825705053E+03  0.12499812970E+03 0.  0.
          2    1    1    2  501    0  0.25223197421E+02  0.16790345972E+03 -0.73912315401E+03  0.75837379851E+03  0.00000000000E+00 0. -1.
          1    1    1    2  502    0 -0.28914546540E+02 -0.50455743978E+02  0.93391118290E+03  0.93572000655E+03  0.00000000000E+00 0. -1.
         22    1    3    3    0    0 -0.12873739922E+01 -0.11522463727E+03  0.82858629517E+02  0.14192930230E+03  0.00000000000E+00 0.  1.
         22    1    3    3    0    0  0.49787231110E+01 -0.22230784786E+01  0.13621866677E+03  0.13632774823E+03  0.00000000000E+00 0.  1.
</event>
<event>
 7    1  0.5194496E-006  0.7847079E+02  0.7818608E-02  0.1374085E+00
          2   -1    0    0  502    0  0.00000000000E+00  0.00000000000E+00  0.22604834684E+04  0.22604834684E+04  0.00000000000E+00 0. -1.
          1   -1    0    0  501    0 -0.00000000000E+00 -0.00000000000E+00 -0.18949643046E+02  0.18949643046E+02  0.00000000000E+00 0. -1.
         25    2    1    2    0    0 -0.10586513775E+03  0.15098274859E+02  0.12250976403E+04  0.12360925444E+04  0.12500065936E+03 0.  0.
          2    1    1    2  501    0  0.60630272088E+02 -0.47403383992E+02  0.10486432002E+03  0.13007550239E+03  0.00000000000E+00 0. -1.
          1    1    1    2  502    0  0.45234865666E+02  0.32305109134E+02  0.91157186504E+03  0.91326506463E+03  0.00000000000E+00 0. -1.
         22    1    3    3    0    0  0.22998193033E+02 -0.87842452695E+01  0.85198172251E+02  0.88683755009E+02  0.00000000000E+00 0. -1.
         22    1    3    3    0    0 -0.12886333079E+03  0.23882520128E+02  0.11398994680E+04  0.11474087894E+04  0.00000000000E+00 0. -1.
</event>
<event>
 7    1  0.5194496E-006  0.1041992E+03  0.7818608E-02  0.1335051E+00
          2   -1    0    0  502    0  0.00000000000E+00  0.00000000000E+00  0.17790625695E+04  0.17790625695E+04  0.00000000000E+00 0. -1.
          1   -1    0    0  501    0 -0.00000000000E+00 -0.00000000000E+00 -0.23043749232E+03  0.23043749232E+03  0.00000000000E+00 0. -1.
         25    2    1    2    0    0  0.38476551336E+02  0.40599697062E+02  0.67884875627E+00  0.13694705134E+03  0.12500101452E+03 0.  0.
          2    1    1    2  501    0  0.58256118230E+02  0.14079252654E+01 -0.15538892834E+03  0.16595624910E+03  0.00000000000E+00 0. -1.
          1    1    1    2  502    0 -0.96732669565E+02 -0.42007622328E+02  0.17033351567E+04  0.17065967613E+04  0.00000000000E+00 0. -1.
         22    1    3    3    0    0 -0.39475709978E+00  0.25447466356E+02  0.59567989349E+02  0.64777115807E+02  0.00000000000E+00 0. -1.
         22    1    3    3    0    0  0.38871308435E+02  0.15152230706E+02 -0.58889140593E+02  0.72169935532E+02  0.00000000000E+00 0. -1.
</event>
<event>
 7    1  0.5194496E-006  0.6932209E+02  0.7818608E-02  0.1500065E+00
          2   -1    0    0  502    0  0.00000000000E+00  0.00000000000E+00  0.18264602643E+03  0.18264602643E+03  0.00000000000E+00 0. -1.
          1   -1    0    0  501    0 -0.00000000000E+00 -0.00000000000E+00 -0.15375760753E+04  0.15375760753E+04  0.00000000000E+00 0. -1.
         25    2    1    2    0    0 -0.15387787666E+02  0.58787296042E+02 -0.65985646141E+02  0.15385491629E+03  0.12499799832E+03 0.  0.
          2    1    1    2  501    0 -0.66627893701E+01 -0.69238063899E+02 -0.14257281315E+04  0.14274239059E+04  0.00000000000E+00 0. -1.
          1    1    1    2  502    0  0.22050577036E+02  0.10450767857E+02  0.13678372872E+03  0.13894327957E+03  0.00000000000E+00 0. -1.
         22    1    3    3    0    0  0.38258695431E+02  0.57805053422E+02 -0.66460708638E+00  0.69322389455E+02  0.00000000000E+00 0.  1.
         22    1    3    3    0    0 -0.53646483097E+02  0.98224261983E+00 -0.65321039055E+02  0.84532526831E+02  0.00000000000E+00 0.  1.
</event>
<event>
 7    1  0.5194496E-006  0.7036620E+02  0.7818608E-02  0.1382065E+00
          2   -1    0    0  502    0  0.00000000000E+00  0.00000000000E+00  0.15911147055E+04  0.15911147055E+04  0.00000000000E+00 0. -1.
          1   -1    0    0  501    0 -0.00000000000E+00 -0.00000000000E+00 -0.51842710915E+02  0.51842710915E+02  0.00000000000E+00 0. -1.
         25    2    1    2    0    0 -0.36044257227E+02  0.66958916414E+01  0.47098957202E+03  0.48867259289E+03  0.12500281055E+03 0.  0.
          2    1    1    2  501    0 -0.26817202242E+02 -0.51508920937E+02 -0.21386480049E+02  0.61884673394E+02  0.00000000000E+00 0. -1.
          1    1    1    2  502    0  0.62861459469E+02  0.44813029295E+02  0.10896689026E+04  0.10924001501E+04  0.00000000000E+00 0. -1.
         22    1    3    3    0    0 -0.56194877108E+02 -0.43613344548E+02  0.19887521740E+03  0.21121396765E+03  0.00000000000E+00 0.  1.
         22    1    3    3    0    0  0.20150619882E+02  0.50309236189E+02  0.27211435462E+03  0.27745862524E+03  0.00000000000E+00 0.  1.
</event>
<event>
 7    1  0.5194496E-006  0.5220060E+02  0.7818608E-02  0.1516796E+00
          2   -1    0    0  502    0  0.00000000000E+00  0.00000000000E+00  0.23891240359E+03  0.23891240359E+03  0.00000000000E+00 0. -1.
          1   -1    0    0  501    0 -0.00000000000E+00 -0.00000000000E+00 -0.40761334481E+03  0.40761334481E+03  0.00000000000E+00 0. -1.
         25    2    1    2    0    0 -0.54888861127E+02  0.53976564769E+02 -0.48357134129E+02  0.15456365360E+03  0.12500101589E+03 0.  0.
          2    1    1    2  501    0  0.43266071743E+02 -0.27490340681E+02 -0.30286039115E+03  0.30716785041E+03  0.00000000000E+00 0. -1.
          1    1    1    2  502    0  0.11622789385E+02 -0.26486224088E+02  0.18251658407E+03  0.18479424439E+03  0.00000000000E+00 0. -1.
         22    1    3    3    0    0  0.15639173215E+01  0.61456421877E+02 -0.70432532687E+02  0.93488391195E+02  0.00000000000E+00 0. -1.
         22    1    3    3    0    0 -0.56452778449E+02 -0.74798571082E+01  0.22075398558E+02  0.61075262410E+02  0.00000000000E+00 0. -1.
</event>
<event>
 7    1  0.5194496E-006  0.5915022E+02  0.7818608E-02  0.1505126E+00
          2   -1    0    0  502    0  0.00000000000E+00  0.00000000000E+00  0.43340160000E+02  0.43340160000E+02  0.00000000000E+00 0. -1.
          1   -1    0    0  501    0 -0.00000000000E+00 -0.00000000000E+00 -0.31194541039E+03  0.31194541039E+03  0.00000000000E+00 0. -1.
         25    2    1    2    0    0 -0.37370968024E+02  0.30332829059E+02 -0.18391210581E+03  0.22752048178E+03  0.12500094877E+03 0.  0.
          2    1    1    2  501    0  0.35624204353E+02 -0.57901561339E+02 -0.62146140014E+02  0.92107640617E+02  0.00000000000E+00 0. -1.
          1    1    1    2  502    0  0.17467636701E+01  0.27568732280E+02 -0.22547004563E+02  0.35657447996E+02  0.00000000000E+00 0. -1.
         22    1    3    3    0    0 -0.40352211571E+02 -0.13192557119E+02 -0.17859351543E+03  0.18357011820E+03  0.00000000000E+00 0.  1.
         22    1    3    3    0    0  0.29812435473E+01  0.43525386179E+02 -0.53185903844E+01  0.43950363579E+02  0.00000000000E+00 0.  1.
</event>
<event>
 7    1  0.5194496E-006  0.1565525E+03  0.7818608E-02  0.1263268E+00
          2   -1    0    0  502    0  0.00000000000E+00  0.00000000000E+00  0.20597883889E+04  0.20597883889E+04  0.00000000000E+00 0. -1.
          1   -1    0    0  501    0 -0.00000000000E+00 -0.00000000000E+00 -0.35235396953E+03  0.35235396953E+03  0.00000000000E+00 0. -1.
         25    2    1    2    0    0  0.90792251829E+02 -0.32387567297E+02 -0.14278580290E+03  0.21283477755E+03  0.12497467550E+03 0.  0.
          2    1    1    2  501    0  0.66892763151E+02  0.34518443462E+02 -0.16319886210E+03  0.17972210018E+03  0.00000000000E+00 0. -1.
          1    1    1    2  502    0 -0.15768501498E+03 -0.21308761649E+01  0.20134190844E+04  0.20195854807E+04  0.00000000000E+00 0. -1.
         22    1    3    3    0    0  0.11260213127E+03 -0.48371997833E+01 -0.13670423284E+03  0.17717416782E+03  0.00000000000E+00 0.  1.
         22    1    3    3    0    0 -0.21809879441E+02 -0.27550367513E+02 -0.60815700591E+01  0.35660609722E+02  0.00000000000E+00 0.  1.
</event>
<event>
 7    1  0.5194496E-006  0.6432478E+02  0.7818608E-02  0.1390329E+00
          2   -1    0    0  502    0  0.00000000000E+00  0.00000000000E+00  0.24883927311E+03  0.24883927311E+03  0.00000000000E+00 0. -1.
          1   -1    0    0  501    0 -0.00000000000E+00 -0.00000000000E+00 -0.53361859602E+03  0.53361859602E+03  0.00000000000E+00 0. -1.
         25    2    1    2    0    0 -0.23118714856E+02 -0.45769004467E+01  0.94387945318E+02  0.15839666811E+03  0.12499998902E+03 0.  0.
          2    1    1    2  501    0 -0.59289954621E+02  0.39659598002E+01 -0.48572914480E+03  0.48935041602E+03  0.00000000000E+00 0. -1.
          1    1    1    2  502    0  0.82408669476E+02  0.61094064649E+00  0.10656187657E+03  0.13471078499E+03  0.00000000000E+00 0. -1.
         22    1    3    3    0    0 -0.69416943203E+02  0.20889012063E+02  0.41007695920E+02  0.83286817404E+02  0.00000000000E+00 0. -1.
         22    1    3    3    0    0  0.46298228347E+02 -0.25465912509E+02  0.53380249398E+02  0.75109850711E+02  0.00000000000E+00 0. -1.
</event>
<event>
 7    1  0.5194496E-006  0.1235240E+03  0.7818608E-02  0.1312670E+00
          2   -1    0    0  502    0  0.00000000000E+00  0.00000000000E+00  0.13865927218E+03  0.13865927218E+03  0.00000000000E+00 0. -1.
          1   -1    0    0  501    0 -0.00000000000E+00 -0.00000000000E+00 -0.11405565825E+04  0.11405565825E+04  0.00000000000E+00 0. -1.
         25    2    1    2    0    0 -0.67122239236E+02  0.30200462767E+02 -0.17299855219E+03  0.22576686767E+03  0.12499886610E+03 0.  0.
          2    1    1    2  501    0 -0.54040936097E+02  0.25990470946E+02 -0.90010086502E+03  0.90209616703E+03  0.00000000000E+00 0. -1.
          1    1    1    2  502    0  0.12116317533E+03 -0.56190933713E+02  0.71202106895E+02  0.15135281998E+03  0.00000000000E+00 0. -1.
         22    1    3    3    0    0 -0.65178439912E+02 -0.20211366808E+02 -0.15958780199E+03  0.17356553495E+03  0.00000000000E+00 0.  1.
         22    1    3    3    0    0 -0.19437993240E+01  0.50411829576E+02 -0.13410750197E+02  0.52201332721E+02  0.00000000000E+00 0.  1.
</event>
<event>
 7    1  0.5194496E-006  0.1575578E+03  0.7818608E-02  0.1314368E+00
          2   -1    0    0  502    0  0.00000000000E+00  0.00000000000E+00  0.22308049716E+04  0.22308049716E+04  0.00000000000E+00 0. -1.
          1   -1    0    0  501    0 -0.00000000000E+00 -0.00000000000E+00 -0.76914132717E+02  0.76914132717E+02  0.00000000000E+00 0. -1.
         25    2    1    2    0    0 -0.42732988664E+02 -0.19200295353E+03  0.55590992697E+03  0.60278726517E+03  0.12500159066E+03 0.  0.
          2    1    1    2  501    0  0.19330511879E+02  0.42069484190E+02 -0.39242013323E+02  0.60691398066E+02  0.00000000000E+00 0. -1.
          1    1    1    2  502    0  0.23402476785E+02  0.14993346934E+03  0.16372229252E+04  0.16442404411E+04  0.00000000000E+00 0. -1.
         22    1    3    3    0    0  0.22875978705E+02 -0.52374450639E+01  0.17899459310E+02  0.29514943268E+02  0.00000000000E+00 0.  1.
         22    1    3    3    0    0 -0.65608967369E+02 -0.18676550847E+03  0.53801046766E+03  0.57327232191E+03  0.00000000000E+00 0.  1.
</event>
<event>
 7    1  0.5194496E-006  0.1026790E+03  0.7818608E-02  0.1422109E+00
          2   -1    0    0  502    0  0.00000000000E+00  0.00000000000E+00  0.30754705947E+04  0.30754705947E+04  0.00000000000E+00 0. -1.
          1   -1    0    0  501    0 -0.00000000000E+00 -0.00000000000E+00 -0.94504025135E+01  0.94504025135E+01  0.00000000000E+00 0. -1.
         25    2    1    2    0    0  0.40404094513E+01  0.92277938537E+02  0.14159449841E+04  0.14244495226E+04  0.12499880638E+03 0.  0.
          2    1    1    2  501    0 -0.25662968026E+02  0.13526296890E+02  0.59104377950E+02  0.65839776187E+02  0.00000000000E+00 0. -1.
          1    1    1    2  502    0  0.21622558574E+02 -0.10580423543E+03  0.15909708301E+04  0.15946316984E+04  0.00000000000E+00 0. -1.
         22    1    3    3    0    0  0.10804659077E+02  0.60532839675E+02  0.13453046864E+04  0.13467091983E+04  0.00000000000E+00 0. -1.
         22    1    3    3    0    0 -0.67642496258E+01  0.31745098862E+02  0.70640297679E+02  0.77740324356E+02  0.00000000000E+00 0. -1.
</event>
<event>
 7    1  0.5194496E-006  0.2033096E+03  0.7818608E-02  0.1374366E+00
          2   -1    0    0  502    0  0.00000000000E+00  0.00000000000E+00  0.84849125642E+03  0.84849125642E+03  0.00000000000E+00 0. -1.
          1   -1    0    0  501    0 -0.00000000000E+00 -0.00000000000E+00 -0.48932578918E+03  0.48932578918E+03  0.00000000000E+00 0. -1.
         25    2    1    2    0    0 -0.18897512965E+03 -0.82132233693E+00 -0.19298739032E+03  0.29762576642E+03  0.12499875927E+03 0.  0.
          2    1    1    2  501    0 -0.14450619711E+02 -0.15790678865E+02 -0.23043434328E+03  0.23142634360E+03  0.00000000000E+00 0. -1.
          1    1    1    2  502    0  0.20342574936E+03  0.16612001202E+02  0.78258720084E+03  0.80876493557E+03  0.00000000000E+00 0. -1.
         22    1    3    3    0    0 -0.51035455269E+02  0.54301853570E+02 -0.90117113938E+02  0.11693760396E+03  0.00000000000E+00 0. -1.
         22    1    3    3    0    0 -0.13793967438E+03 -0.55123175907E+02 -0.10287027638E+03  0.18068816246E+03  0.00000000000E+00 0. -1.
</event>
<event>
 7    1  0.5194496E-006  0.4554907E+02  0.7818608E-02  0.1477817E+00
          2   -1    0    0  502    0  0.00000000000E+00  0.00000000000E+00  0.12070000089E+04  0.12070000089E+04  0.00000000000E+00 0. -1.
          1   -1    0    0  501    0 -0.00000000000E+00 -0.00000000000E+00 -0.98667603132E+02  0.98667603132E+02  0.00000000000E+00 0. -1.
         25    2    1    2    0    0  0.47792113769E+02  0.19683699595E+01  0.23206911899E+03  0.26789870293E+03  0.12500271368E+03 0.  0.
          2    1    1    2  501    0 -0.19797873511E+02 -0.38591729539E+02 -0.74329542765E+02  0.86059039688E+02  0.00000000000E+00 0. -1.
          1    1    1    2  502    0 -0.27994240258E+02  0.36623359579E+02  0.95059282952E+03  0.95170986939E+03  0.00000000000E+00 0. -1.
         22    1    3    3    0    0  0.53741675188E+02  0.57086737343E+02  0.13610039136E+03  0.15706807365E+03  0.00000000000E+00 0.  1.
         22    1    3    3    0    0 -0.59495614193E+01 -0.55118367384E+02  0.95968727626E+02  0.11083062928E+03  0.00000000000E+00 0.  1.
</event>
<event>
 7    1  0.5194496E-006  0.5554337E+02  0.7818608E-02  0.1435268E+00
          2   -1    0    0  502    0  0.00000000000E+00  0.00000000000E+00  0.21340668292E+04  0.21340668292E+04  0.00000000000E+00 0. -1.
          1   -1    0    0  501    0 -0.00000000000E+00 -0.00000000000E+00 -0.57265420854E+03  0.57265420854E+03  0.00000000000E+00 0. -1.
         25    2    1    2    0    0  0.78236934133E+02 -0.20048136032E+02  0.43964748487E+02  0.15518022270E+03  0.12500022715E+03 0.  0.
          2    1    1    2  501    0 -0.26681773723E+02  0.40533591624E+02 -0.51552862408E+03  0.51780754276E+03  0.00000000000E+00 0. -1.
          1    1    1    2  502    0 -0.51555160410E+02 -0.20485455592E+02  0.20329764962E+04  0.20337332723E+04  0.00000000000E+00 0. -1.
         22    1    3    3    0    0  0.10981325554E+03 -0.14064977429E+01  0.20705463720E+02  0.11175708280E+03  0.00000000000E+00 0. -1.
         22    1    3    3    0    0 -0.31576321403E+02 -0.18641638289E+02  0.23259284768E+02  0.43423139907E+02  0.00000000000E+00 0. -1.
</event>
<event>
 7    1  0.5194496E-006  0.6319282E+02  0.7818608E-02  0.1388559E+00
          2   -1    0    0  502    0  0.00000000000E+00  0.00000000000E+00  0.35474418950E+03  0.35474418950E+03  0.00000000000E+00 0. -1.
          1   -1    0    0  501    0 -0.00000000000E+00 -0.00000000000E+00 -0.15083523865E+03  0.15083523865E+03  0.00000000000E+00 0. -1.
         25    2    1    2    0    0 -0.38115270869E+02 -0.67529760148E+02 -0.34649015396E+02  0.15112715118E+03  0.12500327667E+03 0.  0.
          2    1    1    2  501    0 -0.24421576327E+02  0.58448196164E+02 -0.35901699448E+02  0.72811654620E+02  0.00000000000E+00 0. -1.
          1    1    1    2  502    0  0.62536847197E+02  0.90815639838E+01  0.27445966570E+03  0.28164062235E+03  0.00000000000E+00 0. -1.
         22    1    3    3    0    0  0.21097427549E+02 -0.67207125442E+02 -0.54080757704E+02  0.88806686196E+02  0.00000000000E+00 0.  1.
         22    1    3    3    0    0 -0.59212698419E+02 -0.32263470628E+00  0.19431742308E+02  0.62320464988E+02  0.00000000000E+00 0.  1.
</event>
<event>
 7    1  0.5194496E-006  0.5855298E+02  0.7818608E-02  0.1496326E+00
          2   -1    0    0  502    0  0.00000000000E+00  0.00000000000E+00  0.48470709056E+03  0.48470709056E+03  0.00000000000E+00 0. -1.
          1   -1    0    0  501    0 -0.00000000000E+00 -0.00000000000E+00 -0.11146030614E+04  0.11146030614E+04  0.00000000000E+00 0. -1.
         25    2    1    2    0    0  0.17675381635E+02  0.28047910288E+02 -0.36893028526E+03  0.39093801039E+03  0.12499547271E+03 0.  0.
          2    1    1    2  501    0 -0.41862333678E+02 -0.45186478997E+02 -0.73291191650E+03  0.73549585329E+03  0.00000000000E+00 0. -1.
          1    1    1    2  502    0  0.24186952043E+02  0.17138568709E+02  0.47194623089E+03  0.47287628830E+03  0.00000000000E+00 0. -1.
         22    1    3    3    0    0 -0.36402625989E+02  0.15248041297E+02 -0.29910523994E+03  0.30169785963E+03  0.00000000000E+00 0. -1.
         22    1    3    3    0    0  0.54078007624E+02  0.12799868991E+02 -0.69825045320E+02  0.89240150766E+02  0.00000000000E+00 0. -1.
</event>
<event>
 7    1  0.5194496E-006  0.1169357E+03  0.7818608E-02  0.1331735E+00
          2   -1    0    0  502    0  0.00000000000E+00  0.00000000000E+00  0.93447821601E+03  0.93447821601E+03  0.00000000000E+00 0. -1.
          1   -1    0    0  501    0 -0.00000000000E+00 -0.00000000000E+00 -0.60750901984E+03  0.60750901984E+03  0.00000000000E+00 0. -1.
         25    2    1    2    0    0 -0.26041242520E+02  0.63752652184E+02  0.10046954000E+03  0.17453637100E+03  0.12500507735E+03 0.  0.
          2    1    1    2  501    0  0.66061093842E+02 -0.99190466219E+02 -0.56333821861E+03  0.57580618723E+03  0.00000000000E+00 0. -1.
          1    1    1    2  502    0 -0.40019851322E+02  0.35437814035E+02  0.78983787478E+03  0.79164467762E+03  0.00000000000E+00 0. -1.
         22    1    3    3    0    0 -0.30599969358E+02  0.89542571834E+02  0.29859954897E+02  0.99226242506E+02  0.00000000000E+00 0. -1.
         22    1    3    3    0    0  0.45587268375E+01 -0.25789919650E+02  0.70609585102E+02  0.75310128497E+02  0.00000000000E+00 0. -1.
</event>
<event>
 7    1  0.5194496E-006  0.5607899E+02  0.7818608E-02  0.1546374E+00
          2   -1    0    0  502    0  0.00000000000E+00  0.00000000000E+00  0.18630423679E+04  0.18630423679E+04  0.00000000000E+00 0. -1.
          1   -1    0    0  501    0 -0.00000000000E+00 -0.00000000000E+00 -0.42700875105E+03  0.42700875105E+03  0.00000000000E+00 0. -1.
         25    2    1    2    0    0 -0.63360439991E+02  0.35015649015E+02 -0.14645854050E+03  0.20570682876E+03  0.12499821711E+03 0.  0.
          2    1    1    2  501    0  0.21984113141E+02  0.27857532071E+01 -0.25000757479E+03  0.25098774692E+03  0.00000000000E+00 0. -1.
          1    1    1    2  502    0  0.41376326850E+02 -0.37801402222E+02  0.18324997322E+04  0.18333565433E+04  0.00000000000E+00 0. -1.
         22    1    3    3    0    0 -0.54398183132E+02 -0.40195142120E+02 -0.81612950666E+02  0.10599757306E+03  0.00000000000E+00 0.  1.
         22    1    3    3    0    0 -0.89622568593E+01  0.75210791135E+02 -0.64845589833E+02  0.99709255699E+02  0.00000000000E+00 0.  1.
</event>
<event>
 7    1  0.5194496E-006  0.6879791E+02  0.7818608E-02  0.1512669E+00
          2   -1    0    0  502    0  0.00000000000E+00  0.00000000000E+00  0.14984131254E+04  0.14984131254E+04  0.00000000000E+00 0. -1.
          1   -1    0    0  501    0 -0.00000000000E+00 -0.00000000000E+00 -0.94950945703E+03  0.94950945703E+03  0.00000000000E+00 0. -1.
         25    2    1    2    0    0 -0.54181075637E+02  0.35793796160E+02  0.32639137031E+03  0.35549084121E+03  0.12500250705E+03 0.  0.
          2    1    1    2  501    0  0.66689610246E+02 -0.17013282781E+02 -0.93358285679E+03  0.93611639575E+03  0.00000000000E+00 0. -1.
          1    1    1    2  502    0 -0.12508534609E+02 -0.18780513379E+02  0.11560951549E+04  0.11563153455E+04  0.00000000000E+00 0. -1.
         22    1    3    3    0    0 -0.29595804755E+02  0.27507475685E+02  0.32705184923E+03  0.32953829059E+03  0.00000000000E+00 0. -1.
         22    1    3    3    0    0 -0.24585270882E+02  0.82863204747E+01 -0.66047891792E+00  0.25952550622E+02  0.00000000000E+00 0. -1.
</event>
<event>
 7    1  0.5194496E-006  0.8639764E+02  0.7818608E-02  0.1423702E+00
          2   -1    0    0  502    0  0.00000000000E+00  0.00000000000E+00  0.72889266902E+03  0.72889266902E+03  0.00000000000E+00 0. -1.
          1   -1    0    0  501    0 -0.00000000000E+00 -0.00000000000E+00 -0.51087079440E+03  0.51087079440E+03  0.00000000000E+00 0. -1.
         25    2    1    2    0    0 -0.93927095732E+02 -0.68229680758E+01 -0.11881190861E+03  0.19649428853E+03  0.12499953436E+03 0.  0.
          2    1    1    2  501    0  0.15863615734E+02 -0.30138038601E+02 -0.34968441625E+03  0.35133907645E+03  0.00000000000E+00 0. -1.
          1    1    1    2  502    0  0.78063479997E+02  0.36961006677E+02  0.68651819948E+03  0.69193009845E+03  0.00000000000E+00 0. -1.
         22    1    3    3    0    0 -0.33804130472E+02 -0.62849711023E+02 -0.74348135106E+02  0.10305557048E+03  0.00000000000E+00 0.  1.
         22    1    3    3    0    0 -0.60122965259E+02  0.56026742948E+02 -0.44463773504E+02  0.93438718051E+02  0.00000000000E+00 0.  1.
</event>
<event>
 7    1  0.5194496E-006  0.1438420E+03  0.7818608E-02  0.1296769E+00
          2   -1    0    0  502    0  0.00000000000E+00  0.00000000000E+00  0.91084107811E+03  0.91084107811E+03  0.00000000000E+00 0. -1.
          1   -1    0    0  501    0 -0.00000000000E+00 -0.00000000000E+00 -0.48729591989E+03  0.48729591989E+03  0.00000000000E+00 0. -1.
         25    2    1    2    0    0  0.15208436309E+03 -0.92032644695E+02  0.58016739087E+02  0.22489621850E+03  0.12495081390E+03 0.  0.
          2    1    1    2  501    0 -0.14542346108E+02  0.57757623811E+02 -0.39507624002E+03  0.39954055910E+03  0.00000000000E+00 0. -1.
          1    1    1    2  502    0 -0.13754201699E+03  0.34275020883E+02  0.76060465916E+03  0.77370022038E+03  0.00000000000E+00 0. -1.
         22    1    3    3    0    0  0.15445409748E+03 -0.35351989033E+02  0.28656512827E+02  0.16101871657E+03  0.00000000000E+00 0. -1.
         22    1    3    3    0    0 -0.23697343892E+01 -0.56680655661E+02  0.29360226260E+02  0.63877501934E+02  0.00000000000E+00 0. -1.
</event>
<event>
 7    1  0.5194496E-006  0.5927766E+02  0.7818608E-02  0.1444758E+00
          2   -1    0    0  502    0  0.00000000000E+00  0.00000000000E+00  0.12102398047E+04  0.12102398047E+04  0.00000000000E+00 0. -1.
          1   -1    0    0  501    0 -0.00000000000E+00 -0.00000000000E+00 -0.47216235071E+03  0.47216235071E+03  0.00000000000E+00 0. -1.
         25    2    1    2    0    0  0.30264993809E+02 -0.14278180868E+02  0.25041196384E+03  0.28186760340E+03  0.12499343147E+03 0.  0.
          2    1    1    2  501    0  0.28835422415E+02  0.31026687344E+02 -0.45444943996E+03  0.45641913894E+03  0.00000000000E+00 0. -1.
          1    1    1    2  502    0 -0.59100416224E+02 -0.16748506476E+02  0.94211493011E+03  0.94411541307E+03  0.00000000000E+00 0. -1.
         22    1    3    3    0    0  0.38292936212E+02  0.49257870170E+02  0.15363028062E+03  0.16581601207E+03  0.00000000000E+00 0. -1.
         22    1    3    3    0    0 -0.80279424023E+01 -0.63536051037E+02  0.96781683229E+02  0.11605159133E+03  0.00000000000E+00 0. -1.
</event>
<event>
 7    1  0.5194496E-006  0.7399997E+02  0.7818608E-02  0.1370068E+00
          2   -1    0    0  502    0  0.00000000000E+00  0.00000000000E+00  0.26565752830E+03  0.26565752830E+03  0.00000000000E+00 0. -1.
          1   -1    0    0  501    0 -0.00000000000E+00 -0.00000000000E+00 -0.25815749363E+03  0.25815749363E+03  0.00000000000E+00 0. -1.
         25    2    1    2    0    0  0.33079379724E+02  0.94038402370E+01  0.90811800698E+02  0.15829855409E+03  0.12501588502E+03 0.  0.
          2    1    1    2  501    0  0.45924480232E+02  0.40043918056E+02 -0.20407098545E+03  0.21297309774E+03  0.00000000000E+00 0. -1.
          1    1    1    2  502    0 -0.79003859956E+02 -0.49447758293E+02  0.12075921941E+03  0.15254337010E+03  0.00000000000E+00 0. -1.
         22    1    3    3    0    0  0.54055170110E+02 -0.27261232681E+02  0.98252976503E+02  0.11540703451E+03  0.00000000000E+00 0.  1.
         22    1    3    3    0    0 -0.20975790387E+02  0.36665072918E+02 -0.74411758052E+01  0.42891519579E+02  0.00000000000E+00 0.  1.
</event>
<event>
 7    1  0.5194496E-006  0.1689924E+03  0.7818608E-02  0.1320099E+00
          2   -1    0    0  502    0  0.00000000000E+00  0.00000000000E+00  0.38207746184E+03  0.38207746184E+03  0.00000000000E+00 0. -1.
          1   -1    0    0  501    0 -0.00000000000E+00 -0.00000000000E+00 -0.56034005971E+03  0.56034005971E+03  0.00000000000E+00 0. -1.
         25    2    1    2    0    0  0.50343831721E+02  0.12201777804E+03  0.10646130184E+03  0.21067209745E+03  0.12500353718E+03 0.  0.
          2    1    1    2  501    0 -0.72879338613E+02 -0.15627120841E+03 -0.49153873606E+03  0.52090538260E+03  0.00000000000E+00 0. -1.
          1    1    1    2  502    0  0.22535506892E+02  0.34253430377E+02  0.20681483635E+03  0.21084004150E+03  0.00000000000E+00 0. -1.
         22    1    3    3    0    0 -0.15387820797E+01  0.15241276790E+02  0.89441915458E+02  0.90744259374E+02  0.00000000000E+00 0. -1.
         22    1    3    3    0    0  0.51882613801E+02  0.10677650125E+03  0.17019386378E+02  0.11992783808E+03  0.00000000000E+00 0. -1.
</event>
<event>
 7    1  0.5194496E-006  0.9521224E+02  0.7818608E-02  0.1340062E+00
          2   -1    0    0  502    0  0.00000000000E+00  0.00000000000E+00  0.20775349664E+04  0.20775349664E+04  0.00000000000E+00 0. -1.
          1   -1    0    0  501    0 -0.00000000000E+00 -0.00000000000E+00 -0.28367413378E+02  0.28367413378E+02  0.00000000000E+00 0. -1.
         25    2    1    2    0    0 -0.45876578175E+02  0.22263699218E+02  0.71234282822E+03  0.72502212324E+03  0.12499776612E+03 0.  0.
          2    1    1    2  501    0 -0.57480460070E+02  0.20582752721E+02  0.27805313891E+02  0.67087916050E+02  0.00000000000E+00 0. -1.
          1    1    1    2  502    0  0.10335703824E+03 -0.42846451938E+02  0.13090194109E+04  0.13137923405E+04  0.00000000000E+00 0. -1.
         22    1    3    3    0    0 -0.84246221010E+02  0.77621960084E+01  0.33753118237E+03  0.34797266633E+03  0.00000000000E+00 0.  1.
         22    1    3    3    0    0  0.38369642835E+02  0.14501503209E+02  0.37481164585E+03  0.37704945690E+03  0.00000000000E+00 0.  1.
</event>
<event>
 7    1  0.5194496E-006  0.5794521E+02  0.7818608E-02  0.1466947E+00
          2   -1    0    0  502    0  0.00000000000E+00  0.00000000000E+00  0.93842483367E+03  0.93842483367E+03  0.00000000000E+00 0. -1.
          1   -1    0    0  501    0 -0.00000000000E+00 -0.00000000000E+00 -0.24482777934E+04  0.24482777934E+04  0.00000000000E+00 0. -1.
         25    2    1    2    0    0  0.25410340806E+02 -0.72656328290E+02  0.84380919338E+02  0.16932116744E+03  0.12499956294E+03 0.  0.
          2    1    1    2  501    0  0.81043254077E+01  0.57346607355E+02 -0.24050406587E+04  0.24057379083E+04  0.00000000000E+00 0. -1.
          1    1    1    2  502    0 -0.33514666213E+02  0.15309720935E+02  0.81080677966E+03  0.81164355129E+03  0.00000000000E+00 0. -1.
         22    1    3    3    0    0  0.62750538371E+01 -0.10311992955E+03  0.84309691043E+02  0.13334624170E+03  0.00000000000E+00 0. -1.
         22    1    3    3    0    0  0.19135286969E+02  0.30463601259E+02  0.71228294824E-01  0.35974925747E+02  0.00000000000E+00 0. -1.
</event>
<event>
 7    1  0.5194496E-006  0.1484387E+03  0.7818608E-02  0.1212060E+00
          2   -1    0    0  502    0  0.00000000000E+00  0.00000000000E+00  0.28198097075E+04  0.28198097075E+04  0.00000000000E+00 0. -1.
          1   -1    0    0  501    0 -0.00000000000E+00 -0.00000000000E+00 -0.24989107323E+03  0.24989107323E+03  0.00000000000E+00 0. -1.
         25    2    1    2    0    0 -0.26888086252E+03  0.66535828526E+02  0.56369426249E+03  0.64039260497E+03  0.12501012849E+03 0.  0.
          2    1    1    2  501    0  0.13967278760E+03 -0.31653412686E+02 -0.18502486054E+03  0.23397569350E+03  0.00000000000E+00 0. -1.
          1    1    1    2  502    0  0.12920807492E+03 -0.34882415840E+02  0.21912492323E+04  0.21953324823E+04  0.00000000000E+00 0. -1.
         22    1    3    3    0    0 -0.27542155633E+03  0.70370218471E+02  0.56520154647E+03  0.63266246093E+03  0.00000000000E+00 0. -1.
         22    1    3    3    0    0  0.65406938102E+01 -0.38343899451E+01 -0.15072839836E+01  0.77301440334E+01  0.00000000000E+00 0. -1.
</event>
<event>
 7    1  0.5194496E-006  0.7774516E+02  0.7818608E-02  0.1457072E+00
          2   -1    0    0  502    0  0.00000000000E+00  0.00000000000E+00  0.29532212245E+03  0.29532212245E+03  0.00000000000E+00 0. -1.
          1   -1    0    0  501    0 -0.00000000000E+00 -0.00000000000E+00 -0.12445254829E+04  0.12445254829E+04  0.00000000000E+00 0. -1.
         25    2    1    2    0    0 -0.67894037337E+02  0.38202467965E+02 -0.16829761568E+03  0.22364422028E+03  0.12499448370E+03 0.  0.
          2    1    1    2  501    0  0.19075731909E+02  0.22500461569E+02 -0.10426736079E+04  0.10430907952E+04  0.00000000000E+00 0. -1.
          1    1    1    2  502    0  0.48818305428E+02 -0.60702929534E+02  0.26176786313E+03  0.27311258991E+03  0.00000000000E+00 0. -1.
         22    1    3    3    0    0 -0.14591530727E+02  0.23783059651E+02  0.15369962201E+02  0.31855649945E+02  0.00000000000E+00 0. -1.
         22    1    3    3    0    0 -0.53302506610E+02  0.14419408313E+02 -0.18366757788E+03  0.19178857033E+03  0.00000000000E+00 0. -1.
</event>
<event>
 7    1  0.5194496E-006  0.1840539E+03  0.7818608E-02  0.1216041E+00
          2   -1    0    0  502    0  0.00000000000E+00  0.00000000000E+00  0.61708027514E+03  0.61708027514E+03  0.00000000000E+00 0. -1.
          1   -1    0    0  501    0 -0.00000000000E+00 -0.00000000000E+00 -0.15492635762E+04  0.15492635762E+04  0.00000000000E+00 0. -1.
         25    2    1    2    0    0  0.12024897474E+03  0.17292776268E+03 -0.28441278462E+03  0.37534139053E+03  0.12500680124E+03 0.  0.
          2    1    1    2  501    0 -0.17240879155E+02 -0.18274532488E+03 -0.12077114238E+04  0.12215809367E+04  0.00000000000E+00 0. -1.
          1    1    1    2  502    0 -0.10300809558E+03  0.98175622018E+01  0.55994090742E+03  0.56942152408E+03  0.00000000000E+00 0. -1.
         22    1    3    3    0    0  0.67611148316E+01  0.61844977775E+02 -0.16592340576E+03  0.17720352854E+03  0.00000000000E+00 0. -1.
         22    1    3    3    0    0  0.11348785991E+03  0.11108278491E+03 -0.11848937886E+03  0.19813786198E+03  0.00000000000E+00 0. -1.
</event>
<event>
 7    1  0.5194496E-006  0.4769473E+02  0.7818608E-02  0.1522916E+00
          2   -1    0    0  502    0  0.00000000000E+00  0.00000000000E+00  0.58531082985E+03  0.58531082985E+03  0.00000000000E+00 0. -1.
          1   -1    0    0  501    0 -0.00000000000E+00 -0.00000000000E+00 -0.21234960152E+03  0.21234960152E+03  0.00000000000E+00 0. -1.
         25    2    1    2    0    0  0.41227622056E+02 -0.63533429430E+02 -0.37244694511E+02  0.15082607212E+03  0.12500049314E+03 0.  0.
          2    1    1    2  501    0 -0.23094443302E+02  0.19748983284E+02 -0.11527904431E+03  0.11921675096E+03  0.00000000000E+00 0. -1.
          1    1    1    2  502    0 -0.18133178754E+02  0.43784446146E+02  0.52548496715E+03  0.52761760830E+03  0.00000000000E+00 0. -1.
         22    1    3    3    0    0 -0.16339968202E+01 -0.92557694980E+02 -0.12368297418E+02  0.93394708772E+02  0.00000000000E+00 0.  1.
         22    1    3    3    0    0  0.42861618876E+02  0.29024265550E+02 -0.24876397093E+02  0.57431363345E+02  0.00000000000E+00 0.  1.
</event>
<event>
 7    1  0.5194496E-006  0.5773921E+02  0.7818608E-02  0.1426659E+00
          2   -1    0    0  502    0  0.00000000000E+00  0.00000000000E+00  0.38493594338E+02  0.38493594338E+02  0.00000000000E+00 0. -1.
          1   -1    0    0  501    0 -0.00000000000E+00 -0.00000000000E+00 -0.12306423776E+04  0.12306423776E+04  0.00000000000E+00 0. -1.
         25    2    1    2    0    0  0.86713676856E+02 -0.32234735768E+02 -0.32225183698E+03  0.35781217054E+03  0.12499985202E+03 0.  0.
          2    1    1    2  501    0 -0.32214180564E+02  0.38010891952E+02 -0.85231174973E+03  0.85376688859E+03  0.00000000000E+00 0. -1.
          1    1    1    2  502    0 -0.54499496292E+02 -0.57761561842E+01 -0.17585196586E+02  0.57556912837E+02  0.00000000000E+00 0. -1.
         22    1    3    3    0    0  0.93989958885E+02 -0.49117207839E+02 -0.14517866518E+03  0.17978725567E+03  0.00000000000E+00 0. -1.
         22    1    3    3    0    0 -0.72762820292E+01  0.16882472071E+02 -0.17707317180E+03  0.17802491487E+03  0.00000000000E+00 0. -1.
</event>
<event>
 7    1  0.5615142E-006  0.1195511E+03  0.7818608E-02  0.1317010E+00
          2   -1    0    0  502    0  0.00000000000E+00  0.00000000000E+00  0.49708152417E+03  0.49708152417E+03  0.00000000000E+00 0. -1.
          1   -1    0    0  501    0 -0.00000000000E+00 -0.00000000000E+00 -0.23381648146E+04  0.23381648146E+04  0.00000000000E+00 0. -1.
         25    2    1    2    0    0 -0.76163399985E+02 -0.22627901213E+02 -0.36514715550E+03  0.39404312086E+03  0.12499860206E+03 0.  0.
          2    1    1    2  501    0  0.99110211183E+02  0.77615863359E+02 -0.19546982462E+04  0.19587476330E+04  0.00000000000E+00 0. -1.
          1    1    1    2  502    0 -0.22946811199E+02 -0.54987962147E+02  0.47876211130E+03  0.48245558484E+03  0.00000000000E+00 0. -1.
         22    1    3    3    0    0 -0.80040143600E+02  0.26936925917E+02 -0.14022575480E+03  0.16369265370E+03  0.00000000000E+00 0. -1.
         22    1    3    3    0    0  0.38767436151E+01 -0.49564827130E+02 -0.22492140070E+03  0.23035046716E+03  0.00000000000E+00 0. -1.
</event>
<event>
 7    1  0.5194496E-006  0.1457147E+03  0.7818608E-02  0.1254229E+00
          2   -1    0    0  502    0  0.00000000000E+00  0.00000000000E+00  0.32249494349E+03  0.32249494349E+03  0.00000000000E+00 0. -1.
          1   -1    0    0  501    0 -0.00000000000E+00 -0.00000000000E+00 -0.22135499177E+04  0.22135499177E+04  0.00000000000E+00 0. -1.
         25    2    1    2    0    0  0.90629372673E+02  0.73271590912E+02 -0.52708023130E+03  0.55409540189E+03  0.12500293975E+03 0.  0.
          2    1    1    2  501    0  0.56680159941E+02 -0.67839743467E+02 -0.16541331113E+04  0.16564936526E+04  0.00000000000E+00 0. -1.
          1    1    1    2  502    0 -0.14730953261E+03 -0.54318474446E+01  0.29015836837E+03  0.32545580668E+03  0.00000000000E+00 0. -1.
         22    1    3    3    0    0  0.46449576286E+02 -0.30140640591E+02 -0.12776409497E+03  0.13924685029E+03  0.00000000000E+00 0. -1.
         22    1    3    3    0    0  0.44179796386E+02  0.10341223150E+03 -0.39931613633E+03  0.41484855160E+03  0.00000000000E+00 0. -1.
</event>
<event>
 7    1  0.5194496E-006  0.9146164E+02  0.7818608E-02  0.1436502E+00
          2   -1    0    0  502    0  0.00000000000E+00  0.00000000000E+00  0.21140166310E+04  0.21140166310E+04  0.00000000000E+00 0. -1.
          1   -1    0    0  501    0 -0.00000000000E+00 -0.00000000000E+00 -0.67785269681E+03  0.67785269681E+03  0.00000000000E+00 0. -1.
         25    2    1    2    0    0 -0.65619583706E+02  0.13315913350E+02 -0.11862684885E+03  0.18488001382E+03  0.12500018771E+03 0.  0.
          2    1    1    2  501    0  0.89980245998E+02 -0.29411604123E+02 -0.52173734451E+03  0.53025592291E+03  0.00000000000E+00 0. -1.
          1    1    1    2  502    0 -0.24360662292E+02  0.16095690773E+02  0.20765281275E+04  0.20767333910E+04  0.00000000000E+00 0. -1.
         22    1    3    3    0    0 -0.16634562015E+02  0.31994196390E+02 -0.12679428227E+03  0.13182233222E+03  0.00000000000E+00 0. -1.
         22    1    3    3    0    0 -0.48985021691E+02 -0.18678283040E+02  0.81674334258E+01  0.53057681595E+02  0.00000000000E+00 0. -1.
</event>
<event>
 7    1  0.5194496E-006  0.8163451E+02  0.7818608E-02  0.1351906E+00
          2   -1    0    0  502    0  0.00000000000E+00  0.00000000000E+00  0.38560102423E+03  0.38560102423E+03  0.00000000000E+00 0. -1.
          1   -1    0    0  501    0 -0.00000000000E+00 -0.00000000000E+00 -0.36343525124E+03  0.36343525124E+03  0.00000000000E+00 0. -1.
         25    2    1    2    0    0  0.96002191587E+02 -0.91221981111E+02  0.17392041784E+03  0.25182924557E+03  0.12502714328E+03 0.  0.
          2    1    1    2  501    0 -0.34325793374E+02  0.72952466733E+02 -0.31320419171E+03  0.32341488556E+03  0.00000000000E+00 0. -1.
          1    1    1    2  502    0 -0.61676398213E+02  0.18269514378E+02  0.16144954686E+03  0.17379214434E+03  0.00000000000E+00 0. -1.
         22    1    3    3    0    0  0.93583188180E+02 -0.54162511437E+01  0.11163916205E+03  0.14577534562E+03  0.00000000000E+00 0.  1.
         22    1    3    3    0    0  0.24190034066E+01 -0.85805729967E+02  0.62281255787E+02  0.10605389995E+03  0.00000000000E+00 0.  1.
</event>
<event>
 7    1  0.5194496E-006  0.1055140E+03  0.7818608E-02  0.1396878E+00
          2   -1    0    0  502    0  0.00000000000E+00  0.00000000000E+00  0.56628629588E+03  0.56628629588E+03  0.00000000000E+00 0. -1.
          1   -1    0    0  501    0 -0.00000000000E+00 -0.00000000000E+00 -0.14009195291E+04  0.14009195291E+04  0.00000000000E+00 0. -1.
         25    2    1    2    0    0  0.75345588849E+02 -0.47844996269E+02  0.10870832595E+03  0.18817148442E+03  0.12499962396E+03 0.  0.
          2    1    1    2  501    0 -0.35849536400E+01 -0.34190930436E+02 -0.13538584647E+04  0.13542948771E+04  0.00000000000E+00 0. -1.
          1    1    1    2  502    0 -0.71760635209E+02  0.82035926705E+02  0.41051690558E+03  0.42473946344E+03  0.00000000000E+00 0. -1.
         22    1    3    3    0    0  0.10678607080E+02 -0.70433823195E+02  0.16189783706E+02  0.73055220179E+02  0.00000000000E+00 0.  1.
         22    1    3    3    0    0  0.64666981769E+02  0.22588826925E+02  0.92518542245E+02  0.11511626424E+03  0.00000000000E+00 0.  1.
</event>
<event>
 7    1  0.5194496E-006  0.1378242E+03  0.7818608E-02  0.1269092E+00
          2   -1    0    0  502    0  0.00000000000E+00  0.00000000000E+00  0.36184282585E+03  0.36184282585E+03  0.00000000000E+00 0. -1.
          1   -1    0    0  501    0 -0.00000000000E+00 -0.00000000000E+00 -0.28806531239E+03  0.28806531239E+03  0.00000000000E+00 0. -1.
         25    2    1    2    0    0 -0.69826656047E+02  0.19804308390E+02  0.95704907195E+02  0.17335541737E+03  0.12499879577E+03 0.  0.
          2    1    1    2  501    0  0.14928311114E+03 -0.51717911703E+01 -0.21812661452E+03  0.26436984445E+03  0.00000000000E+00 0. -1.
          1    1    1    2  502    0 -0.79456455090E+02 -0.14632517220E+02  0.19619922078E+03  0.21218287643E+03  0.00000000000E+00 0. -1.
         22    1    3    3    0    0 -0.23705798822E+01  0.11794707928E+02 -0.28973748851E+02  0.31372167706E+02  0.00000000000E+00 0. -1.
         22    1    3    3    0    0 -0.67456076165E+02  0.80096004622E+01  0.12467865605E+03  0.14198324966E+03  0.00000000000E+00 0. -1.
</event>
<event>
 7    1  0.5194496E-006  0.2939405E+02  0.7818608E-02  0.1613702E+00
          2   -1    0    0  502    0  0.00000000000E+00  0.00000000000E+00  0.21725016310E+03  0.21725016310E+03  0.00000000000E+00 0. -1.
          1   -1    0    0  501    0 -0.00000000000E+00 -0.00000000000E+00 -0.11594004672E+04  0.11594004672E+04  0.00000000000E+00 0. -1.
         25    2    1    2    0    0  0.25011010873E+02 -0.47244270422E+02 -0.17641003469E+03  0.22271747946E+03  0.12500001426E+03 0.  0.
          2    1    1    2  501    0 -0.21114930032E+02  0.18225754321E+02 -0.95852851826E+03  0.95893427237E+03  0.00000000000E+00 0. -1.
          1    1    1    2  502    0 -0.38960808412E+01  0.29018516101E+02  0.19278824884E+03  0.19499887849E+03  0.00000000000E+00 0. -1.
         22    1    3    3    0    0 -0.48058643645E+02 -0.19636320075E+02 -0.40045206633E+02  0.65565515855E+02  0.00000000000E+00 0. -1.
         22    1    3    3    0    0  0.73069654518E+02 -0.27607950347E+02 -0.13636482805E+03  0.15715196360E+03  0.00000000000E+00 0. -1.
</event>
<event>
 7    1  0.5194496E-006  0.9412251E+02  0.7818608E-02  0.1316134E+00
          2   -1    0    0  502    0  0.00000000000E+00  0.00000000000E+00  0.27659894670E+03  0.27659894670E+03  0.00000000000E+00 0. -1.
          1   -1    0    0  501    0 -0.00000000000E+00 -0.00000000000E+00 -0.12476042195E+04  0.12476042195E+04  0.00000000000E+00 0. -1.
         25    2    1    2    0    0  0.12979035785E+03 -0.10012252493E+03 -0.39074337224E+03  0.44178618702E+03  0.12499838040E+03 0.  0.
          2    1    1    2  501    0 -0.67610312275E+02  0.55939788712E+02 -0.82315955338E+03  0.82782369174E+03  0.00000000000E+00 0. -1.
          1    1    1    2  502    0 -0.62180045574E+02  0.44182736220E+02  0.24289765283E+03  0.25459328742E+03  0.00000000000E+00 0. -1.
         22    1    3    3    0    0 -0.16721805184E+02 -0.21802363850E+02 -0.15823431336E+02  0.31707141424E+02  0.00000000000E+00 0. -1.
         22    1    3    3    0    0  0.14651216303E+03 -0.78320161082E+02 -0.37491994090E+03  0.41007904560E+03  0.00000000000E+00 0. -1.
</event>
<event>
 7    1  0.5194496E-006  0.7965807E+02  0.7818608E-02  0.1343148E+00
          2   -1    0    0  502    0  0.00000000000E+00  0.00000000000E+00  0.11028821187E+04  0.11028821187E+04  0.00000000000E+00 0. -1.
          1   -1    0    0  501    0 -0.00000000000E+00 -0.00000000000E+00 -0.32873634278E+03  0.32873634278E+03  0.00000000000E+00 0. -1.
         25    2    1    2    0    0  0.12843116708E+03  0.66646942710E+02  0.90024043823E+02  0.21134467395E+03  0.12500345231E+03 0.  0.
          2    1    1    2  501    0 -0.52759112267E+02 -0.47595566124E+02 -0.26173249485E+03  0.27120612216E+03  0.00000000000E+00 0. -1.
          1    1    1    2  502    0 -0.75672054815E+02 -0.19051376586E+02  0.94585422691E+03  0.94906766534E+03  0.00000000000E+00 0. -1.
         22    1    3    3    0    0  0.28855319458E+01  0.15029365250E+02  0.72943440435E+02  0.74531561214E+02  0.00000000000E+00 0. -1.
         22    1    3    3    0    0  0.12554563514E+03  0.51617577460E+02  0.17080603388E+02  0.13681311274E+03  0.00000000000E+00 0. -1.
</event>
<event>
 7    1  0.5194496E-006  0.7764487E+02  0.7818608E-02  0.1367858E+00
          2   -1    0    0  502    0  0.00000000000E+00  0.00000000000E+00  0.12605769287E+04  0.12605769287E+04  0.00000000000E+00 0. -1.
          1   -1    0    0  501    0 -0.00000000000E+00 -0.00000000000E+00 -0.93509783170E+02  0.93509783170E+02  0.00000000000E+00 0. -1.
         25    2    1    2    0    0 -0.31110784193E+02  0.51194182664E+01  0.10182638493E+03  0.16427998329E+03  0.12500084362E+03 0.  0.
          2    1    1    2  501    0  0.81215069983E+02 -0.36546063631E+02 -0.29234548376E+02  0.93734525005E+02  0.00000000000E+00 0. -1.
          1    1    1    2  502    0 -0.50104285789E+02  0.31426645365E+02  0.10944753090E+04  0.10960722036E+04  0.00000000000E+00 0. -1.
         22    1    3    3    0    0 -0.31156674800E+02 -0.57007881032E+02  0.65776739310E+02  0.92451156394E+02  0.00000000000E+00 0. -1.
         22    1    3    3    0    0  0.45890606829E-01  0.62127299298E+02  0.36049645623E+02  0.71828826899E+02  0.00000000000E+00 0. -1.
</event>
<event>
 7    1  0.5194496E-006  0.3376880E+03  0.7818608E-02  0.1286305E+00
          2   -1    0    0  502    0  0.00000000000E+00  0.00000000000E+00  0.23310379275E+03  0.23310379275E+03  0.00000000000E+00 0. -1.
          1   -1    0    0  501    0 -0.00000000000E+00 -0.00000000000E+00 -0.12360550771E+04  0.12360550771E+04  0.00000000000E+00 0. -1.
         25    2    1    2    0    0  0.33774705203E+03  0.10422698349E+03 -0.25639576789E+03  0.45420779023E+03  0.12501836536E+03 0.  0.
          2    1    1    2  501    0 -0.20019775055E+02 -0.19540905571E+02 -0.67860807558E+03  0.67918448056E+03  0.00000000000E+00 0. -1.
          1    1    1    2  502    0 -0.31772727697E+03 -0.84686077915E+02 -0.67947440876E+02  0.33576659906E+03  0.00000000000E+00 0. -1.
         22    1    3    3    0    0  0.11642648278E+02  0.27792699284E+02  0.33956699655E+01  0.30323521678E+02  0.00000000000E+00 0.  1.
         22    1    3    3    0    0  0.32610440375E+03  0.76434284202E+02 -0.25979143786E+03  0.42388426856E+03  0.00000000000E+00 0.  1.
</event>
<event>
 7    1  0.5194496E-006  0.4185159E+02  0.7818608E-02  0.1511661E+00
          2   -1    0    0  502    0  0.00000000000E+00  0.00000000000E+00  0.57334009495E+02  0.57334009495E+02  0.00000000000E+00 0. -1.
          1   -1    0    0  501    0 -0.00000000000E+00 -0.00000000000E+00 -0.37995581478E+03  0.37995581478E+03  0.00000000000E+00 0. -1.
         25    2    1    2    0    0 -0.51045952038E+02 -0.30022075035E+02 -0.98681868565E+02  0.16990763968E+03  0.12499392236E+03 0.  0.
          2    1    1    2  501    0  0.41143198218E+02 -0.59878158492E+01 -0.22617882291E+03  0.22996842529E+03  0.00000000000E+00 0. -1.
          1    1    1    2  502    0  0.99027538205E+01  0.36009890884E+02  0.22388861815E+01  0.37413759315E+02  0.00000000000E+00 0. -1.
         22    1    3    3    0    0 -0.23352683842E+02 -0.78758881533E+02 -0.61963368979E+02  0.10289688216E+03  0.00000000000E+00 0. -1.
         22    1    3    3    0    0 -0.27693268196E+02  0.48736806498E+02 -0.36718499586E+02  0.67010757516E+02  0.00000000000E+00 0. -1.
</event>
<event>
 7    1  0.5194496E-006  0.3993532E+02  0.7818608E-02  0.1575888E+00
          2   -1    0    0  502    0  0.00000000000E+00  0.00000000000E+00  0.24491891604E+04  0.24491891604E+04  0.00000000000E+00 0. -1.
          1   -1    0    0  501    0 -0.00000000000E+00 -0.00000000000E+00 -0.51677690589E+02  0.51677690589E+02  0.00000000000E+00 0. -1.
         25    2    1    2    0    0 -0.11679390861E+02 -0.10615382742E+02  0.41973394430E+02  0.13279544515E+03  0.12499507947E+03 0.  0.
          2    1    1    2  501    0 -0.18101438952E+02  0.37222379517E+02  0.64203566837E+02  0.76388910345E+02  0.00000000000E+00 0. -1.
          1    1    1    2  502    0  0.29780829813E+02 -0.26606996774E+02  0.22913345085E+04  0.22916824954E+04  0.00000000000E+00 0. -1.
         22    1    3    3    0    0 -0.16516354630E+02 -0.30919710480E+02  0.81154363772E+02  0.88401635877E+02  0.00000000000E+00 0.  1.
         22    1    3    3    0    0  0.48369637690E+01  0.20304327738E+02 -0.39180969342E+02  0.44393809275E+02  0.00000000000E+00 0.  1.
</event>
<event>
 7    1  0.5194496E-006  0.6374578E+02  0.7818608E-02  0.1443244E+00
          2   -1    0    0  502    0  0.00000000000E+00  0.00000000000E+00  0.16151048345E+04  0.16151048345E+04  0.00000000000E+00 0. -1.
          1   -1    0    0  501    0 -0.00000000000E+00 -0.00000000000E+00 -0.10233841342E+03  0.10233841342E+03  0.00000000000E+00 0. -1.
         25    2    1    2    0    0  0.15818038037E+02  0.39225269116E+02  0.37105346574E+03  0.39382072511E+03  0.12500102812E+03 0.  0.
          2    1    1    2  501    0 -0.31015464557E+02  0.24995721941E+02 -0.85664026497E+02  0.94472591754E+02  0.00000000000E+00 0. -1.
          1    1    1    2  502    0  0.15197426520E+02 -0.64220991056E+02  0.12273769819E+04  0.12291499311E+04  0.00000000000E+00 0. -1.
         22    1    3    3    0    0  0.21733101566E+02 -0.43549655180E+02  0.12447313094E+03  0.13365051626E+03  0.00000000000E+00 0.  1.
         22    1    3    3    0    0 -0.59150635288E+01  0.82774924295E+02  0.24658033479E+03  0.26017020885E+03  0.00000000000E+00 0.  1.
</event>
<event>
 7    1  0.5194496E-006  0.4701067E+02  0.7818608E-02  0.1475188E+00
          2   -1    0    0  502    0  0.00000000000E+00  0.00000000000E+00  0.35281061948E+04  0.35281061948E+04  0.00000000000E+00 0. -1.
          1   -1    0    0  501    0 -0.00000000000E+00 -0.00000000000E+00 -0.63748535239E+02  0.63748535239E+02  0.00000000000E+00 0. -1.
         25    2    1    2    0    0 -0.71168512736E+02 -0.36604253466E+01  0.37911338246E+03  0.40549993329E+03  0.12499953286E+03 0.  0.
          2    1    1    2  501    0  0.31647335842E+02  0.28839461959E+02 -0.41282422206E+02  0.59476943560E+02  0.00000000000E+00 0. -1.
          1    1    1    2  502    0  0.39521176893E+02 -0.25179036613E+02  0.31265266993E+04  0.31268778532E+04  0.00000000000E+00 0. -1.
         22    1    3    3    0    0  0.16827783295E+02 -0.68366668651E+01  0.20351304904E+01  0.18277200567E+02  0.00000000000E+00 0. -1.
         22    1    3    3    0    0 -0.87996296031E+02  0.31762415185E+01  0.37707825197E+03  0.38722273272E+03  0.00000000000E+00 0. -1.
</event>
<event>
 7    1  0.5194496E-006  0.2576951E+02  0.7818608E-02  0.1650505E+00
          2   -1    0    0  502    0  0.00000000000E+00  0.00000000000E+00  0.38127579123E+03  0.38127579123E+03  0.00000000000E+00 0. -1.
          1   -1    0    0  501    0 -0.00000000000E+00 -0.00000000000E+00 -0.12233359155E+04  0.12233359155E+04  0.00000000000E+00 0. -1.
         25    2    1    2    0    0  0.21258209549E+02 -0.10748914547E+02  0.21217855480E+03  0.24740893774E+03  0.12499597083E+03 0.  0.
          2    1    1    2  501    0 -0.37995799908E+00  0.25775535937E+02 -0.12044897737E+04  0.12047655945E+04  0.00000000000E+00 0. -1.
          1    1    1    2  502    0 -0.20878251550E+02 -0.15026621389E+02  0.15025109464E+03  0.15243717453E+03  0.00000000000E+00 0. -1.
         22    1    3    3    0    0 -0.26586942192E+02  0.80500016987E+01  0.18898037279E+03  0.19101112355E+03  0.00000000000E+00 0.  1.
         22    1    3    3    0    0  0.47845151741E+02 -0.18798916246E+02  0.23198182011E+02  0.56397814193E+02  0.00000000000E+00 0.  1.
</event>
<event>
 7    1  0.5194496E-006  0.5302021E+02  0.7818608E-02  0.1517574E+00
          2   -1    0    0  502    0  0.00000000000E+00  0.00000000000E+00  0.90384185167E+03  0.90384185167E+03  0.00000000000E+00 0. -1.
          1   -1    0    0  501    0 -0.00000000000E+00 -0.00000000000E+00 -0.20063600033E+04  0.20063600033E+04  0.00000000000E+00 0. -1.
         25    2    1    2    0    0 -0.10842964078E+02 -0.65332678314E+02 -0.46872228493E+02  0.14901861481E+03  0.12499445200E+03 0.  0.
          2    1    1    2  501    0  0.24528403061E+02  0.14173009485E+02 -0.19074871011E+04  0.19076974491E+04  0.00000000000E+00 0. -1.
          1    1    1    2  502    0 -0.13685438983E+02  0.51159668829E+02  0.85184117795E+03  0.85348579098E+03  0.00000000000E+00 0. -1.
         22    1    3    3    0    0  0.35225461681E+00 -0.13429867493E+01  0.40288580178E+02  0.40312496691E+02  0.00000000000E+00 0. -1.
         22    1    3    3    0    0 -0.11195218695E+02 -0.63989691565E+02 -0.87160808672E+02  0.10870611812E+03  0.00000000000E+00 0. -1.
</event>
<event>
 7    1  0.5194496E-006  0.1249982E+03  0.7818608E-02  0.1347989E+00
          2   -1    0    0  502    0  0.00000000000E+00  0.00000000000E+00  0.17653991582E+04  0.17653991582E+04  0.00000000000E+00 0. -1.
          1   -1    0    0  501    0 -0.00000000000E+00 -0.00000000000E+00 -0.77315816006E+03  0.77315816006E+03  0.00000000000E+00 0. -1.
         25    2    1    2    0    0  0.10788813594E+03  0.33419759782E+02  0.46674393587E+03  0.49621612532E+03  0.12499524444E+03 0.  0.
          2    1    1    2  501    0  0.20840493753E+02 -0.38111758807E+02 -0.75456492824E+03  0.75581417244E+03  0.00000000000E+00 0. -1.
          1    1    1    2  502    0 -0.12872862969E+03  0.46919990247E+01  0.12800619905E+04  0.12865270205E+04  0.00000000000E+00 0. -1.
         22    1    3    3    0    0  0.24707348355E+02  0.50074080925E+02  0.33431636098E+03  0.33894733494E+03  0.00000000000E+00 0. -1.
         22    1    3    3    0    0  0.83180787581E+02 -0.16654321142E+02  0.13242757489E+03  0.15726879038E+03  0.00000000000E+00 0. -1.
</event>
<event>
 7    1  0.5194496E-006  0.3674424E+03  0.7818608E-02  0.1167072E+00
          2   -1    0    0  502    0  0.00000000000E+00  0.00000000000E+00  0.11260795714E+04  0.11260795714E+04  0.00000000000E+00 0. -1.
          1   -1    0    0  501    0 -0.00000000000E+00 -0.00000000000E+00 -0.42956539255E+03  0.42956539255E+03  0.00000000000E+00 0. -1.
         25    2    1    2    0    0  0.26993453833E+03  0.26225935081E+03  0.58758379977E+03  0.70889304892E+03  0.12502004234E+03 0.  0.
          2    1    1    2  501    0 -0.76790037363E+02  0.44835724064E+02 -0.29247806707E+03  0.30569653532E+03  0.00000000000E+00 0. -1.
          1    1    1    2  502    0 -0.19314450097E+03 -0.30709507488E+03  0.40140844617E+03  0.54105537972E+03  0.00000000000E+00 0. -1.
         22    1    3    3    0    0  0.98725156487E+02  0.11816098109E+03  0.35075449431E+03  0.38306316614E+03  0.00000000000E+00 0.  1.
         22    1    3    3    0    0  0.17120938184E+03  0.14409836972E+03  0.23682930545E+03  0.32582988278E+03  0.00000000000E+00 0.  1.
</event>
<event>
 7    1  0.5194496E-006  0.1192511E+03  0.7818608E-02  0.1298222E+00
          2   -1    0    0  502    0  0.00000000000E+00  0.00000000000E+00  0.95020566370E+03  0.95020566370E+03  0.00000000000E+00 0. -1.
          1   -1    0    0  501    0 -0.00000000000E+00 -0.00000000000E+00 -0.23185181470E+04  0.23185181470E+04  0.00000000000E+00 0. -1.
         25    2    1    2    0    0 -0.12368056657E+02  0.57901339436E+02  0.12665805856E+03  0.18754335336E+03  0.12499884662E+03 0.  0.
          2    1    1    2  501    0 -0.24609558119E+02  0.66473558693E+02 -0.22822144304E+04  0.22833149302E+04  0.00000000000E+00 0. -1.
          1    1    1    2  502    0  0.36977614776E+02 -0.12437489813E+03  0.78724388855E+03  0.79786552710E+03  0.00000000000E+00 0. -1.
         22    1    3    3    0    0  0.38567515039E+02  0.74432057616E+02  0.87695727763E+02  0.12131828010E+03  0.00000000000E+00 0. -1.
         22    1    3    3    0    0 -0.50935571696E+02 -0.16530718181E+02  0.38962330796E+02  0.66225073263E+02  0.00000000000E+00 0. -1.
</event>
<event>
 7    1  0.5194496E-006  0.5522833E+02  0.7818608E-02  0.1468789E+00
          2   -1    0    0  502    0  0.00000000000E+00  0.00000000000E+00  0.49699927001E+03  0.49699927001E+03  0.00000000000E+00 0. -1.
          1   -1    0    0  501    0 -0.00000000000E+00 -0.00000000000E+00 -0.11538151149E+04  0.11538151149E+04  0.00000000000E+00 0. -1.
         25    2    1    2    0    0  0.78518175036E+02  0.41177255949E+02 -0.11583812757E+03  0.19210537650E+03  0.12500133465E+03 0.  0.
          2    1    1    2  501    0 -0.40658008901E+02 -0.36480852102E+02 -0.99830241888E+03  0.99979580205E+03  0.00000000000E+00 0. -1.
          1    1    1    2  502    0 -0.37860166135E+02 -0.46964038463E+01  0.45732470152E+03  0.45891320640E+03  0.00000000000E+00 0. -1.
         22    1    3    3    0    0  0.18749709186E+02  0.20118055155E+02 -0.12507772366E+03  0.12806531417E+03  0.00000000000E+00 0. -1.
         22    1    3    3    0    0  0.59768465850E+02  0.21059200794E+02  0.92395960849E+01  0.64040062336E+02  0.00000000000E+00 0. -1.
</event>
<event>
 7    1  0.5194496E-006  0.4305095E+02  0.7818608E-02  0.1579643E+00
          2   -1    0    0  502    0  0.00000000000E+00  0.00000000000E+00  0.98888642406E+03  0.98888642406E+03  0.00000000000E+00 0. -1.
          1   -1    0    0  501    0 -0.00000000000E+00 -0.00000000000E+00 -0.15060970710E+04  0.15060970710E+04  0.00000000000E+00 0. -1.
         25    2    1    2    0    0  0.81639106687E+01  0.29222825884E+02  0.92079764364E+02  0.15819488010E+03  0.12500525627E+03 0.  0.
          2    1    1    2  501    0  0.23391959340E+02  0.47231294469E+00 -0.14724030787E+04  0.14725889558E+04  0.00000000000E+00 0. -1.
          1    1    1    2  502    0 -0.31555870009E+02 -0.29695138829E+02  0.86311266737E+03  0.86419965910E+03  0.00000000000E+00 0. -1.
         22    1    3    3    0    0 -0.50483831279E+02  0.44959036347E+02  0.53988740509E+02  0.86514254731E+02  0.00000000000E+00 0.  1.
         22    1    3    3    0    0  0.58647741948E+02 -0.15736210463E+02  0.38091023855E+02  0.71680625372E+02  0.00000000000E+00 0.  1.
</event>
<event>
 7    1  0.5194496E-006  0.6918389E+02  0.7818608E-02  0.1371722E+00
          2   -1    0    0  502    0  0.00000000000E+00  0.00000000000E+00  0.76050855826E+03  0.76050855826E+03  0.00000000000E+00 0. -1.
          1   -1    0    0  501    0 -0.00000000000E+00 -0.00000000000E+00 -0.47485993648E+03  0.47485993648E+03  0.00000000000E+00 0. -1.
         25    2    1    2    0    0 -0.25200050495E+02 -0.10206893663E+03 -0.17606868338E+03  0.24015924035E+03  0.12499267615E+03 0.  0.
          2    1    1    2  501    0 -0.24938124910E+02  0.61831714073E+02 -0.26113100535E+03  0.26950783457E+03  0.00000000000E+00 0. -1.
          1    1    1    2  502    0  0.50138175405E+02  0.40237222557E+02  0.72284831051E+03  0.72570141982E+03  0.00000000000E+00 0. -1.
         22    1    3    3    0    0  0.11137565824E+02  0.25802663294E+02 -0.16955690673E+02  0.32822526590E+02  0.00000000000E+00 0. -1.
         22    1    3    3    0    0 -0.36337616319E+02 -0.12787159992E+03 -0.15911299270E+03  0.20733671376E+03  0.00000000000E+00 0. -1.
</event>
<event>
 7    1  0.5194496E-006  0.7274346E+02  0.7818608E-02  0.1382715E+00
          2   -1    0    0  502    0  0.00000000000E+00  0.00000000000E+00  0.13369866009E+04  0.13369866009E+04  0.00000000000E+00 0. -1.
          1   -1    0    0  501    0 -0.00000000000E+00 -0.00000000000E+00 -0.19182651484E+03  0.19182651484E+03  0.00000000000E+00 0. -1.
         25    2    1    2    0    0  0.69349416025E+02  0.22004706852E+02  0.54488959545E+03  0.56375649347E+03  0.12499265605E+03 0.  0.
          2    1    1    2  501    0 -0.10855647243E+01 -0.55867524461E+02 -0.17620406586E+03  0.18485191794E+03  0.00000000000E+00 0. -1.
          1    1    1    2  502    0 -0.68263851300E+02  0.33862817609E+02  0.77647455645E+03  0.78020470431E+03  0.00000000000E+00 0. -1.
         22    1    3    3    0    0 -0.65977794429E+01 -0.36166898392E+02  0.67368359936E+02  0.76746798977E+02  0.00000000000E+00 0.  1.
         22    1    3    3    0    0  0.75947195467E+02  0.58171605244E+02  0.47752123552E+03  0.48700969449E+03  0.00000000000E+00 0.  1.
</event>
<event>
 7    1  0.5194496E-006  0.3393882E+03  0.7818608E-02  0.1285553E+00
          2   -1    0    0  502    0  0.00000000000E+00  0.00000000000E+00  0.94562374837E+03  0.94562374837E+03  0.00000000000E+00 0. -1.
          1   -1    0    0  501    0 -0.00000000000E+00 -0.00000000000E+00 -0.12682137600E+04  0.12682137600E+04  0.00000000000E+00 0. -1.
         25    2    1    2    0    0  0.16915990566E+03  0.27812697862E+03  0.24641803999E+03  0.42698503579E+03  0.12499872174E+03 0.  0.
          2    1    1    2  501    0 -0.47568000925E+01  0.27627142226E+02 -0.11282636109E+04  0.11286118295E+04  0.00000000000E+00 0. -1.
          1    1    1    2  502    0 -0.16440310557E+03 -0.30575412085E+03  0.55925555929E+03  0.65824064302E+03  0.00000000000E+00 0. -1.
         22    1    3    3    0    0  0.74181198059E+00  0.10861466216E+03  0.61359759432E+02  0.12475061202E+03  0.00000000000E+00 0.  1.
         22    1    3    3    0    0  0.16841809368E+03  0.16951231646E+03  0.18505828055E+03  0.30223442377E+03  0.00000000000E+00 0.  1.
</event>
<event>
 7    1  0.5194496E-006  0.2851241E+03  0.7818608E-02  0.1182694E+00
          2   -1    0    0  502    0  0.00000000000E+00  0.00000000000E+00  0.47657862437E+03  0.47657862437E+03  0.00000000000E+00 0. -1.
          1   -1    0    0  501    0 -0.00000000000E+00 -0.00000000000E+00 -0.96323207330E+03  0.96323207330E+03  0.00000000000E+00 0. -1.
         25    2    1    2    0    0 -0.33289873247E+02  0.32029070360E+03 -0.35070898854E+03  0.49225675898E+03  0.12500228654E+03 0.  0.
          2    1    1    2  501    0  0.10045476219E+03 -0.25171443318E+03 -0.50126120372E+03  0.56983691480E+03  0.00000000000E+00 0. -1.
          1    1    1    2  502    0 -0.67164888940E+02 -0.68576270424E+02  0.36531674333E+03  0.37771702388E+03  0.00000000000E+00 0. -1.
         22    1    3    3    0    0 -0.10260629792E+02  0.17760776231E+03 -0.27905448636E+03  0.33093987991E+03  0.00000000000E+00 0.  1.
         22    1    3    3    0    0 -0.23029243454E+02  0.14268294129E+03 -0.71654502179E+02  0.16131687907E+03  0.00000000000E+00 0.  1.
</event>
<event>
 7    1  0.5194496E-006  0.4850633E+02  0.7818608E-02  0.1468310E+00
          2   -1    0    0  502    0  0.00000000000E+00  0.00000000000E+00  0.38908317913E+03  0.38908317913E+03  0.00000000000E+00 0. -1.
          1   -1    0    0  501    0 -0.00000000000E+00 -0.00000000000E+00 -0.10525027301E+04  0.10525027301E+04  0.00000000000E+00 0. -1.
         25    2    1    2    0    0  0.15733175930E+02 -0.13734195097E+02 -0.43869832510E+03  0.45663671133E+03  0.12499881898E+03 0.  0.
          2    1    1    2  501    0 -0.52117610972E+02 -0.10265400662E+02 -0.60241315991E+03  0.60475055937E+03  0.00000000000E+00 0. -1.
          1    1    1    2  502    0  0.36384435042E+02  0.23999595759E+02  0.37769193403E+03  0.38019863853E+03  0.00000000000E+00 0. -1.
         22    1    3    3    0    0  0.63559655797E+02 -0.35407296246E+02 -0.28818330572E+03  0.29722571250E+03  0.00000000000E+00 0.  1.
         22    1    3    3    0    0 -0.47826479867E+02  0.21673101149E+02 -0.15051501938E+03  0.15941099883E+03  0.00000000000E+00 0.  1.
</event>
<event>
 7    1  0.5194496E-006  0.1198229E+03  0.7818608E-02  0.1297599E+00
          2   -1    0    0  502    0  0.00000000000E+00  0.00000000000E+00  0.86912326582E+03  0.86912326582E+03  0.00000000000E+00 0. -1.
          1   -1    0    0  501    0 -0.00000000000E+00 -0.00000000000E+00 -0.19069843460E+03  0.19069843460E+03  0.00000000000E+00 0. -1.
         25    2    1    2    0    0 -0.88275843715E+02  0.65234098866E+01  0.54004469372E+03  0.56134250952E+03  0.12498784867E+03 0.  0.
          2    1    1    2  501    0  0.93938110828E+02 -0.77249494900E+02 -0.15478465095E+03  0.19685055574E+03  0.00000000000E+00 0. -1.
          1    1    1    2  502    0 -0.56622671127E+01  0.70726085013E+02  0.29316478844E+03  0.30162863516E+03  0.00000000000E+00 0. -1.
         22    1    3    3    0    0 -0.27740654165E+02  0.60641757262E+02  0.17263377798E+03  0.18506590155E+03  0.00000000000E+00 0. -1.
         22    1    3    3    0    0 -0.60535189550E+02 -0.54118347375E+02  0.36741091574E+03  0.37627660796E+03  0.00000000000E+00 0. -1.
</event>
<event>
 7    1  0.5194496E-006  0.6770180E+02  0.7818608E-02  0.1419882E+00
          2   -1    0    0  502    0  0.00000000000E+00  0.00000000000E+00  0.25847263118E+03  0.25847263118E+03  0.00000000000E+00 0. -1.
          1   -1    0    0  501    0 -0.00000000000E+00 -0.00000000000E+00 -0.66967040518E+03  0.66967040518E+03  0.00000000000E+00 0. -1.
         25    2    1    2    0    0 -0.25286835758E+02  0.95093839147E+01 -0.22982076809E+02  0.12993409973E+03  0.12499936789E+03 0.  0.
          2    1    1    2  501    0  0.69293183684E+02 -0.13530664454E+01 -0.58871226323E+03  0.59277778718E+03  0.00000000000E+00 0. -1.
          1    1    1    2  502    0 -0.44006347926E+02 -0.81563174694E+01  0.20049656604E+03  0.20543114946E+03  0.00000000000E+00 0. -1.
         22    1    3    3    0    0 -0.67316914881E+02 -0.24346759325E+02 -0.81508375348E+00  0.71589077940E+02  0.00000000000E+00 0. -1.
         22    1    3    3    0    0  0.42030079123E+02  0.33856143240E+02 -0.22166993056E+02  0.58345021787E+02  0.00000000000E+00 0. -1.
</event>
<event>
 7    1  0.5194496E-006  0.1470431E+03  0.7818608E-02  0.1306725E+00
          2   -1    0    0  502    0  0.00000000000E+00  0.00000000000E+00  0.15567496767E+04  0.15567496767E+04  0.00000000000E+00 0. -1.
          1   -1    0    0  501    0 -0.00000000000E+00 -0.00000000000E+00 -0.93463517762E+03  0.93463517762E+03  0.00000000000E+00 0. -1.
         25    2    1    2    0    0 -0.10703612792E+03  0.74713729494E+02  0.30482590372E+03  0.35437627971E+03  0.12499936796E+03 0.  0.
          2    1    1    2  501    0  0.14311968941E+03 -0.35664629918E+02 -0.90329983897E+03  0.91526270021E+03  0.00000000000E+00 0. -1.
          1    1    1    2  502    0 -0.36083561488E+02 -0.39049099576E+02  0.12205884343E+04  0.12217458744E+04  0.00000000000E+00 0. -1.
         22    1    3    3    0    0 -0.87306418793E+02 -0.11924170795E+02  0.18774824333E+03  0.20739816654E+03  0.00000000000E+00 0. -1.
         22    1    3    3    0    0 -0.19729709126E+02  0.86637900289E+02  0.11707766039E+03  0.14697811317E+03  0.00000000000E+00 0. -1.
</event>
<event>
 7    1  0.5194496E-006  0.4242389E+02  0.7818608E-02  0.1548072E+00
          2   -1    0    0  502    0  0.00000000000E+00  0.00000000000E+00  0.82303278437E+03  0.82303278437E+03  0.00000000000E+00 0. -1.
          1   -1    0    0  501    0 -0.00000000000E+00 -0.00000000000E+00 -0.10330601736E+04  0.10330601736E+04  0.00000000000E+00 0. -1.
         25    2    1    2    0    0 -0.11145426551E+01  0.70054918015E+02 -0.14508781396E+03  0.20392169571E+03  0.12499860190E+03 0.  0.
          2    1    1    2  501    0  0.60777730800E+01 -0.41509562899E+02 -0.85777816095E+03  0.85880344465E+03  0.00000000000E+00 0. -1.
          1    1    1    2  502    0 -0.49632304250E+01 -0.28545355116E+02  0.79283858572E+03  0.79336781757E+03  0.00000000000E+00 0. -1.
         22    1    3    3    0    0  0.30817252905E+01  0.10499909701E+03 -0.88863276933E+02  0.13758993201E+03  0.00000000000E+00 0.  1.
         22    1    3    3    0    0 -0.41962679456E+01 -0.34944178997E+02 -0.56224537029E+02  0.66331763693E+02  0.00000000000E+00 0.  1.
</event>
<event>
 7    1  0.5194496E-006  0.1769422E+03  0.7818608E-02  0.1220100E+00
          2   -1    0    0  502    0  0.00000000000E+00  0.00000000000E+00  0.84234506993E+03  0.84234506993E+03  0.00000000000E+00 0. -1.
          1   -1    0    0  501    0 -0.00000000000E+00 -0.00000000000E+00 -0.60950843202E+03  0.60950843202E+03  0.00000000000E+00 0. -1.
         25    2    1    2    0    0 -0.19099915302E+02  0.89379954392E+02 -0.45990372415E+03  0.48527318509E+03  0.12500018266E+03 0.  0.
          2    1    1    2  501    0  0.58063485732E+02  0.85231246476E+02 -0.10609341209E+03  0.14795791916E+03  0.00000000000E+00 0. -1.
          1    1    1    2  502    0 -0.38963570429E+02 -0.17461120087E+03  0.79883377416E+03  0.81862239771E+03  0.00000000000E+00 0. -1.
         22    1    3    3    0    0 -0.15449604353E+02  0.32825207368E+02 -0.40414377715E+03  0.40576887155E+03  0.00000000000E+00 0.  1.
         22    1    3    3    0    0 -0.36503109489E+01  0.56554747024E+02 -0.55759947002E+02  0.79504313534E+02  0.00000000000E+00 0.  1.
</event>
<event>
 7    1  0.5194496E-006  0.1019088E+03  0.7818608E-02  0.1415013E+00
          2   -1    0    0  502    0  0.00000000000E+00  0.00000000000E+00  0.35324629018E+04  0.35324629018E+04  0.00000000000E+00 0. -1.
          1   -1    0    0  501    0 -0.00000000000E+00 -0.00000000000E+00 -0.55940177828E+02  0.55940177828E+02  0.00000000000E+00 0. -1.
         25    2    1    2    0    0  0.47505590677E+02 -0.11721889579E+03  0.74144660510E+03  0.76247262970E+03  0.12499756860E+03 0.  0.
          2    1    1    2  501    0 -0.23255376119E+02  0.20304065520E+02 -0.39177128024E+02  0.49879003150E+02  0.00000000000E+00 0. -1.
          1    1    1    2  502    0 -0.24250214559E+02  0.96914830266E+02  0.27742532469E+04  0.27760514468E+04  0.00000000000E+00 0. -1.
         22    1    3    3    0    0  0.37474339778E+02 -0.34104365039E+02  0.56397013316E+03  0.56624177253E+03  0.00000000000E+00 0.  1.
         22    1    3    3    0    0  0.10031250899E+02 -0.83114530747E+02  0.17747647194E+03  0.19623085717E+03  0.00000000000E+00 0.  1.
</event>
<event>
 7    1  0.5194496E-006  0.8261619E+02  0.7818608E-02  0.1501149E+00
          2   -1    0    0  502    0  0.00000000000E+00  0.00000000000E+00  0.58132550702E+03  0.58132550702E+03  0.00000000000E+00 0. -1.
          1   -1    0    0  501    0 -0.00000000000E+00 -0.00000000000E+00 -0.99597113422E+02  0.99597113422E+02  0.00000000000E+00 0. -1.
         25    2    1    2    0    0  0.94059837262E+02  0.20043423098E+02  0.22003495822E+02  0.15924288840E+03  0.12500060753E+03 0.  0.
          2    1    1    2  501    0 -0.17736153495E+02  0.99232374768E+01 -0.23774258116E+02  0.31277102356E+02  0.00000000000E+00 0. -1.
          1    1    1    2  502    0 -0.76323683766E+02 -0.29966660575E+02  0.48349915589E+03  0.49040262968E+03  0.00000000000E+00 0. -1.
         22    1    3    3    0    0 -0.31013070802E+02 -0.19762235482E+00  0.46049876283E+01  0.31353716307E+02  0.00000000000E+00 0. -1.
         22    1    3    3    0    0  0.12507290806E+03  0.20241045453E+02  0.17398508194E+02  0.12788917210E+03  0.00000000000E+00 0. -1.
</event>
<event>
 7    1  0.5194496E-006  0.1299294E+03  0.7818608E-02  0.1345087E+00
          2   -1    0    0  502    0  0.00000000000E+00  0.00000000000E+00  0.13982902756E+04  0.13982902756E+04  0.00000000000E+00 0. -1.
          1   -1    0    0  501    0 -0.00000000000E+00 -0.00000000000E+00 -0.11155756461E+04  0.11155756461E+04  0.00000000000E+00 0. -1.
         25    2    1    2    0    0 -0.19091986078E+02 -0.13539259376E+03 -0.76205256622E+02  0.20032016696E+03  0.12500107910E+03 0.  0.
          2    1    1    2  501    0 -0.23078536460E+02  0.12783670735E+03 -0.97265025711E+03  0.98128658670E+03  0.00000000000E+00 0. -1.
          1    1    1    2  502    0  0.42170522538E+02  0.75558864135E+01  0.13315701433E+04  0.13322591680E+04  0.00000000000E+00 0. -1.
         22    1    3    3    0    0 -0.71721057520E+01 -0.15815501816E+03 -0.73296291293E+02  0.17446144327E+03  0.00000000000E+00 0.  1.
         22    1    3    3    0    0 -0.11919880326E+02  0.22762424400E+02 -0.29089653289E+01  0.25858723689E+02  0.00000000000E+00 0.  1.
</event>
<event>
 7    1  0.5194496E-006  0.7981883E+02  0.7818608E-02  0.1448545E+00
          2   -1    0    0  502    0  0.00000000000E+00  0.00000000000E+00  0.12753822812E+03  0.12753822812E+03  0.00000000000E+00 0. -1.
          1   -1    0    0  501    0 -0.00000000000E+00 -0.00000000000E+00 -0.32810584852E+04  0.32810584852E+04  0.00000000000E+00 0. -1.
         25    2    1    2    0    0  0.20614650792E+02  0.50313903993E+02 -0.10437638303E+04  0.10526262674E+04  0.12499068985E+03 0.  0.
          2    1    1    2  501    0 -0.38394406014E+02 -0.75202910420E+02 -0.22301521457E+04  0.22317500311E+04  0.00000000000E+00 0. -1.
          1    1    1    2  502    0  0.17779755222E+02  0.24889006427E+02  0.12039571893E+03  0.12422041488E+03  0.00000000000E+00 0. -1.
         22    1    3    3    0    0  0.53035633044E+02  0.47118630964E+02 -0.96198333907E+03  0.96459571241E+03  0.00000000000E+00 0. -1.
         22    1    3    3    0    0 -0.32420982253E+02  0.31952730292E+01 -0.81780491230E+02  0.88030554955E+02  0.00000000000E+00 0. -1.
</event>
<event>
 7    1  0.5194496E-006  0.8105814E+02  0.7818608E-02  0.1420122E+00
          2   -1    0    0  502    0  0.00000000000E+00  0.00000000000E+00  0.14373749940E+03  0.14373749940E+03  0.00000000000E+00 0. -1.
          1   -1    0    0  501    0 -0.00000000000E+00 -0.00000000000E+00 -0.21349836220E+04  0.21349836220E+04  0.00000000000E+00 0. -1.
         25    2    1    2    0    0 -0.99253369797E+02 -0.38320962168E+02 -0.22721524261E+03  0.28030576692E+03  0.12499931575E+03 0.  0.
          2    1    1    2  501    0  0.19611565454E+02  0.31742695317E+02 -0.18673919433E+04  0.18677646752E+04  0.00000000000E+00 0. -1.
          1    1    1    2  502    0  0.79641804343E+02  0.65782668509E+01  0.10336106326E+03  0.13065067927E+03  0.00000000000E+00 0. -1.
         22    1    3    3    0    0 -0.40179636700E+02  0.22953468289E+02 -0.17371949056E+03  0.17977687925E+03  0.00000000000E+00 0. -1.
         22    1    3    3    0    0 -0.59073733097E+02 -0.61274430457E+02 -0.53495752048E+02  0.10052888767E+03  0.00000000000E+00 0. -1.
</event>
<event>
 7    1  0.5194496E-006  0.4949416E+02  0.7818608E-02  0.1462246E+00
          2   -1    0    0  502    0  0.00000000000E+00  0.00000000000E+00  0.92404567250E+03  0.92404567250E+03  0.00000000000E+00 0. -1.
          1   -1    0    0  501    0 -0.00000000000E+00 -0.00000000000E+00 -0.48137295553E+02  0.48137295553E+02  0.00000000000E+00 0. -1.
         25    2    1    2    0    0  0.58922634023E+02 -0.83796654052E+00  0.27127043045E+03  0.30444259579E+03  0.12500027483E+03 0.  0.
          2    1    1    2  501    0 -0.25657311650E+02 -0.36512540565E+02 -0.14241444958E+02  0.46843164006E+02  0.00000000000E+00 0. -1.
          1    1    1    2  502    0 -0.33265322373E+02  0.37350507105E+02  0.61887939146E+03  0.62089720827E+03  0.00000000000E+00 0. -1.
         22    1    3    3    0    0 -0.44237348610E+01  0.40635831097E+02  0.27705733494E+02  0.49380642640E+02  0.00000000000E+00 0. -1.
         22    1    3    3    0    0  0.63346368884E+02 -0.41473797638E+02  0.24356469695E+03  0.25506195315E+03  0.00000000000E+00 0. -1.
</event>
<event>
 7    1  0.5194496E-006  0.8244961E+02  0.7818608E-02  0.1410957E+00
          2   -1    0    0  502    0  0.00000000000E+00  0.00000000000E+00  0.15298466154E+04  0.15298466154E+04  0.00000000000E+00 0. -1.
          1   -1    0    0  501    0 -0.00000000000E+00 -0.00000000000E+00 -0.17034037357E+03  0.17034037357E+03  0.00000000000E+00 0. -1.
         25    2    1    2    0    0  0.48799550733E+02 -0.32879618655E+02  0.39365053216E+03  0.41719032545E+03  0.12499824280E+03 0.  0.
          2    1    1    2  501    0 -0.14348679997E+01 -0.39353298889E+02 -0.15443719502E+03  0.15937875701E+03  0.00000000000E+00 0. -1.
          1    1    1    2  502    0 -0.47364682734E+02  0.72232917545E+02  0.11202929047E+04  0.11236179065E+04  0.00000000000E+00 0. -1.
         22    1    3    3    0    0 -0.22395359797E+02  0.23807259178E+02  0.38202332022E+02  0.50276792876E+02  0.00000000000E+00 0. -1.
         22    1    3    3    0    0  0.71194910530E+02 -0.56686877833E+02  0.35544820014E+03  0.36691353257E+03  0.00000000000E+00 0. -1.
</event>
<event>
 7    1  0.5194496E-006  0.1798434E+03  0.7818608E-02  0.1215880E+00
          2   -1    0    0  502    0  0.00000000000E+00  0.00000000000E+00  0.25258529697E+03  0.25258529697E+03  0.00000000000E+00 0. -1.
          1   -1    0    0  501    0 -0.00000000000E+00 -0.00000000000E+00 -0.72468352108E+03  0.72468352108E+03  0.00000000000E+00 0. -1.
         25    2    1    2    0    0 -0.65061295095E+02 -0.11679549457E+03 -0.14215725937E+03  0.23175146543E+03  0.12500358261E+03 0.  0.
          2    1    1    2  501    0  0.17111518861E+03  0.11454054241E+03 -0.50244834279E+03  0.54300486259E+03  0.00000000000E+00 0. -1.
          1    1    1    2  502    0 -0.10605389351E+03  0.22549521554E+01  0.17250737805E+03  0.20251249003E+03  0.00000000000E+00 0. -1.
         22    1    3    3    0    0  0.21629116356E+02 -0.88796483967E+02 -0.80067343159E+02  0.12150478871E+03  0.00000000000E+00 0.  1.
         22    1    3    3    0    0 -0.86690411451E+02 -0.27999010601E+02 -0.62089916212E+02  0.11024667672E+03  0.00000000000E+00 0.  1.
</event>
<event>
 7    1  0.5194496E-006  0.7743922E+02  0.7818608E-02  0.1358572E+00
          2   -1    0    0  502    0  0.00000000000E+00  0.00000000000E+00  0.46066065103E+03  0.46066065103E+03  0.00000000000E+00 0. -1.
          1   -1    0    0  501    0 -0.00000000000E+00 -0.00000000000E+00 -0.11404055725E+03  0.11404055725E+03  0.00000000000E+00 0. -1.
         25    2    1    2    0    0  0.38733611648E+02  0.13144635395E+03  0.20753054006E+03  0.27834750962E+03  0.12501989609E+03 0.  0.
          2    1    1    2  501    0 -0.18829072433E+02 -0.70525241044E+02 -0.55360406006E+02  0.91613962616E+02  0.00000000000E+00 0. -1.
          1    1    1    2  502    0 -0.19904539215E+02 -0.60921112905E+02  0.19444995972E+03  0.20473973604E+03  0.00000000000E+00 0. -1.
         22    1    3    3    0    0 -0.63358569672E+01  0.12512190024E+03  0.19387592225E+03  0.23083220363E+03  0.00000000000E+00 0. -1.
         22    1    3    3    0    0  0.45069468615E+02  0.63244537048E+01  0.13654617810E+02  0.47515305991E+02  0.00000000000E+00 0. -1.
</event>
<event>
 7    1  0.5194496E-006  0.1399765E+03  0.7818608E-02  0.1300879E+00
          2   -1    0    0  502    0  0.00000000000E+00  0.00000000000E+00  0.75483343697E+03  0.75483343697E+03  0.00000000000E+00 0. -1.
          1   -1    0    0  501    0 -0.00000000000E+00 -0.00000000000E+00 -0.16722305926E+04  0.16722305926E+04  0.00000000000E+00 0. -1.
         25    2    1    2    0    0 -0.11107683453E+03 -0.13502118613E+03 -0.35807452401E+03  0.41762415637E+03  0.12499514937E+03 0.  0.
          2    1    1    2  501    0 -0.56717875417E+01  0.58652260537E+02 -0.12769848951E+04  0.12783437250E+04  0.00000000000E+00 0. -1.
          1    1    1    2  502    0  0.11674862207E+03  0.76368925592E+02  0.71766226348E+03  0.73109614824E+03  0.00000000000E+00 0. -1.
         22    1    3    3    0    0 -0.23112043226E+02 -0.67994108205E+02 -0.26024657477E+03  0.26997341530E+03  0.00000000000E+00 0. -1.
         22    1    3    3    0    0 -0.87964791305E+02 -0.67027077924E+02 -0.97827949245E+02  0.14765074107E+03  0.00000000000E+00 0. -1.
</event>
<event>
 7    1  0.5194496E-006  0.6852141E+02  0.7818608E-02  0.1475651E+00
          2   -1    0    0  502    0  0.00000000000E+00  0.00000000000E+00  0.85868127464E+03  0.85868127464E+03  0.00000000000E+00 0. -1.
          1   -1    0    0  501    0 -0.00000000000E+00 -0.00000000000E+00 -0.21294167241E+03  0.21294167241E+03  0.00000000000E+00 0. -1.
         25    2    1    2    0    0 -0.54254963838E+02  0.81310921903E+01 -0.61171542779E+02  0.14959872991E+03  0.12501242572E+03 0.  0.
          2    1    1    2  501    0  0.63871055028E+02 -0.35785806630E+02 -0.94799394030E+02  0.11977921662E+03  0.00000000000E+00 0. -1.
          1    1    1    2  502    0 -0.96160911906E+01  0.27654714440E+02  0.80171053904E+03  0.80224500051E+03  0.00000000000E+00 0. -1.
         22    1    3    3    0    0 -0.42394367895E+02 -0.53633692339E+02 -0.52313801664E+02  0.86084779303E+02  0.00000000000E+00 0. -1.
         22    1    3    3    0    0 -0.11860595942E+02  0.61764784529E+02 -0.88577411147E+01  0.63513950607E+02  0.00000000000E+00 0. -1.
</event>
<event>
 7    1  0.5194496E-006  0.6199638E+02  0.7818608E-02  0.1409486E+00
          2   -1    0    0  502    0  0.00000000000E+00  0.00000000000E+00  0.10704460435E+03  0.10704460435E+03  0.00000000000E+00 0. -1.
          1   -1    0    0  501    0 -0.00000000000E+00 -0.00000000000E+00 -0.41760327932E+03  0.41760327932E+03  0.00000000000E+00 0. -1.
         25    2    1    2    0    0 -0.42773699385E+01  0.20907988282E+02 -0.18257045536E+03  0.22228818266E+03  0.12499850044E+03 0.  0.
          2    1    1    2  501    0  0.64587466285E+02 -0.65467973655E+01 -0.19827835545E+03  0.20863534599E+03  0.00000000000E+00 0. -1.
          1    1    1    2  502    0 -0.60310096346E+02 -0.14361190917E+02  0.70290135844E+02  0.93724355014E+02  0.00000000000E+00 0. -1.
         22    1    3    3    0    0 -0.50969715719E+01  0.65624921195E+02 -0.50833902362E+02  0.83166670189E+02  0.00000000000E+00 0.  1.
         22    1    3    3    0    0  0.81960163347E+00 -0.44716932912E+02 -0.13173655300E+03  0.13912151247E+03  0.00000000000E+00 0.  1.
</event>
<event>
 7    1  0.5194496E-006  0.5431701E+02  0.7818608E-02  0.1462631E+00
          2   -1    0    0  502    0  0.00000000000E+00  0.00000000000E+00  0.44054419742E+03  0.44054419742E+03  0.00000000000E+00 0. -1.
          1   -1    0    0  501    0 -0.00000000000E+00 -0.00000000000E+00 -0.12176282841E+03  0.12176282841E+03  0.00000000000E+00 0. -1.
         25    2    1    2    0    0  0.25641296540E+02 -0.92442889567E+01  0.41019476561E+02  0.13435587997E+03  0.12500388817E+03 0.  0.
          2    1    1    2  501    0 -0.31619969946E+02  0.49351459288E+02 -0.62266597328E+02  0.85513263159E+02  0.00000000000E+00 0. -1.
          1    1    1    2  502    0  0.59786734060E+01 -0.40107170332E+02  0.34002848978E+03  0.34243788271E+03  0.00000000000E+00 0. -1.
         22    1    3    3    0    0  0.47122813105E+02 -0.48291240431E+02 -0.81867509021E+01  0.67967832889E+02  0.00000000000E+00 0.  1.
         22    1    3    3    0    0 -0.21481516565E+02  0.39046951475E+02  0.49206227463E+02  0.66388047076E+02  0.00000000000E+00 0.  1.
</event>
<event>
 7    1  0.5194496E-006  0.1045653E+03  0.7818608E-02  0.1284675E+00
          2   -1    0    0  502    0  0.00000000000E+00  0.00000000000E+00  0.12776058206E+04  0.12776058206E+04  0.00000000000E+00 0. -1.
          1   -1    0    0  501    0 -0.00000000000E+00 -0.00000000000E+00 -0.15809116037E+03  0.15809116037E+03  0.00000000000E+00 0. -1.
         25    2    1    2    0    0 -0.58114305218E+01 -0.10099266013E+02  0.73015401995E+02  0.14523075664E+03  0.12499982339E+03 0.  0.
          2    1    1    2  501    0 -0.36067691546E+02  0.10591182325E+03 -0.93421695751E+02  0.14575941107E+03  0.00000000000E+00 0. -1.
          1    1    1    2  502    0  0.41879122067E+02 -0.95812557235E+02  0.11399209540E+04  0.11447068132E+04  0.00000000000E+00 0. -1.
         22    1    3    3    0    0 -0.35548143412E+02  0.44030192377E+01 -0.23741741061E+02  0.42973565678E+02  0.00000000000E+00 0.  1.
         22    1    3    3    0    0  0.29736712891E+02 -0.14502285251E+02  0.96757143056E+02  0.10225719096E+03  0.00000000000E+00 0.  1.
</event>
<event>
 7    1  0.5194496E-006  0.4266938E+02  0.7818608E-02  0.1508124E+00
          2   -1    0    0  502    0  0.00000000000E+00  0.00000000000E+00  0.25905268880E+03  0.25905268880E+03  0.00000000000E+00 0. -1.
          1   -1    0    0  501    0 -0.00000000000E+00 -0.00000000000E+00 -0.78949516374E+03  0.78949516374E+03  0.00000000000E+00 0. -1.
         25    2    1    2    0    0  0.66363231680E+02  0.19396514779E+02  0.35882003994E+02  0.14728525568E+03  0.12500050010E+03 0.  0.
          2    1    1    2  501    0 -0.41623256804E+02  0.88111580648E+01 -0.73106577541E+03  0.73230273793E+03  0.00000000000E+00 0. -1.
          1    1    1    2  502    0 -0.24739974876E+02 -0.28207672844E+02  0.16474129648E+03  0.16895985893E+03  0.00000000000E+00 0. -1.
         22    1    3    3    0    0 -0.19003580078E+02 -0.43756198401E+01 -0.30751294305E+02  0.36413242182E+02  0.00000000000E+00 0. -1.
         22    1    3    3    0    0  0.85366811758E+02  0.23772134620E+02  0.66633298299E+02  0.11087201349E+03  0.00000000000E+00 0. -1.
</event>
<event>
 7    1  0.5194496E-006  0.8792233E+02  0.7818608E-02  0.1329477E+00
          2   -1    0    0  502    0  0.00000000000E+00  0.00000000000E+00  0.30122140083E+04  0.30122140083E+04  0.00000000000E+00 0. -1.
          1   -1    0    0  501    0 -0.00000000000E+00 -0.00000000000E+00 -0.13352247651E+03  0.13352247651E+03  0.00000000000E+00 0. -1.
         25    2    1    2    0    0  0.17319778841E+02 -0.71238446863E+02  0.15080550804E+03  0.20914678329E+03  0.12500073862E+03 0.  0.
          2    1    1    2  501    0 -0.72503714000E+02  0.14875703268E+01 -0.90965982707E+02  0.11633491058E+03  0.00000000000E+00 0. -1.
          1    1    1    2  502    0  0.55183935159E+02  0.69750876536E+02  0.28188520064E+04  0.28202547909E+04  0.00000000000E+00 0. -1.
         22    1    3    3    0    0 -0.17770035226E+01  0.35324473087E+02  0.49818032621E+02  0.61096747169E+02  0.00000000000E+00 0.  1.
         22    1    3    3    0    0  0.19096782363E+02 -0.10656291995E+03  0.10098747542E+03  0.14805003612E+03  0.00000000000E+00 0.  1.
</event>
<event>
 7    1  0.5194496E-006  0.2787066E+02  0.7818608E-02  0.1658914E+00
          2   -1    0    0  502    0  0.00000000000E+00  0.00000000000E+00  0.67956876427E+03  0.67956876427E+03  0.00000000000E+00 0. -1.
          1   -1    0    0  501    0 -0.00000000000E+00 -0.00000000000E+00 -0.24097609226E+04  0.24097609226E+04  0.00000000000E+00 0. -1.
         25    2    1    2    0    0  0.34221901160E+02 -0.91801610121E+01 -0.13167132174E+04  0.13231078204E+04  0.12500077434E+03 0.  0.
          2    1    1    2  501    0 -0.16065965389E+02  0.22784965011E+02 -0.10894817713E+04  0.10898384283E+04  0.00000000000E+00 0. -1.
          1    1    1    2  502    0 -0.18155935770E+02 -0.13604803999E+02  0.67600283039E+03  0.67638343814E+03  0.00000000000E+00 0. -1.
         22    1    3    3    0    0 -0.47581694103E+02 -0.11883190346E+00 -0.49821024946E+03  0.50047725662E+03  0.00000000000E+00 0.  1.
         22    1    3    3    0    0  0.81803595263E+02 -0.90613291086E+01 -0.81850296797E+03  0.82263056377E+03  0.00000000000E+00 0.  1.
</event>
<event>
 7    1  0.5194496E-006  0.9683424E+02  0.7818608E-02  0.1355322E+00
          2   -1    0    0  502    0  0.00000000000E+00  0.00000000000E+00  0.19529236939E+04  0.19529236939E+04  0.00000000000E+00 0. -1.
          1   -1    0    0  501    0 -0.00000000000E+00 -0.00000000000E+00 -0.56176559233E+02  0.56176559233E+02  0.00000000000E+00 0. -1.
         25    2    1    2    0    0  0.71390180794E+02  0.12331301082E+03  0.37696709452E+03  0.42193154892E+03  0.12497753827E+03 0.  0.
          2    1    1    2  501    0 -0.42977031106E+02 -0.78952981494E+02  0.27564236565E+02  0.94023324909E+02  0.00000000000E+00 0. -1.
          1    1    1    2  502    0 -0.28413149688E+02 -0.44360029331E+02  0.14922158036E+04  0.14931453793E+04  0.00000000000E+00 0. -1.
         22    1    3    3    0    0 -0.55613431523E+01  0.80303836035E+02  0.85524424105E+02  0.11744812360E+03  0.00000000000E+00 0. -1.
         22    1    3    3    0    0  0.76951523947E+02  0.43009174790E+02  0.29144267042E+03  0.30448342532E+03  0.00000000000E+00 0. -1.
</event>
<event>
 7    1  0.5194496E-006  0.2913235E+03  0.7818608E-02  0.1233119E+00
          2   -1    0    0  502    0  0.00000000000E+00  0.00000000000E+00  0.12888350468E+04  0.12888350468E+04  0.00000000000E+00 0. -1.
          1   -1    0    0  501    0 -0.00000000000E+00 -0.00000000000E+00 -0.19801840199E+04  0.19801840199E+04  0.00000000000E+00 0. -1.
         25    2    1    2    0    0 -0.21749992586E+03  0.10220483716E+03  0.81955685681E+02  0.28300916851E+03  0.12500163421E+03 0.  0.
          2    1    1    2  501    0  0.26309047848E+03 -0.13246263317E+03 -0.18674296612E+04  0.18905175187E+04  0.00000000000E+00 0. -1.
          1    1    1    2  502    0 -0.45590552614E+02  0.30257796008E+02  0.10941250024E+04  0.10954923795E+04  0.00000000000E+00 0. -1.
         22    1    3    3    0    0 -0.18852848751E+03  0.54876856920E+02  0.10530166707E+03  0.22280686955E+03  0.00000000000E+00 0. -1.
         22    1    3    3    0    0 -0.28971438349E+02  0.47327980240E+02 -0.23345981386E+02  0.60202298964E+02  0.00000000000E+00 0. -1.
</event>
<event>
 7    1  0.5194496E-006  0.1070108E+03  0.7818608E-02  0.1419944E+00
          2   -1    0    0  502    0  0.00000000000E+00  0.00000000000E+00  0.12951675202E+04  0.12951675202E+04  0.00000000000E+00 0. -1.
          1   -1    0    0  501    0 -0.00000000000E+00 -0.00000000000E+00 -0.88356721370E+03  0.88356721370E+03  0.00000000000E+00 0. -1.
         25    2    1    2    0    0  0.16645511027E+02  0.12084625100E+03  0.60041720158E+03  0.62530514948E+03  0.12499929840E+03 0.  0.
          2    1    1    2  501    0 -0.21720598825E+02 -0.18144347553E+02 -0.86701687156E+03  0.86747867832E+03  0.00000000000E+00 0. -1.
          1    1    1    2  502    0  0.50750877976E+01 -0.10270190344E+03  0.67819997652E+03  0.68595090614E+03  0.00000000000E+00 0. -1.
         22    1    3    3    0    0  0.19709738595E+02  0.24613439148E+02  0.41666382019E+03  0.41785527906E+03  0.00000000000E+00 0.  1.
         22    1    3    3    0    0 -0.30642275681E+01  0.96232811848E+02  0.18375338139E+03  0.20744987042E+03  0.00000000000E+00 0.  1.
</event>
<event>
 7    1  0.5194496E-006  0.1810950E+03  0.7818608E-02  0.1327003E+00
          2   -1    0    0  502    0  0.00000000000E+00  0.00000000000E+00  0.16803252351E+04  0.16803252351E+04  0.00000000000E+00 0. -1.
          1   -1    0    0  501    0 -0.00000000000E+00 -0.00000000000E+00 -0.48054166871E+02  0.48054166871E+02  0.00000000000E+00 0. -1.
         25    2    1    2    0    0 -0.15617518882E+03  0.47392552127E+02  0.85750126804E+03  0.88179981549E+03  0.12500298523E+03 0.  0.
          2    1    1    2  501    0  0.18484762473E+03 -0.25647884020E+02  0.21109773476E+03  0.28176002545E+03  0.00000000000E+00 0. -1.
          1    1    1    2  502    0 -0.28672435905E+02 -0.21744668107E+02  0.56367206545E+03  0.56481956105E+03  0.00000000000E+00 0. -1.
         22    1    3    3    0    0 -0.34516057904E+02 -0.41319413955E+02  0.18669518412E+03  0.19430322693E+03  0.00000000000E+00 0. -1.
         22    1    3    3    0    0 -0.12165913092E+03  0.88711966081E+02  0.67080608392E+03  0.68749658856E+03  0.00000000000E+00 0. -1.
</event>
<event>
 7    1  0.5194496E-006  0.1267430E+03  0.7818608E-02  0.1363369E+00
          2   -1    0    0  502    0  0.00000000000E+00  0.00000000000E+00  0.23846199508E+04  0.23846199508E+04  0.00000000000E+00 0. -1.
          1   -1    0    0  501    0 -0.00000000000E+00 -0.00000000000E+00 -0.41738800169E+03  0.41738800169E+03  0.00000000000E+00 0. -1.
         25    2    1    2    0    0  0.23045956977E+02 -0.10364771679E+03 -0.21115104699E+02  0.16535781931E+03  0.12499358157E+03 0.  0.
          2    1    1    2  501    0 -0.29456462509E+02 -0.23390332375E+02 -0.32130447311E+03  0.32349861711E+03  0.00000000000E+00 0. -1.
          1    1    1    2  502    0  0.64105055318E+01  0.12703804916E+03  0.23096515269E+04  0.23131515160E+04  0.00000000000E+00 0. -1.
         22    1    3    3    0    0  0.31884404558E+02 -0.46381420803E+01  0.37908806830E+02  0.49751434665E+02  0.00000000000E+00 0. -1.
         22    1    3    3    0    0 -0.88384475809E+01 -0.99009574706E+02 -0.59023911529E+02  0.11560638465E+03  0.00000000000E+00 0. -1.
</event>
<event>
 7    1  0.5194496E-006  0.8508593E+02  0.7818608E-02  0.1359738E+00
          2   -1    0    0  502    0  0.00000000000E+00  0.00000000000E+00  0.26856659214E+04  0.26856659214E+04  0.00000000000E+00 0. -1.
          1   -1    0    0  501    0 -0.00000000000E+00 -0.00000000000E+00 -0.13608772315E+04  0.13608772315E+04  0.00000000000E+00 0. -1.
         25    2    1    2    0    0 -0.37347757798E+02  0.32596579472E+02  0.12803907839E+04  0.12874323216E+04  0.12499612441E+03 0.  0.
          2    1    1    2  501    0 -0.54191428669E+02  0.19990642691E+02 -0.13547525375E+04  0.13559833238E+04  0.00000000000E+00 0. -1.
          1    1    1    2  502    0  0.91539186467E+02 -0.52587222163E+02  0.13991504435E+04  0.14031275075E+04  0.00000000000E+00 0. -1.
         22    1    3    3    0    0 -0.78407680779E+02  0.63019328163E+01  0.57456870085E+03  0.57992816000E+03  0.00000000000E+00 0. -1.
         22    1    3    3    0    0  0.41059922981E+02  0.26294646656E+02  0.70582208308E+03  0.70750416160E+03  0.00000000000E+00 0. -1.
</event>
<event>
 7    1  0.5194496E-006  0.1955559E+03  0.7818608E-02  0.1329275E+00
          2   -1    0    0  502    0  0.00000000000E+00  0.00000000000E+00  0.55851028129E+03  0.55851028129E+03  0.00000000000E+00 0. -1.
          1   -1    0    0  501    0 -0.00000000000E+00 -0.00000000000E+00 -0.23915298003E+03  0.23915298003E+03  0.00000000000E+00 0. -1.
         25    2    1    2    0    0  0.11464612161E+03 -0.17148894465E+03 -0.10984421323E+03  0.26504253116E+03  0.12501840188E+03 0.  0.
          2    1    1    2  501    0 -0.90109006333E+02  0.14993013079E+03  0.99376616963E+02  0.20118247722E+03  0.00000000000E+00 0. -1.
          1    1    1    2  502    0 -0.24537115277E+02  0.21558813855E+02  0.32982489753E+03  0.33143825294E+03  0.00000000000E+00 0. -1.
         22    1    3    3    0    0  0.12104916799E+03 -0.96968466617E+02 -0.11017278244E+03  0.19024675182E+03  0.00000000000E+00 0. -1.
         22    1    3    3    0    0 -0.64030463836E+01 -0.74520478033E+02  0.32856920349E+00  0.74795779339E+02  0.00000000000E+00 0. -1.
</event>
<event>
 7    1  0.5194496E-006  0.5106664E+02  0.7818608E-02  0.1447989E+00
          2   -1    0    0  502    0  0.00000000000E+00  0.00000000000E+00  0.24191815347E+02  0.24191815347E+02  0.00000000000E+00 0. -1.
          1   -1    0    0  501    0 -0.00000000000E+00 -0.00000000000E+00 -0.20350583258E+04  0.20350583258E+04  0.00000000000E+00 0. -1.
         25    2    1    2    0    0  0.10945125915E+02  0.32683071337E+02 -0.87322506403E+03  0.88279945471E+03  0.12499954346E+03 0.  0.
          2    1    1    2  501    0 -0.54347613138E+02 -0.12170232987E+02 -0.11255745490E+04  0.11269515708E+04  0.00000000000E+00 0. -1.
          1    1    1    2  502    0  0.43402487222E+02 -0.20512838350E+02 -0.12066897447E+02  0.49499115631E+02  0.00000000000E+00 0. -1.
         22    1    3    3    0    0 -0.45119232586E+01 -0.39947077513E+02 -0.53551656625E+03  0.53702338792E+03  0.00000000000E+00 0.  1.
         22    1    3    3    0    0  0.15457049174E+02  0.72630148850E+02 -0.33770849778E+03  0.34577606679E+03  0.00000000000E+00 0.  1.
</event>
<event>
 7    1  0.5194496E-006  0.5944654E+02  0.7818608E-02  0.1407274E+00
          2   -1    0    0  502    0  0.00000000000E+00  0.00000000000E+00  0.20892075420E+04  0.20892075420E+04  0.00000000000E+00 0. -1.
          1   -1    0    0  501    0 -0.00000000000E+00 -0.00000000000E+00 -0.11189856708E+02  0.11189856708E+02  0.00000000000E+00 0. -1.
         25    2    1    2    0    0 -0.25331755472E+02 -0.48492352768E+02  0.16230965050E+04  0.16288217733E+04  0.12499959435E+03 0.  0.
          2    1    1    2  501    0  0.62140233974E+02  0.60083842639E+01  0.16856600266E+03  0.17975540774E+03  0.00000000000E+00 0. -1.
          1    1    1    2  502    0 -0.36808478502E+02  0.42483968504E+02  0.28635517759E+03  0.29182021760E+03  0.00000000000E+00 0. -1.
         22    1    3    3    0    0  0.28204535720E+02 -0.12668275422E+02  0.10752972485E+03  0.11188665141E+03  0.00000000000E+00 0.  1.
         22    1    3    3    0    0 -0.53536291192E+02 -0.35824077346E+02  0.15155667802E+04  0.15169351219E+04  0.00000000000E+00 0.  1.
</event>
<event>
 7    1  0.5194496E-006  0.9542707E+02  0.7818608E-02  0.1292383E+00
          2   -1    0    0  502    0  0.00000000000E+00  0.00000000000E+00  0.16470443850E+03  0.16470443850E+03  0.00000000000E+00 0. -1.
          1   -1    0    0  501    0 -0.00000000000E+00 -0.00000000000E+00 -0.16936335579E+04  0.16936335579E+04  0.00000000000E+00 0. -1.
         25    2    1    2    0    0 -0.62335342060E+02 -0.11277470465E+03 -0.42761244276E+03  0.46376764953E+03  0.12499681064E+03 0.  0.
          2    1    1    2  501    0  0.90994006593E+02  0.21568440670E+02 -0.12303946827E+04  0.12339433463E+04  0.00000000000E+00 0. -1.
          1    1    1    2  502    0 -0.28658664534E+02  0.91206263985E+02  0.12907800605E+03  0.16062700050E+03  0.00000000000E+00 0. -1.
         22    1    3    3    0    0  0.95968196850E+01 -0.10542487345E+03 -0.28139428902E+03  0.30064804802E+03  0.00000000000E+00 0. -1.
         22    1    3    3    0    0 -0.71932161745E+02 -0.73498312072E+01 -0.14621815374E+03  0.16311960151E+03  0.00000000000E+00 0. -1.
</event>
<event>
 7    1  0.5194496E-006  0.1173343E+03  0.7818608E-02  0.1366800E+00
          2   -1    0    0  502    0  0.00000000000E+00  0.00000000000E+00  0.12596716912E+04  0.12596716912E+04  0.00000000000E+00 0. -1.
          1   -1    0    0  501    0 -0.00000000000E+00 -0.00000000000E+00 -0.23660941756E+04  0.23660941756E+04  0.00000000000E+00 0. -1.
         25    2    1    2    0    0  0.70549008122E+02 -0.49266823710E+02  0.30223098614E+03  0.33819031190E+03  0.12499894244E+03 0.  0.
          2    1    1    2  501    0  0.37168043190E+02 -0.13323411717E+02 -0.23438173465E+04  0.23441498951E+04  0.00000000000E+00 0. -1.
          1    1    1    2  502    0 -0.10771705131E+03  0.62590235427E+02  0.93516387599E+03  0.94342565986E+03  0.00000000000E+00 0. -1.
         22    1    3    3    0    0 -0.32764164550E+02  0.19933203253E+01  0.40184157401E+02  0.51886706492E+02  0.00000000000E+00 0.  1.
         22    1    3    3    0    0  0.10331317267E+03 -0.51260144035E+02  0.26204682874E+03  0.28630360540E+03  0.00000000000E+00 0.  1.
</event>
<event>
 7    1  0.5194496E-006  0.6350584E+02  0.7818608E-02  0.1395912E+00
          2   -1    0    0  502    0  0.00000000000E+00  0.00000000000E+00  0.34774233988E+04  0.34774233988E+04  0.00000000000E+00 0. -1.
          1   -1    0    0  501    0 -0.00000000000E+00 -0.00000000000E+00 -0.26050051384E+02  0.26050051384E+02  0.00000000000E+00 0. -1.
         25    2    1    2    0    0 -0.34250049660E+02 -0.82108772276E+02  0.73450849164E+03  0.75036071064E+03  0.12499422147E+03 0.  0.
          2    1    1    2  501    0  0.56048171092E+02  0.28835826012E+02  0.37938075849E+02  0.73567655554E+02  0.00000000000E+00 0. -1.
          1    1    1    2  502    0 -0.21798121433E+02  0.53272946264E+02  0.26789267800E+04  0.26795450840E+04  0.00000000000E+00 0. -1.
         22    1    3    3    0    0 -0.58059375982E+02 -0.48812131377E+02  0.19395505542E+03  0.20825964283E+03  0.00000000000E+00 0.  1.
         22    1    3    3    0    0  0.23809326322E+02 -0.33296640899E+02  0.54055343621E+03  0.54210106780E+03  0.00000000000E+00 0.  1.
</event>
<event>
 7    1  0.5194496E-006  0.1797082E+03  0.7818608E-02  0.1281855E+00
          2   -1    0    0  502    0  0.00000000000E+00  0.00000000000E+00  0.69061137811E+02  0.69061137811E+02  0.00000000000E+00 0. -1.
          1   -1    0    0  501    0 -0.00000000000E+00 -0.00000000000E+00 -0.15759263641E+04  0.15759263641E+04  0.00000000000E+00 0. -1.
         25    2    1    2    0    0  0.18699569740E+03 -0.43315951426E+02 -0.89683103052E+03  0.92562124722E+03  0.12500053403E+03 0.  0.
          2    1    1    2  501    0 -0.85216296896E+01  0.54161313933E+02 -0.51301657805E+03  0.51593805389E+03  0.00000000000E+00 0. -1.
          1    1    1    2  502    0 -0.17847406771E+03 -0.10845362507E+02 -0.97017617719E+02  0.20342820080E+03  0.00000000000E+00 0. -1.
         22    1    3    3    0    0  0.21554380426E+02 -0.10215558081E+02 -0.15871123237E+02  0.28650331503E+02  0.00000000000E+00 0. -1.
         22    1    3    3    0    0  0.16544131697E+03 -0.33100393345E+02 -0.88095990729E+03  0.89697091572E+03  0.00000000000E+00 0. -1.
</event>
<event>
 7    1  0.5194496E-006  0.8362228E+02  0.7818608E-02  0.1358306E+00
          2   -1    0    0  502    0  0.00000000000E+00  0.00000000000E+00  0.83498260856E+03  0.83498260856E+03  0.00000000000E+00 0. -1.
          1   -1    0    0  501    0 -0.00000000000E+00 -0.00000000000E+00 -0.47784704144E+03  0.47784704144E+03  0.00000000000E+00 0. -1.
         25    2    1    2    0    0  0.62080201312E+02  0.79430646869E+02  0.28907071371E+03  0.33068400690E+03  0.12500742314E+03 0.  0.
          2    1    1    2  501    0  0.18249438694E+02 -0.56615703639E+02 -0.45175833285E+03  0.45565773472E+03  0.00000000000E+00 0. -1.
          1    1    1    2  502    0 -0.80329640006E+02 -0.22814943229E+02  0.51982318626E+03  0.52648790839E+03  0.00000000000E+00 0. -1.
         22    1    3    3    0    0  0.54628249743E+02 -0.21995276013E+02  0.10496983514E+03  0.12036072501E+03  0.00000000000E+00 0. -1.
         22    1    3    3    0    0  0.74519515692E+01  0.10142592288E+03  0.18410087857E+03  0.21032328189E+03  0.00000000000E+00 0. -1.
</event>
<event>
 7    1  0.5194496E-006  0.1288315E+03  0.7818608E-02  0.1358768E+00
          2   -1    0    0  502    0  0.00000000000E+00  0.00000000000E+00  0.26925535877E+04  0.26925535877E+04  0.00000000000E+00 0. -1.
          1   -1    0    0  501    0 -0.00000000000E+00 -0.00000000000E+00 -0.15926354156E+04  0.15926354156E+04  0.00000000000E+00 0. -1.
         25    2    1    2    0    0 -0.53020465264E+02  0.76917922739E+02  0.75559624079E+03  0.77154554387E+03  0.12501724119E+03 0.  0.
          2    1    1    2  501    0  0.86731197653E+02 -0.95432554811E+02 -0.15818449388E+04  0.15870926512E+04  0.00000000000E+00 0. -1.
          1    1    1    2  502    0 -0.33710732389E+02  0.18514632072E+02  0.19261668701E+04  0.19265508082E+04  0.00000000000E+00 0. -1.
         22    1    3    3    0    0 -0.23192942241E+02 -0.33805665030E+02  0.22421755387E+03  0.22793474290E+03  0.00000000000E+00 0.  1.
         22    1    3    3    0    0 -0.29827523024E+02  0.11072358777E+03  0.53137868692E+03  0.54361080097E+03  0.00000000000E+00 0.  1.
</event>
<event>
 7    1  0.5194496E-006  0.6514970E+02  0.7818608E-02  0.1382497E+00
          2   -1    0    0  502    0  0.00000000000E+00  0.00000000000E+00  0.13286221501E+04  0.13286221501E+04  0.00000000000E+00 0. -1.
          1   -1    0    0  501    0 -0.00000000000E+00 -0.00000000000E+00 -0.14633474144E+04  0.14633474144E+04  0.00000000000E+00 0. -1.
         25    2    1    2    0    0 -0.28981780511E+02 -0.89162551575E+00  0.26813147900E+03  0.29725420509E+03  0.12499933527E+03 0.  0.
          2    1    1    2  501    0  0.13508313534E+02 -0.63733888021E+02 -0.14469968630E+04  0.14484627729E+04  0.00000000000E+00 0. -1.
          1    1    1    2  502    0  0.15473466978E+02  0.64625513537E+02  0.10441401197E+04  0.10462525865E+04  0.00000000000E+00 0. -1.
         22    1    3    3    0    0 -0.34413934951E+02 -0.58436048061E+02  0.11406647504E+03  0.13270362225E+03  0.00000000000E+00 0.  1.
         22    1    3    3    0    0  0.54321544393E+01  0.57544422545E+02  0.15406500396E+03  0.16455058284E+03  0.00000000000E+00 0.  1.
</event>
<event>
 7    1  0.5194496E-006  0.8942379E+02  0.7818608E-02  0.1308757E+00
          2   -1    0    0  502    0  0.00000000000E+00  0.00000000000E+00  0.31022121639E+03  0.31022121639E+03  0.00000000000E+00 0. -1.
          1   -1    0    0  501    0 -0.00000000000E+00 -0.00000000000E+00 -0.40970958688E+03  0.40970958688E+03  0.00000000000E+00 0. -1.
         25    2    1    2    0    0  0.78180372615E+01 -0.80515674617E+02 -0.32836423430E+02  0.15247013408E+03  0.12500006207E+03 0.  0.
          2    1    1    2  501    0  0.75839836954E+02  0.47380736622E+02 -0.30228343319E+03  0.31523307100E+03  0.00000000000E+00 0. -1.
          1    1    1    2  502    0 -0.83657874215E+02  0.33134937996E+02  0.23563148613E+03  0.25222759819E+03  0.00000000000E+00 0. -1.
         22    1    3    3    0    0  0.23253006928E+02  0.13864502788E+02  0.28141694764E+02  0.39049734352E+02  0.00000000000E+00 0. -1.
         22    1    3    3    0    0 -0.15434969667E+02 -0.94380177406E+02 -0.60978118194E+02  0.11342039973E+03  0.00000000000E+00 0. -1.
</event>
<event>
 7    1  0.5194496E-006  0.7502379E+02  0.7818608E-02  0.1408758E+00
          2   -1    0    0  502    0  0.00000000000E+00  0.00000000000E+00  0.68949345130E+03  0.68949345130E+03  0.00000000000E+00 0. -1.
          1   -1    0    0  501    0 -0.00000000000E+00 -0.00000000000E+00 -0.11713633024E+04  0.11713633024E+04  0.00000000000E+00 0. -1.
         25    2    1    2    0    0 -0.76690205048E+02  0.29285990020E+02 -0.16967083684E+03  0.22616901301E+03  0.12500069124E+03 0.  0.
          2    1    1    2  501    0  0.45278924383E+02 -0.60134560314E+02 -0.97125260457E+03  0.97416526741E+03  0.00000000000E+00 0. -1.
          1    1    1    2  502    0  0.31411280666E+02  0.30848570294E+02  0.65905359030E+03  0.66052247329E+03  0.00000000000E+00 0. -1.
         22    1    3    3    0    0 -0.88465740970E+02  0.66386193951E+02 -0.12704594060E+03  0.16844579275E+03  0.00000000000E+00 0. -1.
         22    1    3    3    0    0  0.11775535921E+02 -0.37100203931E+02 -0.42624896240E+02  0.57723220262E+02  0.00000000000E+00 0. -1.
</event>
<event>
 7    1  0.5606334E-006  0.4740054E+02  0.7818608E-02  0.1511888E+00
          2   -1    0    0  502    0  0.00000000000E+00  0.00000000000E+00  0.10273441623E+04  0.10273441623E+04  0.00000000000E+00 0. -1.
          1   -1    0    0  501    0 -0.00000000000E+00 -0.00000000000E+00 -0.94173680833E+03  0.94173680833E+03  0.00000000000E+00 0. -1.
         25    2    1    2    0    0  0.17906902145E+02  0.17887493777E+01 -0.32207501214E+03  0.34595024494E+03  0.12500160705E+03 0.  0.
          2    1    1    2  501    0 -0.49336811353E+02  0.80178023099E+01 -0.60642879579E+03  0.60848524261E+03  0.00000000000E+00 0. -1.
          1    1    1    2  502    0  0.31429909208E+02 -0.98065516876E+01  0.10141111619E+04  0.10146454831E+04  0.00000000000E+00 0. -1.
         22    1    3    3    0    0  0.41557517993E+02  0.54347947128E+02 -0.18536265551E+03  0.19758552760E+03  0.00000000000E+00 0. -1.
         22    1    3    3    0    0 -0.23650615848E+02 -0.52559197751E+02 -0.13671235662E+03  0.14836471734E+03  0.00000000000E+00 0. -1.
</event>
<event>
 7    1  0.5194496E-006  0.5781094E+02  0.7818608E-02  0.1481152E+00
          2   -1    0    0  502    0  0.00000000000E+00  0.00000000000E+00  0.19246483351E+03  0.19246483351E+03  0.00000000000E+00 0. -1.
          1   -1    0    0  501    0 -0.00000000000E+00 -0.00000000000E+00 -0.72995087750E+03  0.72995087750E+03  0.00000000000E+00 0. -1.
         25    2    1    2    0    0 -0.19243302486E+01  0.31593057337E+02  0.54946185064E+02  0.14015973333E+03  0.12499537302E+03 0.  0.
          2    1    1    2  501    0 -0.91838672826E+01  0.32089433618E+02 -0.67587711082E+03  0.67670077885E+03  0.00000000000E+00 0. -1.
          1    1    1    2  502    0  0.11108197531E+02 -0.63682490955E+02  0.83444881760E+02  0.10555519882E+03  0.00000000000E+00 0. -1.
         22    1    3    3    0    0 -0.42320397238E+02  0.57035034125E+02  0.51992699116E+01  0.71211259978E+02  0.00000000000E+00 0.  1.
         22    1    3    3    0    0  0.40396066989E+02 -0.25441976787E+02  0.49746915153E+02  0.68948473357E+02  0.00000000000E+00 0.  1.
</event>
<event>
 7    1  0.5194496E-006  0.4982932E+02  0.7818608E-02  0.1484100E+00
          2   -1    0    0  502    0  0.00000000000E+00  0.00000000000E+00  0.24729044273E+04  0.24729044273E+04  0.00000000000E+00 0. -1.
          1   -1    0    0  501    0 -0.00000000000E+00 -0.00000000000E+00 -0.30208085438E+02  0.30208085438E+02  0.00000000000E+00 0. -1.
         25    2    1    2    0    0 -0.15492224650E+02  0.69717069266E+02  0.88893679338E+03  0.90051891928E+03  0.12500089035E+03 0.  0.
          2    1    1    2  501    0 -0.14996724876E+02 -0.47154974348E+02  0.11241922283E+01  0.49495021678E+02  0.00000000000E+00 0. -1.
          1    1    1    2  502    0  0.30488949526E+02 -0.22562094918E+02  0.15526353563E+04  0.15530985718E+04  0.00000000000E+00 0. -1.
         22    1    3    3    0    0  0.26968325786E+02 -0.10267564494E+02  0.59235986740E+02  0.65890937172E+02  0.00000000000E+00 0. -1.
         22    1    3    3    0    0 -0.42460550436E+02  0.79984633759E+02  0.82970080664E+03  0.83462798210E+03  0.00000000000E+00 0. -1.
</event>
<event>
 7    1  0.5194496E-006  0.5158475E+02  0.7818608E-02  0.1438426E+00
          2   -1    0    0  502    0  0.00000000000E+00  0.00000000000E+00  0.29298563034E+04  0.29298563034E+04  0.00000000000E+00 0. -1.
          1   -1    0    0  501    0 -0.00000000000E+00 -0.00000000000E+00 -0.10042619799E+03  0.10042619799E+03  0.00000000000E+00 0. -1.
         25    2    1    2    0    0 -0.77252030753E+01 -0.13045855694E+02  0.15507312837E+03  0.19976474752E+03  0.12501362365E+03 0.  0.
          2    1    1    2  501    0 -0.37212690942E+02  0.38375126198E+02 -0.68660367333E+02  0.87015405074E+02  0.00000000000E+00 0. -1.
          1    1    1    2  502    0  0.44937894017E+02 -0.25329270504E+02  0.27430173444E+04  0.27435023488E+04  0.00000000000E+00 0. -1.
         22    1    3    3    0    0 -0.64265550060E+01 -0.13924164557E+02 -0.19710704694E+02  0.24973883306E+02  0.00000000000E+00 0.  1.
         22    1    3    3    0    0 -0.12986480693E+01  0.87830886278E+00  0.17478383306E+03  0.17479086422E+03  0.00000000000E+00 0.  1.
</event>
<event>
 7    1  0.5194496E-006  0.9120049E+02  0.7818608E-02  0.1317718E+00
          2   -1    0    0  502    0  0.00000000000E+00  0.00000000000E+00  0.14042660877E+03  0.14042660877E+03  0.00000000000E+00 0. -1.
          1   -1    0    0  501    0 -0.00000000000E+00 -0.00000000000E+00 -0.57544487580E+03  0.57544487580E+03  0.00000000000E+00 0. -1.
         25    2    1    2    0    0  0.12492968597E+03 -0.10020176892E+03 -0.74818827910E+02  0.21648877367E+03  0.12498684405E+03 0.  0.
          2    1    1    2  501    0 -0.77944429822E+02  0.38428211842E+02 -0.40196161660E+03  0.41124834690E+03  0.00000000000E+00 0. -1.
          1    1    1    2  502    0 -0.46985256148E+02  0.61773557079E+02  0.41762177480E+02  0.88134363999E+02  0.00000000000E+00 0. -1.
         22    1    3    3    0    0  0.12074616953E+03 -0.12728321536E+03 -0.68672031929E+02  0.18840515475E+03  0.00000000000E+00 0.  1.
         22    1    3    3    0    0  0.41835164394E+01  0.27081446435E+02 -0.61467959809E+01  0.28083618920E+02  0.00000000000E+00 0.  1.
</event>
<event>
 7    1  0.5194496E-006  0.1547790E+03  0.7818608E-02  0.1334213E+00
          2   -1    0    0  502    0  0.00000000000E+00  0.00000000000E+00  0.43513929922E+03  0.43513929922E+03  0.00000000000E+00 0. -1.
          1   -1    0    0  501    0 -0.00000000000E+00 -0.00000000000E+00 -0.16352688285E+04  0.16352688285E+04  0.00000000000E+00 0. -1.
         25    2    1    2    0    0  0.10544774214E+03 -0.78191795777E+02 -0.14619424370E+03  0.23287592614E+03  0.12500102733E+03 0.  0.
          2    1    1    2  501    0 -0.15919747705E+01 -0.39486392780E+02 -0.14297311037E+04  0.14302771544E+04  0.00000000000E+00 0. -1.
          1    1    1    2  502    0 -0.10385576737E+03  0.11767818856E+03  0.37579581814E+03  0.40725504713E+03  0.00000000000E+00 0. -1.
         22    1    3    3    0    0  0.13444370104E+03 -0.66284622374E+02 -0.12243103702E+03  0.19354100015E+03  0.00000000000E+00 0. -1.
         22    1    3    3    0    0 -0.28995958897E+02 -0.11907173403E+02 -0.23763206682E+02  0.39334925990E+02  0.00000000000E+00 0. -1.
</event>
<event>
 7    1  0.5194496E-006  0.1066061E+03  0.7818608E-02  0.1365475E+00
          2   -1    0    0  502    0  0.00000000000E+00  0.00000000000E+00  0.27924131523E+04  0.27924131523E+04  0.00000000000E+00 0. -1.
          1   -1    0    0  501    0 -0.00000000000E+00 -0.00000000000E+00 -0.55073240649E+03  0.55073240649E+03  0.00000000000E+00 0. -1.
         25    2    1    2    0    0 -0.45940852722E+02 -0.13308557863E+03  0.19858079571E+04  0.19947135754E+04  0.12500668879E+03 0.  0.
          2    1    1    2  501    0  0.56355755319E+02  0.90398125569E+02 -0.54047497043E+03  0.55087293083E+03  0.00000000000E+00 0. -1.
          1    1    1    2  502    0 -0.10414902597E+02  0.42687453061E+02  0.79634775912E+03  0.79755905254E+03  0.00000000000E+00 0. -1.
         22    1    3    3    0    0 -0.40039572996E+02 -0.15782515785E+03  0.17073084707E+04  0.17150551484E+04  0.00000000000E+00 0. -1.
         22    1    3    3    0    0 -0.59012797257E+01  0.24739579223E+02  0.27849948639E+03  0.27965842702E+03  0.00000000000E+00 0. -1.
</event>
<event>
 7    1  0.5194496E-006  0.2416634E+03  0.7818608E-02  0.1264724E+00
          2   -1    0    0  502    0  0.00000000000E+00  0.00000000000E+00  0.60036876005E+03  0.60036876005E+03  0.00000000000E+00 0. -1.
          1   -1    0    0  501    0 -0.00000000000E+00 -0.00000000000E+00 -0.22860949354E+04  0.22860949354E+04  0.00000000000E+00 0. -1.
         25    2    1    2    0    0  0.28948339141E+02  0.22394966440E+03 -0.12007592863E+03  0.28467337262E+03  0.12501696651E+03 0.  0.
          2    1    1    2  501    0 -0.76499837049E+02 -0.23102572345E+03 -0.20754799140E+04  0.20896990174E+04  0.00000000000E+00 0. -1.
          1    1    1    2  502    0  0.47551497908E+02  0.70760590430E+01  0.50982966722E+03  0.51209130547E+03  0.00000000000E+00 0. -1.
         22    1    3    3    0    0  0.19126916323E+02  0.53423503993E+02 -0.96910119587E+02  0.11230085033E+03  0.00000000000E+00 0.  1.
         22    1    3    3    0    0  0.98214228174E+01  0.17052616041E+03 -0.23165809040E+02  0.17237252229E+03  0.00000000000E+00 0.  1.
</event>
<event>
 7    1  0.5194496E-006  0.5243565E+02  0.7818608E-02  0.1503830E+00
          2   -1    0    0  502    0  0.00000000000E+00  0.00000000000E+00  0.13283868639E+03  0.13283868639E+03  0.00000000000E+00 0. -1.
          1   -1    0    0  501    0 -0.00000000000E+00 -0.00000000000E+00 -0.25273424841E+04  0.25273424841E+04  0.00000000000E+00 0. -1.
         25    2    1    2    0    0 -0.13745629132E+01 -0.61116331091E+02 -0.13935653507E+02  0.13984691686E+03  0.12500344942E+03 0.  0.
          2    1    1    2  501    0  0.27970444007E+02  0.44352405856E+02 -0.24466202135E+04  0.24471820429E+04  0.00000000000E+00 0. -1.
          1    1    1    2  502    0 -0.26595881094E+02  0.16763925236E+02  0.66052069319E+02  0.73152210778E+02  0.00000000000E+00 0. -1.
         22    1    3    3    0    0 -0.56009429937E+02 -0.32127719815E+02 -0.36305703569E+02  0.74076654447E+02  0.00000000000E+00 0.  1.
         22    1    3    3    0    0  0.54634867024E+02 -0.28988611276E+02  0.22370050063E+02  0.65770262416E+02  0.00000000000E+00 0.  1.
</event>
<event>
 7    1  0.5194496E-006  0.1161060E+03  0.7818608E-02  0.1254424E+00
          2   -1    0    0  502    0  0.00000000000E+00  0.00000000000E+00  0.39761281956E+04  0.39761281956E+04  0.00000000000E+00 0. -1.
          1   -1    0    0  501    0 -0.00000000000E+00 -0.00000000000E+00 -0.19404517146E+03  0.19404517146E+03  0.00000000000E+00 0. -1.
         25    2    1    2    0    0 -0.50974769086E+01  0.45060464390E+02  0.37352628031E+03  0.39647509228E+03  0.12495674048E+03 0.  0.
          2    1    1    2  501    0  0.10744236411E+03  0.26786930061E+02 -0.16458595216E+03  0.19836818514E+03  0.00000000000E+00 0. -1.
          1    1    1    2  502    0 -0.10234488720E+03 -0.71847394450E+02  0.35731426960E+04  0.35753300896E+04  0.00000000000E+00 0. -1.
         22    1    3    3    0    0  0.47476059542E+02  0.36383009681E+02  0.90524341079E+02  0.10850048825E+03  0.00000000000E+00 0.  1.
         22    1    3    3    0    0 -0.52573536451E+02  0.86774547087E+01  0.28300193923E+03  0.28797460403E+03  0.00000000000E+00 0.  1.
</event>
<event>
 7    1  0.5194496E-006  0.2546613E+03  0.7818608E-02  0.1198439E+00
          2   -1    0    0  502    0  0.00000000000E+00  0.00000000000E+00  0.48686011368E+03  0.48686011368E+03  0.00000000000E+00 0. -1.
          1   -1    0    0  501    0 -0.00000000000E+00 -0.00000000000E+00 -0.10123673472E+04  0.10123673472E+04  0.00000000000E+00 0. -1.
         25    2    1    2    0    0 -0.79719114276E+02  0.18188237939E+03 -0.17516521842E+03  0.29282014085E+03  0.12499777609E+03 0.  0.
          2    1    1    2  501    0  0.67639487006E+02 -0.27139910175E+03 -0.74801843189E+03  0.79860136932E+03  0.00000000000E+00 0. -1.
          1    1    1    2  502    0  0.12079627269E+02  0.89516722359E+02  0.39767641678E+03  0.40780595072E+03  0.00000000000E+00 0. -1.
         22    1    3    3    0    0 -0.24790855340E+02  0.13890029735E+03 -0.50294520159E+02  0.14979124764E+03  0.00000000000E+00 0. -1.
         22    1    3    3    0    0 -0.54928258936E+02  0.42982082040E+02 -0.12487069826E+03  0.14302889320E+03  0.00000000000E+00 0. -1.
</event>
<event>
 7    1  0.5194496E-006  0.1530424E+03  0.7818608E-02  0.1251230E+00
          2   -1    0    0  502    0  0.00000000000E+00  0.00000000000E+00  0.88893342884E+03  0.88893342884E+03  0.00000000000E+00 0. -1.
          1   -1    0    0  501    0 -0.00000000000E+00 -0.00000000000E+00 -0.22979136723E+03  0.22979136723E+03  0.00000000000E+00 0. -1.
         25    2    1    2    0    0 -0.17844598188E+03 -0.62901835553E+02  0.50107869437E+03  0.55000431830E+03  0.12500113134E+03 0.  0.
          2    1    1    2  501    0  0.10540604497E+03  0.10964589611E+03 -0.17074902111E+03  0.22866544352E+03  0.00000000000E+00 0. -1.
          1    1    1    2  502    0  0.73039936910E+02 -0.46744060554E+02  0.32881238836E+03  0.34005503425E+03  0.00000000000E+00 0. -1.
         22    1    3    3    0    0  0.82472910517E+01  0.20253889651E+02  0.38254074836E+02  0.44063727682E+02  0.00000000000E+00 0.  1.
         22    1    3    3    0    0 -0.18669327293E+03 -0.83155725204E+02  0.46282461953E+03  0.50594059062E+03  0.00000000000E+00 0.  1.
</event>
<event>
 7    1  0.5194496E-006  0.5316901E+02  0.7818608E-02  0.1465423E+00
          2   -1    0    0  502    0  0.00000000000E+00  0.00000000000E+00  0.36389025633E+03  0.36389025633E+03  0.00000000000E+00 0. -1.
          1   -1    0    0  501    0 -0.00000000000E+00 -0.00000000000E+00 -0.56542061493E+03  0.56542061493E+03  0.00000000000E+00 0. -1.
         25    2    1    2    0    0  0.41908767032E+02  0.55774374433E+02 -0.29669401619E+03  0.32941741603E+03  0.12498547573E+03 0.  0.
          2    1    1    2  501    0 -0.14706815592E+01 -0.52163680946E+02 -0.24845933700E+03  0.25388039439E+03  0.00000000000E+00 0. -1.
          1    1    1    2  502    0 -0.40438085473E+02 -0.36106934871E+01  0.34362299459E+03  0.34601306084E+03  0.00000000000E+00 0. -1.
         22    1    3    3    0    0  0.69940735695E+02  0.37151593813E+02 -0.28161636101E+03  0.29254012070E+03  0.00000000000E+00 0.  1.
         22    1    3    3    0    0 -0.28031968662E+02  0.18622780620E+02 -0.15077655182E+02  0.36877295330E+02  0.00000000000E+00 0.  1.
</event>
<event>
 7    1  0.5194496E-006  0.2681699E+03  0.7818608E-02  0.1253445E+00
          2   -1    0    0  502    0  0.00000000000E+00  0.00000000000E+00  0.15125215290E+04  0.15125215290E+04  0.00000000000E+00 0. -1.
          1   -1    0    0  501    0 -0.00000000000E+00 -0.00000000000E+00 -0.18357717452E+04  0.18357717452E+04  0.00000000000E+00 0. -1.
         25    2    1    2    0    0  0.20461438804E+03 -0.23475778164E+03  0.13035949586E+03  0.35999547103E+03  0.12499950867E+03 0.  0.
          2    1    1    2  501    0 -0.32874489196E+02  0.35535192212E+02 -0.17069594212E+04  0.17076457324E+04  0.00000000000E+00 0. -1.
          1    1    1    2  502    0 -0.17173989884E+03  0.19922258943E+03  0.12533497091E+04  0.12806520708E+04  0.00000000000E+00 0. -1.
         22    1    3    3    0    0  0.20584094788E+03 -0.16915274013E+03  0.82940376724E+02  0.27903808237E+03  0.00000000000E+00 0. -1.
         22    1    3    3    0    0 -0.12265598403E+01 -0.65605041505E+02  0.47419119136E+02  0.80957388665E+02  0.00000000000E+00 0. -1.
</event>
<event>
 7    1  0.5194496E-006  0.5397298E+02  0.7818608E-02  0.1450208E+00
          2   -1    0    0  502    0  0.00000000000E+00  0.00000000000E+00  0.28022345941E+02  0.28022345941E+02  0.00000000000E+00 0. -1.
          1   -1    0    0  501    0 -0.00000000000E+00 -0.00000000000E+00 -0.76500836642E+03  0.76500836642E+03  0.00000000000E+00 0. -1.
         25    2    1    2    0    0 -0.33680777006E+02  0.85647539947E+02 -0.43518261596E+03  0.46203855573E+03  0.12500328759E+03 0.  0.
          2    1    1    2  501    0  0.54710107991E+01 -0.44347075002E+02 -0.26539097591E+03  0.26912629956E+03  0.00000000000E+00 0. -1.
          1    1    1    2  502    0  0.28209766207E+02 -0.41300464945E+02 -0.36412428613E+02  0.61865857075E+02  0.00000000000E+00 0. -1.
         22    1    3    3    0    0  0.20557120883E+01  0.10839065523E+03 -0.25777487329E+03  0.27964378304E+03  0.00000000000E+00 0. -1.
         22    1    3    3    0    0 -0.35736489094E+02 -0.22743115280E+02 -0.17740774266E+03  0.18239477268E+03  0.00000000000E+00 0. -1.
</event>
<event>
 7    1  0.5194496E-006  0.9079735E+02  0.7818608E-02  0.1377781E+00
          2   -1    0    0  502    0  0.00000000000E+00  0.00000000000E+00  0.12778016787E+04  0.12778016787E+04  0.00000000000E+00 0. -1.
          1   -1    0    0  501    0 -0.00000000000E+00 -0.00000000000E+00 -0.86828582145E+02  0.86828582145E+02  0.00000000000E+00 0. -1.
         25    2    1    2    0    0  0.12586651994E+03  0.50666698599E+02  0.82739212682E+03  0.84770979570E+03  0.12499868408E+03 0.  0.
          2    1    1    2  501    0 -0.81205874365E+02 -0.37345822427E+02 -0.48853269725E+02  0.10186140804E+03  0.00000000000E+00 0. -1.
          1    1    1    2  502    0 -0.44660645577E+02 -0.13320876172E+02  0.41243423944E+03  0.41505905708E+03  0.00000000000E+00 0. -1.
         22    1    3    3    0    0  0.11994771133E+03  0.60760108411E+01  0.39162688008E+03  0.40962908168E+03  0.00000000000E+00 0. -1.
         22    1    3    3    0    0  0.59188086128E+01  0.44590687757E+02  0.43576524674E+03  0.43808071402E+03  0.00000000000E+00 0. -1.
</event>
<event>
 7    1  0.5194496E-006  0.8759603E+02  0.7818608E-02  0.1380897E+00
          2   -1    0    0  502    0  0.00000000000E+00  0.00000000000E+00  0.31070416540E+03  0.31070416540E+03  0.00000000000E+00 0. -1.
          1   -1    0    0  501    0 -0.00000000000E+00 -0.00000000000E+00 -0.39801191613E+03  0.39801191613E+03  0.00000000000E+00 0. -1.
         25    2    1    2    0    0  0.10646654880E+03 -0.28023579014E+02  0.10359487808E+03  0.19615787403E+03  0.12500226312E+03 0.  0.
          2    1    1    2  501    0 -0.23547035126E+02  0.40785501474E+02 -0.33904991195E+03  0.34230507269E+03  0.00000000000E+00 0. -1.
          1    1    1    2  502    0 -0.82919513669E+02 -0.12761922461E+02  0.14814728314E+03  0.17025313482E+03  0.00000000000E+00 0. -1.
         22    1    3    3    0    0  0.48464965772E+01 -0.47057971425E+02  0.75371115452E+02  0.88987337573E+02  0.00000000000E+00 0.  1.
         22    1    3    3    0    0  0.10162005222E+03  0.19034392411E+02  0.28223762626E+02  0.10717053645E+03  0.00000000000E+00 0.  1.
</event>
<event>
 7    1  0.5194496E-006  0.1369225E+03  0.7818608E-02  0.1346378E+00
          2   -1    0    0  502    0  0.00000000000E+00  0.00000000000E+00  0.98213045768E+03  0.98213045768E+03  0.00000000000E+00 0. -1.
          1   -1    0    0  501    0 -0.00000000000E+00 -0.00000000000E+00 -0.55501693403E+03  0.55501693403E+03  0.00000000000E+00 0. -1.
         25    2    1    2    0    0 -0.83657939235E+02 -0.10528679555E+03 -0.23699662560E+03  0.29979105743E+03  0.12499326964E+03 0.  0.
          2    1    1    2  501    0 -0.29259110345E+02  0.27575800635E+02 -0.28024015745E+03  0.28310963631E+03  0.00000000000E+00 0. -1.
          1    1    1    2  502    0  0.11291704958E+03  0.77710994911E+02  0.94435030671E+03  0.95424669798E+03  0.00000000000E+00 0. -1.
         22    1    3    3    0    0 -0.73082062351E+02 -0.13265646815E+03 -0.21558058982E+03  0.26346483084E+03  0.00000000000E+00 0. -1.
         22    1    3    3    0    0 -0.10575876884E+02  0.27369672602E+02 -0.21416035779E+02  0.36326226596E+02  0.00000000000E+00 0. -1.
</event>
<event>
 7    1  0.5194496E-006  0.1153088E+03  0.7818608E-02  0.1268374E+00
          2   -1    0    0  502    0  0.00000000000E+00  0.00000000000E+00  0.12403292086E+03  0.12403292086E+03  0.00000000000E+00 0. -1.
          1   -1    0    0  501    0 -0.00000000000E+00 -0.00000000000E+00 -0.27993889791E+04  0.27993889791E+04  0.00000000000E+00 0. -1.
         25    2    1    2    0    0  0.10320351107E+03 -0.15912403523E+03 -0.78238474378E+03  0.81469035912E+03  0.12499228237E+03 0.  0.
          2    1    1    2  501    0 -0.20820713634E+02  0.10746051415E+03 -0.19771123971E+04  0.19801400695E+04  0.00000000000E+00 0. -1.
          1    1    1    2  502    0 -0.82382797439E+02  0.51663521074E+02  0.84141082597E+02  0.12859147135E+03  0.00000000000E+00 0. -1.
         22    1    3    3    0    0  0.80362763219E+02 -0.35486546008E+02 -0.19312852014E+03  0.21216996477E+03  0.00000000000E+00 0. -1.
         22    1    3    3    0    0  0.22840747853E+02 -0.12363748922E+03 -0.58925622364E+03  0.60252039435E+03  0.00000000000E+00 0. -1.
</event>
<event>
 7    1  0.5194496E-006  0.1220016E+03  0.7818608E-02  0.1284704E+00
          2   -1    0    0  502    0  0.00000000000E+00  0.00000000000E+00  0.40222738902E+03  0.40222738902E+03  0.00000000000E+00 0. -1.
          1   -1    0    0  501    0 -0.00000000000E+00 -0.00000000000E+00 -0.68724574446E+03  0.68724574446E+03  0.00000000000E+00 0. -1.
         25    2    1    2    0    0 -0.14170690772E+03 -0.17758521676E+02 -0.32032615605E+03  0.37232979130E+03  0.12499765779E+03 0.  0.
          2    1    1    2  501    0  0.48915100192E+02 -0.61540731959E+02 -0.32622411565E+03  0.33556239710E+03  0.00000000000E+00 0. -1.
          1    1    1    2  502    0  0.92791807530E+02  0.79299253635E+02  0.36153191626E+03  0.38158094507E+03  0.00000000000E+00 0. -1.
         22    1    3    3    0    0  0.14545965985E+02  0.96140069906E+01 -0.31807148651E+01  0.17723746892E+02  0.00000000000E+00 0.  1.
         22    1    3    3    0    0 -0.15625287371E+03 -0.27372528667E+02 -0.31714544118E+03  0.35460604441E+03  0.00000000000E+00 0.  1.
</event>
<event>
 7    1  0.5194496E-006  0.1127908E+03  0.7818608E-02  0.1336962E+00
          2   -1    0    0  502    0  0.00000000000E+00  0.00000000000E+00  0.61339527773E+03  0.61339527773E+03  0.00000000000E+00 0. -1.
          1   -1    0    0  501    0 -0.00000000000E+00 -0.00000000000E+00 -0.27395770135E+03  0.27395770135E+03  0.00000000000E+00 0. -1.
         25    2    1    2    0    0  0.18354904086E+01 -0.63186866044E+02  0.23482676749E+03  0.27342317767E+03  0.12498269598E+03 0.  0.
          2    1    1    2  501    0  0.88777146226E+01  0.11503670541E+03 -0.23946121695E+03  0.26580807330E+03  0.00000000000E+00 0. -1.
          1    1    1    2  502    0 -0.10713205031E+02 -0.51849839370E+02  0.34407202584E+03  0.34812172810E+03  0.00000000000E+00 0. -1.
         22    1    3    3    0    0 -0.33139792985E+02 -0.11577335892E+02  0.52041017821E+01  0.35487508518E+02  0.00000000000E+00 0. -1.
         22    1    3    3    0    0  0.34975283394E+02 -0.51609530152E+02  0.22962266571E+03  0.23793566916E+03  0.00000000000E+00 0. -1.
</event>
<event>
 7    1  0.5194496E-006  0.1671935E+03  0.7818608E-02  0.1200648E+00
          2   -1    0    0  502    0  0.00000000000E+00  0.00000000000E+00  0.35045164018E+03  0.35045164018E+03  0.00000000000E+00 0. -1.
          1   -1    0    0  501    0 -0.00000000000E+00 -0.00000000000E+00 -0.11141117336E+04  0.11141117336E+04  0.00000000000E+00 0. -1.
         25    2    1    2    0    0  0.10428596551E+03 -0.26508586262E+03 -0.16284583484E+03  0.35112268145E+03  0.12498917690E+03 0.  0.
          2    1    1    2  501    0 -0.87693183375E+02  0.13179586337E+03 -0.83153498547E+03  0.84646953641E+03  0.00000000000E+00 0. -1.
          1    1    1    2  502    0 -0.16592782136E+02  0.13328999925E+03  0.23072072685E+03  0.26697115596E+03  0.00000000000E+00 0. -1.
         22    1    3    3    0    0  0.10434091197E+03 -0.10845772875E+03 -0.51961290854E+02  0.15921708635E+03  0.00000000000E+00 0. -1.
         22    1    3    3    0    0 -0.54946461960E-01 -0.15662813386E+03 -0.11088454398E+03  0.19190559510E+03  0.00000000000E+00 0. -1.
</event>
<event>
 7    1  0.5194496E-006  0.9455147E+02  0.7818608E-02  0.1422608E+00
          2   -1    0    0  502    0  0.00000000000E+00  0.00000000000E+00  0.16717408796E+03  0.16717408796E+03  0.00000000000E+00 0. -1.
          1   -1    0    0  501    0 -0.00000000000E+00 -0.00000000000E+00 -0.98746028493E+03  0.98746028493E+03  0.00000000000E+00 0. -1.
         25    2    1    2    0    0 -0.73066343331E+02  0.83782872623E+01  0.10461981630E+02  0.14540743823E+03  0.12499993523E+03 0.  0.
          2    1    1    2  501    0 -0.30994607918E+02 -0.49214046349E+01 -0.88924673291E+03  0.88980033599E+03  0.00000000000E+00 0. -1.
          1    1    1    2  502    0  0.10406095125E+03 -0.34568826274E+01  0.58498554311E+02  0.11942659867E+03  0.00000000000E+00 0. -1.
         22    1    3    3    0    0 -0.53418371036E+02  0.48519374378E+02 -0.36252000632E+02  0.80758031204E+02  0.00000000000E+00 0. -1.
         22    1    3    3    0    0 -0.19647972295E+02 -0.40141087116E+02  0.46713982262E+02  0.64649407027E+02  0.00000000000E+00 0. -1.
</event>
<event>
 7    1  0.5194496E-006  0.8468120E+02  0.7818608E-02  0.1354271E+00
          2   -1    0    0  502    0  0.00000000000E+00  0.00000000000E+00  0.11959257439E+04  0.11959257439E+04  0.00000000000E+00 0. -1.
          1   -1    0    0  501    0 -0.00000000000E+00 -0.00000000000E+00 -0.27986969110E+03  0.27986969110E+03  0.00000000000E+00 0. -1.
         25    2    1    2    0    0 -0.63778672007E+01 -0.74828176939E+02 -0.90247096491E+02  0.17149377831E+03  0.12500257725E+03 0.  0.
          2    1    1    2  501    0  0.60121067877E+02  0.89124954275E+01 -0.14116136181E+03  0.15368964001E+03  0.00000000000E+00 0. -1.
          1    1    1    2  502    0 -0.53743200676E+02  0.65915681512E+02  0.11474645111E+04  0.11506120167E+04  0.00000000000E+00 0. -1.
         22    1    3    3    0    0  0.51213612125E+02 -0.60243643483E+02 -0.24271761302E+02  0.82711843431E+02  0.00000000000E+00 0.  1.
         22    1    3    3    0    0 -0.57591479326E+02 -0.14584533456E+02 -0.65975335190E+02  0.88781934877E+02  0.00000000000E+00 0.  1.
</event>
<event>
 7    1  0.5194496E-006  0.2297887E+03  0.7818608E-02  0.1316005E+00
          2   -1    0    0  502    0  0.00000000000E+00  0.00000000000E+00  0.11522313540E+04  0.11522313540E+04  0.00000000000E+00 0. -1.
          1   -1    0    0  501    0 -0.00000000000E+00 -0.00000000000E+00 -0.13487228134E+04  0.13487228134E+04  0.00000000000E+00 0. -1.
         25    2    1    2    0    0 -0.80353735107E+02 -0.21937766705E+03 -0.93217356640E+02  0.28088794829E+03  0.12500112147E+03 0.  0.
          2    1    1    2  501    0 -0.26748724078E+02  0.16216634312E+02 -0.11489960055E+04  0.11494217216E+04  0.00000000000E+00 0. -1.
          1    1    1    2  502    0  0.10710245919E+03  0.20316103274E+03  0.10457219028E+04  0.10706444975E+04  0.00000000000E+00 0. -1.
         22    1    3    3    0    0 -0.31543139808E+02 -0.20938231737E+03 -0.56972248492E+02  0.21927553807E+03  0.00000000000E+00 0.  1.
         22    1    3    3    0    0 -0.48810595300E+02 -0.99953496791E+01 -0.36245108149E+02  0.61612410223E+02  0.00000000000E+00 0.  1.
</event>
<event>
 7    1  0.5194496E-006  0.1539623E+03  0.7818608E-02  0.1219866E+00
          2   -1    0    0  502    0  0.00000000000E+00  0.00000000000E+00  0.13831534349E+04  0.13831534349E+04  0.00000000000E+00 0. -1.
          1   -1    0    0  501    0 -0.00000000000E+00 -0.00000000000E+00 -0.19401980389E+03  0.19401980389E+03  0.00000000000E+00 0. -1.
         25    2    1    2    0    0  0.11811898165E+03 -0.14302003143E+03  0.82982186307E+03  0.85943891350E+03  0.12499639354E+03 0.  0.
          2    1    1    2  501    0 -0.15158961030E+03  0.29017941437E+02 -0.13762573109E+03  0.20679045610E+03  0.00000000000E+00 0. -1.
          1    1    1    2  502    0  0.33470628655E+02  0.11400208999E+03  0.49693749900E+03  0.51094386914E+03  0.00000000000E+00 0. -1.
         22    1    3    3    0    0  0.69316495449E+02 -0.86047912336E+02  0.23244999797E+03  0.25737525389E+03  0.00000000000E+00 0. -1.
         22    1    3    3    0    0  0.48802486198E+02 -0.56972119091E+02  0.59737186509E+03  0.60206365960E+03  0.00000000000E+00 0. -1.
</event>
<event>
 7    1  0.5194496E-006  0.4877392E+02  0.7818608E-02  0.1461056E+00
          2   -1    0    0  502    0  0.00000000000E+00  0.00000000000E+00  0.11331335887E+03  0.11331335887E+03  0.00000000000E+00 0. -1.
          1   -1    0    0  501    0 -0.00000000000E+00 -0.00000000000E+00 -0.39522637148E+03  0.39522637148E+03  0.00000000000E+00 0. -1.
         25    2    1    2    0    0 -0.59425577665E+01  0.51769225247E+02 -0.19032039213E+03  0.23358427732E+03  0.12499758508E+03 0.  0.
          2    1    1    2  501    0  0.43924863707E+02 -0.26397099620E+02 -0.17364327060E+03  0.18104746877E+03  0.00000000000E+00 0. -1.
          1    1    1    2  502    0 -0.37982305940E+02 -0.25372125627E+02  0.82050650123E+02  0.93907984266E+02  0.00000000000E+00 0. -1.
         22    1    3    3    0    0  0.39969090823E+02  0.47317337905E+02 -0.34119421116E+02  0.70714875273E+02  0.00000000000E+00 0.  1.
         22    1    3    3    0    0 -0.45911648589E+02  0.44518873418E+01 -0.15620097102E+03  0.16286940205E+03  0.00000000000E+00 0.  1.
</event>
<event>
 7    1  0.5194496E-006  0.2838646E+03  0.7818608E-02  0.1240395E+00
          2   -1    0    0  502    0  0.00000000000E+00  0.00000000000E+00  0.19469156169E+04  0.19469156169E+04  0.00000000000E+00 0. -1.
          1   -1    0    0  501    0 -0.00000000000E+00 -0.00000000000E+00 -0.99985799168E+03  0.99985799168E+03  0.00000000000E+00 0. -1.
         25    2    1    2    0    0 -0.28841921191E+03  0.53192743989E+02  0.38457156750E+03  0.49953543793E+03  0.12500101362E+03 0.  0.
          2    1    1    2  501    0  0.28361977951E+03 -0.12784443642E+01 -0.92056746464E+03  0.96326853510E+03  0.00000000000E+00 0. -1.
          1    1    1    2  502    0  0.47994323975E+01 -0.51914299625E+02  0.14830535224E+04  0.14839696356E+04  0.00000000000E+00 0. -1.
         22    1    3    3    0    0 -0.21913104047E+03  0.42069030909E+02  0.19127677071E+03  0.29389627298E+03  0.00000000000E+00 0. -1.
         22    1    3    3    0    0 -0.69288171439E+02  0.11123713081E+02  0.19329479679E+03  0.20563916495E+03  0.00000000000E+00 0. -1.
</event>
<event>
 7    1  0.5194496E-006  0.6122943E+02  0.7818608E-02  0.1509326E+00
          2   -1    0    0  502    0  0.00000000000E+00  0.00000000000E+00  0.12335270090E+04  0.12335270090E+04  0.00000000000E+00 0. -1.
          1   -1    0    0  501    0 -0.00000000000E+00 -0.00000000000E+00 -0.54937735739E+03  0.54937735739E+03  0.00000000000E+00 0. -1.
         25    2    1    2    0    0  0.74827283668E+02  0.34435831695E+02 -0.15085867408E+03  0.21252847672E+03  0.12500025994E+03 0.  0.
          2    1    1    2  501    0 -0.48894152533E+02 -0.34190444569E+02 -0.36512246571E+03  0.36996491673E+03  0.00000000000E+00 0. -1.
          1    1    1    2  502    0 -0.25933131135E+02 -0.24538712553E+00  0.12001307914E+04  0.12004109729E+04  0.00000000000E+00 0. -1.
         22    1    3    3    0    0  0.77688790113E+02 -0.76647117532E+01 -0.15138418220E+03  0.17032752724E+03  0.00000000000E+00 0.  1.
         22    1    3    3    0    0 -0.28615064455E+01  0.42100543448E+02  0.52550812394E+00  0.42200949474E+02  0.00000000000E+00 0.  1.
</event>
<event>
 7    1  0.5194496E-006  0.1598113E+03  0.7818608E-02  0.1194721E+00
          2   -1    0    0  502    0  0.00000000000E+00  0.00000000000E+00  0.81637936513E+03  0.81637936513E+03  0.00000000000E+00 0. -1.
          1   -1    0    0  501    0 -0.00000000000E+00 -0.00000000000E+00 -0.80027035256E+03  0.80027035256E+03  0.00000000000E+00 0. -1.
         25    2    1    2    0    0 -0.20296999829E+03  0.19812097322E+03 -0.39763029886E+03  0.50416577602E+03  0.12499813959E+03 0.  0.
          2    1    1    2  501    0  0.14011852669E+03 -0.53271975630E+02 -0.32455114618E+03  0.35749762432E+03  0.00000000000E+00 0. -1.
          1    1    1    2  502    0  0.62851471600E+02 -0.14484899759E+03  0.73829045761E+03  0.75498631735E+03  0.00000000000E+00 0. -1.
         22    1    3    3    0    0 -0.96100150487E+02  0.14032787343E+03 -0.14366886136E+03  0.22263847985E+03  0.00000000000E+00 0. -1.
         22    1    3    3    0    0 -0.10686984780E+03  0.57793099797E+02 -0.25396143750E+03  0.28152729617E+03  0.00000000000E+00 0. -1.
</event>
<event>
 7    1  0.5194496E-006  0.1060954E+03  0.7818608E-02  0.1289121E+00
          2   -1    0    0  502    0  0.00000000000E+00  0.00000000000E+00  0.43516712967E+03  0.43516712967E+03  0.00000000000E+00 0. -1.
          1   -1    0    0  501    0 -0.00000000000E+00 -0.00000000000E+00 -0.53715923736E+03  0.53715923736E+03  0.00000000000E+00 0. -1.
         25    2    1    2    0    0  0.15642235194E+03 -0.83216758802E+02 -0.64008806261E+02  0.22608714046E+03  0.12500114668E+03 0.  0.
          2    1    1    2  501    0 -0.70392212555E+02  0.72319471550E+02 -0.38011727395E+03  0.39328655140E+03  0.00000000000E+00 0. -1.
          1    1    1    2  502    0 -0.86030139381E+02  0.10897287251E+02  0.34213397253E+03  0.35295267517E+03  0.00000000000E+00 0. -1.
         22    1    3    3    0    0  0.22248099782E+02 -0.79374771980E+02 -0.19970189329E+02  0.84818281241E+02  0.00000000000E+00 0. -1.
         22    1    3    3    0    0  0.13417425215E+03 -0.38419868213E+01 -0.44038616932E+02  0.14126885922E+03  0.00000000000E+00 0. -1.
</event>
<event>
 7    1  0.5194496E-006  0.9304056E+02  0.7818608E-02  0.1335728E+00
          2   -1    0    0  502    0  0.00000000000E+00  0.00000000000E+00  0.17725987678E+03  0.17725987678E+03  0.00000000000E+00 0. -1.
          1   -1    0    0  501    0 -0.00000000000E+00 -0.00000000000E+00 -0.69753101435E+03  0.69753101435E+03  0.00000000000E+00 0. -1.
         25    2    1    2    0    0  0.11709223763E+03  0.24662996932E+02 -0.11220964992E+03  0.20624474890E+03  0.12500814127E+03 0.  0.
          2    1    1    2  501    0 -0.86320121296E+02  0.32452317511E+02 -0.52595600415E+03  0.53397943271E+03  0.00000000000E+00 0. -1.
          1    1    1    2  502    0 -0.30772116333E+02 -0.57115314443E+02  0.11789451651E+03  0.13456670952E+03  0.00000000000E+00 0. -1.
         22    1    3    3    0    0  0.45653229645E+02 -0.20388668757E+01 -0.12112526032E+03  0.12945927175E+03  0.00000000000E+00 0. -1.
         22    1    3    3    0    0  0.71439007984E+02  0.26701863808E+02  0.89156103965E+01  0.76785477151E+02  0.00000000000E+00 0. -1.
</event>
<event>
 7    1  0.5194496E-006  0.5495319E+02  0.7818608E-02  0.1490263E+00
          2   -1    0    0  502    0  0.00000000000E+00  0.00000000000E+00  0.96008625977E+03  0.96008625977E+03  0.00000000000E+00 0. -1.
          1   -1    0    0  501    0 -0.00000000000E+00 -0.00000000000E+00 -0.50117402879E+02  0.50117402879E+02  0.00000000000E+00 0. -1.
         25    2    1    2    0    0  0.48353811197E+02  0.52974646436E+02  0.39961237608E+03  0.42480092216E+03  0.12498547167E+03 0.  0.
          2    1    1    2  501    0 -0.50620293060E+02 -0.20111118458E+02 -0.16967711794E+02  0.57050630134E+02  0.00000000000E+00 0. -1.
          1    1    1    2  502    0  0.22664818633E+01 -0.32863527977E+02  0.52732419261E+03  0.52835211036E+03  0.00000000000E+00 0. -1.
         22    1    3    3    0    0  0.35120480147E+02  0.94342863523E+02  0.27809568693E+03  0.29575536362E+03  0.00000000000E+00 0.  1.
         22    1    3    3    0    0  0.13233331049E+02 -0.41368217087E+02  0.12151668915E+03  0.12904555853E+03  0.00000000000E+00 0.  1.
</event>
<event>
 7    1  0.5194496E-006  0.1014364E+03  0.7818608E-02  0.1375471E+00
          2   -1    0    0  502    0  0.00000000000E+00  0.00000000000E+00  0.11788018968E+04  0.11788018968E+04  0.00000000000E+00 0. -1.
          1   -1    0    0  501    0 -0.00000000000E+00 -0.00000000000E+00 -0.23615934614E+04  0.23615934614E+04  0.00000000000E+00 0. -1.
         25    2    1    2    0    0  0.13644261489E+03  0.43813256838E+02 -0.80755768911E+01  0.19033248998E+03  0.12500021267E+03 0.  0.
          2    1    1    2  501    0 -0.95200837861E+02 -0.33490526637E+02 -0.22608479039E+04  0.22630992156E+04  0.00000000000E+00 0. -1.
          1    1    1    2  502    0 -0.41241777027E+02 -0.10322730201E+02  0.10861319161E+04  0.10869636526E+04  0.00000000000E+00 0. -1.
         22    1    3    3    0    0  0.10430163542E+03 -0.27809638014E+02 -0.23135939772E+02  0.11039691493E+03  0.00000000000E+00 0. -1.
         22    1    3    3    0    0  0.32140979470E+02  0.71622894852E+02  0.15060362881E+02  0.79935575049E+02  0.00000000000E+00 0. -1.
</event>
<event>
 7    1  0.5194496E-006  0.1495457E+03  0.7818608E-02  0.1204096E+00
          2   -1    0    0  502    0  0.00000000000E+00  0.00000000000E+00  0.15537527200E+03  0.15537527200E+03  0.00000000000E+00 0. -1.
          1   -1    0    0  501    0 -0.00000000000E+00 -0.00000000000E+00 -0.11174656570E+04  0.11174656570E+04  0.00000000000E+00 0. -1.
         25    2    1    2    0    0 -0.28817483321E+01 -0.14493931874E+02 -0.31707567369E+03  0.34114583834E+03  0.12500048654E+03 0.  0.
          2    1    1    2  501    0 -0.19402991131E+02 -0.14828162114E+03 -0.73108351651E+03  0.74622183253E+03  0.00000000000E+00 0. -1.
          1    1    1    2  502    0  0.22284739463E+02  0.16277555302E+03  0.86068805165E+02  0.18547325817E+03  0.00000000000E+00 0. -1.
         22    1    3    3    0    0 -0.61536110497E+02 -0.20961798971E+02 -0.13685689065E+03  0.15151204055E+03  0.00000000000E+00 0.  1.
         22    1    3    3    0    0  0.58654362165E+02  0.64678670974E+01 -0.18021878304E+03  0.18963379779E+03  0.00000000000E+00 0.  1.
</event>
<event>
 7    1  0.5194496E-006  0.5974375E+02  0.7818608E-02  0.1456003E+00
          2   -1    0    0  502    0  0.00000000000E+00  0.00000000000E+00  0.23765806703E+04  0.23765806703E+04  0.00000000000E+00 0. -1.
          1   -1    0    0  501    0 -0.00000000000E+00 -0.00000000000E+00 -0.23868710760E+02  0.23868710760E+02  0.00000000000E+00 0. -1.
         25    2    1    2    0    0 -0.37028401048E+02 -0.55872112359E+01  0.98230919059E+03  0.99093801013E+03  0.12499789838E+03 0.  0.
          2    1    1    2  501    0 -0.22051013287E+02  0.31787606785E+02  0.11191196372E+01  0.38703379191E+02  0.00000000000E+00 0. -1.
          1    1    1    2  502    0  0.59079414334E+02 -0.26200395549E+02  0.13692836494E+04  0.13708079918E+04  0.00000000000E+00 0. -1.
         22    1    3    3    0    0 -0.63278877959E+02  0.14598196731E+01  0.92848994817E+03  0.93064490077E+03  0.00000000000E+00 0. -1.
         22    1    3    3    0    0  0.26250476911E+02 -0.70470309090E+01  0.53819242412E+02  0.60293109362E+02  0.00000000000E+00 0. -1.
</event>
<event>
 7    1  0.5194496E-006  0.7665821E+02  0.7818608E-02  0.1426617E+00
          2   -1    0    0  502    0  0.00000000000E+00  0.00000000000E+00  0.10942934088E+04  0.10942934088E+04  0.00000000000E+00 0. -1.
          1   -1    0    0  501    0 -0.00000000000E+00 -0.00000000000E+00 -0.35407174646E+03  0.35407174646E+03  0.00000000000E+00 0. -1.
         25    2    1    2    0    0 -0.44149112870E+02  0.34531578806E+02 -0.19465958443E+03  0.23803302520E+03  0.12500317266E+03 0.  0.
          2    1    1    2  501    0 -0.31402036335E+02 -0.20572144551E+02 -0.13376225514E+03  0.13893034916E+03  0.00000000000E+00 0. -1.
          1    1    1    2  502    0  0.75551149205E+02 -0.13959434256E+02  0.10686435019E+04  0.10714017809E+04  0.00000000000E+00 0. -1.
         22    1    3    3    0    0 -0.94303244261E+01 -0.43560544972E+02 -0.34002116919E+02  0.56058862386E+02  0.00000000000E+00 0.  1.
         22    1    3    3    0    0 -0.34718788443E+02  0.78092123778E+02 -0.16065746751E+03  0.18197416282E+03  0.00000000000E+00 0.  1.
</event>
<event>
 7    1  0.5194496E-006  0.7124094E+02  0.7818608E-02  0.1468759E+00
          2   -1    0    0  502    0  0.00000000000E+00  0.00000000000E+00  0.17406508517E+03  0.17406508517E+03  0.00000000000E+00 0. -1.
          1   -1    0    0  501    0 -0.00000000000E+00 -0.00000000000E+00 -0.79140737016E+03  0.79140737016E+03  0.00000000000E+00 0. -1.
         25    2    1    2    0    0 -0.81020255582E+02 -0.36413838673E+02  0.34667295651E+01  0.15338795488E+03  0.12500238808E+03 0.  0.
          2    1    1    2  501    0  0.28478745682E+02 -0.80026071500E+01 -0.70372235160E+03  0.70434382855E+03  0.00000000000E+00 0. -1.
          1    1    1    2  502    0  0.52541509900E+02  0.44416445823E+02  0.82913337039E+02  0.10774067190E+03  0.00000000000E+00 0. -1.
         22    1    3    3    0    0 -0.78828152482E+02 -0.11922869542E+01 -0.47017042682E+02  0.91792709266E+02  0.00000000000E+00 0. -1.
         22    1    3    3    0    0 -0.21921031004E+01 -0.35221551719E+02  0.50483772248E+02  0.61595245611E+02  0.00000000000E+00 0. -1.
</event>
<event>
 7    1  0.5194496E-006  0.2264723E+02  0.7818608E-02  0.1699487E+00
          2   -1    0    0  502    0  0.00000000000E+00  0.00000000000E+00  0.43774452809E+03  0.43774452809E+03  0.00000000000E+00 0. -1.
          1   -1    0    0  501    0 -0.00000000000E+00 -0.00000000000E+00 -0.18643894285E+03  0.18643894285E+03  0.00000000000E+00 0. -1.
         25    2    1    2    0    0  0.51716993027E+01 -0.47709901368E+01 -0.23592293701E+02  0.12741107883E+03  0.12500991107E+03 0.  0.
          2    1    1    2  501    0 -0.19523342574E+02 -0.12407290505E+02 -0.10940215809E+03  0.11182099069E+03  0.00000000000E+00 0. -1.
          1    1    1    2  502    0  0.14351643271E+02  0.17178280642E+02  0.38430003704E+03  0.38495140142E+03  0.00000000000E+00 0. -1.
         22    1    3    3    0    0  0.64401574421E+02  0.71121782354E+01 -0.11668651231E+02  0.65835425789E+02  0.00000000000E+00 0.  1.
         22    1    3    3    0    0 -0.59229875119E+02 -0.11883168372E+02 -0.11923642470E+02  0.61575653037E+02  0.00000000000E+00 0.  1.
</event>
<event>
 7    1  0.5194496E-006  0.1645252E+03  0.7818608E-02  0.1298649E+00
          2   -1    0    0  502    0  0.00000000000E+00  0.00000000000E+00  0.12413046532E+03  0.12413046532E+03  0.00000000000E+00 0. -1.
          1   -1    0    0  501    0 -0.00000000000E+00 -0.00000000000E+00 -0.17157026133E+04  0.17157026133E+04  0.00000000000E+00 0. -1.
         25    2    1    2    0    0  0.19249605196E+02 -0.12089328237E+03 -0.45904939761E+01  0.17501660605E+03  0.12499602688E+03 0.  0.
          2    1    1    2  501    0 -0.55130723578E+02  0.15738211001E+03 -0.16026453959E+04  0.16112978589E+04  0.00000000000E+00 0. -1.
          1    1    1    2  502    0  0.35881118382E+02 -0.36488827643E+02  0.15663741856E+02  0.53518613660E+02  0.00000000000E+00 0. -1.
         22    1    3    3    0    0  0.34215146485E+02 -0.79454645021E+02  0.53796774947E+02  0.10187153606E+03  0.00000000000E+00 0. -1.
         22    1    3    3    0    0 -0.14965541290E+02 -0.41438637347E+02 -0.58387268924E+02  0.73145069988E+02  0.00000000000E+00 0. -1.
</event>
<event>
 7    1  0.5194496E-006  0.7964738E+02  0.7818608E-02  0.1470898E+00
          2   -1    0    0  502    0  0.00000000000E+00  0.00000000000E+00  0.22473800743E+04  0.22473800743E+04  0.00000000000E+00 0. -1.
          1   -1    0    0  501    0 -0.00000000000E+00 -0.00000000000E+00 -0.15126036682E+03  0.15126036682E+03  0.00000000000E+00 0. -1.
         25    2    1    2    0    0 -0.42793802599E+02  0.42938062825E+02 -0.27014977357E+02  0.14152675120E+03  0.12500010210E+03 0.  0.
          2    1    1    2  501    0  0.24442814263E+01  0.25942283315E+02 -0.63699486190E+02  0.68822969393E+02  0.00000000000E+00 0. -1.
          1    1    1    2  502    0  0.40349521172E+02 -0.68880346140E+02  0.21868341710E+04  0.21882907205E+04  0.00000000000E+00 0. -1.
         22    1    3    3    0    0 -0.86637707802E+01 -0.25612291035E+02 -0.53953975043E+02  0.60349662792E+02  0.00000000000E+00 0.  1.
         22    1    3    3    0    0 -0.34130031818E+02  0.68550353860E+02  0.26938997686E+02  0.81177088409E+02  0.00000000000E+00 0.  1.
</event>
<event>
 7    1  0.5194496E-006  0.9786376E+02  0.7818608E-02  0.1377985E+00
          2   -1    0    0  502    0  0.00000000000E+00  0.00000000000E+00  0.22860855889E+04  0.22860855889E+04  0.00000000000E+00 0. -1.
          1   -1    0    0  501    0 -0.00000000000E+00 -0.00000000000E+00 -0.98742714793E+02  0.98742714793E+02  0.00000000000E+00 0. -1.
         25    2    1    2    0    0  0.91221856918E+02  0.38380586016E+02  0.11015362055E+03  0.19378824316E+03  0.12500226600E+03 0.  0.
          2    1    1    2  501    0 -0.66786855835E+02 -0.73966717435E+02 -0.12914554573E+02  0.10049052254E+03  0.00000000000E+00 0. -1.
          1    1    1    2  502    0 -0.24435001083E+02  0.35586131419E+02  0.20901038081E+04  0.20905495380E+04  0.00000000000E+00 0. -1.
         22    1    3    3    0    0 -0.30918895763E+02 -0.13706993150E+01  0.23140620902E+02  0.38643825737E+02  0.00000000000E+00 0. -1.
         22    1    3    3    0    0  0.12214075268E+03  0.39751285331E+02  0.87012999645E+02  0.15514441743E+03  0.00000000000E+00 0. -1.
</event>
<event>
 7    1  0.5194496E-006  0.1098351E+03  0.7818608E-02  0.1393047E+00
          2   -1    0    0  502    0  0.00000000000E+00  0.00000000000E+00  0.11340220613E+04  0.11340220613E+04  0.00000000000E+00 0. -1.
          1   -1    0    0  501    0 -0.00000000000E+00 -0.00000000000E+00 -0.13993318927E+03  0.13993318927E+03  0.00000000000E+00 0. -1.
         25    2    1    2    0    0  0.10280102218E+03 -0.16160361883E+01  0.94622164680E+03  0.95996429108E+03  0.12500149421E+03 0.  0.
          2    1    1    2  501    0  0.33699072143E+02 -0.48796943748E+01 -0.10415319561E+03  0.10957794959E+03  0.00000000000E+00 0. -1.
          1    1    1    2  502    0 -0.13650009432E+03  0.64957305632E+01  0.15202042089E+03  0.20441300994E+03  0.00000000000E+00 0. -1.
         22    1    3    3    0    0  0.47229437843E-01 -0.46290783295E+02  0.37599474600E+03  0.37883358862E+03  0.00000000000E+00 0. -1.
         22    1    3    3    0    0  0.10275379274E+03  0.44674747106E+02  0.57022690080E+03  0.58113070246E+03  0.00000000000E+00 0. -1.
</event>
<event>
 7    1  0.5194496E-006  0.1602797E+03  0.7818608E-02  0.1252465E+00
          2   -1    0    0  502    0  0.00000000000E+00  0.00000000000E+00  0.13116071170E+04  0.13116071170E+04  0.00000000000E+00 0. -1.
          1   -1    0    0  501    0 -0.00000000000E+00 -0.00000000000E+00 -0.62344475151E+03  0.62344475151E+03  0.00000000000E+00 0. -1.
         25    2    1    2    0    0  0.10718824203E+03  0.22073276702E+02  0.52488018854E+02  0.17422880665E+03  0.12499654463E+03 0.  0.
          2    1    1    2  501    0  0.25520388826E+02  0.77705683462E+02 -0.55380481191E+03  0.55981178372E+03  0.00000000000E+00 0. -1.
          1    1    1    2  502    0 -0.13270863085E+03 -0.99778960164E+02  0.11894791585E+04  0.12010112781E+04  0.00000000000E+00 0. -1.
         22    1    3    3    0    0  0.31787467158E+01  0.14100953255E+02 -0.35137524018E+02  0.37994564184E+02  0.00000000000E+00 0.  1.
         22    1    3    3    0    0  0.10400949531E+03  0.79723234479E+01  0.87625542872E+02  0.13623424246E+03  0.00000000000E+00 0.  1.
</event>
<event>
 7    1  0.5194496E-006  0.8315429E+02  0.7818608E-02  0.1448984E+00
          2   -1    0    0  502    0  0.00000000000E+00  0.00000000000E+00  0.20748221851E+04  0.20748221851E+04  0.00000000000E+00 0. -1.
          1   -1    0    0  501    0 -0.00000000000E+00 -0.00000000000E+00 -0.53729356569E+02  0.53729356569E+02  0.00000000000E+00 0. -1.
         25    2    1    2    0    0  0.10450350288E+03 -0.28589525202E+02  0.12519273861E+04  0.12628083990E+04  0.12499811771E+03 0.  0.
          2    1    1    2  501    0 -0.75575947647E+02  0.33022772659E+02 -0.12597904013E+02  0.83432215375E+02  0.00000000000E+00 0. -1.
          1    1    1    2  502    0 -0.28927555233E+02 -0.44332474570E+01  0.78176334641E+03  0.78231092727E+03  0.00000000000E+00 0. -1.
         22    1    3    3    0    0  0.34040868009E+02 -0.10268509188E+02  0.99843587102E+03  0.99906877217E+03  0.00000000000E+00 0.  1.
         22    1    3    3    0    0  0.70462634872E+02 -0.18321016014E+02  0.25349151508E+03  0.26373962683E+03  0.00000000000E+00 0.  1.
</event>
<event>
 7    1  0.5194496E-006  0.1073309E+03  0.7818608E-02  0.1272403E+00
          2   -1    0    0  502    0  0.00000000000E+00  0.00000000000E+00  0.14769483671E+04  0.14769483671E+04  0.00000000000E+00 0. -1.
          1   -1    0    0  501    0 -0.00000000000E+00 -0.00000000000E+00 -0.21748389267E+03  0.21748389267E+03  0.00000000000E+00 0. -1.
         25    2    1    2    0    0 -0.65466046969E+02  0.13518870789E+03 -0.10139747766E+00  0.19541255077E+03  0.12499705864E+03 0.  0.
          2    1    1    2  501    0 -0.33781185470E+02 -0.94632450119E+02 -0.96148862835E+02  0.13907218605E+03  0.00000000000E+00 0. -1.
          1    1    1    2  502    0  0.99247232439E+02 -0.40556257769E+02  0.13557147348E+04  0.13599475230E+04  0.00000000000E+00 0. -1.
         22    1    3    3    0    0 -0.21216565330E+02  0.88299868355E+02 -0.58829082801E+02  0.10820291299E+03  0.00000000000E+00 0. -1.
         22    1    3    3    0    0 -0.44249481639E+02  0.46888839533E+02  0.58727685323E+02  0.87209637778E+02  0.00000000000E+00 0. -1.
</event>
<event>
 7    1  0.5194496E-006  0.4838904E+02  0.7818608E-02  0.1584199E+00
          2   -1    0    0  502    0  0.00000000000E+00  0.00000000000E+00  0.54121866599E+03  0.54121866599E+03  0.00000000000E+00 0. -1.
          1   -1    0    0  501    0 -0.00000000000E+00 -0.00000000000E+00 -0.13161077039E+04  0.13161077039E+04  0.00000000000E+00 0. -1.
         25    2    1    2    0    0 -0.11896669865E+02  0.60399676186E+02 -0.51066085005E+03  0.52932559663E+03  0.12498572654E+03 0.  0.
          2    1    1    2  501    0  0.16134873884E+02 -0.12219405774E+02 -0.79488586589E+03  0.79514350140E+03  0.00000000000E+00 0. -1.
          1    1    1    2  502    0 -0.42382040188E+01 -0.48180270412E+02  0.53065767807E+03  0.53285727181E+03  0.00000000000E+00 0. -1.
         22    1    3    3    0    0 -0.86722967820E-01 -0.32096829166E+02 -0.50684651270E+02  0.59992898228E+02  0.00000000000E+00 0. -1.
         22    1    3    3    0    0 -0.11809946898E+02  0.92496505352E+02 -0.45997619878E+03  0.46933269841E+03  0.00000000000E+00 0. -1.
</event>
<event>
 7    1  0.5194496E-006  0.2468790E+03  0.7818608E-02  0.1251070E+00
          2   -1    0    0  502    0  0.00000000000E+00  0.00000000000E+00  0.45297326070E+03  0.45297326070E+03  0.00000000000E+00 0. -1.
          1   -1    0    0  501    0 -0.00000000000E+00 -0.00000000000E+00 -0.56846860624E+03  0.56846860624E+03  0.00000000000E+00 0. -1.
         25    2    1    2    0    0  0.26948105060E+03  0.11523933737E+03  0.76753191735E+02  0.32774453863E+03  0.12500115459E+03 0.  0.
          2    1    1    2  501    0 -0.21850669337E+03 -0.97901782411E+02 -0.40705058503E+03  0.47225005327E+03  0.00000000000E+00 0. -1.
          1    1    1    2  502    0 -0.50974357238E+02 -0.17337554955E+02  0.21480204774E+03  0.22144727504E+03  0.00000000000E+00 0. -1.
         22    1    3    3    0    0  0.28011777228E+03  0.98154492601E+02  0.79879828812E+02  0.30737771197E+03  0.00000000000E+00 0.  1.
         22    1    3    3    0    0 -0.10636721678E+02  0.17084844765E+02 -0.31266370773E+01  0.20366826658E+02  0.00000000000E+00 0.  1.
</event>
<event>
 7    1  0.5194496E-006  0.1194694E+03  0.7818608E-02  0.1368940E+00
          2   -1    0    0  502    0  0.00000000000E+00  0.00000000000E+00  0.14398007966E+04  0.14398007966E+04  0.00000000000E+00 0. -1.
          1   -1    0    0  501    0 -0.00000000000E+00 -0.00000000000E+00 -0.20019090996E+03  0.20019090996E+03  0.00000000000E+00 0. -1.
         25    2    1    2    0    0  0.14741270651E+03  0.72691014183E+01  0.60219398287E+03  0.63249260987E+03  0.12500385062E+03 0.  0.
          2    1    1    2  501    0 -0.11754256191E+03  0.16374696378E+02 -0.16551476060E+03  0.20366521676E+03  0.00000000000E+00 0. -1.
          1    1    1    2  502    0 -0.29870144596E+02 -0.23643797796E+02  0.80293066438E+03  0.80383387992E+03  0.00000000000E+00 0. -1.
         22    1    3    3    0    0  0.54163538044E+02  0.60013580422E+02  0.18752788878E+03  0.20421074350E+03  0.00000000000E+00 0. -1.
         22    1    3    3    0    0  0.93249168466E+02 -0.52744479004E+02  0.41466609409E+03  0.42828186638E+03  0.00000000000E+00 0. -1.
</event>
<event>
 7    1  0.5194496E-006  0.2319396E+03  0.7818608E-02  0.1206393E+00
          2   -1    0    0  502    0  0.00000000000E+00  0.00000000000E+00  0.31566947156E+03  0.31566947156E+03  0.00000000000E+00 0. -1.
          1   -1    0    0  501    0 -0.00000000000E+00 -0.00000000000E+00 -0.10754570495E+04  0.10754570495E+04  0.00000000000E+00 0. -1.
         25    2    1    2    0    0  0.27710160922E+03 -0.38432452298E+01 -0.25689400143E+03  0.39801999413E+03  0.12500126155E+03 0.  0.
          2    1    1    2  501    0 -0.21271369041E+03  0.68150720986E+02 -0.72204903182E+03  0.75580846728E+03  0.00000000000E+00 0. -1.
          1    1    1    2  502    0 -0.64387918813E+02 -0.64307475756E+02  0.21915545531E+03  0.23729805966E+03  0.00000000000E+00 0. -1.
         22    1    3    3    0    0  0.17936844533E+03 -0.62587110368E+02 -0.16226383248E+03  0.24983942222E+03  0.00000000000E+00 0. -1.
         22    1    3    3    0    0  0.97733163886E+02  0.58743865138E+02 -0.94630168944E+02  0.14818057190E+03  0.00000000000E+00 0. -1.
</event>
<event>
 7    1  0.5194496E-006  0.1089398E+03  0.7818608E-02  0.1283889E+00
          2   -1    0    0  502    0  0.00000000000E+00  0.00000000000E+00  0.92453403474E+02  0.92453403474E+02  0.00000000000E+00 0. -1.
          1   -1    0    0  501    0 -0.00000000000E+00 -0.00000000000E+00 -0.30205173052E+04  0.30205173052E+04  0.00000000000E+00 0. -1.
         25    2    1    2    0    0  0.14336271467E+03 -0.12512694751E+03 -0.85406121541E+03  0.88388664525E+03  0.12500168408E+03 0.  0.
          2    1    1    2  501    0 -0.52171980347E+02  0.71757277295E+02 -0.21141817037E+04  0.21160423669E+04  0.00000000000E+00 0. -1.
          1    1    1    2  502    0 -0.91190734324E+02  0.53369670216E+02  0.40179017333E+02  0.11304169655E+03  0.00000000000E+00 0. -1.
         22    1    3    3    0    0  0.11066847131E+03 -0.13554282023E+03 -0.53281280745E+03  0.56081089008E+03  0.00000000000E+00 0.  1.
         22    1    3    3    0    0  0.32694243360E+02  0.10415872717E+02 -0.32124840797E+03  0.32307575516E+03  0.00000000000E+00 0.  1.
</event>
<event>
 7    1  0.5194496E-006  0.3592769E+02  0.7818608E-02  0.1569342E+00
          2   -1    0    0  502    0  0.00000000000E+00  0.00000000000E+00  0.99392263496E+03  0.99392263496E+03  0.00000000000E+00 0. -1.
          1   -1    0    0  501    0 -0.00000000000E+00 -0.00000000000E+00 -0.72163555242E+02  0.72163555242E+02  0.00000000000E+00 0. -1.
         25    2    1    2    0    0  0.12398945038E+01 -0.47325833296E+02  0.13225225734E+03  0.18805760907E+03  0.12503492680E+03 0.  0.
          2    1    1    2  501    0 -0.23356636933E+02  0.27219149677E+02 -0.36679888328E+02  0.51301352865E+02  0.00000000000E+00 0. -1.
          1    1    1    2  502    0  0.22116742430E+02  0.20106683619E+02  0.82618671070E+03  0.82672722827E+03  0.00000000000E+00 0. -1.
         22    1    3    3    0    0 -0.28271008790E+01  0.12853440395E+02 -0.20198918773E+02  0.24108084722E+02  0.00000000000E+00 0. -1.
         22    1    3    3    0    0  0.40669953828E+01 -0.60179273691E+02  0.15245117612E+03  0.16394952435E+03  0.00000000000E+00 0. -1.
</event>
<event>
 7    1  0.5194496E-006  0.1271532E+03  0.7818608E-02  0.1241275E+00
          2   -1    0    0  502    0  0.00000000000E+00  0.00000000000E+00  0.43524691745E+03  0.43524691745E+03  0.00000000000E+00 0. -1.
          1   -1    0    0  501    0 -0.00000000000E+00 -0.00000000000E+00 -0.36517666484E+04  0.36517666484E+04  0.00000000000E+00 0. -1.
         25    2    1    2    0    0  0.10062172863E+03 -0.21229345577E+03  0.17866579509E+03  0.32053174573E+03  0.12500356014E+03 0.  0.
          2    1    1    2  501    0 -0.26514694815E+02  0.12388944558E+03 -0.35616781413E+04  0.35639308082E+04  0.00000000000E+00 0. -1.
          1    1    1    2  502    0 -0.74107033816E+02  0.88404010186E+02  0.16649261525E+03  0.20255101187E+03  0.00000000000E+00 0. -1.
         22    1    3    3    0    0  0.70388823348E+02 -0.22991812427E+02  0.42322768240E+02  0.85290249164E+02  0.00000000000E+00 0. -1.
         22    1    3    3    0    0  0.30232905283E+02 -0.18930164334E+03  0.13634302685E+03  0.23524149656E+03  0.00000000000E+00 0. -1.
</event>
<event>
 7    1  0.5194496E-006  0.4598263E+02  0.7818608E-02  0.1486023E+00
          2   -1    0    0  502    0  0.00000000000E+00  0.00000000000E+00  0.22098760446E+03  0.22098760446E+03  0.00000000000E+00 0. -1.
          1   -1    0    0  501    0 -0.00000000000E+00 -0.00000000000E+00 -0.77740285768E+03  0.77740285768E+03  0.00000000000E+00 0. -1.
         25    2    1    2    0    0 -0.33072184828E+02  0.70042520969E+02 -0.54330808492E+02  0.15676835271E+03  0.12499902202E+03 0.  0.
          2    1    1    2  501    0  0.34759859341E+02 -0.29526179669E+02 -0.66864377786E+03  0.67019739240E+03  0.00000000000E+00 0. -1.
          1    1    1    2  502    0 -0.16876745129E+01 -0.40516341300E+02  0.16655933313E+03  0.17142471703E+03  0.00000000000E+00 0. -1.
         22    1    3    3    0    0 -0.64328114145E+02  0.79565737284E+02 -0.11594169806E+02  0.10297202335E+03  0.00000000000E+00 0.  1.
         22    1    3    3    0    0  0.31255929317E+02 -0.95232163150E+01 -0.42736638686E+02  0.53796329360E+02  0.00000000000E+00 0.  1.
</event>
<event>
 7    1  0.5194496E-006  0.5929918E+02  0.7818608E-02  0.1531371E+00
          2   -1    0    0  502    0  0.00000000000E+00  0.00000000000E+00  0.91811678003E+03  0.91811678003E+03  0.00000000000E+00 0. -1.
          1   -1    0    0  501    0 -0.00000000000E+00 -0.00000000000E+00 -0.35953269259E+03  0.35953269259E+03  0.00000000000E+00 0. -1.
         25    2    1    2    0    0 -0.18755197181E+02  0.76147902197E+02  0.38289985419E+03  0.41035089875E+03  0.12500120533E+03 0.  0.
          2    1    1    2  501    0  0.31510881944E+01 -0.59101819388E+02 -0.34301556278E+03  0.34808422935E+03  0.00000000000E+00 0. -1.
          1    1    1    2  502    0  0.15604108987E+02 -0.17046082809E+02  0.51869979604E+03  0.51921434453E+03  0.00000000000E+00 0. -1.
         22    1    3    3    0    0 -0.51594411396E+02  0.93710643176E+02  0.31817761036E+03  0.33567940012E+03  0.00000000000E+00 0.  1.
         22    1    3    3    0    0  0.32839214214E+02 -0.17562740978E+02  0.64722243830E+02  0.74671498627E+02  0.00000000000E+00 0.  1.
</event>
<event>
 7    1  0.5194496E-006  0.5656917E+02  0.7818608E-02  0.1440693E+00
          2   -1    0    0  502    0  0.00000000000E+00  0.00000000000E+00  0.12701236332E+04  0.12701236332E+04  0.00000000000E+00 0. -1.
          1   -1    0    0  501    0 -0.00000000000E+00 -0.00000000000E+00 -0.28062669007E+03  0.28062669007E+03  0.00000000000E+00 0. -1.
         25    2    1    2    0    0 -0.12402214400E+02 -0.13022425613E+02 -0.86533237812E+01  0.12658577211E+03  0.12500271676E+03 0.  0.
          2    1    1    2  501    0  0.12600625876E+02 -0.43979498460E+02 -0.20987084931E+03  0.21479931436E+03  0.00000000000E+00 0. -1.
          1    1    1    2  502    0 -0.19841147604E+00  0.57001924073E+02  0.12080211162E+04  0.12093652368E+04  0.00000000000E+00 0. -1.
         22    1    3    3    0    0 -0.53450624967E+02  0.65129425774E+01  0.34463555348E+02  0.63930621596E+02  0.00000000000E+00 0. -1.
         22    1    3    3    0    0  0.41048410567E+02 -0.19535368191E+02 -0.43116879129E+02  0.62655150516E+02  0.00000000000E+00 0. -1.
</event>
<event>
 7    1  0.5194496E-006  0.3527940E+02  0.7818608E-02  0.1626110E+00
          2   -1    0    0  502    0  0.00000000000E+00  0.00000000000E+00  0.12993733294E+03  0.12993733294E+03  0.00000000000E+00 0. -1.
          1   -1    0    0  501    0 -0.00000000000E+00 -0.00000000000E+00 -0.15618413918E+04  0.15618413918E+04  0.00000000000E+00 0. -1.
         25    2    1    2    0    0  0.34931519500E+02  0.26378997662E+02 -0.36684066693E+02  0.13741336317E+03  0.12498259501E+03 0.  0.
          2    1    1    2  501    0 -0.20816153956E+02  0.57983537257E+01 -0.14708305194E+04  0.14709892420E+04  0.00000000000E+00 0. -1.
          1    1    1    2  502    0 -0.14115365544E+02 -0.32177351388E+02  0.75610527254E+02  0.83376119593E+02  0.00000000000E+00 0. -1.
         22    1    3    3    0    0 -0.39603176126E+02  0.35541448704E+02  0.13609969758E+01  0.53230239977E+02  0.00000000000E+00 0. -1.
         22    1    3    3    0    0  0.74534695626E+02 -0.91624510414E+01 -0.38045063668E+02  0.84183123194E+02  0.00000000000E+00 0. -1.
</event>
<event>
 7    1  0.5194496E-006  0.4984903E+02  0.7818608E-02  0.1456981E+00
          2   -1    0    0  502    0  0.00000000000E+00  0.00000000000E+00  0.18952968259E+04  0.18952968259E+04  0.00000000000E+00 0. -1.
          1   -1    0    0  501    0 -0.00000000000E+00 -0.00000000000E+00 -0.90644767878E+02  0.90644767878E+02  0.00000000000E+00 0. -1.
         25    2    1    2    0    0 -0.64252542696E+01 -0.31763261439E+02  0.92843642253E+03  0.93737364846E+03  0.12499990990E+03 0.  0.
          2    1    1    2  501    0  0.49647779157E+02  0.44748192032E+01 -0.78225729789E+02  0.92758777391E+02  0.00000000000E+00 0. -1.
          1    1    1    2  502    0 -0.43222524887E+02  0.27288442235E+02  0.95444136531E+03  0.95580916796E+03  0.00000000000E+00 0. -1.
         22    1    3    3    0    0 -0.59115460372E+02 -0.15091130248E+02  0.27915414832E+03  0.28574362353E+03  0.00000000000E+00 0.  1.
         22    1    3    3    0    0  0.52690206103E+02 -0.16672131190E+02  0.64928227421E+03  0.65163002492E+03  0.00000000000E+00 0.  1.
</event>
<event>
 7    1  0.5194496E-006  0.1506225E+03  0.7818608E-02  0.1208949E+00
          2   -1    0    0  502    0  0.00000000000E+00  0.00000000000E+00  0.54078985584E+03  0.54078985584E+03  0.00000000000E+00 0. -1.
          1   -1    0    0  501    0 -0.00000000000E+00 -0.00000000000E+00 -0.50285324703E+03  0.50285324703E+03  0.00000000000E+00 0. -1.
         25    2    1    2    0    0  0.24963578059E+03  0.11871624910E+03  0.16446888021E+03  0.34508994712E+03  0.12500195317E+03 0.  0.
          2    1    1    2  501    0 -0.11805583797E+03 -0.82991189945E+02 -0.38234656070E+03  0.40867298781E+03  0.00000000000E+00 0. -1.
          1    1    1    2  502    0 -0.13157994262E+03 -0.35725059154E+02  0.25581428930E+03  0.28988016794E+03  0.00000000000E+00 0. -1.
         22    1    3    3    0    0  0.18580761620E+03  0.29802606465E+02  0.70905362497E+02  0.20109757836E+03  0.00000000000E+00 0.  1.
         22    1    3    3    0    0  0.63828164394E+02  0.88913642633E+02  0.93563517714E+02  0.14399236877E+03  0.00000000000E+00 0.  1.
</event>
<event>
 7    1  0.5194496E-006  0.6592540E+02  0.7818608E-02  0.1398244E+00
          2   -1    0    0  502    0  0.00000000000E+00  0.00000000000E+00  0.28702919914E+04  0.28702919914E+04  0.00000000000E+00 0. -1.
          1   -1    0    0  501    0 -0.00000000000E+00 -0.00000000000E+00 -0.29759437272E+03  0.29759437272E+03  0.00000000000E+00 0. -1.
         25    2    1    2    0    0 -0.79423717954E+02  0.86063134253E+02  0.68666453553E+03  0.70770623568E+03  0.12499976649E+03 0.  0.
          2    1    1    2  501    0  0.53342238336E+02 -0.38290144708E+02 -0.28297292131E+03  0.29049131445E+03  0.00000000000E+00 0. -1.
          1    1    1    2  502    0  0.26081479619E+02 -0.47772989545E+02  0.21690060045E+04  0.21696888140E+04  0.00000000000E+00 0. -1.
         22    1    3    3    0    0 -0.74452987328E+02  0.33561708987E+02  0.60504544766E+03  0.61053225088E+03  0.00000000000E+00 0.  1.
         22    1    3    3    0    0 -0.49707306259E+01  0.52501425265E+02  0.81619087868E+02  0.97173984802E+02  0.00000000000E+00 0.  1.
</event>
<event>
 7    1  0.5194496E-006  0.6745967E+02  0.7818608E-02  0.1402219E+00
          2   -1    0    0  502    0  0.00000000000E+00  0.00000000000E+00  0.10203900950E+04  0.10203900950E+04  0.00000000000E+00 0. -1.
          1   -1    0    0  501    0 -0.00000000000E+00 -0.00000000000E+00 -0.25982600043E+02  0.25982600043E+02  0.00000000000E+00 0. -1.
         25    2    1    2    0    0 -0.51608746541E+02  0.68294702263E+02  0.51935491221E+03  0.54100697169E+03  0.12502555542E+03 0.  0.
          2    1    1    2  501    0 -0.12221806018E+02 -0.50073187056E+02  0.39907586910E+02  0.65186747866E+02  0.00000000000E+00 0. -1.
          1    1    1    2  502    0  0.63830552559E+02 -0.18221515207E+02  0.43514499583E+03  0.44017897548E+03  0.00000000000E+00 0. -1.
         22    1    3    3    0    0 -0.35681012148E+02  0.20492957888E+01  0.29234444319E+02  0.46173444486E+02  0.00000000000E+00 0. -1.
         22    1    3    3    0    0 -0.15927734393E+02  0.66245406474E+02  0.49012046789E+03  0.49483352720E+03  0.00000000000E+00 0. -1.
</event>
<event>
 7    1  0.5194496E-006  0.1079052E+03  0.7818608E-02  0.1315988E+00
          2   -1    0    0  502    0  0.00000000000E+00  0.00000000000E+00  0.23246718379E+04  0.23246718379E+04  0.00000000000E+00 0. -1.
          1   -1    0    0  501    0 -0.00000000000E+00 -0.00000000000E+00 -0.59029993545E+03  0.59029993545E+03  0.00000000000E+00 0. -1.
         25    2    1    2    0    0 -0.66447551747E+02 -0.18049653728E+02  0.19183592140E+04  0.19236600954E+04  0.12500008710E+03 0.  0.
          2    1    1    2  501    0  0.20683353390E+01  0.10788533377E+03 -0.57497020016E+03  0.58500790963E+03  0.00000000000E+00 0. -1.
          1    1    1    2  502    0  0.64379216408E+02 -0.89835680037E+02  0.39098288866E+03  0.40630376830E+03  0.00000000000E+00 0. -1.
         22    1    3    3    0    0  0.27946662474E+02 -0.33230929387E+02  0.81952265731E+03  0.82067210045E+03  0.00000000000E+00 0. -1.
         22    1    3    3    0    0 -0.94394214221E+02  0.15181275659E+02  0.10988365566E+04  0.11029879950E+04  0.00000000000E+00 0. -1.
</event>
<event>
 7    1  0.5194496E-006  0.1061598E+03  0.7818608E-02  0.1386569E+00
          2   -1    0    0  502    0  0.00000000000E+00  0.00000000000E+00  0.31384035543E+03  0.31384035543E+03  0.00000000000E+00 0. -1.
          1   -1    0    0  501    0 -0.00000000000E+00 -0.00000000000E+00 -0.26440340172E+03  0.26440340172E+03  0.00000000000E+00 0. -1.
         25    2    1    2    0    0  0.33764060904E+02 -0.62640342260E+02 -0.14904014607E+03  0.20712846120E+03  0.12500164003E+03 0.  0.
          2    1    1    2  501    0  0.15297351086E+02 -0.33812871344E+02 -0.71334916375E+02  0.80411376763E+02  0.00000000000E+00 0. -1.
          1    1    1    2  502    0 -0.49061411990E+02  0.96453213605E+02  0.26981201616E+03  0.29070391918E+03  0.00000000000E+00 0. -1.
         22    1    3    3    0    0  0.64173185763E+02 -0.27449496973E+02 -0.24146596815E+02  0.73856149323E+02  0.00000000000E+00 0. -1.
         22    1    3    3    0    0 -0.30409124860E+02 -0.35190845287E+02 -0.12489354926E+03  0.13327231188E+03  0.00000000000E+00 0. -1.
</event>
<event>
 7    1  0.5194496E-006  0.9726021E+02  0.7818608E-02  0.1446805E+00
          2   -1    0    0  502    0  0.00000000000E+00  0.00000000000E+00  0.12932373200E+03  0.12932373200E+03  0.00000000000E+00 0. -1.
          1   -1    0    0  501    0 -0.00000000000E+00 -0.00000000000E+00 -0.31884812761E+03  0.31884812761E+03  0.00000000000E+00 0. -1.
         25    2    1    2    0    0  0.75446051264E+02  0.61196522685E+00 -0.13035307350E+03  0.19572778382E+03  0.12499984173E+03 0.  0.
          2    1    1    2  501    0  0.25345868182E+02  0.20303026030E+01 -0.12791166982E+03  0.13041445640E+03  0.00000000000E+00 0. -1.
          1    1    1    2  502    0 -0.10079191945E+03 -0.26422678299E+01  0.68740347719E+02  0.12202961939E+03  0.00000000000E+00 0. -1.
         22    1    3    3    0    0  0.41539068230E+02 -0.62071999657E+02 -0.69243904057E+02  0.10184864054E+03  0.00000000000E+00 0.  1.
         22    1    3    3    0    0  0.33906983035E+02  0.62683964884E+02 -0.61109169448E+02  0.93879143279E+02  0.00000000000E+00 0.  1.
</event>
<event>
 7    1  0.5194496E-006  0.2813197E+03  0.7818608E-02  0.1242027E+00
          2   -1    0    0  502    0  0.00000000000E+00  0.00000000000E+00  0.19971493275E+04  0.19971493275E+04  0.00000000000E+00 0. -1.
          1   -1    0    0  501    0 -0.00000000000E+00 -0.00000000000E+00 -0.78966027684E+03  0.78966027684E+03  0.00000000000E+00 0. -1.
         25    2    1    2    0    0  0.31034202964E+03  0.44290949150E+00 -0.30182651898E+03  0.45059521765E+03  0.12499772433E+03 0.  0.
          2    1    1    2  501    0 -0.26407675438E+03 -0.23615361255E+02 -0.37055205106E+03  0.45563476605E+03  0.00000000000E+00 0. -1.
          1    1    1    2  502    0 -0.46265275257E+02  0.23172451763E+02  0.18798676207E+04  0.18805796207E+04  0.00000000000E+00 0. -1.
         22    1    3    3    0    0  0.22999848003E+03 -0.53770281519E+02 -0.23248897808E+03  0.33142370000E+03  0.00000000000E+00 0.  1.
         22    1    3    3    0    0  0.80343549604E+02  0.54213191011E+02 -0.69337540896E+02  0.11917151765E+03  0.00000000000E+00 0.  1.
</event>
<event>
 7    1  0.5194496E-006  0.3788901E+02  0.7818608E-02  0.1560269E+00
          2   -1    0    0  502    0  0.00000000000E+00  0.00000000000E+00  0.12284788007E+03  0.12284788007E+03  0.00000000000E+00 0. -1.
          1   -1    0    0  501    0 -0.00000000000E+00 -0.00000000000E+00 -0.64712363912E+03  0.64712363912E+03  0.00000000000E+00 0. -1.
         25    2    1    2    0    0  0.65197945655E+02 -0.40580178577E+00 -0.13182934667E+03  0.19301542676E+03  0.12500016612E+03 0.  0.
          2    1    1    2  501    0 -0.36300442183E+02  0.85009937984E+01 -0.48152093578E+03  0.48296211093E+03  0.00000000000E+00 0. -1.
          1    1    1    2  502    0 -0.28897503472E+02 -0.80951920126E+01  0.89074523401E+02  0.93993981508E+02  0.00000000000E+00 0. -1.
         22    1    3    3    0    0  0.91522408709E+02  0.35357588814E+00 -0.13835155899E+03  0.16588438802E+03  0.00000000000E+00 0.  1.
         22    1    3    3    0    0 -0.26324463054E+02 -0.75937767391E+00  0.65222123205E+01  0.27131038739E+02  0.00000000000E+00 0.  1.
</event>
<event>
 7    1  0.5194496E-006  0.1035337E+03  0.7818608E-02  0.1448161E+00
          2   -1    0    0  502    0  0.00000000000E+00  0.00000000000E+00  0.22387910171E+04  0.22387910171E+04  0.00000000000E+00 0. -1.
          1   -1    0    0  501    0 -0.00000000000E+00 -0.00000000000E+00 -0.81167176109E+03  0.81167176109E+03  0.00000000000E+00 0. -1.
         25    2    1    2    0    0 -0.55974675373E+02  0.10333846248E+03  0.17875217445E+03  0.24776755455E+03  0.12499767640E+03 0.  0.
          2    1    1    2  501    0  0.22948508832E+02 -0.57092964058E+01 -0.77567271931E+03  0.77603311631E+03  0.00000000000E+00 0. -1.
          1    1    1    2  502    0  0.33026166541E+02 -0.97629166070E+02  0.20240398009E+04  0.20266621073E+04  0.00000000000E+00 0. -1.
         22    1    3    3    0    0 -0.86916892252E+02  0.87192620473E+02  0.17309246382E+03  0.21241021692E+03  0.00000000000E+00 0. -1.
         22    1    3    3    0    0  0.30942216878E+02  0.16145842003E+02  0.56597106362E+01  0.35357337623E+02  0.00000000000E+00 0. -1.
</event>
<event>
 7    1  0.5194496E-006  0.1182948E+03  0.7818608E-02  0.1357247E+00
          2   -1    0    0  502    0  0.00000000000E+00  0.00000000000E+00  0.11865261557E+04  0.11865261557E+04  0.00000000000E+00 0. -1.
          1   -1    0    0  501    0 -0.00000000000E+00 -0.00000000000E+00 -0.73146294565E+02  0.73146294565E+02  0.00000000000E+00 0. -1.
         25    2    1    2    0    0 -0.63245279860E+02  0.61988746577E+02  0.19642595956E+03  0.24909980231E+03  0.12499993518E+03 0.  0.
          2    1    1    2  501    0 -0.42409059299E+02  0.12199141524E+01 -0.32328244731E+02  0.53339777920E+02  0.00000000000E+00 0. -1.
          1    1    1    2  502    0  0.10565433916E+03 -0.63208660729E+02  0.94928214629E+03  0.95723287002E+03  0.00000000000E+00 0. -1.
         22    1    3    3    0    0 -0.41431092059E+02  0.10061211961E+03  0.13750077632E+03  0.17534479602E+03  0.00000000000E+00 0.  1.
         22    1    3    3    0    0 -0.21814187801E+02 -0.38623373032E+02  0.58925183241E+02  0.73755006296E+02  0.00000000000E+00 0.  1.
</event>
<event>
 7    1  0.5194496E-006  0.1762580E+03  0.7818608E-02  0.1208700E+00
          2   -1    0    0  502    0  0.00000000000E+00  0.00000000000E+00  0.32747528577E+04  0.32747528577E+04  0.00000000000E+00 0. -1.
          1   -1    0    0  501    0 -0.00000000000E+00 -0.00000000000E+00 -0.68646829447E+03  0.68646829447E+03  0.00000000000E+00 0. -1.
         25    2    1    2    0    0 -0.16449746601E+03 -0.21639908047E+03  0.22395041132E+03  0.37372582271E+03  0.12501690077E+03 0.  0.
          2    1    1    2  501    0  0.10356167607E+03  0.54063552475E+02 -0.60344792646E+03  0.61465216863E+03  0.00000000000E+00 0. -1.
          1    1    1    2  502    0  0.60935789939E+02  0.16233552799E+03  0.29677820783E+04  0.29728431608E+04  0.00000000000E+00 0. -1.
         22    1    3    3    0    0 -0.18463474174E+02  0.11418330811E+02  0.43078923757E+02  0.48239732889E+02  0.00000000000E+00 0.  1.
         22    1    3    3    0    0 -0.14603399184E+03 -0.22781741128E+03  0.18087148756E+03  0.32548608982E+03  0.00000000000E+00 0.  1.
</event>
<event>
 7    1  0.5194496E-006  0.6581861E+02  0.7818608E-02  0.1390119E+00
          2   -1    0    0  502    0  0.00000000000E+00  0.00000000000E+00  0.76673655973E+03  0.76673655973E+03  0.00000000000E+00 0. -1.
          1   -1    0    0  501    0 -0.00000000000E+00 -0.00000000000E+00 -0.21425703629E+03  0.21425703629E+03  0.00000000000E+00 0. -1.
         25    2    1    2    0    0  0.55702476660E+02 -0.48441192316E+01  0.37516710519E+03  0.39937451170E+03  0.12499364936E+03 0.  0.
          2    1    1    2  501    0 -0.41639010074E+02 -0.51602114921E+02 -0.19439240425E+03  0.20538985431E+03  0.00000000000E+00 0. -1.
          1    1    1    2  502    0 -0.14063466586E+02  0.56446234152E+02  0.37170482251E+03  0.37622923002E+03  0.00000000000E+00 0. -1.
         22    1    3    3    0    0  0.45652504178E+02  0.31006935572E+01  0.31693016058E+02  0.55661590933E+02  0.00000000000E+00 0. -1.
         22    1    3    3    0    0  0.10049972482E+02 -0.79448127888E+01  0.34347408913E+03  0.34371292076E+03  0.00000000000E+00 0. -1.
</event>
<event>
 7    1  0.5194496E-006  0.6733678E+02  0.7818608E-02  0.1483025E+00
          2   -1    0    0  502    0  0.00000000000E+00  0.00000000000E+00  0.12818226054E+04  0.12818226054E+04  0.00000000000E+00 0. -1.
          1   -1    0    0  501    0 -0.00000000000E+00 -0.00000000000E+00 -0.63367382136E+02  0.63367382136E+02  0.00000000000E+00 0. -1.
         25    2    1    2    0    0  0.53550234457E+02  0.21246483253E+02  0.55435629042E+03  0.57118655538E+03  0.12499657458E+03 0.  0.
          2    1    1    2  501    0 -0.47190466497E+02 -0.48802490652E+02 -0.33589424384E+02  0.75742145814E+02  0.00000000000E+00 0. -1.
          1    1    1    2  502    0 -0.63597679597E+01  0.27556007399E+02  0.69768835726E+03  0.69826128637E+03  0.00000000000E+00 0. -1.
         22    1    3    3    0    0  0.90244476839E+02 -0.45061609026E+00  0.43961393312E+03  0.44878132631E+03  0.00000000000E+00 0. -1.
         22    1    3    3    0    0 -0.36694242382E+02  0.21697099343E+02  0.11474235730E+03  0.12240522906E+03  0.00000000000E+00 0. -1.
</event>
<event>
 7    1  0.5194496E-006  0.5912661E+02  0.7818608E-02  0.1430702E+00
          2   -1    0    0  502    0  0.00000000000E+00  0.00000000000E+00  0.57396451757E+03  0.57396451757E+03  0.00000000000E+00 0. -1.
          1   -1    0    0  501    0 -0.00000000000E+00 -0.00000000000E+00 -0.26844895641E+04  0.26844895641E+04  0.00000000000E+00 0. -1.
         25    2    1    2    0    0  0.24154036510E+02 -0.39034586735E+02  0.19561247706E+03  0.23663521317E+03  0.12499946596E+03 0.  0.
          2    1    1    2  501    0 -0.42181074208E+02 -0.21146445484E+02 -0.26610101058E+04  0.26614284132E+04  0.00000000000E+00 0. -1.
          1    1    1    2  502    0  0.18027037698E+02  0.60181032218E+02  0.35487258219E+03  0.36039045536E+03  0.00000000000E+00 0. -1.
         22    1    3    3    0    0 -0.43347313908E+02 -0.62893167160E+01  0.12925652992E+03  0.13647635566E+03  0.00000000000E+00 0.  1.
         22    1    3    3    0    0  0.67501350419E+02 -0.32745270019E+02  0.66355947136E+02  0.10015885751E+03  0.00000000000E+00 0.  1.
</event>
<event>
 7    1  0.5194496E-006  0.9684679E+02  0.7818608E-02  0.1292060E+00
          2   -1    0    0  502    0  0.00000000000E+00  0.00000000000E+00  0.25667190471E+03  0.25667190471E+03  0.00000000000E+00 0. -1.
          1   -1    0    0  501    0 -0.00000000000E+00 -0.00000000000E+00 -0.11531409815E+04  0.11531409815E+04  0.00000000000E+00 0. -1.
         25    2    1    2    0    0 -0.19677004483E+01  0.16442685281E+02 -0.16055905117E+02  0.12711237218E+03  0.12500211729E+03 0.  0.
          2    1    1    2  501    0 -0.77054510399E+02  0.58667739038E+02 -0.10644221000E+04  0.10688188379E+04  0.00000000000E+00 0. -1.
          1    1    1    2  502    0  0.79022210847E+02 -0.75110424319E+02  0.18400892839E+03  0.21388167611E+03  0.00000000000E+00 0. -1.
         22    1    3    3    0    0 -0.30853115614E+02  0.62555868175E+02  0.20069029893E+01  0.69779503050E+02  0.00000000000E+00 0.  1.
         22    1    3    3    0    0  0.28885415166E+02 -0.46113182894E+02 -0.18062808106E+02  0.57332869130E+02  0.00000000000E+00 0.  1.
</event>
<event>
 7    1  0.5194496E-006  0.1251892E+03  0.7818608E-02  0.1311235E+00
          2   -1    0    0  502    0  0.00000000000E+00  0.00000000000E+00  0.10061024287E+04  0.10061024287E+04  0.00000000000E+00 0. -1.
          1   -1    0    0  501    0 -0.00000000000E+00 -0.00000000000E+00 -0.50015293797E+02  0.50015293797E+02  0.00000000000E+00 0. -1.
         25    2    1    2    0    0 -0.74322199458E+02  0.52847443080E+02  0.38294427892E+03  0.41302292868E+03  0.12499990915E+03 0.  0.
          2    1    1    2  501    0  0.13301084904E+03 -0.40656115692E+02  0.11338595582E+03  0.17944687426E+03  0.00000000000E+00 0. -1.
          1    1    1    2  502    0 -0.58688649586E+02 -0.12191327387E+02  0.45975690014E+03  0.46364791953E+03  0.00000000000E+00 0. -1.
         22    1    3    3    0    0 -0.82428061290E+02  0.41041820560E+02  0.12801450899E+03  0.15769125161E+03  0.00000000000E+00 0. -1.
         22    1    3    3    0    0  0.81058618328E+01  0.11805622520E+02  0.25492976992E+03  0.25533167707E+03  0.00000000000E+00 0. -1.
</event>
<event>
 7    1  0.5194496E-006  0.1219003E+03  0.7818608E-02  0.1292674E+00
          2   -1    0    0  502    0  0.00000000000E+00  0.00000000000E+00  0.12266512469E+04  0.12266512469E+04  0.00000000000E+00 0. -1.
          1   -1    0    0  501    0 -0.00000000000E+00 -0.00000000000E+00 -0.42278990070E+03  0.42278990070E+03  0.00000000000E+00 0. -1.
         25    2    1    2    0    0 -0.66367947059E+02  0.18083213291E+03  0.37289100224E+03  0.43792489126E+03  0.12500218455E+03 0.  0.
          2    1    1    2  501    0  0.34058009770E+02 -0.11536314445E+03 -0.37932438134E+03  0.39793917802E+03  0.00000000000E+00 0. -1.
          1    1    1    2  502    0  0.32309937289E+02 -0.65468988465E+02  0.81029472533E+03  0.81357707833E+03  0.00000000000E+00 0. -1.
         22    1    3    3    0    0 -0.52435714505E+02  0.62316393955E+02  0.54735778170E+02  0.98126665709E+02  0.00000000000E+00 0. -1.
         22    1    3    3    0    0 -0.13932232555E+02  0.11851573896E+03  0.31815522407E+03  0.33979822556E+03  0.00000000000E+00 0. -1.
</event>
<event>
 7    1  0.5194496E-006  0.1108444E+03  0.7818608E-02  0.1326867E+00
          2   -1    0    0  502    0  0.00000000000E+00  0.00000000000E+00  0.29724542784E+03  0.29724542784E+03  0.00000000000E+00 0. -1.
          1   -1    0    0  501    0 -0.00000000000E+00 -0.00000000000E+00 -0.59202672507E+03  0.59202672507E+03  0.00000000000E+00 0. -1.
         25    2    1    2    0    0  0.72167158692E+02  0.42834180218E+02 -0.26493217752E+03  0.30472523316E+03  0.12500217297E+03 0.  0.
          2    1    1    2  501    0  0.40229037376E+02 -0.42970130677E+02 -0.29275981541E+03  0.29861868176E+03  0.00000000000E+00 0. -1.
          1    1    1    2  502    0 -0.11239619607E+03  0.13595045914E+00  0.26291069569E+03  0.28592823800E+03  0.00000000000E+00 0. -1.
         22    1    3    3    0    0 -0.72927533461E+00 -0.25942922649E+02 -0.53922590800E+01  0.26507424169E+02  0.00000000000E+00 0.  1.
         22    1    3    3    0    0  0.72896434027E+02  0.68777102867E+02 -0.25953991844E+03  0.27821780899E+03  0.00000000000E+00 0.  1.
</event>
<event>
 7    1  0.5194496E-006  0.2770524E+03  0.7818608E-02  0.1206476E+00
          2   -1    0    0  502    0  0.00000000000E+00  0.00000000000E+00  0.15260869689E+03  0.15260869689E+03  0.00000000000E+00 0. -1.
          1   -1    0    0  501    0 -0.00000000000E+00 -0.00000000000E+00 -0.16945172323E+04  0.16945172323E+04  0.00000000000E+00 0. -1.
         25    2    1    2    0    0 -0.84552122502E+02  0.31990199394E+03 -0.92160335380E+03  0.98714998355E+03  0.12500400448E+03 0.  0.
          2    1    1    2  501    0  0.54936930594E+02 -0.52683521666E+02 -0.58369880125E+03  0.58864073116E+03  0.00000000000E+00 0. -1.
          1    1    1    2  502    0  0.29615191907E+02 -0.26721847227E+03 -0.36606380324E+02  0.27133521444E+03  0.00000000000E+00 0. -1.
         22    1    3    3    0    0 -0.67575097303E+02  0.32040986002E+03 -0.90845607310E+03  0.96567142907E+03  0.00000000000E+00 0.  1.
         22    1    3    3    0    0 -0.16977025199E+02 -0.50786607675E+00 -0.13147280697E+02  0.21478554474E+02  0.00000000000E+00 0.  1.
</event>
<event>
 7    1  0.5194496E-006  0.4487935E+02  0.7818608E-02  0.1510678E+00
          2   -1    0    0  502    0  0.00000000000E+00  0.00000000000E+00  0.43285970915E+03  0.43285970915E+03  0.00000000000E+00 0. -1.
          1   -1    0    0  501    0 -0.00000000000E+00 -0.00000000000E+00 -0.46626924419E+03  0.46626924419E+03  0.00000000000E+00 0. -1.
         25    2    1    2    0    0  0.26884782315E+02 -0.22250864959E+02 -0.37083010602E+02  0.13497509913E+03  0.12500094079E+03 0.  0.
          2    1    1    2  501    0 -0.44805361034E+02 -0.78826377637E+01 -0.37807327527E+03  0.38080054862E+03  0.00000000000E+00 0. -1.
          1    1    1    2  502    0  0.17920578719E+02  0.30133502722E+02  0.38174675083E+03  0.38335330558E+03  0.00000000000E+00 0. -1.
         22    1    3    3    0    0  0.69502898998E+02 -0.16505782816E+02 -0.53180224508E+02  0.89057454007E+02  0.00000000000E+00 0. -1.
         22    1    3    3    0    0 -0.42618116683E+02 -0.57450821420E+01  0.16097213906E+02  0.45917645127E+02  0.00000000000E+00 0. -1.
</event>
<event>
 7    1  0.5194496E-006  0.1126236E+03  0.7818608E-02  0.1260100E+00
          2   -1    0    0  502    0  0.00000000000E+00  0.00000000000E+00  0.19546799786E+04  0.19546799786E+04  0.00000000000E+00 0. -1.
          1   -1    0    0  501    0 -0.00000000000E+00 -0.00000000000E+00 -0.16802851425E+04  0.16802851425E+04  0.00000000000E+00 0. -1.
         25    2    1    2    0    0 -0.54453587321E+01 -0.48781149439E+02  0.12806641677E+03  0.18556644313E+03  0.12499858095E+03 0.  0.
          2    1    1    2  501    0  0.11088554549E+03  0.25713051646E+02 -0.16479501627E+04  0.16518766613E+04  0.00000000000E+00 0. -1.
          1    1    1    2  502    0 -0.10544018676E+03  0.23068097794E+02  0.17942785821E+04  0.17975220167E+04  0.00000000000E+00 0. -1.
         22    1    3    3    0    0 -0.14831601249E+02 -0.85584553561E+02  0.11754278294E+03  0.14615402158E+03  0.00000000000E+00 0. -1.
         22    1    3    3    0    0  0.93862425166E+01  0.36803404122E+02  0.10523633831E+02  0.39412421551E+02  0.00000000000E+00 0. -1.
</event>
<event>
 7    1  0.5194496E-006  0.8403994E+02  0.7818608E-02  0.1324259E+00
          2   -1    0    0  502    0  0.00000000000E+00  0.00000000000E+00  0.54397367449E+03  0.54397367449E+03  0.00000000000E+00 0. -1.
          1   -1    0    0  501    0 -0.00000000000E+00 -0.00000000000E+00 -0.13508723791E+04  0.13508723791E+04  0.00000000000E+00 0. -1.
         25    2    1    2    0    0 -0.63015461341E+02  0.13585534447E+03 -0.29751651059E+03  0.35576529260E+03  0.12500098541E+03 0.  0.
          2    1    1    2  501    0  0.57844044551E+02 -0.56573012496E+02 -0.10195540197E+04  0.10227594235E+04  0.00000000000E+00 0. -1.
          1    1    1    2  502    0  0.51714167898E+01 -0.79282331976E+02  0.51017182574E+03  0.51632133744E+03  0.00000000000E+00 0. -1.
         22    1    3    3    0    0 -0.40167818773E+02  0.15806235646E+03 -0.24408370342E+03  0.29355411165E+03  0.00000000000E+00 0. -1.
         22    1    3    3    0    0 -0.22847642568E+02 -0.22207011987E+02 -0.53432807171E+02  0.62211180944E+02  0.00000000000E+00 0. -1.
</event>
<event>
 7    1  0.5194496E-006  0.8135968E+02  0.7818608E-02  0.1398933E+00
          2   -1    0    0  502    0  0.00000000000E+00  0.00000000000E+00  0.83468272703E+03  0.83468272703E+03  0.00000000000E+00 0. -1.
          1   -1    0    0  501    0 -0.00000000000E+00 -0.00000000000E+00 -0.21032556969E+03  0.21032556969E+03  0.00000000000E+00 0. -1.
         25    2    1    2    0    0 -0.45305168905E+02 -0.46327199665E+02 -0.12213523132E+03  0.18639152605E+03  0.12500407391E+03 0.  0.
          2    1    1    2  501    0 -0.34206961088E+02  0.27456227600E+02 -0.45044426163E+02  0.62872577084E+02  0.00000000000E+00 0. -1.
          1    1    1    2  502    0  0.79512129993E+02  0.18870972065E+02  0.79153681483E+03  0.79574419359E+03  0.00000000000E+00 0. -1.
         22    1    3    3    0    0  0.12325272970E+02 -0.36365067905E+02 -0.12200687024E+03  0.12790624263E+03  0.00000000000E+00 0.  1.
         22    1    3    3    0    0 -0.57630441875E+02 -0.99621317601E+01 -0.12836107771E+00  0.58485283418E+02  0.00000000000E+00 0.  1.
</event>
<event>
 7    1  0.5194496E-006  0.2886275E+03  0.7818608E-02  0.1241067E+00
          2   -1    0    0  502    0  0.00000000000E+00  0.00000000000E+00  0.11624970674E+04  0.11624970674E+04  0.00000000000E+00 0. -1.
          1   -1    0    0  501    0 -0.00000000000E+00 -0.00000000000E+00 -0.14244855194E+04  0.14244855194E+04  0.00000000000E+00 0. -1.
         25    2    1    2    0    0  0.58396811541E+02  0.23351352710E+03  0.76900990049E+03  0.81543875316E+03  0.12500151267E+03 0.  0.
          2    1    1    2  501    0 -0.54777075096E+02 -0.28431139161E+03 -0.13844699998E+04  0.14144223823E+04  0.00000000000E+00 0. -1.
          1    1    1    2  502    0 -0.36197364455E+01  0.50797864515E+02  0.35347164733E+03  0.35712145133E+03  0.00000000000E+00 0. -1.
         22    1    3    3    0    0  0.72845574150E+02  0.23136204560E+03  0.76112089146E+03  0.79883658231E+03  0.00000000000E+00 0. -1.
         22    1    3    3    0    0 -0.14448762609E+02  0.21514814986E+01  0.78890090297E+01  0.16602170853E+02  0.00000000000E+00 0. -1.
</event>
<event>
 7    1  0.5194496E-006  0.6593115E+02  0.7818608E-02  0.1453350E+00
          2   -1    0    0  502    0  0.00000000000E+00  0.00000000000E+00  0.10780478944E+04  0.10780478944E+04  0.00000000000E+00 0. -1.
          1   -1    0    0  501    0 -0.00000000000E+00 -0.00000000000E+00 -0.21637482565E+03  0.21637482565E+03  0.00000000000E+00 0. -1.
         25    2    1    2    0    0 -0.68161953481E+02 -0.73850197427E+02  0.14935622602E+03  0.21916219292E+03  0.12499952397E+03 0.  0.
          2    1    1    2  501    0  0.24801792857E+02  0.25739210600E+02 -0.17852462128E+03  0.18206777940E+03  0.00000000000E+00 0. -1.
          1    1    1    2  502    0  0.43360160624E+02  0.48110986827E+02  0.89084146397E+03  0.89319274768E+03  0.00000000000E+00 0. -1.
         22    1    3    3    0    0 -0.11293494408E+02 -0.58483681928E+01  0.12713910526E+03  0.12777362213E+03  0.00000000000E+00 0. -1.
         22    1    3    3    0    0 -0.56868459073E+02 -0.68001829234E+02  0.22217120766E+02  0.91388570794E+02  0.00000000000E+00 0. -1.
</event>
<event>
 7    1  0.5194496E-006  0.6576961E+02  0.7818608E-02  0.1401865E+00
          2   -1    0    0  502    0  0.00000000000E+00  0.00000000000E+00  0.22571340116E+04  0.22571340116E+04  0.00000000000E+00 0. -1.
          1   -1    0    0  501    0 -0.00000000000E+00 -0.00000000000E+00 -0.21621403821E+03  0.21621403821E+03  0.00000000000E+00 0. -1.
         25    2    1    2    0    0  0.14847086309E+02 -0.87869308622E+02  0.46970557173E+02  0.16053942383E+03  0.12500088797E+03 0.  0.
          2    1    1    2  501    0 -0.46777220119E+02  0.45547280970E+02 -0.15240428337E+03  0.16580026754E+03  0.00000000000E+00 0. -1.
          1    1    1    2  502    0  0.31930133811E+02  0.42322027652E+02  0.21463536996E+04  0.21470083584E+04  0.00000000000E+00 0. -1.
         22    1    3    3    0    0  0.46381326190E+02  0.12612089664E+02  0.11606684812E+02  0.49447015654E+02  0.00000000000E+00 0. -1.
         22    1    3    3    0    0 -0.31534239881E+02 -0.10048139829E+03  0.35363872361E+02  0.11109240818E+03  0.00000000000E+00 0. -1.
</event>
<event>
 7    1  0.5194496E-006  0.1051116E+03  0.7818608E-02  0.1374130E+00
          2   -1    0    0  502    0  0.00000000000E+00  0.00000000000E+00  0.59959755035E+03  0.59959755035E+03  0.00000000000E+00 0. -1.
          1   -1    0    0  501    0 -0.00000000000E+00 -0.00000000000E+00 -0.42030855469E+03  0.42030855469E+03  0.00000000000E+00 0. -1.
         25    2    1    2    0    0 -0.86883419501E+02 -0.53171689284E+02 -0.29909803440E+03  0.33979539311E+03  0.12500127148E+03 0.  0.
          2    1    1    2  501    0  0.25736781208E+02 -0.32532805107E+02 -0.91561443654E+02  0.10051996458E+03  0.00000000000E+00 0. -1.
          1    1    1    2  502    0  0.61146638293E+02  0.85704494390E+02  0.56994847371E+03  0.57959074735E+03  0.00000000000E+00 0. -1.
         22    1    3    3    0    0 -0.26649518916E+02 -0.52985151591E+02 -0.26293089923E+03  0.26953716055E+03  0.00000000000E+00 0. -1.
         22    1    3    3    0    0 -0.60233900585E+02 -0.18653769217E+00 -0.36167135173E+02  0.70258232561E+02  0.00000000000E+00 0. -1.
</event>
<event>
 7    1  0.5194496E-006  0.8413810E+02  0.7818608E-02  0.1471218E+00
          2   -1    0    0  502    0  0.00000000000E+00  0.00000000000E+00  0.16462089530E+04  0.16462089530E+04  0.00000000000E+00 0. -1.
          1   -1    0    0  501    0 -0.00000000000E+00 -0.00000000000E+00 -0.12712535646E+03  0.12712535646E+03  0.00000000000E+00 0. -1.
         25    2    1    2    0    0 -0.76397111169E+02  0.17037090574E+02  0.25016795940E+03  0.29040638067E+03  0.12500030790E+03 0.  0.
          2    1    1    2  501    0  0.84469874090E+02  0.62110887709E+01 -0.90117170947E+02  0.12367231603E+03  0.00000000000E+00 0. -1.
          1    1    1    2  502    0 -0.80727629215E+01 -0.23248179344E+02  0.13590328081E+04  0.13592556128E+04  0.00000000000E+00 0. -1.
         22    1    3    3    0    0 -0.18468441301E+02 -0.48141966059E+02  0.48912809602E+02  0.71071760660E+02  0.00000000000E+00 0.  1.
         22    1    3    3    0    0 -0.57928669868E+02  0.65179056633E+02  0.20125514980E+03  0.21933462001E+03  0.00000000000E+00 0.  1.
</event>
<event>
 7    1  0.5194496E-006  0.4608834E+02  0.7818608E-02  0.1474416E+00
          2   -1    0    0  502    0  0.00000000000E+00  0.00000000000E+00  0.20299718366E+04  0.20299718366E+04  0.00000000000E+00 0. -1.
          1   -1    0    0  501    0 -0.00000000000E+00 -0.00000000000E+00 -0.10488712101E+03  0.10488712101E+03  0.00000000000E+00 0. -1.
         25    2    1    2    0    0 -0.75204537203E+02  0.41372934856E+02  0.75818395433E+03  0.77319873425E+03  0.12500372748E+03 0.  0.
          2    1    1    2  501    0  0.44796133359E+02 -0.96905365036E+01 -0.91582659828E+02  0.10241085705E+03  0.00000000000E+00 0. -1.
          1    1    1    2  502    0  0.30408403844E+02 -0.31682398353E+02  0.12584834211E+04  0.12592493663E+04  0.00000000000E+00 0. -1.
         22    1    3    3    0    0 -0.76318723602E+02  0.85428430659E+01  0.20294527517E+03  0.21698919893E+03  0.00000000000E+00 0. -1.
         22    1    3    3    0    0  0.11141863993E+01  0.32830091790E+02  0.55523867916E+03  0.55620953532E+03  0.00000000000E+00 0. -1.
</event>
<event>
 7    1  0.5194496E-006  0.4289369E+02  0.7818608E-02  0.1492077E+00
          2   -1    0    0  502    0  0.00000000000E+00  0.00000000000E+00  0.38589042821E+03  0.38589042821E+03  0.00000000000E+00 0. -1.
          1   -1    0    0  501    0 -0.00000000000E+00 -0.00000000000E+00 -0.26531590844E+03  0.26531590844E+03  0.00000000000E+00 0. -1.
         25    2    1    2    0    0 -0.63163472029E+02  0.12060541161E+02  0.75132193132E+02  0.15937444317E+03  0.12498114193E+03 0.  0.
          2    1    1    2  501    0  0.27157984394E+02 -0.33044690756E+02 -0.21950173436E+03  0.22363031792E+03  0.00000000000E+00 0. -1.
          1    1    1    2  502    0  0.36005487636E+02  0.20984149594E+02  0.26494406100E+03  0.26820157556E+03  0.00000000000E+00 0. -1.
         22    1    3    3    0    0  0.31365472468E+02 -0.68718864153E+01  0.50546064889E+02  0.59882554737E+02  0.00000000000E+00 0. -1.
         22    1    3    3    0    0 -0.94528944498E+02  0.18932427576E+02  0.24586128243E+02  0.99491888432E+02  0.00000000000E+00 0. -1.
</event>
<event>
 7    1  0.5194496E-006  0.2001227E+03  0.7818608E-02  0.1162118E+00
          2   -1    0    0  502    0  0.00000000000E+00  0.00000000000E+00  0.25755242096E+04  0.25755242096E+04  0.00000000000E+00 0. -1.
          1   -1    0    0  501    0 -0.00000000000E+00 -0.00000000000E+00 -0.14903186511E+04  0.14903186511E+04  0.00000000000E+00 0. -1.
         25    2    1    2    0    0  0.32470389126E+02 -0.11198435762E+02 -0.59530592878E+02  0.14264290945E+03  0.12499350781E+03 0.  0.
          2    1    1    2  501    0  0.15700319755E+03 -0.72360682638E+02 -0.13795974927E+04  0.13903867499E+04  0.00000000000E+00 0. -1.
          1    1    1    2  502    0 -0.18947358667E+03  0.83559118399E+02  0.25243336441E+04  0.25328132014E+04  0.00000000000E+00 0. -1.
         22    1    3    3    0    0  0.99838939857E+01  0.19028734681E+02  0.34894041047E+02  0.40980055920E+02  0.00000000000E+00 0. -1.
         22    1    3    3    0    0  0.22486495140E+02 -0.30227170443E+02 -0.94424633925E+02  0.10166285353E+03  0.00000000000E+00 0. -1.
</event>
<event>
 7    1  0.5194496E-006  0.1674978E+03  0.7818608E-02  0.1282472E+00
          2   -1    0    0  502    0  0.00000000000E+00  0.00000000000E+00  0.29684042198E+04  0.29684042198E+04  0.00000000000E+00 0. -1.
          1   -1    0    0  501    0 -0.00000000000E+00 -0.00000000000E+00 -0.10026390181E+03  0.10026390181E+03  0.00000000000E+00 0. -1.
         25    2    1    2    0    0 -0.18469674853E+03  0.99549134541E+02  0.61274952990E+03  0.65962941108E+03  0.12500421781E+03 0.  0.
          2    1    1    2  501    0  0.58400616438E+02  0.30786045383E+01 -0.62412019968E+02  0.85529936529E+02  0.00000000000E+00 0. -1.
          1    1    1    2  502    0  0.12629613209E+03 -0.10262773908E+03  0.23178028081E+04  0.23235087740E+04  0.00000000000E+00 0. -1.
         22    1    3    3    0    0 -0.16243268070E+03  0.22525066359E+02  0.41873972243E+03  0.44970513619E+03  0.00000000000E+00 0.  1.
         22    1    3    3    0    0 -0.22264067822E+02  0.77024068182E+02  0.19400980747E+03  0.20992427489E+03  0.00000000000E+00 0.  1.
</event>
<event>
 7    1  0.5194496E-006  0.9990235E+02  0.7818608E-02  0.1349579E+00
          2   -1    0    0  502    0  0.00000000000E+00  0.00000000000E+00  0.16401798667E+03  0.16401798667E+03  0.00000000000E+00 0. -1.
          1   -1    0    0  501    0 -0.00000000000E+00 -0.00000000000E+00 -0.15279752348E+04  0.15279752348E+04  0.00000000000E+00 0. -1.
         25    2    1    2    0    0 -0.71828215232E+02  0.13237768704E+03 -0.14696784991E+03  0.24475980262E+03  0.12499867015E+03 0.  0.
          2    1    1    2  501    0  0.39103608245E+02 -0.89906890221E+02 -0.13239562919E+04  0.13275814868E+04  0.00000000000E+00 0. -1.
          1    1    1    2  502    0  0.32724606987E+02 -0.42470796822E+02  0.10696689374E+03  0.11965193204E+03  0.00000000000E+00 0. -1.
         22    1    3    3    0    0 -0.16257335336E+02  0.47872292368E+02 -0.13346826448E+03  0.14272293071E+03  0.00000000000E+00 0.  1.
         22    1    3    3    0    0 -0.55570879896E+02  0.84505394675E+02 -0.13499585436E+02  0.10203687191E+03  0.00000000000E+00 0.  1.
</event>
<event>
 7    1  0.5194496E-006  0.1072199E+03  0.7818608E-02  0.1451348E+00
          2   -1    0    0  502    0  0.00000000000E+00  0.00000000000E+00  0.30362977544E+04  0.30362977544E+04  0.00000000000E+00 0. -1.
          1   -1    0    0  501    0 -0.00000000000E+00 -0.00000000000E+00 -0.58183790320E+02  0.58183790320E+02  0.00000000000E+00 0. -1.
         25    2    1    2    0    0 -0.42506499389E+02  0.74390551080E+02  0.16494206864E+03  0.22399181326E+03  0.12500275925E+03 0.  0.
          2    1    1    2  501    0 -0.10296620783E+02  0.19786036748E+02 -0.23130544563E+02  0.32133000817E+02  0.00000000000E+00 0. -1.
          1    1    1    2  502    0  0.52803120172E+02 -0.94176587828E+02  0.28363024400E+04  0.28383567307E+04  0.00000000000E+00 0. -1.
         22    1    3    3    0    0 -0.43982303952E+02  0.29805613563E+02  0.66337787703E-02  0.53130195791E+02  0.00000000000E+00 0.  1.
         22    1    3    3    0    0  0.14758045626E+01  0.44584937517E+02  0.16493543486E+03  0.17086161747E+03  0.00000000000E+00 0.  1.
</event>
<event>
 7    1  0.5194496E-006  0.1683099E+03  0.7818608E-02  0.1311042E+00
          2   -1    0    0  502    0  0.00000000000E+00  0.00000000000E+00  0.69880871675E+03  0.69880871675E+03  0.00000000000E+00 0. -1.
          1   -1    0    0  501    0 -0.00000000000E+00 -0.00000000000E+00 -0.89812040460E+03  0.89812040460E+03  0.00000000000E+00 0. -1.
         25    2    1    2    0    0 -0.45012947199E+02 -0.15883009704E+03  0.20449079144E+03  0.29102367704E+03  0.12500052669E+03 0.  0.
          2    1    1    2  501    0  0.42946667441E+02 -0.12261257948E+02 -0.83801105815E+03  0.83920038624E+03  0.00000000000E+00 0. -1.
          1    1    1    2  502    0  0.20662797583E+01  0.17109135499E+03  0.43420857887E+03  0.46670505807E+03  0.00000000000E+00 0. -1.
         22    1    3    3    0    0  0.38369167562E+02 -0.23902019178E+02  0.68620950878E+02  0.82172589345E+02  0.00000000000E+00 0.  1.
         22    1    3    3    0    0 -0.83382114761E+02 -0.13492807787E+03  0.13586984056E+03  0.20885108770E+03  0.00000000000E+00 0.  1.
</event>
<event>
 7    1  0.5194496E-006  0.5790630E+02  0.7818608E-02  0.1440599E+00
          2   -1    0    0  502    0  0.00000000000E+00  0.00000000000E+00  0.16980188640E+04  0.16980188640E+04  0.00000000000E+00 0. -1.
          1   -1    0    0  501    0 -0.00000000000E+00 -0.00000000000E+00 -0.95541679516E+02  0.95541679516E+02  0.00000000000E+00 0. -1.
         25    2    1    2    0    0  0.26932055659E+02 -0.62451131370E+02  0.93107077861E+02  0.17005588524E+03  0.12499838690E+03 0.  0.
          2    1    1    2  501    0  0.25162731344E+02  0.36973772035E+02 -0.47681268994E+02  0.65373743048E+02  0.00000000000E+00 0. -1.
          1    1    1    2  502    0 -0.52094787003E+02  0.25477359334E+02  0.15570513756E+04  0.15581309152E+04  0.00000000000E+00 0. -1.
         22    1    3    3    0    0 -0.55431776244E+01 -0.92592439074E+02  0.83310397826E+02  0.12467842226E+03  0.00000000000E+00 0. -1.
         22    1    3    3    0    0  0.32475233284E+02  0.30141307704E+02  0.97966800350E+01  0.45377462981E+02  0.00000000000E+00 0. -1.
</event>
<event>
 7    1  0.5194496E-006  0.1134915E+03  0.7818608E-02  0.1286045E+00
          2   -1    0    0  502    0  0.00000000000E+00  0.00000000000E+00  0.28920119340E+03  0.28920119340E+03  0.00000000000E+00 0. -1.
          1   -1    0    0  501    0 -0.00000000000E+00 -0.00000000000E+00 -0.20596067592E+04  0.20596067592E+04  0.00000000000E+00 0. -1.
         25    2    1    2    0    0 -0.15255625110E+03  0.57727110901E+02 -0.86858098326E+03  0.89256014540E+03  0.12499943839E+03 0.  0.
          2    1    1    2  501    0  0.71712569838E+02 -0.78399942458E+02 -0.11702949667E+04  0.11751083153E+04  0.00000000000E+00 0. -1.
          1    1    1    2  502    0  0.80843681267E+02  0.20672831557E+02  0.26847038412E+03  0.28113949192E+03  0.00000000000E+00 0. -1.
         22    1    3    3    0    0  0.88878069197E+01 -0.44589797660E+01 -0.38028051670E+01  0.10645982319E+02  0.00000000000E+00 0.  1.
         22    1    3    3    0    0 -0.16144405802E+03  0.62186090667E+02 -0.86477817809E+03  0.88191416308E+03  0.00000000000E+00 0.  1.
</event>
<event>
 7    1  0.5194496E-006  0.7511142E+02  0.7818608E-02  0.1387841E+00
          2   -1    0    0  502    0  0.00000000000E+00  0.00000000000E+00  0.19412245957E+04  0.19412245957E+04  0.00000000000E+00 0. -1.
          1   -1    0    0  501    0 -0.00000000000E+00 -0.00000000000E+00 -0.16429372869E+04  0.16429372869E+04  0.00000000000E+00 0. -1.
         25    2    1    2    0    0 -0.27501386798E+02 -0.54975258831E+01  0.16461350531E+03  0.20858943910E+03  0.12500159561E+03 0.  0.
          2    1    1    2  501    0 -0.37239435813E+02 -0.36175364996E+02 -0.16196885583E+04  0.16205204283E+04  0.00000000000E+00 0. -1.
          1    1    1    2  502    0  0.64740822611E+02  0.41672890879E+02  0.17533623619E+04  0.17550520152E+04  0.00000000000E+00 0. -1.
         22    1    3    3    0    0 -0.60242673672E+02 -0.38967258939E+02  0.13586878457E+03  0.15364879961E+03  0.00000000000E+00 0. -1.
         22    1    3    3    0    0  0.32741286874E+02  0.33469733056E+02  0.28744720738E+02  0.54940639488E+02  0.00000000000E+00 0. -1.
</event>
<event>
 7    1  0.5194496E-006  0.1438655E+03  0.7818608E-02  0.1335884E+00
          2   -1    0    0  502    0  0.00000000000E+00  0.00000000000E+00  0.76266633474E+03  0.76266633474E+03  0.00000000000E+00 0. -1.
          1   -1    0    0  501    0 -0.00000000000E+00 -0.00000000000E+00 -0.52967516512E+03  0.52967516512E+03  0.00000000000E+00 0. -1.
         25    2    1    2    0    0  0.16906317542E+03 -0.91213390143E+01 -0.26152904205E+03  0.33568939687E+03  0.12499750088E+03 0.  0.
          2    1    1    2  501    0 -0.27491963887E+02  0.31620381205E+02 -0.22200703753E+03  0.22592649534E+03  0.00000000000E+00 0. -1.
          1    1    1    2  502    0 -0.14157121153E+03 -0.22499042191E+02  0.71652724920E+03  0.73072560765E+03  0.00000000000E+00 0. -1.
         22    1    3    3    0    0  0.10397481768E+03 -0.62211288580E+02 -0.11646389280E+03  0.16806202862E+03  0.00000000000E+00 0. -1.
         22    1    3    3    0    0  0.65088357739E+02  0.53089949566E+02 -0.14506514925E+03  0.16762736824E+03  0.00000000000E+00 0. -1.
</event>
<event>
 7    1  0.5194496E-006  0.1212815E+03  0.7818608E-02  0.1406565E+00
          2   -1    0    0  502    0  0.00000000000E+00  0.00000000000E+00  0.46440967015E+03  0.46440967015E+03  0.00000000000E+00 0. -1.
          1   -1    0    0  501    0 -0.00000000000E+00 -0.00000000000E+00 -0.17909320022E+03  0.17909320022E+03  0.00000000000E+00 0. -1.
         25    2    1    2    0    0  0.36218510065E+02 -0.10349116547E+03  0.32479847562E+03  0.36488431696E+03  0.12499725273E+03 0.  0.
          2    1    1    2  501    0 -0.15011919401E+02  0.12132089524E+03 -0.13325736428E+03  0.18083595461E+03  0.00000000000E+00 0. -1.
          1    1    1    2  502    0 -0.21206590664E+02 -0.17829729767E+02  0.93775358585E+02  0.97782598804E+02  0.00000000000E+00 0. -1.
         22    1    3    3    0    0 -0.17113676990E+02  0.53130721989E+01  0.15639178666E+03  0.15741504887E+03  0.00000000000E+00 0.  1.
         22    1    3    3    0    0  0.53332187055E+02 -0.10880423767E+03  0.16840668896E+03  0.20746926808E+03  0.00000000000E+00 0.  1.
</event>
<event>
 7    1  0.5194496E-006  0.7879664E+02  0.7818608E-02  0.1361170E+00
          2   -1    0    0  502    0  0.00000000000E+00  0.00000000000E+00  0.89697391133E+03  0.89697391133E+03  0.00000000000E+00 0. -1.
          1   -1    0    0  501    0 -0.00000000000E+00 -0.00000000000E+00 -0.23696499848E+04  0.23696499848E+04  0.00000000000E+00 0. -1.
         25    2    1    2    0    0  0.20915657777E+02  0.24678282767E+02 -0.36310930998E+02  0.13412738084E+03  0.12500075280E+03 0.  0.
          2    1    1    2  501    0 -0.79417169170E+02 -0.53055970122E+01 -0.22826167400E+04  0.22840040320E+04  0.00000000000E+00 0. -1.
          1    1    1    2  502    0  0.58501511393E+02 -0.19372685755E+02  0.84625159759E+03  0.84849248330E+03  0.00000000000E+00 0. -1.
         22    1    3    3    0    0 -0.11794194380E+02 -0.30114027476E+02 -0.58268439804E+02  0.66642094423E+02  0.00000000000E+00 0.  1.
         22    1    3    3    0    0  0.32709852157E+02  0.54792310243E+02  0.21957508806E+02  0.67485286418E+02  0.00000000000E+00 0.  1.
</event>
<event>
 7    1  0.5194496E-006  0.8203076E+02  0.7818608E-02  0.1433569E+00
          2   -1    0    0  502    0  0.00000000000E+00  0.00000000000E+00  0.23055562542E+04  0.23055562542E+04  0.00000000000E+00 0. -1.
          1   -1    0    0  501    0 -0.00000000000E+00 -0.00000000000E+00 -0.11625587723E+03  0.11625587723E+03  0.00000000000E+00 0. -1.
         25    2    1    2    0    0  0.10134477890E+03  0.34937279235E+02  0.40011033927E+03  0.43267038304E+03  0.12499599625E+03 0.  0.
          2    1    1    2  501    0 -0.80646864155E+02 -0.88751476846E+01 -0.83342918566E+02  0.11631305610E+03  0.00000000000E+00 0. -1.
          1    1    1    2  502    0 -0.20697914746E+02 -0.26062131551E+02  0.18725329563E+04  0.18728286923E+04  0.00000000000E+00 0. -1.
         22    1    3    3    0    0  0.49865123022E+02  0.43201964780E+02  0.61912338302E+02  0.90476946726E+02  0.00000000000E+00 0.  1.
         22    1    3    3    0    0  0.51479655879E+02 -0.82646855451E+01  0.33819800097E+03  0.34219343631E+03  0.00000000000E+00 0.  1.
</event>
<event>
 7    1  0.5194496E-006  0.9875260E+02  0.7818608E-02  0.1417352E+00
          2   -1    0    0  502    0  0.00000000000E+00  0.00000000000E+00  0.62834072694E+03  0.62834072694E+03  0.00000000000E+00 0. -1.
          1   -1    0    0  501    0 -0.00000000000E+00 -0.00000000000E+00 -0.86522145678E+03  0.86522145678E+03  0.00000000000E+00 0. -1.
         25    2    1    2    0    0  0.45395546065E+01  0.88807526865E+02  0.27485087890E+03  0.31476161936E+03  0.12499794802E+03 0.  0.
          2    1    1    2  501    0  0.26045032045E+02 -0.95401085856E+02 -0.84163090617E+03  0.84742096570E+03  0.00000000000E+00 0. -1.
          1    1    1    2  502    0 -0.30584586651E+02  0.65935589908E+01  0.32989929743E+03  0.33137959866E+03  0.00000000000E+00 0. -1.
         22    1    3    3    0    0 -0.54092980842E+02  0.54752132618E+02  0.19711905819E+03  0.21161230990E+03  0.00000000000E+00 0. -1.
         22    1    3    3    0    0  0.58632535449E+02  0.34055394247E+02  0.77731820711E+02  0.10314930946E+03  0.00000000000E+00 0. -1.
</event>
<event>
 7    1  0.5194496E-006  0.4179512E+02  0.7818608E-02  0.1507587E+00
          2   -1    0    0  502    0  0.00000000000E+00  0.00000000000E+00  0.25181262737E+03  0.25181262737E+03  0.00000000000E+00 0. -1.
          1   -1    0    0  501    0 -0.00000000000E+00 -0.00000000000E+00 -0.16540174106E+04  0.16540174106E+04  0.00000000000E+00 0. -1.
         25    2    1    2    0    0  0.15525006975E+02 -0.54135890003E+02  0.10778714167E+03  0.17439659508E+03  0.12499753613E+03 0.  0.
          2    1    1    2  501    0 -0.34462130003E+02  0.17039891876E+02 -0.16165591452E+04  0.16170162232E+04  0.00000000000E+00 0. -1.
          1    1    1    2  502    0  0.18937123028E+02  0.37095998127E+02  0.10656722030E+03  0.11441721963E+03  0.00000000000E+00 0. -1.
         22    1    3    3    0    0  0.45791090450E+01 -0.94511153627E+02  0.82339548635E+02  0.12543176499E+03  0.00000000000E+00 0.  1.
         22    1    3    3    0    0  0.10945897930E+02  0.40375263624E+02  0.25447593036E+02  0.48964830088E+02  0.00000000000E+00 0.  1.
</event>
<event>
 7    1  0.5194496E-006  0.7369417E+02  0.7818608E-02  0.1376237E+00
          2   -1    0    0  502    0  0.00000000000E+00  0.00000000000E+00  0.15880433076E+04  0.15880433076E+04  0.00000000000E+00 0. -1.
          1   -1    0    0  501    0 -0.00000000000E+00 -0.00000000000E+00 -0.76263767309E+02  0.76263767309E+02  0.00000000000E+00 0. -1.
         25    2    1    2    0    0  0.28108958073E+02 -0.12226860468E+03  0.28197728572E+03  0.33298015040E+03  0.12499946273E+03 0.  0.
          2    1    1    2  501    0 -0.33189453417E+01  0.69665662064E+02 -0.25811204710E+02  0.74367588085E+02  0.00000000000E+00 0. -1.
          1    1    1    2  502    0 -0.24790012731E+02  0.52602942611E+02  0.12556134593E+04  0.12569593364E+04  0.00000000000E+00 0. -1.
         22    1    3    3    0    0  0.39634511178E+02 -0.30009326121E+02  0.17611300577E+02  0.52740990118E+02  0.00000000000E+00 0. -1.
         22    1    3    3    0    0 -0.11525553105E+02 -0.92259278554E+02  0.26436598515E+03  0.28023916028E+03  0.00000000000E+00 0. -1.
</event>
<event>
 7    1  0.5194496E-006  0.3512625E+02  0.7818608E-02  0.1553474E+00
          2   -1    0    0  502    0  0.00000000000E+00  0.00000000000E+00  0.27273610394E+04  0.27273610394E+04  0.00000000000E+00 0. -1.
          1   -1    0    0  501    0 -0.00000000000E+00 -0.00000000000E+00 -0.73687221098E+02  0.73687221098E+02  0.00000000000E+00 0. -1.
         25    2    1    2    0    0 -0.61513469894E+01 -0.49169911359E+02  0.81247145711E+03  0.82352232720E+03  0.12499454204E+03 0.  0.
          2    1    1    2  501    0 -0.20763638355E+02  0.26671565537E+02 -0.63799952115E+02  0.72200657725E+02  0.00000000000E+00 0. -1.
          1    1    1    2  502    0  0.26914985345E+02  0.22498345822E+02  0.19050023133E+04  0.19053252756E+04  0.00000000000E+00 0. -1.
         22    1    3    3    0    0  0.30985417962E+02 -0.73756508540E+02  0.65520111566E+03  0.66006713344E+03  0.00000000000E+00 0. -1.
         22    1    3    3    0    0 -0.37136764952E+02  0.24586597180E+02  0.15727034144E+03  0.16345519377E+03  0.00000000000E+00 0. -1.
</event>
<event>
 7    1  0.5194496E-006  0.1761554E+03  0.7818608E-02  0.1364286E+00
          2   -1    0    0  502    0  0.00000000000E+00  0.00000000000E+00  0.27099959575E+03  0.27099959575E+03  0.00000000000E+00 0. -1.
          1   -1    0    0  501    0 -0.00000000000E+00 -0.00000000000E+00 -0.55203957672E+03  0.55203957672E+03  0.00000000000E+00 0. -1.
         25    2    1    2    0    0  0.92577584253E+02  0.12026879439E+03 -0.44896023798E+03  0.49013394447E+03  0.12502318272E+03 0.  0.
          2    1    1    2  501    0  0.10213128725E+02  0.24838745843E+02 -0.46892398992E+02  0.54038582296E+02  0.00000000000E+00 0. -1.
          1    1    1    2  502    0 -0.10279071298E+03 -0.14510754024E+03  0.21481265601E+03  0.27886664571E+03  0.00000000000E+00 0. -1.
         22    1    3    3    0    0  0.10857279449E+03  0.13289205895E+03 -0.42691664643E+03  0.46011539208E+03  0.00000000000E+00 0. -1.
         22    1    3    3    0    0 -0.15995210236E+02 -0.12623264555E+02 -0.22043591557E+02  0.30018552385E+02  0.00000000000E+00 0. -1.
</event>
<event>
 7    1  0.5194496E-006  0.1582867E+03  0.7818608E-02  0.1331002E+00
          2   -1    0    0  502    0  0.00000000000E+00  0.00000000000E+00  0.32204368278E+03  0.32204368278E+03  0.00000000000E+00 0. -1.
          1   -1    0    0  501    0 -0.00000000000E+00 -0.00000000000E+00 -0.20206946897E+04  0.20206946897E+04  0.00000000000E+00 0. -1.
         25    2    1    2    0    0 -0.48824435572E+02 -0.11631065595E+03 -0.13200205019E+03  0.22127235629E+03  0.12499968084E+03 0.  0.
          2    1    1    2  501    0  0.24636588150E+01 -0.39668785642E+02 -0.18199591023E+04  0.18203930389E+04  0.00000000000E+00 0. -1.
          1    1    1    2  502    0  0.46360776757E+02  0.15597944159E+03  0.25331014554E+03  0.30107297729E+03  0.00000000000E+00 0. -1.
         22    1    3    3    0    0 -0.81433362814E+02 -0.11971848939E+03 -0.10856548545E+03  0.18097064378E+03  0.00000000000E+00 0.  1.
         22    1    3    3    0    0  0.32608927242E+02  0.34078334363E+01 -0.23436564739E+02  0.40301712511E+02  0.00000000000E+00 0.  1.
</event>
<event>
 7    1  0.5194496E-006  0.9448508E+02  0.7818608E-02  0.1374048E+00
          2   -1    0    0  502    0  0.00000000000E+00  0.00000000000E+00  0.22653871344E+04  0.22653871344E+04  0.00000000000E+00 0. -1.
          1   -1    0    0  501    0 -0.00000000000E+00 -0.00000000000E+00 -0.30943683553E+02  0.30943683553E+02  0.00000000000E+00 0. -1.
         25    2    1    2    0    0  0.88804556238E+02 -0.89446465231E+02  0.13116336730E+04  0.13235918038E+04  0.12500180638E+03 0.  0.
          2    1    1    2  501    0 -0.18261851538E+02  0.42414442048E+02  0.13692192338E+00  0.46178987250E+02  0.00000000000E+00 0. -1.
          1    1    1    2  502    0 -0.70542704700E+02  0.47032023184E+02  0.92267285588E+03  0.92656002686E+03  0.00000000000E+00 0. -1.
         22    1    3    3    0    0  0.35937695786E+01 -0.43811392374E+02  0.11588044559E+03  0.12393801254E+03  0.00000000000E+00 0.  1.
         22    1    3    3    0    0  0.85210786659E+02 -0.45635072857E+02  0.11957532274E+04  0.11996537913E+04  0.00000000000E+00 0.  1.
</event>
<event>
 7    1  0.5194496E-006  0.3916640E+02  0.7818608E-02  0.1581988E+00
          2   -1    0    0  502    0  0.00000000000E+00  0.00000000000E+00  0.11614824040E+04  0.11614824040E+04  0.00000000000E+00 0. -1.
          1   -1    0    0  501    0 -0.00000000000E+00 -0.00000000000E+00 -0.15894617706E+03  0.15894617706E+03  0.00000000000E+00 0. -1.
         25    2    1    2    0    0  0.44364972833E+01 -0.33747988492E+02  0.41633195905E+02  0.13607176613E+03  0.12499437308E+03 0.  0.
          2    1    1    2  501    0  0.20911436759E+02  0.33706587310E+02 -0.10805121570E+03  0.11510207396E+03  0.00000000000E+00 0. -1.
          1    1    1    2  502    0 -0.25347934043E+02  0.41401181742E-01  0.10689542468E+04  0.10692547410E+04  0.00000000000E+00 0. -1.
         22    1    3    3    0    0 -0.17961682611E+02 -0.62523261570E+02  0.65639627631E+02  0.92413965368E+02  0.00000000000E+00 0. -1.
         22    1    3    3    0    0  0.22398179894E+02  0.28775273078E+02 -0.24006431725E+02  0.43657800763E+02  0.00000000000E+00 0. -1.
</event>
<event>
 7    1  0.5194496E-006  0.2668857E+02  0.7818608E-02  0.1638726E+00
          2   -1    0    0  502    0  0.00000000000E+00  0.00000000000E+00  0.21469883670E+03  0.21469883670E+03  0.00000000000E+00 0. -1.
          1   -1    0    0  501    0 -0.00000000000E+00 -0.00000000000E+00 -0.20081554540E+03  0.20081554540E+03  0.00000000000E+00 0. -1.
         25    2    1    2    0    0 -0.17700090818E+01 -0.31248372425E+02  0.54322666050E+01  0.12897474139E+03  0.12500152273E+03 0.  0.
          2    1    1    2  501    0  0.22471494677E+02  0.14154770441E+02 -0.13653247415E+03  0.13909148823E+03  0.00000000000E+00 0. -1.
          1    1    1    2  502    0 -0.20701485596E+02  0.17093601984E+02  0.14498349884E+03  0.14744815249E+03  0.00000000000E+00 0. -1.
         22    1    3    3    0    0 -0.59845144691E+02 -0.35090079046E+02  0.11996679457E+02  0.70403659767E+02  0.00000000000E+00 0.  1.
         22    1    3    3    0    0  0.58075135610E+02  0.38417066215E+01 -0.65644128515E+01  0.58571081618E+02  0.00000000000E+00 0.  1.
</event>
<event>
 7    1  0.5194496E-006  0.6294620E+02  0.7818608E-02  0.1433343E+00
          2   -1    0    0  502    0  0.00000000000E+00  0.00000000000E+00  0.37077681720E+02  0.37077681720E+02  0.00000000000E+00 0. -1.
          1   -1    0    0  501    0 -0.00000000000E+00 -0.00000000000E+00 -0.83089237300E+03  0.83089237300E+03  0.00000000000E+00 0. -1.
         25    2    1    2    0    0 -0.43617513895E+02 -0.68505617208E+02 -0.67832418248E+03  0.69451061431E+03  0.12500315897E+03 0.  0.
          2    1    1    2  501    0  0.28512424999E+01  0.53484381823E+02 -0.11836463577E+03  0.12991880419E+03  0.00000000000E+00 0. -1.
          1    1    1    2  502    0  0.40766271395E+02  0.15021235385E+02  0.28741269660E+01  0.43540636212E+02  0.00000000000E+00 0. -1.
         22    1    3    3    0    0 -0.28803367196E+01 -0.80843075347E+02 -0.22332117456E+03  0.23752104366E+03  0.00000000000E+00 0.  1.
         22    1    3    3    0    0 -0.40737177175E+02  0.12337458139E+02 -0.45500300791E+03  0.45698957066E+03  0.00000000000E+00 0.  1.
</event>
<event>
 7    1  0.5194496E-006  0.1278908E+03  0.7818608E-02  0.1243389E+00
          2   -1    0    0  502    0  0.00000000000E+00  0.00000000000E+00  0.20899158503E+04  0.20899158503E+04  0.00000000000E+00 0. -1.
          1   -1    0    0  501    0 -0.00000000000E+00 -0.00000000000E+00 -0.42131442824E+03  0.42131442824E+03  0.00000000000E+00 0. -1.
         25    2    1    2    0    0 -0.30471403482E+01 -0.22391994220E+01  0.24696725562E+02  0.12746570162E+03  0.12499311084E+03 0.  0.
          2    1    1    2  501    0  0.99010112924E+02 -0.82301666143E+02 -0.35662337656E+03  0.37915273890E+03  0.00000000000E+00 0. -1.
          1    1    1    2  502    0 -0.95962972576E+02  0.84540865565E+02  0.20005280730E+04  0.20046118380E+04  0.00000000000E+00 0. -1.
         22    1    3    3    0    0  0.27343292038E+02 -0.41237607901E+02  0.51340225141E+02  0.71302276558E+02  0.00000000000E+00 0. -1.
         22    1    3    3    0    0 -0.30390432386E+02  0.38998408479E+02 -0.26643499580E+02  0.56163425059E+02  0.00000000000E+00 0. -1.
</event>
<event>
 7    1  0.5194496E-006  0.2240090E+02  0.7818608E-02  0.1713170E+00
          2   -1    0    0  502    0  0.00000000000E+00  0.00000000000E+00  0.28213757953E+03  0.28213757953E+03  0.00000000000E+00 0. -1.
          1   -1    0    0  501    0 -0.00000000000E+00 -0.00000000000E+00 -0.59740678484E+03  0.59740678484E+03  0.00000000000E+00 0. -1.
         25    2    1    2    0    0 -0.90954848874E+00  0.70121311478E+01  0.18324377917E+03  0.22193301816E+03  0.12500393867E+03 0.  0.
          2    1    1    2  501    0  0.22398899749E+02  0.29960244559E+00 -0.57622080065E+03  0.57665606004E+03  0.00000000000E+00 0. -1.
          1    1    1    2  502    0 -0.21489351260E+02 -0.73117335934E+01  0.77707816172E+02  0.80955286176E+02  0.00000000000E+00 0. -1.
         22    1    3    3    0    0  0.23792319147E+02 -0.42673937673E+02  0.26338640606E+02  0.55505525814E+02  0.00000000000E+00 0. -1.
         22    1    3    3    0    0 -0.24701867636E+02  0.49686068821E+02  0.15690513857E+03  0.16642749235E+03  0.00000000000E+00 0. -1.
</event>
<event>
 7    1  0.5194496E-006  0.5552719E+02  0.7818608E-02  0.1475466E+00
          2   -1    0    0  502    0  0.00000000000E+00  0.00000000000E+00  0.33592789628E+03  0.33592789628E+03  0.00000000000E+00 0. -1.
          1   -1    0    0  501    0 -0.00000000000E+00 -0.00000000000E+00 -0.63754417574E+02  0.63754417574E+02  0.00000000000E+00 0. -1.
         25    2    1    2    0    0 -0.62558669825E+02 -0.57100884342E+02  0.94412736708E+02  0.17808117601E+03  0.12500016894E+03 0.  0.
          2    1    1    2  501    0  0.32700501089E+02  0.36672016560E+02  0.10203073217E+02  0.50182290433E+02  0.00000000000E+00 0. -1.
          1    1    1    2  502    0  0.29858168736E+02  0.20428867783E+02  0.16755766878E+03  0.17141884740E+03  0.00000000000E+00 0. -1.
         22    1    3    3    0    0 -0.13314000073E+02  0.20836103779E+02  0.81281742729E+02  0.84959564027E+02  0.00000000000E+00 0.  1.
         22    1    3    3    0    0 -0.49244669751E+02 -0.77936988121E+02  0.13130993979E+02  0.93121611987E+02  0.00000000000E+00 0.  1.
</event>
<event>
 7    1  0.5194496E-006  0.1380899E+03  0.7818608E-02  0.1273498E+00
          2   -1    0    0  502    0  0.00000000000E+00  0.00000000000E+00  0.13895450167E+04  0.13895450167E+04  0.00000000000E+00 0. -1.
          1   -1    0    0  501    0 -0.00000000000E+00 -0.00000000000E+00 -0.10803071381E+03  0.10803071381E+03  0.00000000000E+00 0. -1.
         25    2    1    2    0    0 -0.93361103905E+02  0.79096495141E+02  0.35743377779E+03  0.39794836500E+03  0.12502577509E+03 0.  0.
          2    1    1    2  501    0  0.42117190554E+02 -0.13694448769E+03 -0.26674498450E+02  0.14573667801E+03  0.00000000000E+00 0. -1.
          1    1    1    2  502    0  0.51243913351E+02  0.57847992553E+02  0.95075502354E+03  0.95389068749E+03  0.00000000000E+00 0. -1.
         22    1    3    3    0    0 -0.92718889142E+02  0.18660264136E+01  0.24100817243E+03  0.25823480330E+03  0.00000000000E+00 0. -1.
         22    1    3    3    0    0 -0.64221476364E+00  0.77230468727E+02  0.11642560536E+03  0.13971356170E+03  0.00000000000E+00 0. -1.
</event>
<event>
 7    1  0.5194496E-006  0.7491005E+02  0.7818608E-02  0.1386442E+00
          2   -1    0    0  502    0  0.00000000000E+00  0.00000000000E+00  0.65437379977E+03  0.65437379977E+03  0.00000000000E+00 0. -1.
          1   -1    0    0  501    0 -0.00000000000E+00 -0.00000000000E+00 -0.14187029270E+04  0.14187029270E+04  0.00000000000E+00 0. -1.
         25    2    1    2    0    0  0.11016515669E+00  0.98689571100E+02 -0.16538316507E+03  0.22959313001E+03  0.12498708126E+03 0.  0.
          2    1    1    2  501    0 -0.39204890441E+02 -0.63427075198E+02 -0.12189598789E+04  0.12212383894E+04  0.00000000000E+00 0. -1.
          1    1    1    2  502    0  0.39094725284E+02 -0.35262495903E+02  0.62001391674E+03  0.62224520739E+03  0.00000000000E+00 0. -1.
         22    1    3    3    0    0 -0.36960377210E+02  0.83743129017E+02 -0.16605928244E+03  0.18961715752E+03  0.00000000000E+00 0.  1.
         22    1    3    3    0    0  0.37070542367E+02  0.14946442084E+02  0.67611737214E+00  0.39975972496E+02  0.00000000000E+00 0.  1.
</event>
<event>
 7    1  0.5194496E-006  0.1115670E+03  0.7818608E-02  0.1393097E+00
          2   -1    0    0  502    0  0.00000000000E+00  0.00000000000E+00  0.96195198714E+03  0.96195198714E+03  0.00000000000E+00 0. -1.
          1   -1    0    0  501    0 -0.00000000000E+00 -0.00000000000E+00 -0.79582833316E+02  0.79582833316E+02  0.00000000000E+00 0. -1.
         25    2    1    2    0    0 -0.42129449831E+02 -0.89984029765E+02  0.14687866783E+03  0.21695774988E+03  0.12500122405E+03 0.  0.
          2    1    1    2  501    0 -0.33122080733E+02  0.50749052704E+01 -0.33429099132E+02  0.47332140923E+02  0.00000000000E+00 0. -1.
          1    1    1    2  502    0  0.75251530564E+02  0.84909124495E+02  0.76891958512E+03  0.77724492965E+03  0.00000000000E+00 0. -1.
         22    1    3    3    0    0 -0.38173832065E+02  0.14675299819E+02  0.87442699966E+02  0.96534095825E+02  0.00000000000E+00 0.  1.
         22    1    3    3    0    0 -0.39556177655E+01 -0.10465932958E+03  0.59435967864E+02  0.12042365406E+03  0.00000000000E+00 0.  1.
</event>
<event>
 7    1  0.5194496E-006  0.1164830E+03  0.7818608E-02  0.1288104E+00
          2   -1    0    0  502    0  0.00000000000E+00  0.00000000000E+00  0.67218238078E+03  0.67218238078E+03  0.00000000000E+00 0. -1.
          1   -1    0    0  501    0 -0.00000000000E+00 -0.00000000000E+00 -0.78568107386E+03  0.78568107386E+03  0.00000000000E+00 0. -1.
         25    2    1    2    0    0  0.40845737394E+02  0.38646881263E+02  0.67918100736E+02  0.15300034728E+03  0.12503712314E+03 0.  0.
          2    1    1    2  501    0 -0.11806042603E+03 -0.18729889221E+02 -0.73545986033E+03  0.74511091731E+03  0.00000000000E+00 0. -1.
          1    1    1    2  502    0  0.77214688639E+02 -0.19916992042E+02  0.55404306652E+03  0.55975219005E+03  0.00000000000E+00 0. -1.
         22    1    3    3    0    0  0.44349979274E+02  0.45884078642E+02  0.10071619459E+03  0.11923095733E+03  0.00000000000E+00 0.  1.
         22    1    3    3    0    0 -0.35042418792E+01 -0.72371973793E+01 -0.32798093849E+02  0.33769389944E+02  0.00000000000E+00 0.  1.
</event>
<event>
 7    1  0.5194496E-006  0.3016095E+02  0.7818608E-02  0.1664258E+00
          2   -1    0    0  502    0  0.00000000000E+00  0.00000000000E+00  0.66856618123E+03  0.66856618123E+03  0.00000000000E+00 0. -1.
          1   -1    0    0  501    0 -0.00000000000E+00 -0.00000000000E+00 -0.16426750010E+03  0.16426750010E+03  0.00000000000E+00 0. -1.
         25    2    1    2    0    0  0.11680387772E+02 -0.32373093964E+02  0.33308381600E+02  0.13385891592E+03  0.12499724963E+03 0.  0.
          2    1    1    2  501    0 -0.24990373934E+02  0.16978663281E+02 -0.11180963329E+03  0.11581963518E+03  0.00000000000E+00 0. -1.
          1    1    1    2  502    0  0.13309986162E+02  0.15394430683E+02  0.58279993282E+03  0.58315513024E+03  0.00000000000E+00 0. -1.
         22    1    3    3    0    0  0.50035728954E+02  0.12978042263E+02 -0.18641241676E+02  0.54949974014E+02  0.00000000000E+00 0. -1.
         22    1    3    3    0    0 -0.38355341182E+02 -0.45351136227E+02  0.51949623276E+02  0.78908941906E+02  0.00000000000E+00 0. -1.
</event>
<event>
 7    1  0.5194496E-006  0.6962753E+02  0.7818608E-02  0.1398122E+00
          2   -1    0    0  502    0  0.00000000000E+00  0.00000000000E+00  0.28226490027E+04  0.28226490027E+04  0.00000000000E+00 0. -1.
          1   -1    0    0  501    0 -0.00000000000E+00 -0.00000000000E+00 -0.83878857727E+03  0.83878857727E+03  0.00000000000E+00 0. -1.
         25    2    1    2    0    0 -0.10703346728E+03  0.36667879935E+01  0.13778422075E+03  0.21466002194E+03  0.12499930031E+03 0.  0.
          2    1    1    2  501    0  0.62613123566E+02 -0.29892994623E+02 -0.79859497204E+03  0.80160334564E+03  0.00000000000E+00 0. -1.
          1    1    1    2  502    0  0.44420343715E+02  0.26226206629E+02  0.26446711767E+04  0.26451742124E+04  0.00000000000E+00 0. -1.
         22    1    3    3    0    0 -0.10628028101E+03 -0.26279995616E+02  0.14702596794E+03  0.18331058767E+03  0.00000000000E+00 0.  1.
         22    1    3    3    0    0 -0.75318627133E+00  0.29946783610E+02 -0.92417471920E+01  0.31349434274E+02  0.00000000000E+00 0.  1.
</event>
<event>
 7    1  0.5194496E-006  0.1544698E+03  0.7818608E-02  0.1240935E+00
          2   -1    0    0  502    0  0.00000000000E+00  0.00000000000E+00  0.85844456248E+03  0.85844456248E+03  0.00000000000E+00 0. -1.
          1   -1    0    0  501    0 -0.00000000000E+00 -0.00000000000E+00 -0.40446592653E+03  0.40446592653E+03  0.00000000000E+00 0. -1.
         25    2    1    2    0    0  0.18956194861E+03 -0.35279891589E+02  0.39875310986E+02  0.23323791666E+03  0.12502592622E+03 0.  0.
          2    1    1    2  501    0 -0.71833683440E+02 -0.62603046309E+02 -0.29200395386E+03  0.30715717240E+03  0.00000000000E+00 0. -1.
          1    1    1    2  502    0 -0.11772826517E+03  0.97882937898E+02  0.70610727883E+03  0.72251539996E+03  0.00000000000E+00 0. -1.
         22    1    3    3    0    0 -0.14012173945E+02 -0.63615887520E+01  0.21995411922E+02  0.26844160925E+02  0.00000000000E+00 0. -1.
         22    1    3    3    0    0  0.20357412256E+03 -0.28918302837E+02  0.17879899064E+02  0.20639375573E+03  0.00000000000E+00 0. -1.
</event>
<event>
 7    1  0.5194496E-006  0.6750412E+02  0.7818608E-02  0.1460119E+00
          2   -1    0    0  502    0  0.00000000000E+00  0.00000000000E+00  0.25136280540E+02  0.25136280540E+02  0.00000000000E+00 0. -1.
          1   -1    0    0  501    0 -0.00000000000E+00 -0.00000000000E+00 -0.12493578081E+04  0.12493578081E+04  0.00000000000E+00 0. -1.
         25    2    1    2    0    0  0.80449459453E+02 -0.40244048393E+02 -0.73756952768E+03  0.75347632201E+03  0.12500424277E+03 0.  0.
          2    1    1    2  501    0 -0.60913311269E+02  0.13365223640E+02 -0.48364998983E+03  0.48765394836E+03  0.00000000000E+00 0. -1.
          1    1    1    2  502    0 -0.19536148184E+02  0.26878824753E+02 -0.30020100674E+01  0.33363818283E+02  0.00000000000E+00 0. -1.
         22    1    3    3    0    0  0.78152753505E+02  0.26064376592E+02 -0.50307819062E+03  0.50977923701E+03  0.00000000000E+00 0. -1.
         22    1    3    3    0    0  0.22967059482E+01 -0.66308424985E+02 -0.23449133705E+03  0.24369708499E+03  0.00000000000E+00 0. -1.
</event>
<event>
 7    1  0.5194496E-006  0.1033050E+03  0.7818608E-02  0.1293883E+00
          2   -1    0    0  502    0  0.00000000000E+00  0.00000000000E+00  0.33611106298E+04  0.33611106298E+04  0.00000000000E+00 0. -1.
          1   -1    0    0  501    0 -0.00000000000E+00 -0.00000000000E+00 -0.16313552577E+04  0.16313552577E+04  0.00000000000E+00 0. -1.
         25    2    1    2    0    0 -0.16821218757E+03 -0.38029020757E+02  0.22553000833E+03  0.31021177041E+03  0.12500404546E+03 0.  0.
          2    1    1    2  501    0  0.67094711212E+02  0.52485739959E+02 -0.15870285296E+04  0.15893130614E+04  0.00000000000E+00 0. -1.
          1    1    1    2  502    0  0.10111747635E+03 -0.14456719202E+02  0.30912538934E+04  0.30929410557E+04  0.00000000000E+00 0. -1.
         22    1    3    3    0    0 -0.14843575688E+03 -0.75597520736E+02  0.20145688482E+03  0.26140588269E+03  0.00000000000E+00 0.  1.
         22    1    3    3    0    0 -0.19776430684E+02  0.37568499980E+02  0.24073123514E+02  0.48805887729E+02  0.00000000000E+00 0.  1.
</event>
<event>
 7    1  0.5194496E-006  0.8538446E+02  0.7818608E-02  0.1359538E+00
          2   -1    0    0  502    0  0.00000000000E+00  0.00000000000E+00  0.38411970175E+03  0.38411970175E+03  0.00000000000E+00 0. -1.
          1   -1    0    0  501    0 -0.00000000000E+00 -0.00000000000E+00 -0.13841910147E+04  0.13841910147E+04  0.00000000000E+00 0. -1.
         25    2    1    2    0    0  0.34654994453E+02  0.36015763078E+02 -0.57748989636E+02  0.14648850535E+03  0.12500333022E+03 0.  0.
          2    1    1    2  501    0 -0.70684070726E+01 -0.86643321700E+02 -0.12781391246E+04  0.12810919754E+04  0.00000000000E+00 0. -1.
          1    1    1    2  502    0 -0.27586587380E+02  0.50627558623E+02  0.33581680128E+03  0.34073023570E+03  0.00000000000E+00 0. -1.
         22    1    3    3    0    0 -0.34816210957E+02  0.29903929394E+02 -0.61395262103E+02  0.76653713200E+02  0.00000000000E+00 0.  1.
         22    1    3    3    0    0  0.69471205410E+02  0.61118336838E+01  0.36462724673E+01  0.69834792152E+02  0.00000000000E+00 0.  1.
</event>
<event>
 7    1  0.5194496E-006  0.1586522E+03  0.7818608E-02  0.1321642E+00
          2   -1    0    0  502    0  0.00000000000E+00  0.00000000000E+00  0.27186583650E+03  0.27186583650E+03  0.00000000000E+00 0. -1.
          1   -1    0    0  501    0 -0.00000000000E+00 -0.00000000000E+00 -0.26584197972E+04  0.26584197972E+04  0.00000000000E+00 0. -1.
         25    2    1    2    0    0 -0.13309476891E+03 -0.14788470356E+03 -0.36037641882E+03  0.43020936701E+03  0.12499933268E+03 0.  0.
          2    1    1    2  501    0  0.26352019126E+02  0.34076168805E+02 -0.22372097264E+04  0.22376244042E+04  0.00000000000E+00 0. -1.
          1    1    1    2  502    0  0.10674274978E+03  0.11380853475E+03  0.21103218455E+03  0.26245186250E+03  0.00000000000E+00 0. -1.
         22    1    3    3    0    0  0.21651146274E+02 -0.33913718354E+02 -0.88999050701E+02  0.97671610272E+02  0.00000000000E+00 0. -1.
         22    1    3    3    0    0 -0.15474591518E+03 -0.11397098520E+03 -0.27137736812E+03  0.33253775674E+03  0.00000000000E+00 0. -1.
</event>
<event>
 7    1  0.5194496E-006  0.1237755E+03  0.7818608E-02  0.1369966E+00
          2   -1    0    0  502    0  0.00000000000E+00  0.00000000000E+00  0.19424497325E+03  0.19424497325E+03  0.00000000000E+00 0. -1.
          1   -1    0    0  501    0 -0.00000000000E+00 -0.00000000000E+00 -0.92759058213E+03  0.92759058213E+03  0.00000000000E+00 0. -1.
         25    2    1    2    0    0  0.10721818961E+03 -0.20145465662E+02 -0.66916214481E+02  0.17889762227E+03  0.12499999810E+03 0.  0.
          2    1    1    2  501    0 -0.12485282206E+03 -0.11764651274E+02 -0.79729057067E+03  0.80709286224E+03  0.00000000000E+00 0. -1.
          1    1    1    2  502    0  0.17634632455E+02  0.31910116937E+02  0.13086117627E+03  0.13584507087E+03  0.00000000000E+00 0. -1.
         22    1    3    3    0    0  0.11546854361E+03 -0.34961160228E+02 -0.11787540943E+02  0.12121969068E+03  0.00000000000E+00 0. -1.
         22    1    3    3    0    0 -0.82503540010E+01  0.14815694566E+02 -0.55128673538E+02  0.57677931591E+02  0.00000000000E+00 0. -1.
</event>
<event>
 7    1  0.5194496E-006  0.1903637E+03  0.7818608E-02  0.1308894E+00
          2   -1    0    0  502    0  0.00000000000E+00  0.00000000000E+00  0.10727053822E+04  0.10727053822E+04  0.00000000000E+00 0. -1.
          1   -1    0    0  501    0 -0.00000000000E+00 -0.00000000000E+00 -0.14923986490E+03  0.14923986490E+03  0.00000000000E+00 0. -1.
         25    2    1    2    0    0  0.85768809323E+02  0.20248552050E+03  0.21469650036E+03  0.33177732295E+03  0.12499972037E+03 0.  0.
          2    1    1    2  501    0 -0.77807779150E+02 -0.16301458453E+03  0.37662135389E+00  0.18063207663E+03  0.00000000000E+00 0. -1.
          1    1    1    2  502    0 -0.79610301723E+01 -0.39470935979E+02  0.70839239563E+03  0.70953584757E+03  0.00000000000E+00 0. -1.
         22    1    3    3    0    0  0.11794131133E+03  0.17150991164E+03  0.18085726940E+03  0.27574472724E+03  0.00000000000E+00 0.  1.
         22    1    3    3    0    0 -0.32172502005E+02  0.30975608865E+02  0.33839230961E+02  0.56032595709E+02  0.00000000000E+00 0.  1.
</event>
<event>
 7    1  0.5194496E-006  0.7452294E+02  0.7818608E-02  0.1351647E+00
          2   -1    0    0  502    0  0.00000000000E+00  0.00000000000E+00  0.87942743214E+03  0.87942743214E+03  0.00000000000E+00 0. -1.
          1   -1    0    0  501    0 -0.00000000000E+00 -0.00000000000E+00 -0.52717984468E+02  0.52717984468E+02  0.00000000000E+00 0. -1.
         25    2    1    2    0    0 -0.46074777806E+02 -0.10237502073E+03  0.20285241698E+03  0.26339614647E+03  0.12499958753E+03 0.  0.
          2    1    1    2  501    0  0.63371476173E+02  0.31162309366E+02  0.41728708049E+02  0.82026328656E+02  0.00000000000E+00 0. -1.
          1    1    1    2  502    0 -0.17296698367E+02  0.71212711363E+02  0.58212832264E+03  0.58672294148E+03  0.00000000000E+00 0. -1.
         22    1    3    3    0    0 -0.31043146824E+02  0.24921163768E+02  0.46201967551E+02  0.60986581916E+02  0.00000000000E+00 0. -1.
         22    1    3    3    0    0 -0.15031630982E+02 -0.12729618450E+03  0.15665044943E+03  0.20240956456E+03  0.00000000000E+00 0. -1.
</event>
<event>
 7    1  0.5194496E-006  0.5540382E+02  0.7818608E-02  0.1439475E+00
          2   -1    0    0  502    0  0.00000000000E+00  0.00000000000E+00  0.77152216797E+02  0.77152216797E+02  0.00000000000E+00 0. -1.
          1   -1    0    0  501    0 -0.00000000000E+00 -0.00000000000E+00 -0.13152417624E+04  0.13152417624E+04  0.00000000000E+00 0. -1.
         25    2    1    2    0    0  0.32771815824E+02  0.66058079104E+02 -0.50700658045E+03  0.52736002421E+03  0.12496103705E+03 0.  0.
          2    1    1    2  501    0 -0.50386619237E+02 -0.22334681593E+02 -0.78868177127E+03  0.79060520219E+03  0.00000000000E+00 0. -1.
          1    1    1    2  502    0  0.17614803413E+02 -0.43723397512E+02  0.57598806073E+02  0.74428752846E+02  0.00000000000E+00 0. -1.
         22    1    3    3    0    0 -0.18337137508E+02  0.34826150321E+02 -0.38560043962E+02  0.55099803525E+02  0.00000000000E+00 0. -1.
         22    1    3    3    0    0  0.51108953332E+02  0.31231928783E+02 -0.46844653649E+03  0.47226022068E+03  0.00000000000E+00 0. -1.
</event>
<event>
 7    1  0.5194496E-006  0.1042680E+03  0.7818608E-02  0.1443501E+00
          2   -1    0    0  502    0  0.00000000000E+00  0.00000000000E+00  0.89506260751E+03  0.89506260751E+03  0.00000000000E+00 0. -1.
          1   -1    0    0  501    0 -0.00000000000E+00 -0.00000000000E+00 -0.31648719630E+03  0.31648719630E+03  0.00000000000E+00 0. -1.
         25    2    1    2    0    0 -0.41233478462E+02  0.11596242223E+03  0.49484912143E+02  0.18227624411E+03  0.12501355734E+03 0.  0.
          2    1    1    2  501    0 -0.53468311225E+01 -0.23711341790E+02 -0.24606341749E+03  0.24726103971E+03  0.00000000000E+00 0. -1.
          1    1    1    2  502    0  0.46580309585E+02 -0.92251080444E+02  0.77515391656E+03  0.78201252000E+03  0.00000000000E+00 0. -1.
         22    1    3    3    0    0 -0.62798546878E+02  0.12045139225E+03  0.89382491332E+01  0.13613261065E+03  0.00000000000E+00 0. -1.
         22    1    3    3    0    0  0.21565068416E+02 -0.44889700122E+01  0.40546663010E+02  0.46143633459E+02  0.00000000000E+00 0. -1.
</event>
<event>
 7    1  0.5194496E-006  0.1820549E+03  0.7818608E-02  0.1219571E+00
          2   -1    0    0  502    0  0.00000000000E+00  0.00000000000E+00  0.75388859841E+03  0.75388859841E+03  0.00000000000E+00 0. -1.
          1   -1    0    0  501    0 -0.00000000000E+00 -0.00000000000E+00 -0.42708342768E+03  0.42708342768E+03  0.00000000000E+00 0. -1.
         25    2    1    2    0    0  0.12310474211E+02 -0.15521292998E+03  0.12198945614E+03  0.23398686297E+03  0.12500329285E+03 0.  0.
          2    1    1    2  501    0  0.10070810861E+03 -0.40909352544E+01 -0.34714660585E+03  0.36148253740E+03  0.00000000000E+00 0. -1.
          1    1    1    2  502    0 -0.11301858282E+03  0.15930386524E+03  0.55196232044E+03  0.58550262572E+03  0.00000000000E+00 0. -1.
         22    1    3    3    0    0  0.22249327763E+02 -0.15083392563E+03  0.14382557280E+03  0.20959890529E+03  0.00000000000E+00 0. -1.
         22    1    3    3    0    0 -0.99388535516E+01 -0.43790043532E+01 -0.21836116659E+02  0.24387957680E+02  0.00000000000E+00 0. -1.
</event>
<event>
 7    1  0.5194496E-006  0.3990767E+02  0.7818608E-02  0.1561090E+00
          2   -1    0    0  502    0  0.00000000000E+00  0.00000000000E+00  0.45941464217E+03  0.45941464217E+03  0.00000000000E+00 0. -1.
          1   -1    0    0  501    0 -0.00000000000E+00 -0.00000000000E+00 -0.28053977281E+03  0.28053977281E+03  0.00000000000E+00 0. -1.
         25    2    1    2    0    0  0.34879449898E+02  0.11782366441E+02 -0.16403325738E+03  0.20949577781E+03  0.12500468474E+03 0.  0.
          2    1    1    2  501    0 -0.38951922993E+02  0.16267646345E+02 -0.88536136290E+02  0.98084331326E+02  0.00000000000E+00 0. -1.
          1    1    1    2  502    0  0.40724730948E+01 -0.28050012786E+02  0.43144426304E+03  0.43237430585E+03  0.00000000000E+00 0. -1.
         22    1    3    3    0    0  0.37140726127E+02  0.41816881556E+02 -0.15637509357E+02  0.58074235416E+02  0.00000000000E+00 0.  1.
         22    1    3    3    0    0 -0.22612762290E+01 -0.30034515115E+02 -0.14839574803E+03  0.15142154239E+03  0.00000000000E+00 0.  1.
</event>
<event>
 7    1  0.5194496E-006  0.7809631E+02  0.7818608E-02  0.1386335E+00
          2   -1    0    0  502    0  0.00000000000E+00  0.00000000000E+00  0.13357800309E+04  0.13357800309E+04  0.00000000000E+00 0. -1.
          1   -1    0    0  501    0 -0.00000000000E+00 -0.00000000000E+00 -0.68166354712E+02  0.68166354712E+02  0.00000000000E+00 0. -1.
         25    2    1    2    0    0 -0.10266797318E+03  0.62586408386E+01  0.35776189032E+03  0.39267985740E+03  0.12499606772E+03 0.  0.
          2    1    1    2  501    0  0.37273127617E+02  0.34137810061E+02 -0.36153874977E+02  0.62143211970E+02  0.00000000000E+00 0. -1.
          1    1    1    2  502    0  0.65394845563E+02 -0.40396450899E+02  0.94600566082E+03  0.94912331621E+03  0.00000000000E+00 0. -1.
         22    1    3    3    0    0 -0.12790810824E+03 -0.15120068368E+02  0.28484790085E+03  0.31261386284E+03  0.00000000000E+00 0. -1.
         22    1    3    3    0    0  0.25240135061E+02  0.21378709207E+02  0.72913989474E+02  0.80065994568E+02  0.00000000000E+00 0. -1.
</event>
<event>
 7    1  0.5194496E-006  0.5317649E+02  0.7818608E-02  0.1439121E+00
          2   -1    0    0  502    0  0.00000000000E+00  0.00000000000E+00  0.74844856952E+03  0.74844856952E+03  0.00000000000E+00 0. -1.
          1   -1    0    0  501    0 -0.00000000000E+00 -0.00000000000E+00 -0.38009872140E+03  0.38009872140E+03  0.00000000000E+00 0. -1.
         25    2    1    2    0    0 -0.64267488253E+01 -0.57963512046E+02 -0.54144075711E+01  0.13804212120E+03  0.12500095834E+03 0.  0.
          2    1    1    2  501    0  0.44690754107E+02  0.20678456387E+02 -0.30534874995E+03  0.30929390741E+03  0.00000000000E+00 0. -1.
          1    1    1    2  502    0 -0.38264005282E+02  0.37285055659E+02  0.67911300565E+03  0.68121126232E+03  0.00000000000E+00 0. -1.
         22    1    3    3    0    0 -0.40499391708E+02  0.24995271227E+02 -0.83116150336E+01  0.48311978400E+02  0.00000000000E+00 0. -1.
         22    1    3    3    0    0  0.34072642883E+02 -0.82958783272E+02  0.28972074625E+01  0.89730142796E+02  0.00000000000E+00 0. -1.
</event>
<event>
 7    1  0.5194496E-006  0.1200274E+03  0.7818608E-02  0.1263335E+00
          2   -1    0    0  502    0  0.00000000000E+00  0.00000000000E+00  0.67487816083E+03  0.67487816083E+03  0.00000000000E+00 0. -1.
          1   -1    0    0  501    0 -0.00000000000E+00 -0.00000000000E+00 -0.84644304442E+03  0.84644304442E+03  0.00000000000E+00 0. -1.
         25    2    1    2    0    0 -0.39661415168E+02  0.56023060199E+02  0.31926122878E+02  0.14613075836E+03  0.12499324017E+03 0.  0.
          2    1    1    2  501    0 -0.88764762281E+02 -0.41804836448E+02 -0.77910172820E+03  0.78525558276E+03  0.00000000000E+00 0. -1.
          1    1    1    2  502    0  0.12842617745E+03 -0.14218223751E+02  0.57561072173E+03  0.58993486413E+03  0.00000000000E+00 0. -1.
         22    1    3    3    0    0 -0.40728053864E+02 -0.23921329103E+02 -0.19465049222E+02  0.51087106973E+02  0.00000000000E+00 0. -1.
         22    1    3    3    0    0  0.10666386957E+01  0.79944389302E+02  0.51391172100E+02  0.95043651387E+02  0.00000000000E+00 0. -1.
</event>
<event>
 7    1  0.5194496E-006  0.4143068E+02  0.7818608E-02  0.1532055E+00
          2   -1    0    0  502    0  0.00000000000E+00  0.00000000000E+00  0.53797840026E+02  0.53797840026E+02  0.00000000000E+00 0. -1.
          1   -1    0    0  501    0 -0.00000000000E+00 -0.00000000000E+00 -0.29215583493E+03  0.29215583493E+03  0.00000000000E+00 0. -1.
         25    2    1    2    0    0 -0.13330142770E+02  0.26705946705E+02 -0.46759762490E+02  0.13676267564E+03  0.12500661488E+03 0.  0.
          2    1    1    2  501    0  0.41702157250E+02 -0.99940810112E+01 -0.15071079760E+03  0.15669299949E+03  0.00000000000E+00 0. -1.
          1    1    1    2  502    0 -0.28372014480E+02 -0.16711865694E+02 -0.40887434817E+02  0.52497999834E+02  0.00000000000E+00 0. -1.
         22    1    3    3    0    0 -0.58794595416E+02  0.49047054379E+02 -0.37537374041E+02  0.85272929135E+02  0.00000000000E+00 0.  1.
         22    1    3    3    0    0  0.45464452646E+02 -0.22341107674E+02 -0.92223884494E+01  0.51489746506E+02  0.00000000000E+00 0.  1.
</event>
<event>
 7    1  0.5194496E-006  0.1176899E+03  0.7818608E-02  0.1259164E+00
          2   -1    0    0  502    0  0.00000000000E+00  0.00000000000E+00  0.15735634118E+04  0.15735634118E+04  0.00000000000E+00 0. -1.
          1   -1    0    0  501    0 -0.00000000000E+00 -0.00000000000E+00 -0.23571739340E+04  0.23571739340E+04  0.00000000000E+00 0. -1.
         25    2    1    2    0    0 -0.15886891246E+03  0.14265895902E+03  0.44315228733E+02  0.25135389155E+03  0.12499611739E+03 0.  0.
          2    1    1    2  501    0  0.10329287043E+03 -0.54466642299E+02 -0.22502331948E+04  0.22532610731E+04  0.00000000000E+00 0. -1.
          1    1    1    2  502    0  0.55576042034E+02 -0.88192316722E+02  0.14223074439E+04  0.14261223812E+04  0.00000000000E+00 0. -1.
         22    1    3    3    0    0 -0.82877631683E+02  0.27698855708E+02  0.69016297796E+02  0.11135159542E+03  0.00000000000E+00 0.  1.
         22    1    3    3    0    0 -0.75991280776E+02  0.11496010331E+03 -0.24701069063E+02  0.14000229613E+03  0.00000000000E+00 0.  1.
</event>
<event>
 7    1  0.5194496E-006  0.9469597E+02  0.7818608E-02  0.1368655E+00
          2   -1    0    0  502    0  0.00000000000E+00  0.00000000000E+00  0.13263871901E+03  0.13263871901E+03  0.00000000000E+00 0. -1.
          1   -1    0    0  501    0 -0.00000000000E+00 -0.00000000000E+00 -0.10896077618E+04  0.10896077618E+04  0.00000000000E+00 0. -1.
         25    2    1    2    0    0  0.81532246565E+02  0.91393524750E+02 -0.28426466211E+03  0.33381394723E+03  0.12500027858E+03 0.  0.
          2    1    1    2  501    0 -0.81617988900E+02 -0.43218517434E+02 -0.77229735692E+03  0.77779980964E+03  0.00000000000E+00 0. -1.
          1    1    1    2  502    0  0.85742335716E-01 -0.48175007316E+02  0.99592976267E+02  0.11063272393E+03  0.00000000000E+00 0. -1.
         22    1    3    3    0    0  0.98274106218E+02  0.26622917171E+02 -0.21291123914E+03  0.23600376146E+03  0.00000000000E+00 0. -1.
         22    1    3    3    0    0 -0.16741859653E+02  0.64770607579E+02 -0.71353422973E+02  0.97810185772E+02  0.00000000000E+00 0. -1.
</event>
<event>
 7    1  0.5194496E-006  0.3539009E+03  0.7818608E-02  0.1149277E+00
          2   -1    0    0  502    0  0.00000000000E+00  0.00000000000E+00  0.17237283313E+04  0.17237283313E+04  0.00000000000E+00 0. -1.
          1   -1    0    0  501    0 -0.00000000000E+00 -0.00000000000E+00 -0.29687896426E+03  0.29687896426E+03  0.00000000000E+00 0. -1.
         25    2    1    2    0    0  0.39191437176E+03  0.15394116067E+03  0.93576045970E+03  0.10337149722E+04  0.12499699988E+03 0.  0.
          2    1    1    2  501    0 -0.99026080365E+02 -0.55762178241E+02 -0.19992890200E+03  0.22997206562E+03  0.00000000000E+00 0. -1.
          1    1    1    2  502    0 -0.29288829139E+03 -0.98178982426E+02  0.69101780937E+03  0.75692025782E+03  0.00000000000E+00 0. -1.
         22    1    3    3    0    0  0.14732097020E+03  0.50798287130E+02  0.49746664993E+03  0.52130317670E+03  0.00000000000E+00 0. -1.
         22    1    3    3    0    0  0.24459340155E+03  0.10314287354E+03  0.43829380976E+03  0.51241179546E+03  0.00000000000E+00 0. -1.
</event>
<event>
 7    1  0.5194496E-006  0.1573251E+03  0.7818608E-02  0.1219230E+00
          2   -1    0    0  502    0  0.00000000000E+00  0.00000000000E+00  0.30013798087E+03  0.30013798087E+03  0.00000000000E+00 0. -1.
          1   -1    0    0  501    0 -0.00000000000E+00 -0.00000000000E+00 -0.50691730402E+03  0.50691730402E+03  0.00000000000E+00 0. -1.
         25    2    1    2    0    0  0.53410997548E+02 -0.71169185198E+02 -0.76689816701E+02  0.17153531951E+03  0.12500100109E+03 0.  0.
          2    1    1    2  501    0 -0.61616795730E+02  0.18793458240E+03 -0.34105780384E+03  0.39425431176E+03  0.00000000000E+00 0. -1.
          1    1    1    2  502    0  0.82057981819E+01 -0.11676539720E+03  0.21096829740E+03  0.24126565362E+03  0.00000000000E+00 0. -1.
         22    1    3    3    0    0  0.11582982118E+02  0.10200483242E+02  0.28324346525E+02  0.32256533279E+02  0.00000000000E+00 0.  1.
         22    1    3    3    0    0  0.41828015430E+02 -0.81369668440E+02 -0.10501416323E+03  0.13927878623E+03  0.00000000000E+00 0.  1.
</event>
<event>
 7    1  0.5194496E-006  0.1052634E+03  0.7818608E-02  0.1326680E+00
          2   -1    0    0  502    0  0.00000000000E+00  0.00000000000E+00  0.49947761417E+03  0.49947761417E+03  0.00000000000E+00 0. -1.
          1   -1    0    0  501    0 -0.00000000000E+00 -0.00000000000E+00 -0.53665425333E+03  0.53665425333E+03  0.00000000000E+00 0. -1.
         25    2    1    2    0    0  0.70850680046E+01 -0.64542110937E+02  0.14110726773E+01  0.14085958156E+03  0.12499419314E+03 0.  0.
          2    1    1    2  501    0  0.56702150712E+02 -0.25289000906E+02 -0.45771483115E+03  0.46190641272E+03  0.00000000000E+00 0. -1.
          1    1    1    2  502    0 -0.63787218717E+02  0.89831111843E+02  0.41912711931E+03  0.43336587322E+03  0.00000000000E+00 0. -1.
         22    1    3    3    0    0  0.58722082993E+02 -0.46206360537E+02 -0.26605477847E+02  0.79316847117E+02  0.00000000000E+00 0.  1.
         22    1    3    3    0    0 -0.51637014989E+02 -0.18335750400E+02  0.28016550525E+02  0.61542734445E+02  0.00000000000E+00 0.  1.
</event>
<event>
 7    1  0.5194496E-006  0.6628594E+02  0.7818608E-02  0.1442758E+00
          2   -1    0    0  502    0  0.00000000000E+00  0.00000000000E+00  0.12610952518E+04  0.12610952518E+04  0.00000000000E+00 0. -1.
          1   -1    0    0  501    0 -0.00000000000E+00 -0.00000000000E+00 -0.13059195301E+02  0.13059195301E+02  0.00000000000E+00 0. -1.
         25    2    1    2    0    0 -0.21622260197E+01 -0.57291402138E+02  0.73846741679E+03  0.75116995110E+03  0.12504075254E+03 0.  0.
          2    1    1    2  501    0 -0.38121251911E+02 -0.49890682395E+01  0.10838802488E+03  0.11500471550E+03  0.00000000000E+00 0. -1.
          1    1    1    2  502    0  0.40283477931E+02  0.62280470377E+02  0.40118061478E+03  0.40797978045E+03  0.00000000000E+00 0. -1.
         22    1    3    3    0    0 -0.31653260765E+02  0.27013657430E+02  0.13931541036E+03  0.14539755902E+03  0.00000000000E+00 0.  1.
         22    1    3    3    0    0  0.29491034746E+02 -0.84305059568E+02  0.59915200643E+03  0.60577239208E+03  0.00000000000E+00 0.  1.
</event>
<event>
 7    1  0.5194496E-006  0.3444389E+02  0.7818608E-02  0.1596273E+00
          2   -1    0    0  502    0  0.00000000000E+00  0.00000000000E+00  0.12911601628E+02  0.12911601628E+02  0.00000000000E+00 0. -1.
          1   -1    0    0  501    0 -0.00000000000E+00 -0.00000000000E+00 -0.11481848189E+04  0.11481848189E+04  0.00000000000E+00 0. -1.
         25    2    1    2    0    0  0.20441043023E+02 -0.55566944128E+02 -0.78251460116E+03  0.79464468111E+03  0.12500218662E+03 0.  0.
          2    1    1    2  501    0 -0.62791828396E+01  0.25660351608E+02 -0.31556540036E+03  0.31666923388E+03  0.00000000000E+00 0. -1.
          1    1    1    2  502    0 -0.14161860184E+02  0.29906592520E+02 -0.37193215745E+02  0.49782505537E+02  0.00000000000E+00 0. -1.
         22    1    3    3    0    0 -0.45341988796E+02 -0.34063669250E+02 -0.19535213541E+03  0.20341751724E+03  0.00000000000E+00 0. -1.
         22    1    3    3    0    0  0.65783031820E+02 -0.21503274878E+02 -0.58716246576E+03  0.59122716387E+03  0.00000000000E+00 0. -1.
</event>
<event>
 7    1  0.5194496E-006  0.1459360E+03  0.7818608E-02  0.1396476E+00
          2   -1    0    0  502    0  0.00000000000E+00  0.00000000000E+00  0.32074058450E+03  0.32074058450E+03  0.00000000000E+00 0. -1.
          1   -1    0    0  501    0 -0.00000000000E+00 -0.00000000000E+00 -0.10168840367E+04  0.10168840367E+04  0.00000000000E+00 0. -1.
         25    2    1    2    0    0 -0.14924768091E+03 -0.45301421390E+02 -0.91114186125E+02  0.21965793005E+03  0.12498288796E+03 0.  0.
          2    1    1    2  501    0  0.18426655209E+02 -0.16800323624E+02 -0.84085657009E+03  0.84122622639E+03  0.00000000000E+00 0. -1.
          1    1    1    2  502    0  0.13082102571E+03  0.62101745014E+02  0.23582730403E+03  0.27674046475E+03  0.00000000000E+00 0. -1.
         22    1    3    3    0    0 -0.42945789233E+02  0.21670172809E+02 -0.80232842827E+02  0.93548096028E+02  0.00000000000E+00 0. -1.
         22    1    3    3    0    0 -0.10630189168E+03 -0.66971594199E+02 -0.10881343298E+02  0.12610983402E+03  0.00000000000E+00 0. -1.
</event>
<event>
 7    1  0.5194496E-006  0.7351100E+02  0.7818608E-02  0.1446284E+00
          2   -1    0    0  502    0  0.00000000000E+00  0.00000000000E+00  0.53251616079E+03  0.53251616079E+03  0.00000000000E+00 0. -1.
          1   -1    0    0  501    0 -0.00000000000E+00 -0.00000000000E+00 -0.13402041988E+04  0.13402041988E+04  0.00000000000E+00 0. -1.
         25    2    1    2    0    0  0.30481693478E+02 -0.89934991391E+02 -0.24867419861E+03  0.29407930730E+03  0.12500538233E+03 0.  0.
          2    1    1    2  501    0  0.13260442582E+02  0.31059426067E+02 -0.10659205549E+04  0.10664554171E+04  0.00000000000E+00 0. -1.
          1    1    1    2  502    0 -0.43742136060E+02  0.58875565323E+02  0.50690671551E+03  0.51218563519E+03  0.00000000000E+00 0. -1.
         22    1    3    3    0    0  0.94871443942E+01  0.22928293095E+02 -0.58619290690E+01  0.25496563404E+02  0.00000000000E+00 0.  1.
         22    1    3    3    0    0  0.20994549084E+02 -0.11286328449E+03 -0.24281226954E+03  0.26858274389E+03  0.00000000000E+00 0.  1.
</event>
<event>
 7    1  0.5194496E-006  0.8228353E+02  0.7818608E-02  0.1500335E+00
          2   -1    0    0  502    0  0.00000000000E+00  0.00000000000E+00  0.25567945331E+03  0.25567945331E+03  0.00000000000E+00 0. -1.
          1   -1    0    0  501    0 -0.00000000000E+00 -0.00000000000E+00 -0.27765159862E+03  0.27765159862E+03  0.00000000000E+00 0. -1.
         25    2    1    2    0    0 -0.77629978761E+02 -0.50836675080E+02 -0.68397338391E+02  0.17004321077E+03  0.12500286594E+03 0.  0.
          2    1    1    2  501    0  0.57764657290E+02  0.55977809596E+02 -0.14764554807E+03  0.16813529869E+03  0.00000000000E+00 0. -1.
          1    1    1    2  502    0  0.19865321471E+02 -0.51411345158E+01  0.19407074115E+03  0.19515254247E+03  0.00000000000E+00 0. -1.
         22    1    3    3    0    0 -0.11715632678E+02 -0.79163423562E+02 -0.54885026963E+02  0.97038496814E+02  0.00000000000E+00 0. -1.
         22    1    3    3    0    0 -0.65914346083E+02  0.28326748482E+02 -0.13512311428E+02  0.73004713952E+02  0.00000000000E+00 0. -1.
</event>
<event>
 7    1  0.5194496E-006  0.8731173E+02  0.7818608E-02  0.1351725E+00
          2   -1    0    0  502    0  0.00000000000E+00  0.00000000000E+00  0.45223805731E+03  0.45223805731E+03  0.00000000000E+00 0. -1.
          1   -1    0    0  501    0 -0.00000000000E+00 -0.00000000000E+00 -0.78183569482E+03  0.78183569482E+03  0.00000000000E+00 0. -1.
         25    2    1    2    0    0 -0.86430123242E+02  0.95679518360E+02 -0.20060905702E+03  0.26924509716E+03  0.12499676854E+03 0.  0.
          2    1    1    2  501    0  0.75064543456E+01 -0.59765807921E+02 -0.54072047534E+03  0.54406519013E+03  0.00000000000E+00 0. -1.
          1    1    1    2  502    0  0.78923668896E+02 -0.35913710440E+02  0.41173189485E+03  0.42076346484E+03  0.00000000000E+00 0. -1.
         22    1    3    3    0    0  0.23883743501E+02  0.33577282818E+02 -0.13550164200E+02  0.43375961948E+02  0.00000000000E+00 0. -1.
         22    1    3    3    0    0 -0.11031386674E+03  0.62102235542E+02 -0.18705889282E+03  0.22586913521E+03  0.00000000000E+00 0. -1.
</event>
<event>
 7    1  0.5194496E-006  0.3970833E+02  0.7818608E-02  0.1573765E+00
          2   -1    0    0  502    0  0.00000000000E+00  0.00000000000E+00  0.29422182000E+02  0.29422182000E+02  0.00000000000E+00 0. -1.
          1   -1    0    0  501    0 -0.00000000000E+00 -0.00000000000E+00 -0.21611072730E+04  0.21611072730E+04  0.00000000000E+00 0. -1.
         25    2    1    2    0    0 -0.50130181540E+02  0.16835237988E+01 -0.10971239182E+04  0.11053599383E+04  0.12499532772E+03 0.  0.
          2    1    1    2  501    0  0.32921338939E+02 -0.21582298449E+02 -0.10525586646E+04  0.10532945232E+04  0.00000000000E+00 0. -1.
          1    1    1    2  502    0  0.17208842601E+02  0.19898774650E+02  0.17997491839E+02  0.31874993471E+02  0.00000000000E+00 0. -1.
         22    1    3    3    0    0 -0.34413246510E+01 -0.57756334492E+02 -0.40283266351E+03  0.40696657317E+03  0.00000000000E+00 0. -1.
         22    1    3    3    0    0 -0.46688856889E+02  0.59439858291E+02 -0.69429125471E+03  0.69839336514E+03  0.00000000000E+00 0. -1.
</event>
<event>
 7    1  0.5194496E-006  0.9216320E+02  0.7818608E-02  0.1408249E+00
          2   -1    0    0  502    0  0.00000000000E+00  0.00000000000E+00  0.12718526921E+03  0.12718526921E+03  0.00000000000E+00 0. -1.
          1   -1    0    0  501    0 -0.00000000000E+00 -0.00000000000E+00 -0.36784439534E+03  0.36784439534E+03  0.00000000000E+00 0. -1.
         25    2    1    2    0    0  0.45941623755E+02 -0.52362929841E+02 -0.22703614807E+03  0.26837222902E+03  0.12500292623E+03 0.  0.
          2    1    1    2  501    0 -0.94464571160E+01 -0.34719550111E+02 -0.95265728559E+02  0.10183438393E+03  0.00000000000E+00 0. -1.
          1    1    1    2  502    0 -0.36495166639E+02  0.87082479951E+02  0.81642750493E+02  0.12482305160E+03  0.00000000000E+00 0. -1.
         22    1    3    3    0    0  0.77569489041E+02 -0.63415395483E+02 -0.12060951171E+03  0.15679665918E+03  0.00000000000E+00 0. -1.
         22    1    3    3    0    0 -0.31627865287E+02  0.11052465642E+02 -0.10642663636E+03  0.11157556984E+03  0.00000000000E+00 0. -1.
</event>
<event>
 7    1  0.5194496E-006  0.6470349E+02  0.7818608E-02  0.1431626E+00
          2   -1    0    0  502    0  0.00000000000E+00  0.00000000000E+00  0.21493310032E+04  0.21493310032E+04  0.00000000000E+00 0. -1.
          1   -1    0    0  501    0 -0.00000000000E+00 -0.00000000000E+00 -0.10501455002E+02  0.10501455002E+02  0.00000000000E+00 0. -1.
         25    2    1    2    0    0  0.41701653206E+02  0.46657081161E+02  0.13420477798E+04  0.13493082161E+04  0.12499803160E+03 0.  0.
          2    1    1    2  501    0  0.27014933808E+02 -0.33219583314E+02  0.83728636008E+02  0.94041649560E+02  0.00000000000E+00 0. -1.
          1    1    1    2  502    0 -0.68716587015E+02 -0.13437497848E+02  0.71305313239E+03  0.71648259245E+03  0.00000000000E+00 0. -1.
         22    1    3    3    0    0  0.26656668839E+02  0.31961869515E+02  0.13118424251E+04  0.13125024523E+04  0.00000000000E+00 0.  1.
         22    1    3    3    0    0  0.15044984368E+02  0.14695211646E+02  0.30205354684E+02  0.36805763836E+02  0.00000000000E+00 0.  1.
</event>
<event>
 7    1  0.5194496E-006  0.1151211E+03  0.7818608E-02  0.1310775E+00
          2   -1    0    0  502    0  0.00000000000E+00  0.00000000000E+00  0.17061643276E+04  0.17061643276E+04  0.00000000000E+00 0. -1.
          1   -1    0    0  501    0 -0.00000000000E+00 -0.00000000000E+00 -0.39828814768E+03  0.39828814768E+03  0.00000000000E+00 0. -1.
         25    2    1    2    0    0  0.24934001690E+02 -0.94771134955E+02  0.10620393892E+04  0.10738484133E+04  0.12497790964E+03 0.  0.
          2    1    1    2  501    0 -0.44355307035E+02 -0.48136472135E+02 -0.38141238059E+03  0.38698826504E+03  0.00000000000E+00 0. -1.
          1    1    1    2  502    0  0.19421305346E+02  0.14290760709E+03  0.62724917131E+03  0.64361579702E+03  0.00000000000E+00 0. -1.
         22    1    3    3    0    0  0.72956877972E+02 -0.38969701499E+02  0.46651358979E+03  0.47378927081E+03  0.00000000000E+00 0. -1.
         22    1    3    3    0    0 -0.48022876282E+02 -0.55801433456E+02  0.59552579945E+03  0.60005914245E+03  0.00000000000E+00 0. -1.
</event>
<event>
 7    1  0.5194496E-006  0.6653162E+02  0.7818608E-02  0.1441052E+00
          2   -1    0    0  502    0  0.00000000000E+00  0.00000000000E+00  0.48437863063E+03  0.48437863063E+03  0.00000000000E+00 0. -1.
          1   -1    0    0  501    0 -0.00000000000E+00 -0.00000000000E+00 -0.94871480383E+03  0.94871480383E+03  0.00000000000E+00 0. -1.
         25    2    1    2    0    0 -0.90444766622E+02 -0.19949384139E+02 -0.13159799965E+02  0.15613295145E+03  0.12500433775E+03 0.  0.
          2    1    1    2  501    0  0.25235856578E+02  0.29464435608E+02 -0.86099940924E+03  0.86187295128E+03  0.00000000000E+00 0. -1.
          1    1    1    2  502    0  0.65208910045E+02 -0.95150514694E+01  0.40982303601E+03  0.41508753173E+03  0.00000000000E+00 0. -1.
         22    1    3    3    0    0 -0.44802477199E+01 -0.21650594303E+01  0.48565292407E+02  0.48819542486E+02  0.00000000000E+00 0. -1.
         22    1    3    3    0    0 -0.85964518903E+02 -0.17784324708E+02 -0.61725092372E+02  0.10731340897E+03  0.00000000000E+00 0. -1.
</event>
<event>
 7    1  0.5194496E-006  0.1786486E+03  0.7818608E-02  0.1302019E+00
          2   -1    0    0  502    0  0.00000000000E+00  0.00000000000E+00  0.18869616699E+04  0.18869616699E+04  0.00000000000E+00 0. -1.
          1   -1    0    0  501    0 -0.00000000000E+00 -0.00000000000E+00 -0.98220435049E+03  0.98220435049E+03  0.00000000000E+00 0. -1.
         25    2    1    2    0    0 -0.18548427258E+03  0.18534158173E+02  0.24651609378E+03  0.33338107101E+03  0.12499929449E+03 0.  0.
          2    1    1    2  501    0  0.17663700102E+03  0.26289384696E+02 -0.92994742319E+03  0.94693926510E+03  0.00000000000E+00 0. -1.
          1    1    1    2  502    0  0.88472715589E+01 -0.44823542870E+02  0.15881886489E+04  0.15888456843E+04  0.00000000000E+00 0. -1.
         22    1    3    3    0    0 -0.18757314288E+03  0.29005361980E+02  0.25628070564E+03  0.31891189228E+03  0.00000000000E+00 0.  1.
         22    1    3    3    0    0  0.20888702995E+01 -0.10471203807E+02 -0.97646118636E+01  0.14469178731E+02  0.00000000000E+00 0.  1.
</event>
<event>
 7    1  0.5194496E-006  0.1010804E+03  0.7818608E-02  0.1378750E+00
          2   -1    0    0  502    0  0.00000000000E+00  0.00000000000E+00  0.14239685013E+04  0.14239685013E+04  0.00000000000E+00 0. -1.
          1   -1    0    0  501    0 -0.00000000000E+00 -0.00000000000E+00 -0.30345952259E+02  0.30345952259E+02  0.00000000000E+00 0. -1.
         25    2    1    2    0    0 -0.55142583337E+02 -0.45249716030E+02  0.45134337728E+03  0.47373367378E+03  0.12499803263E+03 0.  0.
          2    1    1    2  501    0  0.92851126887E+02  0.62658878888E+02  0.14997959417E+03  0.18719333732E+03  0.00000000000E+00 0. -1.
          1    1    1    2  502    0 -0.37708543549E+02 -0.17409162858E+02  0.79229957759E+03  0.79338744246E+03  0.00000000000E+00 0. -1.
         22    1    3    3    0    0 -0.93364773279E+02 -0.19267814298E+02  0.26117729361E+03  0.27803202739E+03  0.00000000000E+00 0. -1.
         22    1    3    3    0    0  0.38222189941E+02 -0.25981901732E+02  0.19016608367E+03  0.19570164639E+03  0.00000000000E+00 0. -1.
</event>
<event>
 7    1  0.5194496E-006  0.1054467E+03  0.7818608E-02  0.1360855E+00
          2   -1    0    0  502    0  0.00000000000E+00  0.00000000000E+00  0.29911129735E+03  0.29911129735E+03  0.00000000000E+00 0. -1.
          1   -1    0    0  501    0 -0.00000000000E+00 -0.00000000000E+00 -0.85598071033E+03  0.85598071033E+03  0.00000000000E+00 0. -1.
         25    2    1    2    0    0  0.63564847573E+02 -0.10402435832E+03  0.64716884076E+02  0.18621144214E+03  0.12499947652E+03 0.  0.
          2    1    1    2  501    0  0.18775301094E+02  0.42183001496E+02 -0.77922276435E+03  0.78058954260E+03  0.00000000000E+00 0. -1.
          1    1    1    2  502    0 -0.82340148667E+02  0.61841356822E+02  0.15763646729E+03  0.18829102293E+03  0.00000000000E+00 0. -1.
         22    1    3    3    0    0  0.29743417403E+02 -0.16541937273E+02  0.83844094285E+02  0.90488334685E+02  0.00000000000E+00 0.  1.
         22    1    3    3    0    0  0.33821430170E+02 -0.87482421044E+02 -0.19127210209E+02  0.95723107455E+02  0.00000000000E+00 0.  1.
</event>
<event>
 7    1  0.5194496E-006  0.4062316E+02  0.7818608E-02  0.1559122E+00
          2   -1    0    0  502    0  0.00000000000E+00  0.00000000000E+00  0.12915793663E+04  0.12915793663E+04  0.00000000000E+00 0. -1.
          1   -1    0    0  501    0 -0.00000000000E+00 -0.00000000000E+00 -0.28042082375E+03  0.28042082375E+03  0.00000000000E+00 0. -1.
         25    2    1    2    0    0 -0.26630142014E+02 -0.55690871376E+02 -0.11430520058E+03  0.18028435755E+03  0.12500453224E+03 0.  0.
          2    1    1    2  501    0  0.40128299997E+01  0.38856856107E+02 -0.13009874641E+03  0.13583682081E+03  0.00000000000E+00 0. -1.
          1    1    1    2  502    0  0.22617312015E+02  0.16834015269E+02  0.12555624896E+04  0.12558790117E+04  0.00000000000E+00 0. -1.
         22    1    3    3    0    0  0.45556532443E+02 -0.22964958855E+02 -0.14898824688E+02  0.53148489730E+02  0.00000000000E+00 0. -1.
         22    1    3    3    0    0 -0.72186674458E+02 -0.32725912521E+02 -0.99406375889E+02  0.12713586782E+03  0.00000000000E+00 0. -1.
</event>
<event>
 7    1  0.5194496E-006  0.1528689E+03  0.7818608E-02  0.1344498E+00
          2   -1    0    0  502    0  0.00000000000E+00  0.00000000000E+00  0.40565402133E+03  0.40565402133E+03  0.00000000000E+00 0. -1.
          1   -1    0    0  501    0 -0.00000000000E+00 -0.00000000000E+00 -0.19471541017E+03  0.19471541017E+03  0.00000000000E+00 0. -1.
         25    2    1    2    0    0 -0.14092414686E+03  0.11424875539E+03 -0.60237448034E+02  0.22838686469E+03  0.12497846431E+03 0.  0.
          2    1    1    2  501    0  0.35675696458E+02 -0.81655868905E+01 -0.22154145979E+02  0.42781284589E+02  0.00000000000E+00 0. -1.
          1    1    1    2  502    0  0.10524845040E+03 -0.10608316850E+03  0.29333020518E+03  0.32920128222E+03  0.00000000000E+00 0. -1.
         22    1    3    3    0    0 -0.52098394729E+02  0.40322084714E+02  0.38570697461E+02  0.76340107098E+02  0.00000000000E+00 0.  1.
         22    1    3    3    0    0 -0.88825752128E+02  0.73926670674E+02 -0.98808145496E+02  0.15204675759E+03  0.00000000000E+00 0.  1.
</event>
<event>
 7    1  0.5194496E-006  0.1581166E+03  0.7818608E-02  0.1402694E+00
          2   -1    0    0  502    0  0.00000000000E+00  0.00000000000E+00  0.92881469484E+03  0.92881469484E+03  0.00000000000E+00 0. -1.
          1   -1    0    0  501    0 -0.00000000000E+00 -0.00000000000E+00 -0.14782436018E+04  0.14782436018E+04  0.00000000000E+00 0. -1.
         25    2    1    2    0    0  0.15062944749E+02 -0.13783392341E+03  0.68721893940E+02  0.19892757220E+03  0.12499759009E+03 0.  0.
          2    1    1    2  501    0  0.13088051940E+01 -0.21869242951E+02 -0.14049496270E+04  0.14051204330E+04  0.00000000000E+00 0. -1.
          1    1    1    2  502    0 -0.16371749943E+02  0.15970316636E+03  0.78679882607E+03  0.80301029149E+03  0.00000000000E+00 0. -1.
         22    1    3    3    0    0  0.49678133578E+02 -0.49118247658E+02 -0.15770145479E+02  0.71618549951E+02  0.00000000000E+00 0. -1.
         22    1    3    3    0    0 -0.34615188828E+02 -0.88715675754E+02  0.84492039418E+02  0.12730902225E+03  0.00000000000E+00 0. -1.
</event>
<event>
 7    1  0.5194496E-006  0.1219933E+03  0.7818608E-02  0.1301230E+00
          2   -1    0    0  502    0  0.00000000000E+00  0.00000000000E+00  0.58067714282E+03  0.58067714282E+03  0.00000000000E+00 0. -1.
          1   -1    0    0  501    0 -0.00000000000E+00 -0.00000000000E+00 -0.39529282466E+03  0.39529282466E+03  0.00000000000E+00 0. -1.
         25    2    1    2    0    0 -0.27335547161E+02  0.12216974433E+03  0.90197734379E+02  0.19857918720E+03  0.12500153492E+03 0.  0.
          2    1    1    2  501    0 -0.58820582977E+02 -0.32895326280E+02 -0.32879417649E+03  0.33563011480E+03  0.00000000000E+00 0. -1.
          1    1    1    2  502    0  0.86156130138E+02 -0.89274418053E+02  0.42398076027E+03  0.44176066547E+03  0.00000000000E+00 0. -1.
         22    1    3    3    0    0  0.99097531881E+01 -0.72968654399E+01  0.59035391435E+02  0.60304435122E+02  0.00000000000E+00 0.  1.
         22    1    3    3    0    0 -0.37245300349E+02  0.12946660977E+03  0.31162342945E+02  0.13827475208E+03  0.00000000000E+00 0.  1.
</event>
<event>
 7    1  0.5194496E-006  0.4778729E+02  0.7818608E-02  0.1516691E+00
          2   -1    0    0  502    0  0.00000000000E+00  0.00000000000E+00  0.81223062889E+02  0.81223062889E+02  0.00000000000E+00 0. -1.
          1   -1    0    0  501    0 -0.00000000000E+00 -0.00000000000E+00 -0.63166179681E+03  0.63166179681E+03  0.00000000000E+00 0. -1.
         25    2    1    2    0    0  0.25871333717E+02  0.23010408006E+02 -0.99246966599E+02  0.16332111973E+03  0.12500009194E+03 0.  0.
          2    1    1    2  501    0 -0.17835734688E+02  0.26106874504E+02 -0.48714232575E+03  0.48816731545E+03  0.00000000000E+00 0. -1.
          1    1    1    2  502    0 -0.80355990283E+01 -0.49117282510E+02  0.35950558433E+02  0.61396424526E+02  0.00000000000E+00 0. -1.
         22    1    3    3    0    0 -0.28129517121E+02  0.32223121885E+02 -0.99753863531E+02  0.10853770132E+03  0.00000000000E+00 0.  1.
         22    1    3    3    0    0  0.54000850837E+02 -0.92127138795E+01  0.50689693282E+00  0.54783418410E+02  0.00000000000E+00 0.  1.
</event>
<event>
 7    1  0.5194496E-006  0.6194888E+02  0.7818608E-02  0.1521562E+00
          2   -1    0    0  502    0  0.00000000000E+00  0.00000000000E+00  0.10183117699E+04  0.10183117699E+04  0.00000000000E+00 0. -1.
          1   -1    0    0  501    0 -0.00000000000E+00 -0.00000000000E+00 -0.82737472994E+02  0.82737472994E+02  0.00000000000E+00 0. -1.
         25    2    1    2    0    0 -0.49063209525E+02  0.25892248774E+01  0.41495684249E+03  0.43615316907E+03  0.12500601242E+03 0.  0.
          2    1    1    2  501    0  0.57364674011E+02 -0.24688915117E+02 -0.58337156896E+02  0.85460354719E+02  0.00000000000E+00 0. -1.
          1    1    1    2  502    0 -0.83014644867E+01  0.22099690240E+02  0.57895461130E+03  0.57943571910E+03  0.00000000000E+00 0. -1.
         22    1    3    3    0    0 -0.67790654347E+02 -0.44470049857E+02  0.21205363679E+03  0.22702401421E+03  0.00000000000E+00 0. -1.
         22    1    3    3    0    0  0.18727444822E+02  0.47059274735E+02  0.20290320570E+03  0.20912915486E+03  0.00000000000E+00 0. -1.
</event>
<event>
 7    1  0.5194496E-006  0.1527723E+03  0.7818608E-02  0.1203787E+00
          2   -1    0    0  502    0  0.00000000000E+00  0.00000000000E+00  0.10577212436E+04  0.10577212436E+04  0.00000000000E+00 0. -1.
          1   -1    0    0  501    0 -0.00000000000E+00 -0.00000000000E+00 -0.13512819599E+04  0.13512819599E+04  0.00000000000E+00 0. -1.
         25    2    1    2    0    0 -0.10872171803E+03  0.26102745525E+03 -0.88657589092E+02  0.32162191164E+03  0.12499896632E+03 0.  0.
          2    1    1    2  501    0  0.85274240330E+02 -0.11365740870E+03 -0.11357730026E+04  0.11446265837E+04  0.00000000000E+00 0. -1.
          1    1    1    2  502    0  0.23447477704E+02 -0.14737004654E+03  0.93086987546E+03  0.94275470822E+03  0.00000000000E+00 0. -1.
         22    1    3    3    0    0 -0.85195478942E+02  0.18471448445E+03 -0.15119398556E+01  0.20342073729E+03  0.00000000000E+00 0.  1.
         22    1    3    3    0    0 -0.23526239091E+02  0.76312970791E+02 -0.87145649237E+02  0.11820117435E+03  0.00000000000E+00 0.  1.
</event>
<event>
 7    1  0.5194496E-006  0.7188878E+02  0.7818608E-02  0.1490561E+00
          2   -1    0    0  502    0  0.00000000000E+00  0.00000000000E+00  0.89038982458E+03  0.89038982458E+03  0.00000000000E+00 0. -1.
          1   -1    0    0  501    0 -0.00000000000E+00 -0.00000000000E+00 -0.31473385603E+03  0.31473385603E+03  0.00000000000E+00 0. -1.
         25    2    1    2    0    0 -0.90049694814E+02  0.33323254031E+02  0.35221343529E+03  0.38587409955E+03  0.12500051964E+03 0.  0.
          2    1    1    2  501    0  0.65193950383E+02 -0.29626668088E+02 -0.29329037814E+03  0.30190600614E+03  0.00000000000E+00 0. -1.
          1    1    1    2  502    0  0.24855744431E+02 -0.36965859427E+01  0.51673291141E+03  0.51734357492E+03  0.00000000000E+00 0. -1.
         22    1    3    3    0    0 -0.31292302235E+02 -0.16780357264E+02  0.27282226683E+03  0.27512320486E+03  0.00000000000E+00 0. -1.
         22    1    3    3    0    0 -0.58757392579E+02  0.50103611295E+02  0.79391168455E+02  0.11075089470E+03  0.00000000000E+00 0. -1.
</event>
<event>
 7    1  0.5194496E-006  0.5098423E+02  0.7818608E-02  0.1473058E+00
          2   -1    0    0  502    0  0.00000000000E+00  0.00000000000E+00  0.27022942933E+04  0.27022942933E+04  0.00000000000E+00 0. -1.
          1   -1    0    0  501    0 -0.00000000000E+00 -0.00000000000E+00 -0.17562979498E+04  0.17562979498E+04  0.00000000000E+00 0. -1.
         25    2    1    2    0    0 -0.71046058070E+02  0.16909818353E+01  0.17767006655E+02  0.14488134770E+03  0.12499814639E+03 0.  0.
          2    1    1    2  501    0  0.43146239619E+02  0.27088340258E+02 -0.16922041629E+04  0.16929708518E+04  0.00000000000E+00 0. -1.
          1    1    1    2  502    0  0.27899818452E+02 -0.28779322093E+02  0.26204334997E+04  0.26207400435E+04  0.00000000000E+00 0. -1.
         22    1    3    3    0    0 -0.93577105410E+02 -0.10074021918E+02  0.47780052156E+02  0.10555138066E+03  0.00000000000E+00 0.  1.
         22    1    3    3    0    0  0.22531047340E+02  0.11765003754E+02 -0.30013045501E+02  0.39329967046E+02  0.00000000000E+00 0.  1.
</event>
<event>
 7    1  0.5194496E-006  0.1060425E+03  0.7818608E-02  0.1274925E+00
          2   -1    0    0  502    0  0.00000000000E+00  0.00000000000E+00  0.21440997666E+04  0.21440997666E+04  0.00000000000E+00 0. -1.
          1   -1    0    0  501    0 -0.00000000000E+00 -0.00000000000E+00 -0.94766313743E+03  0.94766313743E+03  0.00000000000E+00 0. -1.
         25    2    1    2    0    0 -0.50478932213E+02  0.14032563793E+02  0.79987885897E+03  0.81128490348E+03  0.12502787749E+03 0.  0.
          2    1    1    2  501    0 -0.64149195290E+02  0.75753894407E+02 -0.93536620708E+03  0.94061879267E+03  0.00000000000E+00 0. -1.
          1    1    1    2  502    0  0.11462812750E+03 -0.89786458200E+02  0.13319239773E+04  0.13398592079E+04  0.00000000000E+00 0. -1.
         22    1    3    3    0    0 -0.69463321466E+02  0.55721562907E+02  0.48775373318E+03  0.49581624604E+03  0.00000000000E+00 0. -1.
         22    1    3    3    0    0  0.18984389253E+02 -0.41688999114E+02  0.31212512579E+03  0.31546865745E+03  0.00000000000E+00 0. -1.
</event>
<event>
 7    1  0.5194496E-006  0.1055121E+03  0.7818608E-02  0.1378728E+00
          2   -1    0    0  502    0  0.00000000000E+00  0.00000000000E+00  0.33198023297E+03  0.33198023297E+03  0.00000000000E+00 0. -1.
          1   -1    0    0  501    0 -0.00000000000E+00 -0.00000000000E+00 -0.30469773995E+04  0.30469773995E+04  0.00000000000E+00 0. -1.
         25    2    1    2    0    0 -0.88991915763E+02 -0.95595398352E+02 -0.80748973380E+03  0.82747953257E+03  0.12499866147E+03 0.  0.
          2    1    1    2  501    0 -0.30069831194E+00  0.39794706116E+02 -0.22207014981E+04  0.22210580480E+04  0.00000000000E+00 0. -1.
          1    1    1    2  502    0  0.89292614075E+02  0.55800692236E+02  0.31319406531E+03  0.33042005194E+03  0.00000000000E+00 0. -1.
         22    1    3    3    0    0  0.22167650163E+02 -0.52727068290E+02 -0.35449511179E+03  0.35907984171E+03  0.00000000000E+00 0.  1.
         22    1    3    3    0    0 -0.11115956593E+03 -0.42868330062E+02 -0.45299462202E+03  0.46839969086E+03  0.00000000000E+00 0.  1.
</event>
<event>
 7    1  0.5194496E-006  0.5357495E+02  0.7818608E-02  0.1494597E+00
          2   -1    0    0  502    0  0.00000000000E+00  0.00000000000E+00  0.16515246719E+04  0.16515246719E+04  0.00000000000E+00 0. -1.
          1   -1    0    0  501    0 -0.00000000000E+00 -0.00000000000E+00 -0.29860674809E+03  0.29860674809E+03  0.00000000000E+00 0. -1.
         25    2    1    2    0    0  0.49719047716E+02 -0.36757562815E+02 -0.27488065609E+02  0.14214041991E+03  0.12500081236E+03 0.  0.
          2    1    1    2  501    0 -0.53445814915E+02  0.41826014583E+01 -0.21026023264E+03  0.21698689987E+03  0.00000000000E+00 0. -1.
          1    1    1    2  502    0  0.37267671994E+01  0.32574961357E+02  0.15906662220E+04  0.15910041002E+04  0.00000000000E+00 0. -1.
         22    1    3    3    0    0  0.38630320819E+02  0.12066919499E+01 -0.72538388238E+02  0.82192308401E+02  0.00000000000E+00 0. -1.
         22    1    3    3    0    0  0.11088726897E+02 -0.37964254765E+02  0.45050322629E+02  0.59948111505E+02  0.00000000000E+00 0. -1.
</event>
<event>
 7    1  0.5194496E-006  0.4217119E+02  0.7818608E-02  0.1497933E+00
          2   -1    0    0  502    0  0.00000000000E+00  0.00000000000E+00  0.53469491791E+03  0.53469491791E+03  0.00000000000E+00 0. -1.
          1   -1    0    0  501    0 -0.00000000000E+00 -0.00000000000E+00 -0.87455425286E+03  0.87455425286E+03  0.00000000000E+00 0. -1.
         25    2    1    2    0    0  0.18340602605E+02  0.78714827727E+02 -0.27243562471E+03  0.31044659830E+03  0.12499407577E+03 0.  0.
          2    1    1    2  501    0 -0.42700266756E+01 -0.40519028114E+02 -0.58159609360E+03  0.58302147547E+03  0.00000000000E+00 0. -1.
          1    1    1    2  502    0 -0.14070575929E+02 -0.38195799613E+02  0.51417238336E+03  0.51578109700E+03  0.00000000000E+00 0. -1.
         22    1    3    3    0    0  0.21238669360E+02 -0.22929747487E+02 -0.14016149617E+03  0.14360396723E+03  0.00000000000E+00 0. -1.
         22    1    3    3    0    0 -0.28980667553E+01  0.10164457521E+03 -0.13227412854E+03  0.16684263107E+03  0.00000000000E+00 0. -1.
</event>
<event>
 7    1  0.5194496E-006  0.1090878E+03  0.7818608E-02  0.1284225E+00
          2   -1    0    0  502    0  0.00000000000E+00  0.00000000000E+00  0.35544133944E+03  0.35544133944E+03  0.00000000000E+00 0. -1.
          1   -1    0    0  501    0 -0.00000000000E+00 -0.00000000000E+00 -0.20689727805E+03  0.20689727805E+03  0.00000000000E+00 0. -1.
         25    2    1    2    0    0 -0.24121079278E+02  0.17905021280E+02  0.20173571686E+03  0.23921813781E+03  0.12500240697E+03 0.  0.
          2    1    1    2  501    0  0.66669092636E+02 -0.95297998534E+02 -0.15148241558E+03  0.19098010019E+03  0.00000000000E+00 0. -1.
          1    1    1    2  502    0 -0.42548013359E+02  0.77392977254E+02  0.98290760119E+02  0.13214037950E+03  0.00000000000E+00 0. -1.
         22    1    3    3    0    0 -0.28800883179E+02 -0.49002005844E+02  0.12491326013E+03  0.13723705770E+03  0.00000000000E+00 0.  1.
         22    1    3    3    0    0  0.46798039020E+01  0.66907027124E+02  0.76822456725E+02  0.10198108011E+03  0.00000000000E+00 0.  1.
</event>
<event>
 7    1  0.5194496E-006  0.1007149E+03  0.7818608E-02  0.1378636E+00
          2   -1    0    0  502    0  0.00000000000E+00  0.00000000000E+00  0.26469044495E+04  0.26469044495E+04  0.00000000000E+00 0. -1.
          1   -1    0    0  501    0 -0.00000000000E+00 -0.00000000000E+00 -0.31085456933E+03  0.31085456933E+03  0.00000000000E+00 0. -1.
         25    2    1    2    0    0  0.45520507815E+02 -0.55124857222E+02 -0.52836779713E+02  0.15338284420E+03  0.12499482025E+03 0.  0.
          2    1    1    2  501    0 -0.51861229871E+02  0.96362916446E+02 -0.19315332781E+03  0.22199911457E+03  0.00000000000E+00 0. -1.
          1    1    1    2  502    0  0.63407220556E+01 -0.41238059224E+02  0.25820399877E+04  0.25823770601E+04  0.00000000000E+00 0. -1.
         22    1    3    3    0    0  0.29481221389E+02 -0.49057190131E+02 -0.93288513860E+02  0.10944632080E+03  0.00000000000E+00 0.  1.
         22    1    3    3    0    0  0.16039286426E+02 -0.60676670912E+01  0.40451734147E+02  0.43936523400E+02  0.00000000000E+00 0.  1.
</event>
<event>
 7    1  0.5194496E-006  0.6926796E+02  0.7818608E-02  0.1525352E+00
          2   -1    0    0  502    0  0.00000000000E+00  0.00000000000E+00  0.27284693617E+03  0.27284693617E+03  0.00000000000E+00 0. -1.
          1   -1    0    0  501    0 -0.00000000000E+00 -0.00000000000E+00 -0.89112574422E+03  0.89112574422E+03  0.00000000000E+00 0. -1.
         25    2    1    2    0    0  0.23484987509E+02 -0.78194114490E+02 -0.32367545870E+02  0.15276858203E+03  0.12499886980E+03 0.  0.
          2    1    1    2  501    0 -0.18119147381E+02  0.97734348280E+01 -0.79288301287E+03  0.79315023522E+03  0.00000000000E+00 0. -1.
          1    1    1    2  502    0 -0.53658401282E+01  0.68420679662E+02  0.20697175069E+03  0.21805386314E+03  0.00000000000E+00 0. -1.
         22    1    3    3    0    0  0.31359311323E+02 -0.54180906231E+02 -0.78356768935E+02  0.10029337089E+03  0.00000000000E+00 0. -1.
         22    1    3    3    0    0 -0.78743238134E+01 -0.24013208259E+02  0.45989223066E+02  0.52475211144E+02  0.00000000000E+00 0. -1.
</event>
<event>
 7    1  0.5194496E-006  0.6736660E+02  0.7818608E-02  0.1382371E+00
          2   -1    0    0  502    0  0.00000000000E+00  0.00000000000E+00  0.28792709362E+04  0.28792709362E+04  0.00000000000E+00 0. -1.
          1   -1    0    0  501    0 -0.00000000000E+00 -0.00000000000E+00 -0.26278828696E+03  0.26278828696E+03  0.00000000000E+00 0. -1.
         25    2    1    2    0    0 -0.43898223371E+02  0.11683106617E+03  0.17146152133E+02  0.17747036516E+03  0.12500075176E+03 0.  0.
          2    1    1    2  501    0  0.33167596477E+02 -0.50606225102E+02 -0.17719812267E+03  0.18724383608E+03  0.00000000000E+00 0. -1.
          1    1    1    2  502    0  0.10730626894E+02 -0.66224841066E+02  0.27765346198E+04  0.27773450219E+04  0.00000000000E+00 0. -1.
         22    1    3    3    0    0  0.17264554560E+02 -0.19982360577E+02  0.66992852370E+01  0.27244081946E+02  0.00000000000E+00 0. -1.
         22    1    3    3    0    0 -0.61162777931E+02  0.13681342675E+03  0.10446866896E+02  0.15022628322E+03  0.00000000000E+00 0. -1.
</event>
<event>
 7    1  0.5194496E-006  0.1131653E+03  0.7818608E-02  0.1372666E+00
          2   -1    0    0  502    0  0.00000000000E+00  0.00000000000E+00  0.75621206087E+03  0.75621206087E+03  0.00000000000E+00 0. -1.
          1   -1    0    0  501    0 -0.00000000000E+00 -0.00000000000E+00 -0.27044078648E+03  0.27044078648E+03  0.00000000000E+00 0. -1.
         25    2    1    2    0    0 -0.83699578909E+02  0.85290228416E+02  0.69861000872E+02  0.18651117230E+03  0.12500326146E+03 0.  0.
          2    1    1    2  501    0  0.48540103552E+02 -0.10216096195E+03 -0.19637328602E+03  0.22661745577E+03  0.00000000000E+00 0. -1.
          1    1    1    2  502    0  0.35159475357E+02  0.16870733533E+02  0.61228355954E+03  0.61352421928E+03  0.00000000000E+00 0. -1.
         22    1    3    3    0    0  0.88808855015E+01 -0.26147040819E+02  0.64089511267E+01  0.28348060347E+02  0.00000000000E+00 0. -1.
         22    1    3    3    0    0 -0.92580464411E+02  0.11143726923E+03  0.63452049745E+02  0.15816311195E+03  0.00000000000E+00 0. -1.
</event>
<event>
 7    1  0.5194496E-006  0.7257987E+02  0.7818608E-02  0.1427377E+00
          2   -1    0    0  502    0  0.00000000000E+00  0.00000000000E+00  0.22771944344E+04  0.22771944344E+04  0.00000000000E+00 0. -1.
          1   -1    0    0  501    0 -0.00000000000E+00 -0.00000000000E+00 -0.19146452932E+03  0.19146452932E+03  0.00000000000E+00 0. -1.
         25    2    1    2    0    0 -0.41239686653E+02  0.50608065882E+02  0.19882742575E+03  0.24376056249E+03  0.12499991403E+03 0.  0.
          2    1    1    2  501    0 -0.28129695746E+02 -0.27617975398E+02 -0.16604003044E+03  0.17065557141E+03  0.00000000000E+00 0. -1.
          1    1    1    2  502    0  0.69369382399E+02 -0.22990090484E+02  0.20529425097E+04  0.20542428298E+04  0.00000000000E+00 0. -1.
         22    1    3    3    0    0  0.19355603047E+02 -0.32700964169E+02  0.52631560604E+02  0.64915896347E+02  0.00000000000E+00 0. -1.
         22    1    3    3    0    0 -0.60595289700E+02  0.83309030051E+02  0.14619586514E+03  0.17884466614E+03  0.00000000000E+00 0. -1.
</event>
<event>
 7    1  0.5194496E-006  0.1186131E+03  0.7818608E-02  0.1337658E+00
          2   -1    0    0  502    0  0.00000000000E+00  0.00000000000E+00  0.39719750569E+03  0.39719750569E+03  0.00000000000E+00 0. -1.
          1   -1    0    0  501    0 -0.00000000000E+00 -0.00000000000E+00 -0.38850074240E+03  0.38850074240E+03  0.00000000000E+00 0. -1.
         25    2    1    2    0    0  0.10677902924E+01 -0.14125865780E+03 -0.59222971003E+02  0.19769933867E+03  0.12499007815E+03 0.  0.
          2    1    1    2  501    0  0.39255097814E+02  0.31036687131E+02 -0.24694853568E+03  0.25196789067E+03  0.00000000000E+00 0. -1.
          1    1    1    2  502    0 -0.40322888106E+02  0.11022197067E+03  0.31486826998E+03  0.33603101875E+03  0.00000000000E+00 0. -1.
         22    1    3    3    0    0 -0.52560530444E+02 -0.50758143091E+02 -0.56674836249E+02  0.92471809296E+02  0.00000000000E+00 0. -1.
         22    1    3    3    0    0  0.53628320736E+02 -0.90500514708E+02 -0.25481347545E+01  0.10522752937E+03  0.00000000000E+00 0. -1.
</event>
<event>
 7    1  0.5194496E-006  0.8536118E+02  0.7818608E-02  0.1382094E+00
          2   -1    0    0  502    0  0.00000000000E+00  0.00000000000E+00  0.55640124904E+03  0.55640124904E+03  0.00000000000E+00 0. -1.
          1   -1    0    0  501    0 -0.00000000000E+00 -0.00000000000E+00 -0.73689100180E+03  0.73689100180E+03  0.00000000000E+00 0. -1.
         25    2    1    2    0    0 -0.61854613075E+02 -0.60440789337E+02 -0.20437661768E+03  0.25470358698E+03  0.12500013277E+03 0.  0.
          2    1    1    2  501    0  0.42086573260E+02 -0.22786535295E+02 -0.50276348956E+03  0.50503626827E+03  0.00000000000E+00 0. -1.
          1    1    1    2  502    0  0.19768039815E+02  0.83227324632E+02  0.52665035447E+03  0.53355239558E+03  0.00000000000E+00 0. -1.
         22    1    3    3    0    0 -0.99967210494E+02 -0.39024191681E+02 -0.15770761556E+03  0.19075644869E+03  0.00000000000E+00 0. -1.
         22    1    3    3    0    0  0.38112597419E+02 -0.21416597656E+02 -0.46669002124E+02  0.63947138298E+02  0.00000000000E+00 0. -1.
</event>
<event>
 7    1  0.5194496E-006  0.2709429E+03  0.7818608E-02  0.1125238E+00
          2   -1    0    0  502    0  0.00000000000E+00  0.00000000000E+00  0.24802906894E+04  0.24802906894E+04  0.00000000000E+00 0. -1.
          1   -1    0    0  501    0 -0.00000000000E+00 -0.00000000000E+00 -0.68371832592E+03  0.68371832592E+03  0.00000000000E+00 0. -1.
         25    2    1    2    0    0 -0.96062784367E+01  0.31350037570E+03  0.40429505564E+03  0.52673605841E+03  0.12498646753E+03 0.  0.
          2    1    1    2  501    0 -0.16823401131E+03 -0.10565496534E+03 -0.59704664234E+03  0.62922996383E+03  0.00000000000E+00 0. -1.
          1    1    1    2  502    0  0.17784028975E+03 -0.20784541037E+03  0.19893239502E+04  0.20080429931E+04  0.00000000000E+00 0. -1.
         22    1    3    3    0    0  0.13257023267E+02  0.31380067369E+03  0.36764712476E+03  0.48354009122E+03  0.00000000000E+00 0.  1.
         22    1    3    3    0    0 -0.22863301703E+02 -0.30029799002E+00  0.36647930885E+02  0.43195967194E+02  0.00000000000E+00 0.  1.
</event>
<event>
 7    1  0.5194496E-006  0.7926099E+02  0.7818608E-02  0.1370306E+00
          2   -1    0    0  502    0  0.00000000000E+00  0.00000000000E+00  0.51026829227E+03  0.51026829227E+03  0.00000000000E+00 0. -1.
          1   -1    0    0  501    0 -0.00000000000E+00 -0.00000000000E+00 -0.11391214845E+04  0.11391214845E+04  0.00000000000E+00 0. -1.
         25    2    1    2    0    0  0.45674998855E+02  0.65297086742E+02  0.11909515385E+03  0.19015321183E+03  0.12499869296E+03 0.  0.
          2    1    1    2  501    0 -0.77337433946E+02 -0.18171142799E+02 -0.10998847636E+04  0.11027500906E+04  0.00000000000E+00 0. -1.
          1    1    1    2  502    0  0.31662435091E+02 -0.47125943943E+02  0.35193641753E+03  0.35648647432E+03  0.00000000000E+00 0. -1.
         22    1    3    3    0    0 -0.41759702729E+02  0.38473300769E+02  0.45349056747E+02  0.72667768590E+02  0.00000000000E+00 0. -1.
         22    1    3    3    0    0  0.87434701583E+02  0.26823785974E+02  0.73746097108E+02  0.11748544324E+03  0.00000000000E+00 0. -1.
</event>
<event>
 7    1  0.5194496E-006  0.1289408E+03  0.7818608E-02  0.1343472E+00
          2   -1    0    0  502    0  0.00000000000E+00  0.00000000000E+00  0.18442323331E+04  0.18442323331E+04  0.00000000000E+00 0. -1.
          1   -1    0    0  501    0 -0.00000000000E+00 -0.00000000000E+00 -0.21163435194E+03  0.21163435194E+03  0.00000000000E+00 0. -1.
         25    2    1    2    0    0 -0.16338191349E+03  0.65795082733E+01  0.38059873018E+02  0.20933277039E+03  0.12503885492E+03 0.  0.
          2    1    1    2  501    0  0.12014422989E+03 -0.13415410041E+02 -0.96651633510E+02  0.15477773568E+03  0.00000000000E+00 0. -1.
          1    1    1    2  502    0  0.43237683605E+02  0.68359017678E+01  0.16911897416E+04  0.16917561789E+04  0.00000000000E+00 0. -1.
         22    1    3    3    0    0 -0.77997224797E+02 -0.45488716272E+02  0.58053948456E+02  0.10734547646E+03  0.00000000000E+00 0. -1.
         22    1    3    3    0    0 -0.85384688698E+02  0.52068224546E+02 -0.19994075438E+02  0.10198729393E+03  0.00000000000E+00 0. -1.
</event>
<event>
 7    1  0.5194496E-006  0.7823494E+02  0.7818608E-02  0.1451814E+00
          2   -1    0    0  502    0  0.00000000000E+00  0.00000000000E+00  0.12230796297E+04  0.12230796297E+04  0.00000000000E+00 0. -1.
          1   -1    0    0  501    0 -0.00000000000E+00 -0.00000000000E+00 -0.46228849941E+03  0.46228849941E+03  0.00000000000E+00 0. -1.
         25    2    1    2    0    0 -0.70633285500E+02 -0.70918885177E+02 -0.17553210956E+02  0.16109521986E+03  0.12500002141E+03 0.  0.
          2    1    1    2  501    0  0.65418852930E+02  0.40904301572E+02 -0.36876970750E+03  0.37675440989E+03  0.00000000000E+00 0. -1.
          1    1    1    2  502    0  0.52144325701E+01  0.30014583605E+02  0.11471140487E+04  0.11475184993E+04  0.00000000000E+00 0. -1.
         22    1    3    3    0    0 -0.23055514828E+02  0.35055208736E+02 -0.16046236164E+02  0.44921109943E+02  0.00000000000E+00 0.  1.
         22    1    3    3    0    0 -0.47577770673E+02 -0.10597409391E+03 -0.15069747914E+01  0.11617410992E+03  0.00000000000E+00 0.  1.
</event>
<event>
 7    1  0.5194496E-006  0.9236051E+02  0.7818608E-02  0.1433047E+00
          2   -1    0    0  502    0  0.00000000000E+00  0.00000000000E+00  0.12856975069E+04  0.12856975069E+04  0.00000000000E+00 0. -1.
          1   -1    0    0  501    0 -0.00000000000E+00 -0.00000000000E+00 -0.12292924645E+03  0.12292924645E+03  0.00000000000E+00 0. -1.
         25    2    1    2    0    0 -0.50499227171E+02 -0.10748412293E+03  0.27892952399E+03  0.32791603683E+03  0.12499695689E+03 0.  0.
          2    1    1    2  501    0  0.60464484040E+01  0.29053092566E+02 -0.94077925672E+02  0.98647340688E+02  0.00000000000E+00 0. -1.
          1    1    1    2  502    0  0.44452778767E+02  0.78431030362E+02  0.97791666216E+03  0.98206337586E+03  0.00000000000E+00 0. -1.
         22    1    3    3    0    0  0.11141559259E+02 -0.75202795390E+02  0.56118468809E+02  0.94492736857E+02  0.00000000000E+00 0. -1.
         22    1    3    3    0    0 -0.61640786429E+02 -0.32281327538E+02  0.22281105519E+03  0.23342329998E+03  0.00000000000E+00 0. -1.
</event>
<event>
 7    1  0.5194496E-006  0.1112799E+03  0.7818608E-02  0.1355838E+00
          2   -1    0    0  502    0  0.00000000000E+00  0.00000000000E+00  0.23385929785E+03  0.23385929785E+03  0.00000000000E+00 0. -1.
          1   -1    0    0  501    0 -0.00000000000E+00 -0.00000000000E+00 -0.40586211764E+03  0.40586211764E+03  0.00000000000E+00 0. -1.
         25    2    1    2    0    0  0.76674911841E+02 -0.10197790757E+02 -0.17315270088E+03  0.22713569522E+03  0.12500291667E+03 0.  0.
          2    1    1    2  501    0  0.27660210849E+02 -0.36304635321E+02 -0.18699226585E+03  0.19248174277E+03  0.00000000000E+00 0. -1.
          1    1    1    2  502    0 -0.10433512269E+03  0.46502426079E+02  0.18814214694E+03  0.22010397750E+03  0.00000000000E+00 0. -1.
         22    1    3    3    0    0  0.54999399307E+02 -0.16412644400E+01 -0.19036967144E+03  0.19816215451E+03  0.00000000000E+00 0.  1.
         22    1    3    3    0    0  0.21675512534E+02 -0.85565263170E+01  0.17216970559E+02  0.28973540713E+02  0.00000000000E+00 0.  1.
</event>
<event>
 7    1  0.5194496E-006  0.3316108E+02  0.7818608E-02  0.1600147E+00
          2   -1    0    0  502    0  0.00000000000E+00  0.00000000000E+00  0.48903240203E+03  0.48903240203E+03  0.00000000000E+00 0. -1.
          1   -1    0    0  501    0 -0.00000000000E+00 -0.00000000000E+00 -0.94393078569E+02  0.94393078569E+02  0.00000000000E+00 0. -1.
         25    2    1    2    0    0  0.12548785273E+02 -0.52450906857E+01  0.48220798380E+02  0.13466727620E+03  0.12500018758E+03 0.  0.
          2    1    1    2  501    0 -0.13269279767E+02  0.32041311301E+02 -0.44781915781E+02  0.56640439585E+02  0.00000000000E+00 0. -1.
          1    1    1    2  502    0  0.72049449452E+00 -0.26796220615E+02  0.39120044086E+03  0.39211776481E+03  0.00000000000E+00 0. -1.
         22    1    3    3    0    0  0.47206203608E+02 -0.50010724403E+02  0.31453443489E+02  0.75622862427E+02  0.00000000000E+00 0. -1.
         22    1    3    3    0    0 -0.34657418335E+02  0.44765633717E+02  0.16767354892E+02  0.59044413773E+02  0.00000000000E+00 0. -1.
</event>
<event>
 7    1  0.5194496E-006  0.1075816E+03  0.7818608E-02  0.1338018E+00
          2   -1    0    0  502    0  0.00000000000E+00  0.00000000000E+00  0.27649285455E+04  0.27649285455E+04  0.00000000000E+00 0. -1.
          1   -1    0    0  501    0 -0.00000000000E+00 -0.00000000000E+00 -0.28226148753E+02  0.28226148753E+02  0.00000000000E+00 0. -1.
         25    2    1    2    0    0  0.31885294569E+02  0.10311698291E+03  0.69608995387E+03  0.71541991256E+03  0.12503856697E+03 0.  0.
          2    1    1    2  501    0  0.47450868415E+02 -0.27812896411E+02  0.27211219888E+02  0.61364424611E+02  0.00000000000E+00 0. -1.
          1    1    1    2  502    0 -0.79336162984E+02 -0.75304086500E+02  0.20134012230E+04  0.20163703571E+04  0.00000000000E+00 0. -1.
         22    1    3    3    0    0 -0.38984673758E+02  0.10561243672E+02  0.29437374755E+03  0.29713170128E+03  0.00000000000E+00 0.  1.
         22    1    3    3    0    0  0.70869968327E+02  0.92555739239E+02  0.40171620632E+03  0.41828821128E+03  0.00000000000E+00 0.  1.
</event>
<event>
 7    1  0.5194496E-006  0.5907445E+02  0.7818608E-02  0.1467990E+00
          2   -1    0    0  502    0  0.00000000000E+00  0.00000000000E+00  0.17006455946E+03  0.17006455946E+03  0.00000000000E+00 0. -1.
          1   -1    0    0  501    0 -0.00000000000E+00 -0.00000000000E+00 -0.91721515434E+03  0.91721515434E+03  0.00000000000E+00 0. -1.
         25    2    1    2    0    0  0.37099072650E+02  0.85825613145E+02 -0.47168784556E+03  0.49684703616E+03  0.12500070652E+03 0.  0.
          2    1    1    2  501    0 -0.76811138143E+01 -0.35039639651E+02 -0.42670068314E+03  0.42820584869E+03  0.00000000000E+00 0. -1.
          1    1    1    2  502    0 -0.29417958836E+02 -0.50785973495E+02  0.15123793382E+03  0.16222682895E+03  0.00000000000E+00 0. -1.
         22    1    3    3    0    0  0.63010854761E+02 -0.11260595130E+01 -0.15235017165E+03  0.16487028425E+03  0.00000000000E+00 0.  1.
         22    1    3    3    0    0 -0.25911782111E+02  0.86951672658E+02 -0.31933767391E+03  0.33197675191E+03  0.00000000000E+00 0.  1.
</event>
<event>
 7    1  0.5194496E-006  0.2572183E+03  0.7818608E-02  0.1280891E+00
          2   -1    0    0  502    0  0.00000000000E+00  0.00000000000E+00  0.20878590917E+04  0.20878590917E+04  0.00000000000E+00 0. -1.
          1   -1    0    0  501    0 -0.00000000000E+00 -0.00000000000E+00 -0.45559399609E+03  0.45559399609E+03  0.00000000000E+00 0. -1.
         25    2    1    2    0    0 -0.12459751174E+03 -0.19525680244E+03 -0.31092582305E+03  0.40736888143E+03  0.12499911713E+03 0.  0.
          2    1    1    2  501    0  0.12068451895E+02 -0.36726250355E+02 -0.84049216867E+02  0.92513436064E+02  0.00000000000E+00 0. -1.
          1    1    1    2  502    0  0.11252905984E+03  0.23198305280E+03  0.20272401355E+04  0.20435707703E+04  0.00000000000E+00 0. -1.
         22    1    3    3    0    0 -0.19975813262E+02 -0.13027862346E+03 -0.21095257037E+03  0.24874191402E+03  0.00000000000E+00 0.  1.
         22    1    3    3    0    0 -0.10462169848E+03 -0.64978178979E+02 -0.99973252684E+02  0.15862696741E+03  0.00000000000E+00 0.  1.
</event>
<event>
 7    1  0.5194496E-006  0.8959373E+02  0.7818608E-02  0.1407316E+00
          2   -1    0    0  502    0  0.00000000000E+00  0.00000000000E+00  0.89531320783E+03  0.89531320783E+03  0.00000000000E+00 0. -1.
          1   -1    0    0  501    0 -0.00000000000E+00 -0.00000000000E+00 -0.61639960861E+03  0.61639960861E+03  0.00000000000E+00 0. -1.
         25    2    1    2    0    0 -0.10984597706E+03  0.41048145253E+02 -0.12771315383E+03  0.21373602449E+03  0.12498539755E+03 0.  0.
          2    1    1    2  501    0  0.86237488393E+02 -0.12189754804E+02 -0.44100622745E+03  0.44952417863E+03  0.00000000000E+00 0. -1.
          1    1    1    2  502    0  0.23608488663E+02 -0.28858390449E+02  0.84763298049E+03  0.84845261333E+03  0.00000000000E+00 0. -1.
         22    1    3    3    0    0 -0.10858082309E+03 -0.18212902673E+02 -0.66979270783E+02  0.12887097299E+03  0.00000000000E+00 0.  1.
         22    1    3    3    0    0 -0.12651539711E+01  0.59261047926E+02 -0.60733883046E+02  0.84865051498E+02  0.00000000000E+00 0.  1.
</event>
<event>
 7    1  0.5194496E-006  0.1265798E+03  0.7818608E-02  0.1351883E+00
          2   -1    0    0  502    0  0.00000000000E+00  0.00000000000E+00  0.39607288884E+03  0.39607288884E+03  0.00000000000E+00 0. -1.
          1   -1    0    0  501    0 -0.00000000000E+00 -0.00000000000E+00 -0.57534440806E+03  0.57534440806E+03  0.00000000000E+00 0. -1.
         25    2    1    2    0    0  0.12357065130E+03 -0.68034860835E+02 -0.23420730110E+03  0.30062452863E+03  0.12499439656E+03 0.  0.
          2    1    1    2  501    0 -0.17547236983E+00  0.41492646505E+02 -0.29545903523E+03  0.29835836171E+03  0.00000000000E+00 0. -1.
          1    1    1    2  502    0 -0.12339517893E+03  0.26542214330E+02  0.35039481712E+03  0.37243440656E+03  0.00000000000E+00 0. -1.
         22    1    3    3    0    0  0.11886724507E+03 -0.85149989113E+02 -0.24077744303E+03  0.28169792272E+03  0.00000000000E+00 0. -1.
         22    1    3    3    0    0  0.47034062295E+01  0.17115128278E+02  0.65701419229E+01  0.18926605904E+02  0.00000000000E+00 0. -1.
</event>
<event>
 7    1  0.5194496E-006  0.1043138E+03  0.7818608E-02  0.1334110E+00
          2   -1    0    0  502    0  0.00000000000E+00  0.00000000000E+00  0.23522739852E+04  0.23522739852E+04  0.00000000000E+00 0. -1.
          1   -1    0    0  501    0 -0.00000000000E+00 -0.00000000000E+00 -0.43174831889E+03  0.43174831889E+03  0.00000000000E+00 0. -1.
         25    2    1    2    0    0  0.78809233823E+02  0.24472104755E+02  0.93547706049E+03  0.94739224829E+03  0.12499984868E+03 0.  0.
          2    1    1    2  501    0  0.35220166362E+02 -0.46946939578E+02 -0.42135984137E+03  0.42542753928E+03  0.00000000000E+00 0. -1.
          1    1    1    2  502    0 -0.11402940018E+03  0.22474834822E+02  0.14064084472E+04  0.14112025165E+04  0.00000000000E+00 0. -1.
         22    1    3    3    0    0  0.46422727218E+01  0.29419969974E+02  0.69616840019E+03  0.69680522871E+03  0.00000000000E+00 0.  1.
         22    1    3    3    0    0  0.74166961101E+02 -0.49478652182E+01  0.23930866030E+03  0.25058701958E+03  0.00000000000E+00 0.  1.
</event>
<event>
 7    1  0.5194496E-006  0.1040754E+03  0.7818608E-02  0.1392653E+00
          2   -1    0    0  502    0  0.00000000000E+00  0.00000000000E+00  0.19541349215E+03  0.19541349215E+03  0.00000000000E+00 0. -1.
          1   -1    0    0  501    0 -0.00000000000E+00 -0.00000000000E+00 -0.97320476473E+03  0.97320476473E+03  0.00000000000E+00 0. -1.
         25    2    1    2    0    0  0.83637130728E+02  0.10708691579E+03 -0.10883049007E+03  0.21431782013E+03  0.12500110115E+03 0.  0.
          2    1    1    2  501    0 -0.26867153329E+02 -0.24034359338E+02 -0.79343612439E+03  0.79425460517E+03  0.00000000000E+00 0. -1.
          1    1    1    2  502    0 -0.56769977399E+02 -0.83052556449E+02  0.12447534187E+03  0.16004583156E+03  0.00000000000E+00 0. -1.
         22    1    3    3    0    0  0.65132932952E+02 -0.96291480799E+01 -0.30663034173E+02  0.72630855099E+02  0.00000000000E+00 0.  1.
         22    1    3    3    0    0  0.18504197776E+02  0.11671606387E+03 -0.78167455892E+02  0.14168696503E+03  0.00000000000E+00 0.  1.
</event>
<event>
 7    1  0.5194496E-006  0.3633198E+02  0.7818608E-02  0.1587193E+00
          2   -1    0    0  502    0  0.00000000000E+00  0.00000000000E+00  0.32470985780E+03  0.32470985780E+03  0.00000000000E+00 0. -1.
          1   -1    0    0  501    0 -0.00000000000E+00 -0.00000000000E+00 -0.17427079171E+03  0.17427079171E+03  0.00000000000E+00 0. -1.
         25    2    1    2    0    0 -0.22217405910E+02  0.57151063747E+02  0.29750321060E+02  0.14237863827E+03  0.12500695109E+03 0.  0.
          2    1    1    2  501    0  0.45507389791E+01 -0.26072195974E+02 -0.11510759874E+03  0.11811108295E+03  0.00000000000E+00 0. -1.
          1    1    1    2  502    0  0.17666666930E+02 -0.31078867773E+02  0.23579634376E+03  0.23849092829E+03  0.00000000000E+00 0. -1.
         22    1    3    3    0    0 -0.17662416042E+02 -0.71083660756E+01 -0.41902049480E+02  0.46024684240E+02  0.00000000000E+00 0. -1.
         22    1    3    3    0    0 -0.45549898675E+01  0.64259429823E+02  0.71652370541E+02  0.96353954034E+02  0.00000000000E+00 0. -1.
</event>
<event>
 7    1  0.5194496E-006  0.2309482E+03  0.7818608E-02  0.1127715E+00
          2   -1    0    0  502    0  0.00000000000E+00  0.00000000000E+00  0.38897634417E+03  0.38897634417E+03  0.00000000000E+00 0. -1.
          1   -1    0    0  501    0 -0.00000000000E+00 -0.00000000000E+00 -0.46217877996E+03  0.46217877996E+03  0.00000000000E+00 0. -1.
         25    2    1    2    0    0 -0.16876481403E+03  0.97295061163E+02 -0.13982000106E+03  0.27041094119E+03  0.12499821214E+03 0.  0.
          2    1    1    2  501    0 -0.12117281462E+03 -0.19081201272E+03  0.14196357480E+03  0.26691896105E+03  0.00000000000E+00 0. -1.
          1    1    1    2  502    0  0.28993762866E+03  0.93516951553E+02 -0.75346009524E+02  0.31382522188E+03  0.00000000000E+00 0. -1.
         22    1    3    3    0    0 -0.29003753104E+02  0.68339093078E+02 -0.55412075259E+01  0.74445646734E+02  0.00000000000E+00 0. -1.
         22    1    3    3    0    0 -0.13976106093E+03  0.28955968085E+02 -0.13427879353E+03  0.19596529446E+03  0.00000000000E+00 0. -1.
</event>
<event>
 7    1  0.5194496E-006  0.7052361E+02  0.7818608E-02  0.1407005E+00
          2   -1    0    0  502    0  0.00000000000E+00  0.00000000000E+00  0.12265592702E+04  0.12265592702E+04  0.00000000000E+00 0. -1.
          1   -1    0    0  501    0 -0.00000000000E+00 -0.00000000000E+00 -0.15881719790E+04  0.15881719790E+04  0.00000000000E+00 0. -1.
         25    2    1    2    0    0  0.38193490845E+02  0.31364507385E+00  0.52700472567E+02  0.14092906963E+03  0.12499928696E+03 0.  0.
          2    1    1    2  501    0  0.18057649530E+02  0.43914988939E+02 -0.15425589205E+04  0.15432895477E+04  0.00000000000E+00 0. -1.
          1    1    1    2  502    0 -0.56251140375E+02 -0.44228634013E+02  0.11282457392E+04  0.11305126319E+04  0.00000000000E+00 0. -1.
         22    1    3    3    0    0  0.52606120242E+02 -0.99429649249E+01  0.87105372365E+02  0.10224290847E+03  0.00000000000E+00 0. -1.
         22    1    3    3    0    0 -0.14412629397E+02  0.10256609999E+02 -0.34404899797E+02  0.38686161154E+02  0.00000000000E+00 0. -1.
</event>
<event>
 7    1  0.5194496E-006  0.1047198E+03  0.7818608E-02  0.1390687E+00
          2   -1    0    0  502    0  0.00000000000E+00  0.00000000000E+00  0.10768658722E+03  0.10768658722E+03  0.00000000000E+00 0. -1.
          1   -1    0    0  501    0 -0.00000000000E+00 -0.00000000000E+00 -0.68027324876E+03  0.68027324876E+03  0.00000000000E+00 0. -1.
         25    2    1    2    0    0 -0.93169587002E+02  0.21330588440E+02 -0.22885887001E+03  0.27773500867E+03  0.12499914687E+03 0.  0.
          2    1    1    2  501    0  0.10788553021E+03  0.11957554305E+02 -0.41566528007E+03  0.42960434797E+03  0.00000000000E+00 0. -1.
          1    1    1    2  502    0 -0.14715943205E+02 -0.33288142745E+02  0.71937488536E+02  0.80620479338E+02  0.00000000000E+00 0. -1.
         22    1    3    3    0    0 -0.12037980998E+02  0.27353844616E+02 -0.18078354699E+03  0.18323710504E+03  0.00000000000E+00 0. -1.
         22    1    3    3    0    0 -0.81131606003E+02 -0.60232561766E+01 -0.48075323014E+02  0.94497903631E+02  0.00000000000E+00 0. -1.
</event>
<event>
 7    1  0.5194496E-006  0.1125904E+03  0.7818608E-02  0.1324774E+00
          2   -1    0    0  502    0  0.00000000000E+00  0.00000000000E+00  0.17752522013E+04  0.17752522013E+04  0.00000000000E+00 0. -1.
          1   -1    0    0  501    0 -0.00000000000E+00 -0.00000000000E+00 -0.12575388308E+04  0.12575388308E+04  0.00000000000E+00 0. -1.
         25    2    1    2    0    0 -0.95189659092E+02  0.12246481276E+03  0.23837146435E+03  0.31064657352E+03  0.12498654752E+03 0.  0.
          2    1    1    2  501    0  0.38681031472E+02 -0.10538417596E+03 -0.12182390823E+04  0.12234003876E+04  0.00000000000E+00 0. -1.
          1    1    1    2  502    0  0.56508627620E+02 -0.17080636794E+02  0.14975809885E+04  0.14987440710E+04  0.00000000000E+00 0. -1.
         22    1    3    3    0    0 -0.47989036778E+02 -0.16520557691E+02  0.44653953095E+02  0.67600680502E+02  0.00000000000E+00 0.  1.
         22    1    3    3    0    0 -0.47200622314E+02  0.13898537045E+03  0.19371751125E+03  0.24304589302E+03  0.00000000000E+00 0.  1.
</event>
<event>
 7    1  0.5194496E-006  0.2886208E+02  0.7818608E-02  0.1671666E+00
          2   -1    0    0  502    0  0.00000000000E+00  0.00000000000E+00  0.27793992782E+03  0.27793992782E+03  0.00000000000E+00 0. -1.
          1   -1    0    0  501    0 -0.00000000000E+00 -0.00000000000E+00 -0.17546260085E+03  0.17546260085E+03  0.00000000000E+00 0. -1.
         25    2    1    2    0    0  0.12636482850E+02  0.40809737073E+02  0.44027551977E+02  0.13924645313E+03  0.12500413609E+03 0.  0.
          2    1    1    2  501    0  0.63622517288E+01 -0.19397118068E+02 -0.12592669964E+03  0.12757060836E+03  0.00000000000E+00 0. -1.
          1    1    1    2  502    0 -0.18998734579E+02 -0.21412619005E+02  0.18437647462E+03  0.18658546718E+03  0.00000000000E+00 0. -1.
         22    1    3    3    0    0  0.43682873867E+02  0.74210499723E+02  0.33824723840E+02  0.92517585795E+02  0.00000000000E+00 0.  1.
         22    1    3    3    0    0 -0.31046391017E+02 -0.33400762650E+02  0.10202828137E+02  0.46728867339E+02  0.00000000000E+00 0.  1.
</event>
<event>
 7    1  0.5194496E-006  0.5770379E+02  0.7818608E-02  0.1421119E+00
          2   -1    0    0  502    0  0.00000000000E+00  0.00000000000E+00  0.15621422086E+04  0.15621422086E+04  0.00000000000E+00 0. -1.
          1   -1    0    0  501    0 -0.00000000000E+00 -0.00000000000E+00 -0.32948812145E+02  0.32948812145E+02  0.00000000000E+00 0. -1.
         25    2    1    2    0    0  0.19164990649E+02  0.34001281526E+02  0.67346727952E+03  0.68608137017E+03  0.12500434351E+03 0.  0.
          2    1    1    2  501    0 -0.59578250754E+02 -0.12568623673E+01  0.85073157416E+01  0.60195698244E+02  0.00000000000E+00 0. -1.
          1    1    1    2  502    0  0.40413260105E+02 -0.32744419159E+02  0.84721880119E+03  0.84881395233E+03  0.00000000000E+00 0. -1.
         22    1    3    3    0    0  0.12261199171E+02 -0.47448398250E+02  0.23401608422E+03  0.23909248247E+03  0.00000000000E+00 0.  1.
         22    1    3    3    0    0  0.69037914785E+01  0.81449679777E+02  0.43945119530E+03  0.44698888769E+03  0.00000000000E+00 0.  1.
</event>
<event>
 7    1  0.5194496E-006  0.4423349E+02  0.7818608E-02  0.1550203E+00
          2   -1    0    0  502    0  0.00000000000E+00  0.00000000000E+00  0.20239806987E+04  0.20239806987E+04  0.00000000000E+00 0. -1.
          1   -1    0    0  501    0 -0.00000000000E+00 -0.00000000000E+00 -0.12020664723E+02  0.12020664723E+02  0.00000000000E+00 0. -1.
         25    2    1    2    0    0  0.25360316473E+02 -0.14203461237E+02  0.11644029493E+04  0.11714533715E+04  0.12499555685E+03 0.  0.
          2    1    1    2  501    0 -0.15050210254E+01 -0.27368870159E+02  0.16259780850E+02  0.31870058289E+02  0.00000000000E+00 0. -1.
          1    1    1    2  502    0 -0.23855295447E+02  0.41572331396E+02  0.83129730380E+03  0.83267793363E+03  0.00000000000E+00 0. -1.
         22    1    3    3    0    0  0.68315914315E+02  0.76246309638E+01  0.42887549701E+03  0.43434938826E+03  0.00000000000E+00 0. -1.
         22    1    3    3    0    0 -0.42955597842E+02 -0.21828092201E+02  0.73552745231E+03  0.73710398323E+03  0.00000000000E+00 0. -1.
</event>
<event>
 7    1  0.5194496E-006  0.6204791E+02  0.7818608E-02  0.1399493E+00
          2   -1    0    0  502    0  0.00000000000E+00  0.00000000000E+00  0.22667509150E+03  0.22667509150E+03  0.00000000000E+00 0. -1.
          1   -1    0    0  501    0 -0.00000000000E+00 -0.00000000000E+00 -0.14068244679E+04  0.14068244679E+04  0.00000000000E+00 0. -1.
         25    2    1    2    0    0  0.27320022062E+02 -0.51014627722E+01 -0.78657472524E+03  0.79693074479E+03  0.12500562016E+03 0.  0.
          2    1    1    2  501    0 -0.65335949609E+02  0.47920918019E+02 -0.60864087333E+03  0.61401051569E+03  0.00000000000E+00 0. -1.
          1    1    1    2  502    0  0.38015927546E+02 -0.42819455247E+02  0.21506622218E+03  0.22255829892E+03  0.00000000000E+00 0. -1.
         22    1    3    3    0    0  0.42540420405E+02 -0.58578721422E+02 -0.45703152715E+03  0.46272991126E+03  0.00000000000E+00 0. -1.
         22    1    3    3    0    0 -0.15220398343E+02  0.53477258650E+02 -0.32954319810E+03  0.33420083353E+03  0.00000000000E+00 0. -1.
</event>
<event>
 7    1  0.5194496E-006  0.6091522E+02  0.7818608E-02  0.1411624E+00
          2   -1    0    0  502    0  0.00000000000E+00  0.00000000000E+00  0.13282336809E+04  0.13282336809E+04  0.00000000000E+00 0. -1.
          1   -1    0    0  501    0 -0.00000000000E+00 -0.00000000000E+00 -0.49959574226E+02  0.49959574226E+02  0.00000000000E+00 0. -1.
         25    2    1    2    0    0 -0.10641189158E+03  0.13134003615E+02  0.49506158561E+03  0.52173445436E+03  0.12499949843E+03 0.  0.
          2    1    1    2  501    0  0.58200920440E+02  0.89404057067E+01 -0.11485916881E+02  0.59993368641E+02  0.00000000000E+00 0. -1.
          1    1    1    2  502    0  0.48210971141E+02 -0.22074409321E+02  0.79469843791E+03  0.79646543208E+03  0.00000000000E+00 0. -1.
         22    1    3    3    0    0  0.18271290016E+02 -0.17665211092E+02  0.17549776667E+03  0.17732841236E+03  0.00000000000E+00 0. -1.
         22    1    3    3    0    0 -0.12468318160E+03  0.30799214707E+02  0.31956381893E+03  0.34440604201E+03  0.00000000000E+00 0. -1.
</event>
<event>
 7    1  0.5194496E-006  0.7897433E+02  0.7818608E-02  0.1419477E+00
          2   -1    0    0  502    0  0.00000000000E+00  0.00000000000E+00  0.10194533353E+04  0.10194533353E+04  0.00000000000E+00 0. -1.
          1   -1    0    0  501    0 -0.00000000000E+00 -0.00000000000E+00 -0.52217882967E+03  0.52217882967E+03  0.00000000000E+00 0. -1.
         25    2    1    2    0    0 -0.44585215873E+02  0.10737249856E+03  0.37924205799E+03  0.41589256288E+03  0.12500156155E+03 0.  0.
          2    1    1    2  501    0  0.36394874333E+02 -0.69766807650E+02 -0.50017917079E+03  0.50633111421E+03  0.00000000000E+00 0. -1.
          1    1    1    2  502    0  0.81903415405E+01 -0.37605690914E+02  0.61821161845E+03  0.61940848789E+03  0.00000000000E+00 0. -1.
         22    1    3    3    0    0  0.11358264197E+01 -0.21673838441E+02  0.13981031861E+02  0.25816944559E+02  0.00000000000E+00 0.  1.
         22    1    3    3    0    0 -0.45721042293E+02  0.12904633700E+03  0.36526102613E+03  0.39007561832E+03  0.00000000000E+00 0.  1.
</event>
<event>
 7    1  0.5194496E-006  0.1253142E+03  0.7818608E-02  0.1269704E+00
          2   -1    0    0  502    0  0.00000000000E+00  0.00000000000E+00  0.76889281970E+03  0.76889281970E+03  0.00000000000E+00 0. -1.
          1   -1    0    0  501    0 -0.00000000000E+00 -0.00000000000E+00 -0.13159692320E+04  0.13159692320E+04  0.00000000000E+00 0. -1.
         25    2    1    2    0    0 -0.50523843242E+02 -0.20394404065E+03  0.26614893547E+03  0.36140836844E+03  0.12503968358E+03 0.  0.
          2    1    1    2  501    0  0.13428719182E+02  0.12377771421E+03 -0.12609584773E+04  0.12670901841E+04  0.00000000000E+00 0. -1.
          1    1    1    2  502    0  0.37095124059E+02  0.80166326447E+02  0.44773312954E+03  0.45636349921E+03  0.00000000000E+00 0. -1.
         22    1    3    3    0    0 -0.63848237480E+01  0.88442858484E+01 -0.65380959604E+01  0.12717470867E+02  0.00000000000E+00 0.  1.
         22    1    3    3    0    0 -0.44139019494E+02 -0.21278832650E+03  0.27268703143E+03  0.34869089757E+03  0.00000000000E+00 0.  1.
</event>
<event>
 7    1  0.5194496E-006  0.9137596E+02  0.7818608E-02  0.1470212E+00
          2   -1    0    0  502    0  0.00000000000E+00  0.00000000000E+00  0.13529978683E+04  0.13529978683E+04  0.00000000000E+00 0. -1.
          1   -1    0    0  501    0 -0.00000000000E+00 -0.00000000000E+00 -0.17483494040E+03  0.17483494040E+03  0.00000000000E+00 0. -1.
         25    2    1    2    0    0 -0.91882643974E+02  0.45641074676E+02  0.42318979145E+03  0.45303331287E+03  0.12499622004E+03 0.  0.
          2    1    1    2  501    0  0.71670584219E+02 -0.56243987671E+02 -0.14678116535E+03  0.17275638713E+03  0.00000000000E+00 0. -1.
          1    1    1    2  502    0  0.20212059755E+02  0.10602912995E+02  0.90175430179E+03  0.90204310868E+03  0.00000000000E+00 0. -1.
         22    1    3    3    0    0 -0.26441707730E+02 -0.38072110017E+02  0.68042265206E+02  0.82331034994E+02  0.00000000000E+00 0. -1.
         22    1    3    3    0    0 -0.65440936244E+02  0.83713184693E+02  0.35514752624E+03  0.37070227788E+03  0.00000000000E+00 0. -1.
</event>
<event>
 7    1  0.5194496E-006  0.4763088E+02  0.7818608E-02  0.1510212E+00
          2   -1    0    0  502    0  0.00000000000E+00  0.00000000000E+00  0.24433669219E+04  0.24433669219E+04  0.00000000000E+00 0. -1.
          1   -1    0    0  501    0 -0.00000000000E+00 -0.00000000000E+00 -0.21646729063E+03  0.21646729063E+03  0.00000000000E+00 0. -1.
         25    2    1    2    0    0 -0.50627232791E+02  0.55763006877E+02  0.79105904243E+03  0.80440802891E+03  0.12500095490E+03 0.  0.
          2    1    1    2  501    0  0.19984549099E+02 -0.43145247197E+02 -0.20692934370E+03  0.21232203805E+03  0.00000000000E+00 0. -1.
          1    1    1    2  502    0  0.30642683692E+02 -0.12617759680E+02  0.16427699325E+04  0.16431041455E+04  0.00000000000E+00 0. -1.
         22    1    3    3    0    0 -0.89329938077E+02  0.58990875195E+02  0.57098399357E+03  0.58093242473E+03  0.00000000000E+00 0.  1.
         22    1    3    3    0    0  0.38702705287E+02 -0.32278683183E+01  0.22007504886E+03  0.22347560418E+03  0.00000000000E+00 0.  1.
</event>
<event>
 7    1  0.5194496E-006  0.5854870E+02  0.7818608E-02  0.1440364E+00
          2   -1    0    0  502    0  0.00000000000E+00  0.00000000000E+00  0.13027476453E+03  0.13027476453E+03  0.00000000000E+00 0. -1.
          1   -1    0    0  501    0 -0.00000000000E+00 -0.00000000000E+00 -0.10862071985E+04  0.10862071985E+04  0.00000000000E+00 0. -1.
         25    2    1    2    0    0 -0.17114934337E+02 -0.21884719277E+02 -0.25322822764E+02  0.13053194508E+03  0.12500192565E+03 0.  0.
          2    1    1    2  501    0 -0.75196505039E+01  0.58716761276E+02 -0.10010135872E+04  0.10027623871E+04  0.00000000000E+00 0. -1.
          1    1    1    2  502    0  0.24634584841E+02 -0.36832041998E+02  0.70403976009E+02  0.83187630847E+02  0.00000000000E+00 0. -1.
         22    1    3    3    0    0 -0.17022024318E+02  0.50931892532E+02 -0.20754263422E+02  0.57572097747E+02  0.00000000000E+00 0. -1.
         22    1    3    3    0    0 -0.92910019333E-01 -0.72816611810E+02 -0.45685593423E+01  0.72959847328E+02  0.00000000000E+00 0. -1.
</event>
<event>
 7    1  0.5194496E-006  0.8914184E+02  0.7818608E-02  0.1373206E+00
          2   -1    0    0  502    0  0.00000000000E+00  0.00000000000E+00  0.18611784629E+04  0.18611784629E+04  0.00000000000E+00 0. -1.
          1   -1    0    0  501    0 -0.00000000000E+00 -0.00000000000E+00 -0.51585155196E+02  0.51585155196E+02  0.00000000000E+00 0. -1.
         25    2    1    2    0    0  0.25097874880E+02 -0.34136434080E+02  0.97740760981E+03  0.98627832187E+03  0.12499637200E+03 0.  0.
          2    1    1    2  501    0 -0.46716794072E+02  0.78429310406E+02 -0.15423499361E+01  0.91301667140E+02  0.00000000000E+00 0. -1.
          1    1    1    2  502    0  0.21618919192E+02 -0.44292876326E+02  0.83372804780E+03  0.83518362906E+03  0.00000000000E+00 0. -1.
         22    1    3    3    0    0  0.33513021218E+02 -0.56349590452E+02  0.93783524816E+03  0.94012411501E+03  0.00000000000E+00 0. -1.
         22    1    3    3    0    0 -0.84151463384E+01  0.22213156372E+02  0.39572361658E+02  0.46154206863E+02  0.00000000000E+00 0. -1.
</event>
<event>
 7    1  0.5194496E-006  0.1094922E+03  0.7818608E-02  0.1312884E+00
          2   -1    0    0  502    0  0.00000000000E+00  0.00000000000E+00  0.24744578607E+03  0.24744578607E+03  0.00000000000E+00 0. -1.
          1   -1    0    0  501    0 -0.00000000000E+00 -0.00000000000E+00 -0.45676102320E+03  0.45676102320E+03  0.00000000000E+00 0. -1.
         25    2    1    2    0    0 -0.12108536148E+03 -0.85236442353E+02 -0.18804407832E+03  0.27002205372E+03  0.12499767290E+03 0.  0.
          2    1    1    2  501    0  0.53566085922E+02  0.85620968058E+02 -0.21038909664E+03  0.23337490807E+03  0.00000000000E+00 0. -1.
          1    1    1    2  502    0  0.67519275557E+02 -0.38452570419E+00  0.18911793784E+03  0.20080984748E+03  0.00000000000E+00 0. -1.
         22    1    3    3    0    0 -0.10236773342E+03  0.38112736515E+01 -0.91475899583E+02  0.13733724497E+03  0.00000000000E+00 0. -1.
         22    1    3    3    0    0 -0.18717628057E+02 -0.89047716005E+02 -0.96568178742E+02  0.13268480874E+03  0.00000000000E+00 0. -1.
</event>
<event>
 7    1  0.5194496E-006  0.6212400E+02  0.7818608E-02  0.1398601E+00
          2   -1    0    0  502    0  0.00000000000E+00  0.00000000000E+00  0.85149516572E+03  0.85149516572E+03  0.00000000000E+00 0. -1.
          1   -1    0    0  501    0 -0.00000000000E+00 -0.00000000000E+00 -0.22714855619E+03  0.22714855619E+03  0.00000000000E+00 0. -1.
         25    2    1    2    0    0 -0.77857412242E+01 -0.24787676226E+02 -0.77906267709E+02  0.14956562038E+03  0.12500176636E+03 0.  0.
          2    1    1    2  501    0 -0.54568324343E+02  0.18427873520E+02 -0.10480590438E+03  0.11958915560E+03  0.00000000000E+00 0. -1.
          1    1    1    2  502    0  0.62354065567E+02  0.63598027052E+01  0.80705878162E+03  0.80948894592E+03  0.00000000000E+00 0. -1.
         22    1    3    3    0    0 -0.21622302209E+02 -0.29477585303E+02  0.25857793978E+02  0.44778091713E+02  0.00000000000E+00 0.  1.
         22    1    3    3    0    0  0.13836560984E+02  0.46899090771E+01 -0.10376406169E+03  0.10478752867E+03  0.00000000000E+00 0.  1.
</event>
<event>
 7    1  0.5194496E-006  0.7701103E+02  0.7818608E-02  0.1443707E+00
          2   -1    0    0  502    0  0.00000000000E+00  0.00000000000E+00  0.47562155222E+03  0.47562155222E+03  0.00000000000E+00 0. -1.
          1   -1    0    0  501    0 -0.00000000000E+00 -0.00000000000E+00 -0.72780119408E+03  0.72780119408E+03  0.00000000000E+00 0. -1.
         25    2    1    2    0    0  0.26380139093E+02  0.74382924880E+02 -0.35690096191E+03  0.38630486366E+03  0.12499767926E+03 0.  0.
          2    1    1    2  501    0  0.63044322601E+01 -0.77766536122E+02 -0.35132758572E+03  0.35988672176E+03  0.00000000000E+00 0. -1.
          1    1    1    2  502    0 -0.32684571353E+02  0.33836112419E+01  0.45604890577E+03  0.45723116088E+03  0.00000000000E+00 0. -1.
         22    1    3    3    0    0 -0.37514946403E+02 -0.86127320014E+00 -0.42130240588E+02  0.56418704054E+02  0.00000000000E+00 0. -1.
         22    1    3    3    0    0  0.63895085496E+02  0.75244198080E+02 -0.31477072133E+03  0.32988615961E+03  0.00000000000E+00 0. -1.
</event>
<event>
 7    1  0.5194496E-006  0.8656061E+02  0.7818608E-02  0.1361800E+00
          2   -1    0    0  502    0  0.00000000000E+00  0.00000000000E+00  0.80152014289E+03  0.80152014289E+03  0.00000000000E+00 0. -1.
          1   -1    0    0  501    0 -0.00000000000E+00 -0.00000000000E+00 -0.15884815023E+04  0.15884815023E+04  0.00000000000E+00 0. -1.
         25    2    1    2    0    0  0.30148928531E+02 -0.33733957077E+02  0.14437635597E+03  0.19625600528E+03  0.12499979878E+03 0.  0.
          2    1    1    2  501    0 -0.56467272732E+01 -0.55516465713E+02 -0.15586469648E+04  0.15596455765E+04  0.00000000000E+00 0. -1.
          1    1    1    2  502    0 -0.24502201257E+02  0.89250422790E+02  0.62730924948E+03  0.63410006333E+03  0.00000000000E+00 0. -1.
         22    1    3    3    0    0  0.29754867193E+02  0.11371524353E+02  0.14763399546E+03  0.15103132226E+03  0.00000000000E+00 0. -1.
         22    1    3    3    0    0  0.39406133775E+00 -0.45105481430E+02 -0.32576394914E+01  0.45224683021E+02  0.00000000000E+00 0. -1.
</event>
<event>
 7    1  0.5194496E-006  0.1040417E+03  0.7818608E-02  0.1465933E+00
          2   -1    0    0  502    0  0.00000000000E+00  0.00000000000E+00  0.38194078654E+02  0.38194078654E+02  0.00000000000E+00 0. -1.
          1   -1    0    0  501    0 -0.00000000000E+00 -0.00000000000E+00 -0.19727864581E+04  0.19727864581E+04  0.00000000000E+00 0. -1.
         25    2    1    2    0    0  0.67173864354E+01  0.10875114024E+03 -0.10611141955E+04  0.10739929429E+04  0.12500228658E+03 0.  0.
          2    1    1    2  501    0 -0.19843089248E+02 -0.57927874803E+01 -0.81994138302E+03  0.82020191183E+03  0.00000000000E+00 0. -1.
          1    1    1    2  502    0  0.13125702813E+02 -0.10295835276E+03 -0.53536800896E+02  0.11678568203E+03  0.00000000000E+00 0. -1.
         22    1    3    3    0    0 -0.30303820663E+02  0.12260440563E+03 -0.81012002274E+03  0.81990524640E+03  0.00000000000E+00 0. -1.
         22    1    3    3    0    0  0.37021207098E+02 -0.13853265393E+02 -0.25099417275E+03  0.25408769646E+03  0.00000000000E+00 0. -1.
</event>
<event>
 7    1  0.5194496E-006  0.1287102E+03  0.7818608E-02  0.1351318E+00
          2   -1    0    0  502    0  0.00000000000E+00  0.00000000000E+00  0.85615048835E+03  0.85615048835E+03  0.00000000000E+00 0. -1.
          1   -1    0    0  501    0 -0.00000000000E+00 -0.00000000000E+00 -0.38240609615E+03  0.38240609615E+03  0.00000000000E+00 0. -1.
         25    2    1    2    0    0 -0.12417784081E+03 -0.79827350141E+02  0.29629688412E+03  0.35385178013E+03  0.12500678695E+03 0.  0.
          2    1    1    2  501    0  0.12217233304E+03  0.38873498067E+02 -0.34117241864E+03  0.36446652391E+03  0.00000000000E+00 0. -1.
          1    1    1    2  502    0  0.20055077695E+01  0.40953852074E+02  0.51861992673E+03  0.52023828047E+03  0.00000000000E+00 0. -1.
         22    1    3    3    0    0 -0.10113512460E+03 -0.87882729733E+02  0.30056067013E+03  0.32907203473E+03  0.00000000000E+00 0.  1.
         22    1    3    3    0    0 -0.23042716206E+02  0.80553795917E+01 -0.42637860153E+01  0.24779745392E+02  0.00000000000E+00 0.  1.
</event>
<event>
 7    1  0.5194496E-006  0.4666535E+02  0.7818608E-02  0.1477470E+00
          2   -1    0    0  502    0  0.00000000000E+00  0.00000000000E+00  0.11225692709E+04  0.11225692709E+04  0.00000000000E+00 0. -1.
          1   -1    0    0  501    0 -0.00000000000E+00 -0.00000000000E+00 -0.93042586377E+03  0.93042586377E+03  0.00000000000E+00 0. -1.
         25    2    1    2    0    0  0.78191738114E+00 -0.57604326844E+00  0.48333575189E+03  0.49923932861E+03  0.12500205981E+03 0.  0.
          2    1    1    2  501    0 -0.92632601282E+01 -0.45736717023E+02 -0.92100462494E+03  0.92218608449E+03  0.00000000000E+00 0. -1.
          1    1    1    2  502    0  0.84813427471E+01  0.46312760291E+02  0.62981228021E+03  0.63156972160E+03  0.00000000000E+00 0. -1.
         22    1    3    3    0    0 -0.55842362176E+02  0.51466400148E+01  0.34698623740E+03  0.35148870005E+03  0.00000000000E+00 0.  1.
         22    1    3    3    0    0  0.56624279557E+02 -0.57226832832E+01  0.13634951449E+03  0.14775062856E+03  0.00000000000E+00 0.  1.
</event>
<event>
 7    1  0.5194496E-006  0.1363870E+03  0.7818608E-02  0.1367171E+00
          2   -1    0    0  502    0  0.00000000000E+00  0.00000000000E+00  0.39951143652E+03  0.39951143652E+03  0.00000000000E+00 0. -1.
          1   -1    0    0  501    0 -0.00000000000E+00 -0.00000000000E+00 -0.82589077995E+03  0.82589077995E+03  0.00000000000E+00 0. -1.
         25    2    1    2    0    0 -0.93256538020E+02  0.13881637804E+03 -0.25827534402E+03  0.33212564337E+03  0.12503807805E+03 0.  0.
          2    1    1    2  501    0  0.10174728168E+02 -0.32298822133E+02 -0.51753547390E+03  0.51864217505E+03  0.00000000000E+00 0. -1.
          1    1    1    2  502    0  0.83081809851E+02 -0.10651755591E+03  0.34943147448E+03  0.37463439805E+03  0.00000000000E+00 0. -1.
         22    1    3    3    0    0 -0.84873286189E+02  0.16192667583E+03 -0.21379855621E+03  0.28130685326E+03  0.00000000000E+00 0.  1.
         22    1    3    3    0    0 -0.83832518304E+01 -0.23110297787E+02 -0.44476787804E+02  0.50818790112E+02  0.00000000000E+00 0.  1.
</event>
<event>
 7    1  0.5194496E-006  0.2900505E+02  0.7818608E-02  0.1651338E+00
          2   -1    0    0  502    0  0.00000000000E+00  0.00000000000E+00  0.13099113464E+04  0.13099113464E+04  0.00000000000E+00 0. -1.
          1   -1    0    0  501    0 -0.00000000000E+00 -0.00000000000E+00 -0.23988117875E+02  0.23988117875E+02  0.00000000000E+00 0. -1.
         25    2    1    2    0    0 -0.84679799744E+01  0.20554649101E+01  0.26049272416E+03  0.28906285952E+03  0.12499978317E+03 0.  0.
          2    1    1    2  501    0  0.30796007651E+02  0.22898920010E+01  0.15324138731E+02  0.34474148583E+02  0.00000000000E+00 0. -1.
          1    1    1    2  502    0 -0.22328027677E+02 -0.43453569111E+01  0.10101063656E+04  0.10103624561E+04  0.00000000000E+00 0. -1.
         22    1    3    3    0    0 -0.80799004182E+01 -0.14260806954E+02 -0.92541336704E+01  0.18822709575E+02  0.00000000000E+00 0.  1.
         22    1    3    3    0    0 -0.38807955624E+00  0.16316271864E+02  0.26974685783E+03  0.27024014994E+03  0.00000000000E+00 0.  1.
</event>
<event>
 7    1  0.5194496E-006  0.9590836E+02  0.7818608E-02  0.1289772E+00
          2   -1    0    0  502    0  0.00000000000E+00  0.00000000000E+00  0.32898758134E+03  0.32898758134E+03  0.00000000000E+00 0. -1.
          1   -1    0    0  501    0 -0.00000000000E+00 -0.00000000000E+00 -0.39853472763E+03  0.39853472763E+03  0.00000000000E+00 0. -1.
         25    2    1    2    0    0  0.61929377943E+01 -0.10018762719E+03  0.85470862479E+02  0.18167923014E+03  0.12500464475E+03 0.  0.
          2    1    1    2  501    0 -0.88684940310E+02  0.35008702172E+02 -0.32901406480E+03  0.34255055496E+03  0.00000000000E+00 0. -1.
          1    1    1    2  502    0  0.82492002516E+02  0.65178925018E+02  0.17399605604E+03  0.20329252387E+03  0.00000000000E+00 0. -1.
         22    1    3    3    0    0  0.39830412543E+02  0.83089897433E+01  0.20370149951E+01  0.40738808328E+02  0.00000000000E+00 0. -1.
         22    1    3    3    0    0 -0.33637474749E+02 -0.10849661693E+03  0.83433847484E+02  0.14094042181E+03  0.00000000000E+00 0. -1.
</event>
<event>
 7    1  0.5194496E-006  0.7129727E+02  0.7818608E-02  0.1400291E+00
          2   -1    0    0  502    0  0.00000000000E+00  0.00000000000E+00  0.13099833473E+04  0.13099833473E+04  0.00000000000E+00 0. -1.
          1   -1    0    0  501    0 -0.00000000000E+00 -0.00000000000E+00 -0.94682421686E+03  0.94682421686E+03  0.00000000000E+00 0. -1.
         25    2    1    2    0    0 -0.19768442765E+02 -0.24312949047E+02  0.86011343314E+02  0.15493322874E+03  0.12499777345E+03 0.  0.
          2    1    1    2  501    0 -0.49477219739E+02  0.20080072803E+01 -0.91057761421E+03  0.91192303341E+03  0.00000000000E+00 0. -1.
          1    1    1    2  502    0  0.69245662504E+02  0.22304941766E+02  0.11877254014E+04  0.11899513021E+04  0.00000000000E+00 0. -1.
         22    1    3    3    0    0 -0.44518599360E+02 -0.44708159920E+02  0.10134929617E+03  0.11938343724E+03  0.00000000000E+00 0. -1.
         22    1    3    3    0    0  0.24750156595E+02  0.20395210873E+02 -0.15337952854E+02  0.35549791501E+02  0.00000000000E+00 0. -1.
</event>
<event>
 7    1  0.5194496E-006  0.1072521E+03  0.7818608E-02  0.1341483E+00
          2   -1    0    0  502    0  0.00000000000E+00  0.00000000000E+00  0.46008826055E+03  0.46008826055E+03  0.00000000000E+00 0. -1.
          1   -1    0    0  501    0 -0.00000000000E+00 -0.00000000000E+00 -0.38939401337E+03  0.38939401337E+03  0.00000000000E+00 0. -1.
         25    2    1    2    0    0  0.13780720181E+03 -0.60149967958E+02 -0.97114035827E+02  0.21832471715E+03  0.12500281056E+03 0.  0.
          2    1    1    2  501    0 -0.84812939905E+02  0.52537657916E+02 -0.21900396860E+03  0.24065780382E+03  0.00000000000E+00 0. -1.
          1    1    1    2  502    0 -0.52994261903E+02  0.76123100424E+01  0.38681225162E+03  0.39049975296E+03  0.00000000000E+00 0. -1.
         22    1    3    3    0    0  0.10961180321E+03 -0.74366354388E+02 -0.18674379805E+02  0.13376783817E+03  0.00000000000E+00 0. -1.
         22    1    3    3    0    0  0.28195398598E+02  0.14216386430E+02 -0.78439656023E+02  0.84556878976E+02  0.00000000000E+00 0. -1.
</event>
<event>
 7    1  0.5194496E-006  0.7656166E+02  0.7818608E-02  0.1373069E+00
          2   -1    0    0  502    0  0.00000000000E+00  0.00000000000E+00  0.59477181516E+03  0.59477181516E+03  0.00000000000E+00 0. -1.
          1   -1    0    0  501    0 -0.00000000000E+00 -0.00000000000E+00 -0.20107855153E+04  0.20107855153E+04  0.00000000000E+00 0. -1.
         25    2    1    2    0    0 -0.51022465642E+01 -0.21941644052E+02 -0.15733981920E+04  0.15785166541E+04  0.12500195229E+03 0.  0.
          2    1    1    2  501    0  0.23281017253E+02 -0.52522286985E+02 -0.43043125551E+03  0.43424838758E+03  0.00000000000E+00 0. -1.
          1    1    1    2  502    0 -0.18178770689E+02  0.74463931037E+02  0.58781574738E+03  0.59279228875E+03  0.00000000000E+00 0. -1.
         22    1    3    3    0    0 -0.70758338821E+01  0.21936212223E+02 -0.13800468014E+04  0.13802392687E+04  0.00000000000E+00 0.  1.
         22    1    3    3    0    0  0.19735873179E+01 -0.43877856275E+02 -0.19335139065E+03  0.19827738546E+03  0.00000000000E+00 0.  1.
</event>
<event>
 7    1  0.5194496E-006  0.4153767E+02  0.7818608E-02  0.1516812E+00
          2   -1    0    0  502    0  0.00000000000E+00  0.00000000000E+00  0.12324759849E+03  0.12324759849E+03  0.00000000000E+00 0. -1.
          1   -1    0    0  501    0 -0.00000000000E+00 -0.00000000000E+00 -0.24867268612E+03  0.24867268612E+03  0.00000000000E+00 0. -1.
         25    2    1    2    0    0  0.36265007397E+02 -0.25473535718E+02 -0.58367869152E+02  0.14487979065E+03  0.12497717314E+03 0.  0.
          2    1    1    2  501    0 -0.41063963970E+02 -0.10553528395E+02 -0.13960304533E+03  0.14589940495E+03  0.00000000000E+00 0. -1.
          1    1    1    2  502    0  0.47989565726E+01  0.36027064112E+02  0.72545826854E+02  0.81141089016E+02  0.00000000000E+00 0. -1.
         22    1    3    3    0    0  0.49110099212E+01 -0.39985780452E+02  0.29848576111E+02  0.50138988349E+02  0.00000000000E+00 0.  1.
         22    1    3    3    0    0  0.31353997476E+02  0.14512244734E+02 -0.88216445264E+02  0.94740802297E+02  0.00000000000E+00 0.  1.
</event>
<event>
 7    1  0.5194496E-006  0.4992644E+02  0.7818608E-02  0.1485161E+00
          2   -1    0    0  502    0  0.00000000000E+00  0.00000000000E+00  0.10600372065E+04  0.10600372065E+04  0.00000000000E+00 0. -1.
          1   -1    0    0  501    0 -0.00000000000E+00 -0.00000000000E+00 -0.58936239542E+02  0.58936239542E+02  0.00000000000E+00 0. -1.
         25    2    1    2    0    0 -0.49717193353E+02 -0.38439952060E+02  0.22662977823E+03  0.26633983167E+03  0.12500568117E+03 0.  0.
          2    1    1    2  501    0 -0.16352829190E+00  0.37574176417E+02 -0.29093784823E+02  0.47521508712E+02  0.00000000000E+00 0. -1.
          1    1    1    2  502    0  0.49880721645E+02  0.86577564281E+00  0.80356497360E+03  0.80511210570E+03  0.00000000000E+00 0. -1.
         22    1    3    3    0    0  0.25684360317E+02  0.26617958133E+02  0.37973750847E+02  0.53011393242E+02  0.00000000000E+00 0.  1.
         22    1    3    3    0    0 -0.75401553671E+02 -0.65057910193E+02  0.18865602738E+03  0.21332843843E+03  0.00000000000E+00 0.  1.
</event>
<event>
 7    1  0.5194496E-006  0.3081175E+02  0.7818608E-02  0.1591693E+00
          2   -1    0    0  502    0  0.00000000000E+00  0.00000000000E+00  0.15341223690E+03  0.15341223690E+03  0.00000000000E+00 0. -1.
          1   -1    0    0  501    0 -0.00000000000E+00 -0.00000000000E+00 -0.19483713168E+03  0.19483713168E+03  0.00000000000E+00 0. -1.
         25    2    1    2    0    0  0.17434895074E+02 -0.32176468117E+02 -0.80703200901E+02  0.15321959110E+03  0.12499574311E+03 0.  0.
          2    1    1    2  501    0  0.13106910661E+02  0.28106815321E+02 -0.72621077082E+02  0.78965847118E+02  0.00000000000E+00 0. -1.
          1    1    1    2  502    0 -0.30541805735E+02  0.40696527964E+01  0.11189938320E+03  0.11606393037E+03  0.00000000000E+00 0. -1.
         22    1    3    3    0    0 -0.44680122041E+02  0.10966040348E+01  0.17878057294E+01  0.44729320309E+02  0.00000000000E+00 0. -1.
         22    1    3    3    0    0  0.62115017115E+02 -0.33273072152E+02 -0.82491006631E+02  0.10849027079E+03  0.00000000000E+00 0. -1.
</event>
<event>
 7    1  0.5194496E-006  0.9694624E+02  0.7818608E-02  0.1439130E+00
          2   -1    0    0  502    0  0.00000000000E+00  0.00000000000E+00  0.20032456285E+03  0.20032456285E+03  0.00000000000E+00 0. -1.
          1   -1    0    0  501    0 -0.00000000000E+00 -0.00000000000E+00 -0.16086126491E+03  0.16086126491E+03  0.00000000000E+00 0. -1.
         25    2    1    2    0    0 -0.56448813245E+02  0.90644296378E+02  0.91410775400E+02  0.18810553112E+03  0.12499961598E+03 0.  0.
          2    1    1    2  501    0  0.68883531003E+02 -0.66668305089E+02 -0.86571854421E+02  0.12916768065E+03  0.00000000000E+00 0. -1.
          1    1    1    2  502    0 -0.12434717758E+02 -0.23975991289E+02  0.34624376953E+02  0.43912615994E+02  0.00000000000E+00 0. -1.
         22    1    3    3    0    0 -0.87273932412E+02  0.77773000122E+02  0.34101548317E+02  0.12177148445E+03  0.00000000000E+00 0.  1.
         22    1    3    3    0    0  0.30825119167E+02  0.12871296256E+02  0.57309227083E+02  0.66334046671E+02  0.00000000000E+00 0.  1.
</event>
<event>
 7    1  0.5194496E-006  0.1355785E+03  0.7818608E-02  0.1299233E+00
          2   -1    0    0  502    0  0.00000000000E+00  0.00000000000E+00  0.11164300783E+04  0.11164300783E+04  0.00000000000E+00 0. -1.
          1   -1    0    0  501    0 -0.00000000000E+00 -0.00000000000E+00 -0.45521799914E+02  0.45521799914E+02  0.00000000000E+00 0. -1.
         25    2    1    2    0    0 -0.97251352564E+02 -0.73432476351E+02  0.22743127041E+03  0.28670522947E+03  0.12499900674E+03 0.  0.
          2    1    1    2  501    0  0.10527963503E+03  0.13467567734E+03  0.58286423151E+03  0.60741423427E+03  0.00000000000E+00 0. -1.
          1    1    1    2  502    0 -0.80282824620E+01 -0.61243200985E+02  0.26061277642E+03  0.26783241443E+03  0.00000000000E+00 0. -1.
         22    1    3    3    0    0 -0.94021114984E+02 -0.10539499726E+03  0.17116039800E+03  0.22190979553E+03  0.00000000000E+00 0.  1.
         22    1    3    3    0    0 -0.32302375800E+01  0.31962520906E+02  0.56270872411E+02  0.64795433939E+02  0.00000000000E+00 0.  1.
</event>
<event>
 7    1  0.5194496E-006  0.8844959E+02  0.7818608E-02  0.1428284E+00
          2   -1    0    0  502    0  0.00000000000E+00  0.00000000000E+00  0.50404937643E+02  0.50404937643E+02  0.00000000000E+00 0. -1.
          1   -1    0    0  501    0 -0.00000000000E+00 -0.00000000000E+00 -0.10043699512E+04  0.10043699512E+04  0.00000000000E+00 0. -1.
         25    2    1    2    0    0 -0.34341089438E+02 -0.66084785857E+02 -0.16311945060E+03  0.21858626204E+03  0.12500195775E+03 0.  0.
          2    1    1    2  501    0 -0.31684872444E+02 -0.53061745875E+01 -0.70717495460E+03  0.70790430359E+03  0.00000000000E+00 0. -1.
          1    1    1    2  502    0  0.66025961881E+02  0.71390960445E+02 -0.83670608314E+02  0.12828432317E+03  0.00000000000E+00 0. -1.
         22    1    3    3    0    0 -0.46532120729E+02 -0.72247980469E+02 -0.40136498353E+02  0.94846968541E+02  0.00000000000E+00 0. -1.
         22    1    3    3    0    0  0.12191031291E+02  0.61631946116E+01 -0.12298295224E+03  0.12373929349E+03  0.00000000000E+00 0. -1.
</event>
<event>
 7    1  0.5194496E-006  0.4703302E+02  0.7818608E-02  0.1483191E+00
          2   -1    0    0  502    0  0.00000000000E+00  0.00000000000E+00  0.23112171391E+03  0.23112171391E+03  0.00000000000E+00 0. -1.
          1   -1    0    0  501    0 -0.00000000000E+00 -0.00000000000E+00 -0.22829650055E+04  0.22829650055E+04  0.00000000000E+00 0. -1.
         25    2    1    2    0    0  0.79605642949E+01 -0.37648513514E+02 -0.56305795936E+03  0.57804537681E+03  0.12498564276E+03 0.  0.
          2    1    1    2  501    0 -0.40302719884E+02  0.33501611079E+01 -0.17096870805E+04  0.17101653271E+04  0.00000000000E+00 0. -1.
          1    1    1    2  502    0  0.32342155589E+02  0.34298352406E+02  0.22090174825E+03  0.22587601552E+03  0.00000000000E+00 0. -1.
         22    1    3    3    0    0  0.33735784120E+02  0.12011192351E+02 -0.45458034187E+03  0.45598866114E+03  0.00000000000E+00 0. -1.
         22    1    3    3    0    0 -0.25775219825E+02 -0.49659705865E+02 -0.10847761748E+03  0.12205671566E+03  0.00000000000E+00 0. -1.
</event>
<event>
 7    1  0.5194496E-006  0.1830587E+03  0.7818608E-02  0.1287700E+00
          2   -1    0    0  502    0  0.00000000000E+00  0.00000000000E+00  0.27151677071E+04  0.27151677071E+04  0.00000000000E+00 0. -1.
          1   -1    0    0  501    0 -0.00000000000E+00 -0.00000000000E+00 -0.52221471507E+03  0.52221471507E+03  0.00000000000E+00 0. -1.
         25    2    1    2    0    0 -0.79083321160E+02  0.16090571832E+03 -0.84346355630E+02  0.23427541989E+03  0.12500337109E+03 0.  0.
          2    1    1    2  501    0 -0.44205051427E+02 -0.25301313429E+02 -0.35791820805E+03  0.36152411633E+03  0.00000000000E+00 0. -1.
          1    1    1    2  502    0  0.12328837259E+03 -0.13560440489E+03  0.26352175557E+04  0.26415828859E+04  0.00000000000E+00 0. -1.
         22    1    3    3    0    0  0.19924379021E+02  0.22123353763E+01  0.12520167693E+02  0.23635352890E+02  0.00000000000E+00 0.  1.
         22    1    3    3    0    0 -0.99007700181E+02  0.15869338294E+03 -0.96866523322E+02  0.21064006700E+03  0.00000000000E+00 0.  1.
</event>
<event>
 7    1  0.5194496E-006  0.9245629E+02  0.7818608E-02  0.1319131E+00
          2   -1    0    0  502    0  0.00000000000E+00  0.00000000000E+00  0.24539307096E+03  0.24539307096E+03  0.00000000000E+00 0. -1.
          1   -1    0    0  501    0 -0.00000000000E+00 -0.00000000000E+00 -0.17272687758E+04  0.17272687758E+04  0.00000000000E+00 0. -1.
         25    2    1    2    0    0  0.25122127937E+02  0.16446676400E+03 -0.51663320456E+03  0.55696321098E+03  0.12497084685E+03 0.  0.
          2    1    1    2  501    0 -0.56705068178E+01 -0.75381481184E+02 -0.11799822203E+04  0.11824011851E+04  0.00000000000E+00 0. -1.
          1    1    1    2  502    0 -0.19451621119E+02 -0.89085282818E+02  0.21473971996E+03  0.23329745071E+03  0.00000000000E+00 0. -1.
         22    1    3    3    0    0 -0.47960528707E+02  0.76064862908E+02 -0.27828279646E+03  0.29245066334E+03  0.00000000000E+00 0. -1.
         22    1    3    3    0    0  0.73082656644E+02  0.88401901094E+02 -0.23835040810E+03  0.26451254765E+03  0.00000000000E+00 0. -1.
</event>
<event>
 7    1  0.5194496E-006  0.6177084E+02  0.7818608E-02  0.1400935E+00
          2   -1    0    0  502    0  0.00000000000E+00  0.00000000000E+00  0.77917245080E+03  0.77917245080E+03  0.00000000000E+00 0. -1.
          1   -1    0    0  501    0 -0.00000000000E+00 -0.00000000000E+00 -0.14855074710E+03  0.14855074710E+03  0.00000000000E+00 0. -1.
         25    2    1    2    0    0 -0.65316133890E+02 -0.83982162626E+02  0.32259949265E+03  0.36195909445E+03  0.12499900965E+03 0.  0.
          2    1    1    2  501    0  0.49362660313E+02  0.28228747440E+02 -0.12054878600E+03  0.13328744960E+03  0.00000000000E+00 0. -1.
          1    1    1    2  502    0  0.15953473577E+02  0.55753415186E+02  0.42857099704E+03  0.43247665385E+03  0.00000000000E+00 0. -1.
         22    1    3    3    0    0 -0.10252374814E+02  0.32671696798E+02  0.84216542101E+02  0.90911918495E+02  0.00000000000E+00 0. -1.
         22    1    3    3    0    0 -0.55063759076E+02 -0.11665385942E+03  0.23838295055E+03  0.27104717596E+03  0.00000000000E+00 0. -1.
</event>
<event>
 7    1  0.5194496E-006  0.1942445E+03  0.7818608E-02  0.1211033E+00
          2   -1    0    0  502    0  0.00000000000E+00  0.00000000000E+00  0.16996296462E+04  0.16996296462E+04  0.00000000000E+00 0. -1.
          1   -1    0    0  501    0 -0.00000000000E+00 -0.00000000000E+00 -0.12225787240E+04  0.12225787240E+04  0.00000000000E+00 0. -1.
         25    2    1    2    0    0  0.18606592299E+03 -0.18815669591E+03  0.75546612496E+03  0.81017126267E+03  0.12499975593E+03 0.  0.
          2    1    1    2  501    0 -0.95772704289E+02  0.38971807469E+02 -0.11846617870E+04  0.11891655739E+04  0.00000000000E+00 0. -1.
          1    1    1    2  502    0 -0.90293218698E+02  0.14918488844E+03  0.90624658415E+03  0.92287153361E+03  0.00000000000E+00 0. -1.
         22    1    3    3    0    0 -0.10308766749E+02 -0.24371968431E+02  0.25649442759E+02  0.36853187527E+02  0.00000000000E+00 0.  1.
         22    1    3    3    0    0  0.19637468974E+03 -0.16378472748E+03  0.72981668220E+03  0.77331807514E+03  0.00000000000E+00 0.  1.
</event>
<event>
 7    1  0.5194496E-006  0.9616789E+02  0.7818608E-02  0.1379347E+00
          2   -1    0    0  502    0  0.00000000000E+00  0.00000000000E+00  0.18090335560E+04  0.18090335560E+04  0.00000000000E+00 0. -1.
          1   -1    0    0  501    0 -0.00000000000E+00 -0.00000000000E+00 -0.47551887993E+02  0.47551887993E+02  0.00000000000E+00 0. -1.
         25    2    1    2    0    0 -0.40445483323E+02 -0.39432382077E+02  0.17368491019E+03  0.22130030134E+03  0.12496649738E+03 0.  0.
          2    1    1    2  501    0 -0.20387198998E+02 -0.38361632437E+02 -0.96880606092E+00  0.43453323365E+02  0.00000000000E+00 0. -1.
          1    1    1    2  502    0  0.60832682321E+02  0.77794014514E+02  0.15887655639E+04  0.15918318193E+04  0.00000000000E+00 0. -1.
         22    1    3    3    0    0 -0.76206331462E+02 -0.18216946713E+02  0.15890283297E+03  0.17717046150E+03  0.00000000000E+00 0.  1.
         22    1    3    3    0    0  0.35760848139E+02 -0.21215435364E+02  0.14782077218E+02  0.44129839839E+02  0.00000000000E+00 0.  1.
</event>
<event>
 7    1  0.5194496E-006  0.3758730E+02  0.7818608E-02  0.1577835E+00
          2   -1    0    0  502    0  0.00000000000E+00  0.00000000000E+00  0.12554387297E+04  0.12554387297E+04  0.00000000000E+00 0. -1.
          1   -1    0    0  501    0 -0.00000000000E+00 -0.00000000000E+00 -0.16516958236E+03  0.16516958236E+03  0.00000000000E+00 0. -1.
         25    2    1    2    0    0 -0.14385927013E+02 -0.47425178728E+02  0.23998547284E+02  0.13658868661E+03  0.12499774624E+03 0.  0.
          2    1    1    2  501    0  0.28464738666E+02  0.24270332402E+02 -0.10550014569E+03  0.11193556684E+03  0.00000000000E+00 0. -1.
          1    1    1    2  502    0 -0.14078811653E+02  0.23154846326E+02  0.11717707457E+04  0.11720840586E+04  0.00000000000E+00 0. -1.
         22    1    3    3    0    0 -0.31987462859E+02 -0.80033528622E+02 -0.94036108665E+01  0.86700584664E+02  0.00000000000E+00 0.  1.
         22    1    3    3    0    0  0.17601535846E+02  0.32608349893E+02  0.33402158150E+02  0.49888101948E+02  0.00000000000E+00 0.  1.
</event>
<event>
 7    1  0.5194496E-006  0.5152315E+02  0.7818608E-02  0.1514677E+00
          2   -1    0    0  502    0  0.00000000000E+00  0.00000000000E+00  0.14387190436E+04  0.14387190436E+04  0.00000000000E+00 0. -1.
          1   -1    0    0  501    0 -0.00000000000E+00 -0.00000000000E+00 -0.20972160400E+03  0.20972160400E+03  0.00000000000E+00 0. -1.
         25    2    1    2    0    0  0.77421647388E+02 -0.12554814972E+02  0.12516709991E+02  0.14810283453E+03  0.12500418674E+03 0.  0.
          2    1    1    2  501    0 -0.29260877757E+02 -0.52330353722E+01 -0.13988114931E+03  0.14300461376E+03  0.00000000000E+00 0. -1.
          1    1    1    2  502    0 -0.48160769631E+02  0.17787850345E+02  0.13563618790E+04  0.13573331994E+04  0.00000000000E+00 0. -1.
         22    1    3    3    0    0  0.50875021797E+02  0.13558211493E+02 -0.51751496710E+02  0.73826217250E+02  0.00000000000E+00 0. -1.
         22    1    3    3    0    0  0.26546625591E+02 -0.26113026466E+02  0.64268206700E+02  0.74276617276E+02  0.00000000000E+00 0. -1.
</event>
<event>
 7    1  0.5194496E-006  0.1015394E+03  0.7818608E-02  0.1289487E+00
          2   -1    0    0  502    0  0.00000000000E+00  0.00000000000E+00  0.58983015573E+03  0.58983015573E+03  0.00000000000E+00 0. -1.
          1   -1    0    0  501    0 -0.00000000000E+00 -0.00000000000E+00 -0.10359153603E+04  0.10359153603E+04  0.00000000000E+00 0. -1.
         25    2    1    2    0    0 -0.58888419183E+01 -0.12189233701E+02  0.10034364130E+03  0.16086311053E+03  0.12499935241E+03 0.  0.
          2    1    1    2  501    0  0.20354053134E+02  0.10132088365E+03 -0.99852400484E+03  0.10038577574E+04  0.00000000000E+00 0. -1.
          1    1    1    2  502    0 -0.14465211216E+02 -0.89131649945E+02  0.45209515897E+03  0.46102464806E+03  0.00000000000E+00 0. -1.
         22    1    3    3    0    0  0.44844584107E+02 -0.55579090590E+01  0.99957155507E+02  0.10969667276E+03  0.00000000000E+00 0. -1.
         22    1    3    3    0    0 -0.50733426026E+02 -0.66313246424E+01  0.38648578848E+00  0.51166437770E+02  0.00000000000E+00 0. -1.
</event>
<event>
 7    1  0.5194496E-006  0.6522038E+02  0.7818608E-02  0.1443029E+00
          2   -1    0    0  502    0  0.00000000000E+00  0.00000000000E+00  0.76401261894E+03  0.76401261894E+03  0.00000000000E+00 0. -1.
          1   -1    0    0  501    0 -0.00000000000E+00 -0.00000000000E+00 -0.11979681526E+04  0.11979681526E+04  0.00000000000E+00 0. -1.
         25    2    1    2    0    0 -0.50169465993E+02 -0.56053590682E+02  0.13020654090E+03  0.19555251269E+03  0.12501224571E+03 0.  0.
          2    1    1    2  501    0  0.12014660934E+02  0.64108855145E+02 -0.11637485792E+04  0.11655749881E+04  0.00000000000E+00 0. -1.
          1    1    1    2  502    0  0.38154805060E+02 -0.80552644632E+01  0.59958650461E+03  0.60085327073E+03  0.00000000000E+00 0. -1.
         22    1    3    3    0    0 -0.38417393862E+02  0.25021173194E+02  0.96747838186E+02  0.10706119490E+03  0.00000000000E+00 0. -1.
         22    1    3    3    0    0 -0.11752072132E+02 -0.81074763876E+02  0.33458702715E+02  0.88491317791E+02  0.00000000000E+00 0. -1.
</event>
<event>
 7    1  0.5194496E-006  0.4604424E+02  0.7818608E-02  0.1479453E+00
          2   -1    0    0  502    0  0.00000000000E+00  0.00000000000E+00  0.13516062044E+04  0.13516062044E+04  0.00000000000E+00 0. -1.
          1   -1    0    0  501    0 -0.00000000000E+00 -0.00000000000E+00 -0.30942286555E+03  0.30942286555E+03  0.00000000000E+00 0. -1.
         25    2    1    2    0    0  0.62506646261E+02 -0.54127345369E+02  0.16023941562E+03  0.21940536109E+03  0.12500076726E+03 0.  0.
          2    1    1    2  501    0 -0.20164807131E+02  0.37313018682E+02 -0.27778300743E+03  0.28100227762E+03  0.00000000000E+00 0. -1.
          1    1    1    2  502    0 -0.42341839130E+02  0.16814326687E+02  0.11597269307E+04  0.11606214313E+04  0.00000000000E+00 0. -1.
         22    1    3    3    0    0 -0.10856975212E+00 -0.49031432061E+02  0.19108994121E+01  0.49068774734E+02  0.00000000000E+00 0.  1.
         22    1    3    3    0    0  0.62615216013E+02 -0.50959133081E+01  0.15832851621E+03  0.17033658636E+03  0.00000000000E+00 0.  1.
</event>
<event>
 7    1  0.5194496E-006  0.1052420E+03  0.7818608E-02  0.1385798E+00
          2   -1    0    0  502    0  0.00000000000E+00  0.00000000000E+00  0.43729429057E+03  0.43729429057E+03  0.00000000000E+00 0. -1.
          1   -1    0    0  501    0 -0.00000000000E+00 -0.00000000000E+00 -0.78881406497E+03  0.78881406497E+03  0.00000000000E+00 0. -1.
         25    2    1    2    0    0 -0.17230296051E+02 -0.13485925125E+03  0.12383784544E+03  0.22236083457E+03  0.12499851214E+03 0.  0.
          2    1    1    2  501    0 -0.50768310857E+01  0.10450449020E+03 -0.73448331984E+03  0.74189804542E+03  0.00000000000E+00 0. -1.
          1    1    1    2  502    0  0.22307127136E+02  0.30354761059E+02  0.25912570000E+03  0.26184947554E+03  0.00000000000E+00 0. -1.
         22    1    3    3    0    0 -0.62260751806E+02 -0.27980907075E+02  0.38479666351E+02  0.78358261202E+02  0.00000000000E+00 0.  1.
         22    1    3    3    0    0  0.45030455755E+02 -0.10687834418E+03  0.85358179091E+02  0.14400257337E+03  0.00000000000E+00 0.  1.
</event>
<event>
 7    1  0.5194496E-006  0.4270963E+02  0.7818608E-02  0.1605584E+00
          2   -1    0    0  502    0  0.00000000000E+00  0.00000000000E+00  0.65324873511E+02  0.65324873511E+02  0.00000000000E+00 0. -1.
          1   -1    0    0  501    0 -0.00000000000E+00 -0.00000000000E+00 -0.97537552672E+03  0.97537552672E+03  0.00000000000E+00 0. -1.
         25    2    1    2    0    0  0.24741042431E+02  0.53649709474E+02 -0.31322334331E+03  0.34238090098E+03  0.12500163219E+03 0.  0.
          2    1    1    2  501    0 -0.25319941562E+02 -0.33512561508E+02 -0.64486353808E+03  0.64622996988E+03  0.00000000000E+00 0. -1.
          1    1    1    2  502    0  0.57889913173E+00 -0.20137147966E+02  0.48036228186E+02  0.52089529378E+02  0.00000000000E+00 0. -1.
         22    1    3    3    0    0  0.60928238437E+02 -0.10793288493E+02 -0.17535131088E+03  0.18594845399E+03  0.00000000000E+00 0. -1.
         22    1    3    3    0    0 -0.36187196006E+02  0.64442997967E+02 -0.13787203244E+03  0.15643244699E+03  0.00000000000E+00 0. -1.
</event>
<event>
 7    1  0.5194496E-006  0.1388043E+03  0.7818608E-02  0.1285247E+00
          2   -1    0    0  502    0  0.00000000000E+00  0.00000000000E+00  0.26582492381E+03  0.26582492381E+03  0.00000000000E+00 0. -1.
          1   -1    0    0  501    0 -0.00000000000E+00 -0.00000000000E+00 -0.73094282438E+03  0.73094282438E+03  0.00000000000E+00 0. -1.
         25    2    1    2    0    0 -0.72852264340E+02 -0.98857320068E+02 -0.58765227367E+03  0.61322217861E+03  0.12500409369E+03 0.  0.
          2    1    1    2  501    0  0.55924309277E+02 -0.39975066856E+02 -0.99617485551E+02  0.12103378770E+03  0.00000000000E+00 0. -1.
          1    1    1    2  502    0  0.16927955063E+02  0.13883238692E+03  0.22215185866E+03  0.26251178188E+03  0.00000000000E+00 0. -1.
         22    1    3    3    0    0  0.10831652349E+02 -0.38848630373E+01  0.58266763290E+00  0.11521994402E+02  0.00000000000E+00 0.  1.
         22    1    3    3    0    0 -0.83683916689E+02 -0.94972457030E+02 -0.58823494130E+03  0.60170018421E+03  0.00000000000E+00 0.  1.
</event>
<event>
 7    1  0.5194496E-006  0.6250286E+02  0.7818608E-02  0.1433847E+00
          2   -1    0    0  502    0  0.00000000000E+00  0.00000000000E+00  0.69512054814E+03  0.69512054814E+03  0.00000000000E+00 0. -1.
          1   -1    0    0  501    0 -0.00000000000E+00 -0.00000000000E+00 -0.17213127133E+03  0.17213127133E+03  0.00000000000E+00 0. -1.
         25    2    1    2    0    0  0.50324890206E+01 -0.19394027846E+02  0.93626069440E+00  0.12659655255E+03  0.12499742506E+03 0.  0.
          2    1    1    2  501    0  0.80948770779E+01 -0.42829673933E+02 -0.10327783634E+03  0.11209915023E+03  0.00000000000E+00 0. -1.
          1    1    1    2  502    0 -0.13127366099E+02  0.62223701780E+02  0.62533085245E+03  0.62855611669E+03  0.00000000000E+00 0. -1.
         22    1    3    3    0    0  0.64946229786E+02 -0.13937683321E+02  0.11306860841E+01  0.66434555999E+02  0.00000000000E+00 0.  1.
         22    1    3    3    0    0 -0.59913740765E+02 -0.54563445251E+01 -0.19442538972E+00  0.60161996553E+02  0.00000000000E+00 0.  1.
</event>
<event>
 7    1  0.5194496E-006  0.3151232E+02  0.7818608E-02  0.1621864E+00
          2   -1    0    0  502    0  0.00000000000E+00  0.00000000000E+00  0.17175723150E+04  0.17175723150E+04  0.00000000000E+00 0. -1.
          1   -1    0    0  501    0 -0.00000000000E+00 -0.00000000000E+00 -0.54280793627E+02  0.54280793627E+02  0.00000000000E+00 0. -1.
         25    2    1    2    0    0  0.40521648581E+02  0.38695790081E+02  0.26790608728E+03  0.30089570448E+03  0.12500074078E+03 0.  0.
          2    1    1    2  501    0 -0.18520579003E+02 -0.16491179901E+02 -0.33527789886E+02  0.41702320748E+02  0.00000000000E+00 0. -1.
          1    1    1    2  502    0 -0.22001069578E+02 -0.22204610180E+02  0.14289132239E+04  0.14292550834E+04  0.00000000000E+00 0. -1.
         22    1    3    3    0    0  0.17969868445E+02  0.53241059060E+02  0.26823557548E+03  0.27405811518E+03  0.00000000000E+00 0.  1.
         22    1    3    3    0    0  0.22551780137E+02 -0.14545268979E+02 -0.32948819583E+00  0.26837589301E+02  0.00000000000E+00 0.  1.
</event>
<event>
 7    1  0.5194496E-006  0.1264658E+03  0.7818608E-02  0.1234187E+00
          2   -1    0    0  502    0  0.00000000000E+00  0.00000000000E+00  0.14856836192E+03  0.14856836192E+03  0.00000000000E+00 0. -1.
          1   -1    0    0  501    0 -0.00000000000E+00 -0.00000000000E+00 -0.18785973670E+04  0.18785973670E+04  0.00000000000E+00 0. -1.
         25    2    1    2    0    0 -0.76818216529E+02  0.16750483011E+02 -0.69531522131E+03  0.71082348264E+03  0.12500059768E+03 0.  0.
          2    1    1    2  501    0  0.60472769359E+02  0.11107041103E+03 -0.11418064223E+04  0.11487887090E+04  0.00000000000E+00 0. -1.
          1    1    1    2  502    0  0.16345447170E+02 -0.12782089405E+03  0.10709263856E+03  0.16755353721E+03  0.00000000000E+00 0. -1.
         22    1    3    3    0    0 -0.92764508702E+02 -0.25968879029E+02 -0.37028224701E+03  0.38260760474E+03  0.00000000000E+00 0. -1.
         22    1    3    3    0    0  0.15946292174E+02  0.42719362040E+02 -0.32503297429E+03  0.32821587790E+03  0.00000000000E+00 0. -1.
</event>
<event>
 7    1  0.5194496E-006  0.4315068E+02  0.7818608E-02  0.1552712E+00
          2   -1    0    0  502    0  0.00000000000E+00  0.00000000000E+00  0.49737422704E+03  0.49737422704E+03  0.00000000000E+00 0. -1.
          1   -1    0    0  501    0 -0.00000000000E+00 -0.00000000000E+00 -0.98631306673E+02  0.98631306673E+02  0.00000000000E+00 0. -1.
         25    2    1    2    0    0 -0.14339996238E+02 -0.20414934794E+02  0.34387399863E+03  0.36673830133E+03  0.12500099869E+03 0.  0.
          2    1    1    2  501    0 -0.25053092928E+02 -0.11698078991E+02 -0.80263939288E+02  0.84892888202E+02  0.00000000000E+00 0. -1.
          1    1    1    2  502    0  0.39393089166E+02  0.32113013785E+02  0.13513286103E+03  0.14437434418E+03  0.00000000000E+00 0. -1.
         22    1    3    3    0    0 -0.13349579714E+01 -0.12728292588E+02  0.35014703171E+03  0.35038084331E+03  0.00000000000E+00 0. -1.
         22    1    3    3    0    0 -0.13005038267E+02 -0.76866422063E+01 -0.62730330820E+01  0.16357458017E+02  0.00000000000E+00 0. -1.
</event>
<event>
 7    1  0.5194496E-006  0.4326144E+02  0.7818608E-02  0.1491445E+00
          2   -1    0    0  502    0  0.00000000000E+00  0.00000000000E+00  0.19648108856E+03  0.19648108856E+03  0.00000000000E+00 0. -1.
          1   -1    0    0  501    0 -0.00000000000E+00 -0.00000000000E+00 -0.53100298555E+03  0.53100298555E+03  0.00000000000E+00 0. -1.
         25    2    1    2    0    0  0.19855254031E+02  0.45613319409E+02  0.90499123247E+02  0.16213837540E+03  0.12499582172E+03 0.  0.
          2    1    1    2  501    0 -0.41102646977E+02 -0.57406792430E+01 -0.48693457468E+03  0.48869997238E+03  0.00000000000E+00 0. -1.
          1    1    1    2  502    0  0.21247392946E+02 -0.39872640166E+02  0.61913554439E+02  0.76645726327E+02  0.00000000000E+00 0. -1.
         22    1    3    3    0    0  0.56277434162E+01  0.91302145064E+00  0.11085554722E+03  0.11100206058E+03  0.00000000000E+00 0. -1.
         22    1    3    3    0    0  0.14227510615E+02  0.44700297959E+02 -0.20356423975E+02  0.51136314816E+02  0.00000000000E+00 0. -1.
</event>
<event>
 7    1  0.5194496E-006  0.6997755E+02  0.7818608E-02  0.1472252E+00
          2   -1    0    0  502    0  0.00000000000E+00  0.00000000000E+00  0.39758504259E+03  0.39758504259E+03  0.00000000000E+00 0. -1.
          1   -1    0    0  501    0 -0.00000000000E+00 -0.00000000000E+00 -0.18509804931E+03  0.18509804931E+03  0.00000000000E+00 0. -1.
         25    2    1    2    0    0 -0.11834701197E+02 -0.83126034329E+02  0.70218036636E+01  0.15074615025E+03  0.12500039342E+03 0.  0.
          2    1    1    2  501    0 -0.12977625664E+02  0.67407579818E+02 -0.10206795060E+03  0.12300433783E+03  0.00000000000E+00 0. -1.
          1    1    1    2  502    0  0.24812326861E+02  0.15718454511E+02  0.30753314021E+03  0.30893260382E+03  0.00000000000E+00 0. -1.
         22    1    3    3    0    0  0.51387372716E+02 -0.33343925687E+02  0.28348222215E+02  0.67498897454E+02  0.00000000000E+00 0. -1.
         22    1    3    3    0    0 -0.63222073912E+02 -0.49782108642E+02 -0.21326418551E+02  0.83247252800E+02  0.00000000000E+00 0. -1.
</event>
<event>
 7    1  0.5194496E-006  0.2763730E+03  0.7818608E-02  0.1250871E+00
          2   -1    0    0  502    0  0.00000000000E+00  0.00000000000E+00  0.23962995574E+03  0.23962995574E+03  0.00000000000E+00 0. -1.
          1   -1    0    0  501    0 -0.00000000000E+00 -0.00000000000E+00 -0.85394523678E+03  0.85394523678E+03  0.00000000000E+00 0. -1.
         25    2    1    2    0    0  0.27557914705E+03 -0.87558252616E+02 -0.29396059980E+03  0.43086688539E+03  0.12499249898E+03 0.  0.
          2    1    1    2  501    0 -0.31828464398E+02 -0.36185924914E+02 -0.37989277884E+03  0.38293732611E+03  0.00000000000E+00 0. -1.
          1    1    1    2  502    0 -0.24375068265E+03  0.12374417753E+03  0.59538097601E+02  0.27977098104E+03  0.00000000000E+00 0. -1.
         22    1    3    3    0    0  0.17930656909E+03 -0.49727744514E+02 -0.10047822505E+03  0.21147001679E+03  0.00000000000E+00 0. -1.
         22    1    3    3    0    0  0.96272577955E+02 -0.37830508102E+02 -0.19348237475E+03  0.21939686859E+03  0.00000000000E+00 0. -1.
</event>
<event>
 7    1  0.5194496E-006  0.1982339E+03  0.7818608E-02  0.1307452E+00
          2   -1    0    0  502    0  0.00000000000E+00  0.00000000000E+00  0.62903618329E+03  0.62903618329E+03  0.00000000000E+00 0. -1.
          1   -1    0    0  501    0 -0.00000000000E+00 -0.00000000000E+00 -0.11098105078E+04  0.11098105078E+04  0.00000000000E+00 0. -1.
         25    2    1    2    0    0 -0.84812023193E+01 -0.17994541005E+03  0.21214477867E+02  0.22029030686E+03  0.12500193532E+03 0.  0.
          2    1    1    2  501    0 -0.26176261370E+02  0.19821425046E+03 -0.99960320991E+03  0.10194021106E+04  0.00000000000E+00 0. -1.
          1    1    1    2  502    0  0.34657463689E+02 -0.18268840413E+02  0.49761440754E+03  0.49915427366E+03  0.00000000000E+00 0. -1.
         22    1    3    3    0    0 -0.17175262037E+02 -0.88677370311E+02  0.71975043440E+02  0.11549490253E+03  0.00000000000E+00 0. -1.
         22    1    3    3    0    0  0.86940597181E+01 -0.91268039735E+02 -0.50760565573E+02  0.10479540433E+03  0.00000000000E+00 0. -1.
</event>
<event>
 7    1  0.5194496E-006  0.9337665E+02  0.7818608E-02  0.1295228E+00
          2   -1    0    0  502    0  0.00000000000E+00  0.00000000000E+00  0.94361308604E+03  0.94361308604E+03  0.00000000000E+00 0. -1.
          1   -1    0    0  501    0 -0.00000000000E+00 -0.00000000000E+00 -0.16111212172E+04  0.16111212172E+04  0.00000000000E+00 0. -1.
         25    2    1    2    0    0 -0.35585440747E+02 -0.61931555879E+02 -0.10759022162E+03  0.17972963783E+03  0.12500098288E+03 0.  0.
          2    1    1    2  501    0 -0.58300324508E+02  0.72547643145E+02 -0.14635199248E+04  0.14664762727E+04  0.00000000000E+00 0. -1.
          1    1    1    2  502    0  0.93885765255E+02 -0.10616087266E+02  0.90360201525E+03  0.90852839262E+03  0.00000000000E+00 0. -1.
         22    1    3    3    0    0 -0.53858974914E+02 -0.18966085178E+02  0.55149578998E+01  0.57366508752E+02  0.00000000000E+00 0. -1.
         22    1    3    3    0    0  0.18273534167E+02 -0.42965470700E+02 -0.11310517952E+03  0.12236312908E+03  0.00000000000E+00 0. -1.
</event>
<event>
 7    1  0.5194496E-006  0.1109730E+03  0.7818608E-02  0.1351628E+00
          2   -1    0    0  502    0  0.00000000000E+00  0.00000000000E+00  0.15290169221E+04  0.15290169221E+04  0.00000000000E+00 0. -1.
          1   -1    0    0  501    0 -0.00000000000E+00 -0.00000000000E+00 -0.51483238108E+03  0.51483238108E+03  0.00000000000E+00 0. -1.
         25    2    1    2    0    0  0.95939179358E+02  0.35647590984E+02  0.12908563839E+03  0.20679471716E+03  0.12500350447E+03 0.  0.
          2    1    1    2  501    0  0.15718809443E+02 -0.44750927685E+02 -0.47248320958E+03  0.47485798912E+03  0.00000000000E+00 0. -1.
          1    1    1    2  502    0 -0.11165798880E+03  0.91033367014E+01  0.13575821122E+04  0.13621965969E+04  0.00000000000E+00 0. -1.
         22    1    3    3    0    0  0.85196287987E+02 -0.23618570620E+02  0.35009785634E+02  0.95089060648E+02  0.00000000000E+00 0. -1.
         22    1    3    3    0    0  0.10742891371E+02  0.59266161603E+02  0.94075852752E+02  0.11170565651E+03  0.00000000000E+00 0. -1.
</event>
<event>
 7    1  0.5194496E-006  0.2663250E+02  0.7818608E-02  0.1675392E+00
          2   -1    0    0  502    0  0.00000000000E+00  0.00000000000E+00  0.24024755305E+03  0.24024755305E+03  0.00000000000E+00 0. -1.
          1   -1    0    0  501    0 -0.00000000000E+00 -0.00000000000E+00 -0.40922982022E+03  0.40922982022E+03  0.00000000000E+00 0. -1.
         25    2    1    2    0    0 -0.19808564887E+01 -0.20791843202E+02 -0.19613533306E+03  0.23351456734E+03  0.12499503889E+03 0.  0.
          2    1    1    2  501    0  0.22857747043E+02  0.14962771306E+02 -0.19290998340E+03  0.19483486038E+03  0.00000000000E+00 0. -1.
          1    1    1    2  502    0 -0.20876890554E+02  0.58290718955E+01  0.22006304930E+03  0.22112794555E+03  0.00000000000E+00 0. -1.
         22    1    3    3    0    0  0.37242840864E+02 -0.60409678850E+02 -0.10834267819E+03  0.12951638666E+03  0.00000000000E+00 0. -1.
         22    1    3    3    0    0 -0.39223697353E+02  0.39617835648E+02 -0.87792654873E+02  0.10399818068E+03  0.00000000000E+00 0. -1.
</event>
<event>
 7    1  0.5194496E-006  0.5287758E+02  0.7818608E-02  0.1448630E+00
          2   -1    0    0  502    0  0.00000000000E+00  0.00000000000E+00  0.61809511450E+03  0.61809511450E+03  0.00000000000E+00 0. -1.
          1   -1    0    0  501    0 -0.00000000000E+00 -0.00000000000E+00 -0.85677824747E+02  0.85677824747E+02  0.00000000000E+00 0. -1.
         25    2    1    2    0    0  0.24540567755E+01  0.14074535235E+02  0.69946124978E+02  0.14394608189E+03  0.12499559655E+03 0.  0.
          2    1    1    2  501    0 -0.25847118208E+02 -0.53847476905E+02 -0.28858124515E+02  0.66335628731E+02  0.00000000000E+00 0. -1.
          1    1    1    2  502    0  0.23393061432E+02  0.39772941670E+02  0.49132928929E+03  0.49349122862E+03  0.00000000000E+00 0. -1.
         22    1    3    3    0    0 -0.15489403594E+02  0.48516644567E+02 -0.12823038692E+02  0.52518727565E+02  0.00000000000E+00 0. -1.
         22    1    3    3    0    0  0.17943460370E+02 -0.34442109332E+02  0.82769163670E+02  0.91427354330E+02  0.00000000000E+00 0. -1.
</event>
<event>
 7    1  0.5194496E-006  0.9506990E+02  0.7818608E-02  0.1353031E+00
          2   -1    0    0  502    0  0.00000000000E+00  0.00000000000E+00  0.74990842523E+03  0.74990842523E+03  0.00000000000E+00 0. -1.
          1   -1    0    0  501    0 -0.00000000000E+00 -0.00000000000E+00 -0.15538129662E+03  0.15538129662E+03  0.00000000000E+00 0. -1.
         25    2    1    2    0    0  0.12411834343E+03 -0.74561681469E+02  0.52327034369E+03  0.55713702839E+03  0.12500003319E+03 0.  0.
          2    1    1    2  501    0 -0.71153424852E+02  0.60856666343E+02 -0.11829456870E+03  0.15086400727E+03  0.00000000000E+00 0. -1.
          1    1    1    2  502    0 -0.52964918578E+02  0.13705015126E+02  0.18955135362E+03  0.19728868619E+03  0.00000000000E+00 0. -1.
         22    1    3    3    0    0  0.99071749001E+02 -0.45628829335E+02  0.17120767287E+03  0.20300066198E+03  0.00000000000E+00 0. -1.
         22    1    3    3    0    0  0.25046594429E+02 -0.28932852134E+02  0.35206267082E+03  0.35413636640E+03  0.00000000000E+00 0. -1.
</event>
<event>
 7    1  0.5194496E-006  0.8456365E+02  0.7818608E-02  0.1334983E+00
          2   -1    0    0  502    0  0.00000000000E+00  0.00000000000E+00  0.28694142447E+03  0.28694142447E+03  0.00000000000E+00 0. -1.
          1   -1    0    0  501    0 -0.00000000000E+00 -0.00000000000E+00 -0.69298216707E+03  0.69298216707E+03  0.00000000000E+00 0. -1.
         25    2    1    2    0    0 -0.91367270724E+01 -0.14112780099E+02  0.79403793573E+02  0.14903775078E+03  0.12499855351E+03 0.  0.
          2    1    1    2  501    0  0.78890297544E+01  0.85948343608E+02 -0.64770517077E+03  0.65343044221E+03  0.00000000000E+00 0. -1.
          1    1    1    2  502    0  0.12476973180E+01 -0.71835563510E+02  0.16226063461E+03  0.17745539855E+03  0.00000000000E+00 0. -1.
         22    1    3    3    0    0  0.15369595902E+02  0.50886513486E+02  0.17419880502E+02  0.55938483798E+02  0.00000000000E+00 0. -1.
         22    1    3    3    0    0 -0.24506322974E+02 -0.64999293584E+02  0.61983913070E+02  0.93099266977E+02  0.00000000000E+00 0. -1.
</event>
<event>
 7    1  0.5194496E-006  0.1449040E+03  0.7818608E-02  0.1322407E+00
          2   -1    0    0  502    0  0.00000000000E+00  0.00000000000E+00  0.44691422392E+03  0.44691422392E+03  0.00000000000E+00 0. -1.
          1   -1    0    0  501    0 -0.00000000000E+00 -0.00000000000E+00 -0.52308994632E+03  0.52308994632E+03  0.00000000000E+00 0. -1.
         25    2    1    2    0    0  0.10774256558E+03  0.15078293415E+03 -0.11479771081E+03  0.25129182527E+03  0.12500045347E+03 0.  0.
          2    1    1    2  501    0 -0.12954323841E+02 -0.45016985272E+02 -0.32498925363E+03  0.32834792286E+03  0.00000000000E+00 0. -1.
          1    1    1    2  502    0 -0.94788241741E+02 -0.10576594888E+03  0.36361124204E+03  0.39036442212E+03  0.00000000000E+00 0. -1.
         22    1    3    3    0    0  0.10899455662E+03  0.91960906820E+02 -0.12728100821E+03  0.19114674155E+03  0.00000000000E+00 0. -1.
         22    1    3    3    0    0 -0.12519910350E+01  0.58822027335E+02  0.12483297397E+02  0.60145083716E+02  0.00000000000E+00 0. -1.
</event>
<event>
 7    1  0.5194496E-006  0.1152842E+03  0.7818608E-02  0.1385355E+00
          2   -1    0    0  502    0  0.00000000000E+00  0.00000000000E+00  0.12100363644E+04  0.12100363644E+04  0.00000000000E+00 0. -1.
          1   -1    0    0  501    0 -0.00000000000E+00 -0.00000000000E+00 -0.99587063304E+03  0.99587063304E+03  0.00000000000E+00 0. -1.
         25    2    1    2    0    0 -0.13551663465E+03  0.36793439179E+01  0.19995456985E+03  0.27201310011E+03  0.12502400086E+03 0.  0.
          2    1    1    2  501    0  0.11284544997E+03  0.22341952580E+02 -0.95608674447E+03  0.96298240969E+03  0.00000000000E+00 0. -1.
          1    1    1    2  502    0  0.22671184681E+02 -0.26021296497E+02  0.97029790595E+03  0.97091148762E+03  0.00000000000E+00 0. -1.
         22    1    3    3    0    0 -0.73132062137E+01 -0.46072918494E+02  0.56911713996E+02  0.73587634788E+02  0.00000000000E+00 0. -1.
         22    1    3    3    0    0 -0.12820342844E+03  0.49752262412E+02  0.14304285585E+03  0.19842546533E+03  0.00000000000E+00 0. -1.
</event>
<event>
 7    1  0.5194496E-006  0.2608602E+03  0.7818608E-02  0.1277543E+00
          2   -1    0    0  502    0  0.00000000000E+00  0.00000000000E+00  0.85370286008E+03  0.85370286008E+03  0.00000000000E+00 0. -1.
          1   -1    0    0  501    0 -0.00000000000E+00 -0.00000000000E+00 -0.11051497789E+04  0.11051497789E+04  0.00000000000E+00 0. -1.
         25    2    1    2    0    0  0.12522051229E+03  0.24986982724E+03 -0.19905784339E+03  0.36518967806E+03  0.12499747470E+03 0.  0.
          2    1    1    2  501    0  0.19339315047E+02 -0.34274229496E+02 -0.80067080089E+03  0.80163736397E+03  0.00000000000E+00 0. -1.
          1    1    1    2  502    0 -0.14455982734E+03 -0.21559559775E+03  0.74828172549E+03  0.79202559691E+03  0.00000000000E+00 0. -1.
         22    1    3    3    0    0 -0.97923042268E+01  0.55675132745E+02 -0.74522290640E+00  0.56534635273E+02  0.00000000000E+00 0. -1.
         22    1    3    3    0    0  0.13501281652E+03  0.19419469450E+03 -0.19831262048E+03  0.30865504279E+03  0.00000000000E+00 0. -1.
</event>
<event>
 7    1  0.5194496E-006  0.1287324E+03  0.7818608E-02  0.1425137E+00
          2   -1    0    0  502    0  0.00000000000E+00  0.00000000000E+00  0.21423648813E+04  0.21423648813E+04  0.00000000000E+00 0. -1.
          1   -1    0    0  501    0 -0.00000000000E+00 -0.00000000000E+00 -0.70560644624E+03  0.70560644624E+03  0.00000000000E+00 0. -1.
         25    2    1    2    0    0 -0.90712812146E+02  0.70710583191E+02  0.10412156475E+04  0.10549811314E+04  0.12500544786E+03 0.  0.
          2    1    1    2  501    0 -0.15162037372E+02  0.16770810955E+02 -0.69422956965E+03  0.69459761219E+03  0.00000000000E+00 0. -1.
          1    1    1    2  502    0  0.10587484952E+03 -0.87481394146E+02  0.10897723571E+04  0.10983925839E+04  0.00000000000E+00 0. -1.
         22    1    3    3    0    0 -0.57299136949E+02  0.75921429490E+02  0.34291971012E+03  0.35586680393E+03  0.00000000000E+00 0. -1.
         22    1    3    3    0    0 -0.33413675197E+02 -0.52108462991E+01  0.69829593742E+03  0.69911432743E+03  0.00000000000E+00 0. -1.
</event>
<event>
 7    1  0.5194496E-006  0.1413658E+03  0.7818608E-02  0.1325885E+00
          2   -1    0    0  502    0  0.00000000000E+00  0.00000000000E+00  0.99597712656E+03  0.99597712656E+03  0.00000000000E+00 0. -1.
          1   -1    0    0  501    0 -0.00000000000E+00 -0.00000000000E+00 -0.73680838213E+02  0.73680838213E+02  0.00000000000E+00 0. -1.
         25    2    1    2    0    0  0.80197369538E+02 -0.15384218368E+03  0.32025944394E+03  0.38508666680E+03  0.12500637566E+03 0.  0.
          2    1    1    2  501    0 -0.38796840794E+02  0.25735073593E+02 -0.18128124413E+02  0.49961162548E+02  0.00000000000E+00 0. -1.
          1    1    1    2  502    0 -0.41400528744E+02  0.12810711008E+03  0.62016496882E+03  0.63461013542E+03  0.00000000000E+00 0. -1.
         22    1    3    3    0    0 -0.96518937858E+01  0.92821221196E+01 -0.13391372775E+01  0.13457716498E+02  0.00000000000E+00 0. -1.
         22    1    3    3    0    0  0.89849263324E+02 -0.16312430580E+03  0.32159858122E+03  0.37162895030E+03  0.00000000000E+00 0. -1.
</event>
<event>
 7    1  0.5194496E-006  0.3622866E+02  0.7818608E-02  0.1575164E+00
          2   -1    0    0  502    0  0.00000000000E+00  0.00000000000E+00  0.51149903105E+03  0.51149903105E+03  0.00000000000E+00 0. -1.
          1   -1    0    0  501    0 -0.00000000000E+00 -0.00000000000E+00 -0.25437256396E+03  0.25437256396E+03  0.00000000000E+00 0. -1.
         25    2    1    2    0    0 -0.54781063139E+01  0.42722495207E+02 -0.10160713991E+03  0.16674298376E+03  0.12499596195E+03 0.  0.
          2    1    1    2  501    0 -0.21642723418E+02 -0.18673317207E+02 -0.11779991090E+03  0.12121847739E+03  0.00000000000E+00 0. -1.
          1    1    1    2  502    0  0.27120829732E+02 -0.24049177999E+02  0.47653351791E+03  0.47791013387E+03  0.00000000000E+00 0. -1.
         22    1    3    3    0    0  0.21713426027E+02  0.37427838263E+01 -0.11521779622E+03  0.11730567704E+03  0.00000000000E+00 0. -1.
         22    1    3    3    0    0 -0.27191532341E+02  0.38979711380E+02  0.13610656303E+02  0.49437306716E+02  0.00000000000E+00 0. -1.
</event>
<event>
 7    1  0.5194496E-006  0.1138329E+03  0.7818608E-02  0.1367647E+00
          2   -1    0    0  502    0  0.00000000000E+00  0.00000000000E+00  0.11359071601E+04  0.11359071601E+04  0.00000000000E+00 0. -1.
          1   -1    0    0  501    0 -0.00000000000E+00 -0.00000000000E+00 -0.43478272137E+03  0.43478272137E+03  0.00000000000E+00 0. -1.
         25    2    1    2    0    0 -0.10532379673E+03 -0.10980622195E+03 -0.18662668673E+03  0.27130124730E+03  0.12499735217E+03 0.  0.
          2    1    1    2  501    0  0.34174080036E+02  0.21571428452E+02 -0.20086369733E+03  0.20488879710E+03  0.00000000000E+00 0. -1.
          1    1    1    2  502    0  0.71149716692E+02  0.88234793498E+02  0.10886148228E+04  0.10944998371E+04  0.00000000000E+00 0. -1.
         22    1    3    3    0    0 -0.12922700060E+03 -0.81661706656E+02 -0.11704895822E+03  0.19253236257E+03  0.00000000000E+00 0. -1.
         22    1    3    3    0    0  0.23903203867E+02 -0.28144515294E+02 -0.69577728516E+02  0.78768884731E+02  0.00000000000E+00 0. -1.
</event>
<event>
 7    1  0.5194496E-006  0.1138763E+03  0.7818608E-02  0.1317963E+00
          2   -1    0    0  502    0  0.00000000000E+00  0.00000000000E+00  0.21807034332E+03  0.21807034332E+03  0.00000000000E+00 0. -1.
          1   -1    0    0  501    0 -0.00000000000E+00 -0.00000000000E+00 -0.14133775809E+04  0.14133775809E+04  0.00000000000E+00 0. -1.
         25    2    1    2    0    0  0.28764156408E+02  0.46703363134E+02 -0.91450385344E+03  0.92463501869E+03  0.12499615592E+03 0.  0.
          2    1    1    2  501    0  0.49372405921E+02  0.37535752471E+02 -0.47615492212E+03  0.48017713090E+03  0.00000000000E+00 0. -1.
          1    1    1    2  502    0 -0.78136562329E+02 -0.84239115605E+02  0.19535153796E+03  0.22663577466E+03  0.00000000000E+00 0. -1.
         22    1    3    3    0    0 -0.39763896656E+02  0.42960398737E+02 -0.59330843078E+03  0.59618927982E+03  0.00000000000E+00 0.  1.
         22    1    3    3    0    0  0.68528053064E+02  0.37429643966E+01 -0.32119542266E+03  0.32844573887E+03  0.00000000000E+00 0.  1.
</event>
<event>
 7    1  0.5194496E-006  0.9104815E+02  0.7818608E-02  0.1331838E+00
          2   -1    0    0  502    0  0.00000000000E+00  0.00000000000E+00  0.74871225363E+02  0.74871225363E+02  0.00000000000E+00 0. -1.
          1   -1    0    0  501    0 -0.00000000000E+00 -0.00000000000E+00 -0.72891631402E+03  0.72891631402E+03  0.00000000000E+00 0. -1.
         25    2    1    2    0    0  0.86916597571E+02 -0.51696612215E+02 -0.43431596075E+03  0.46312213003E+03  0.12499887565E+03 0.  0.
          2    1    1    2  501    0 -0.58416739365E+02 -0.35948370750E+02 -0.23715073962E+03  0.24687096650E+03  0.00000000000E+00 0. -1.
          1    1    1    2  502    0 -0.28499858206E+02  0.87644982965E+02  0.17421611708E+02  0.93794442859E+02  0.00000000000E+00 0. -1.
         22    1    3    3    0    0  0.34677306125E+02 -0.71520811263E+02 -0.36762036541E+03  0.37611497586E+03  0.00000000000E+00 0. -1.
         22    1    3    3    0    0  0.52239291445E+02  0.19824199048E+02 -0.66695595339E+02  0.87007154167E+02  0.00000000000E+00 0. -1.
</event>
<event>
 7    1  0.5194496E-006  0.1349037E+03  0.7818608E-02  0.1280361E+00
          2   -1    0    0  502    0  0.00000000000E+00  0.00000000000E+00  0.18339277576E+03  0.18339277576E+03  0.00000000000E+00 0. -1.
          1   -1    0    0  501    0 -0.00000000000E+00 -0.00000000000E+00 -0.15546754303E+04  0.15546754303E+04  0.00000000000E+00 0. -1.
         25    2    1    2    0    0  0.66398777102E+02  0.29131071622E+02 -0.44663490744E+03  0.46943131339E+03  0.12500240204E+03 0.  0.
          2    1    1    2  501    0  0.36191594946E+02  0.64638777467E+02 -0.10670681196E+04  0.10696365621E+04  0.00000000000E+00 0. -1.
          1    1    1    2  502    0 -0.10259037205E+03 -0.93769849089E+02  0.14242037254E+03  0.19900033053E+03  0.00000000000E+00 0. -1.
         22    1    3    3    0    0 -0.22692775166E+02 -0.29356896936E+02 -0.94554210866E+02  0.10157405296E+03  0.00000000000E+00 0.  1.
         22    1    3    3    0    0  0.89091552268E+02  0.58487968558E+02 -0.35208069657E+03  0.36785726043E+03  0.00000000000E+00 0.  1.
</event>
<event>
 7    1  0.5194496E-006  0.1396410E+03  0.7818608E-02  0.1361418E+00
          2   -1    0    0  502    0  0.00000000000E+00  0.00000000000E+00  0.27263037601E+03  0.27263037601E+03  0.00000000000E+00 0. -1.
          1   -1    0    0  501    0 -0.00000000000E+00 -0.00000000000E+00 -0.12935906597E+03  0.12935906597E+03  0.00000000000E+00 0. -1.
         25    2    1    2    0    0  0.10458186214E+03 -0.64441433408E+02  0.28209623713E+02  0.17751439543E+03  0.12500205393E+03 0.  0.
          2    1    1    2  501    0  0.33299156133E+02  0.97666707523E+01 -0.30952930150E+01  0.34839668420E+02  0.00000000000E+00 0. -1.
          1    1    1    2  502    0 -0.13788101827E+03  0.54674762655E+02  0.11815697934E+03  0.18963537813E+03  0.00000000000E+00 0. -1.
         22    1    3    3    0    0  0.92684879491E+02 -0.99929158299E+02  0.31669548898E+02  0.13992599434E+03  0.00000000000E+00 0.  1.
         22    1    3    3    0    0  0.11896982650E+02  0.35487724892E+02 -0.34599251852E+01  0.37588401089E+02  0.00000000000E+00 0.  1.
</event>
<event>
 7    1  0.5194496E-006  0.3462927E+02  0.7818608E-02  0.1562864E+00
          2   -1    0    0  502    0  0.00000000000E+00  0.00000000000E+00  0.28088645644E+03  0.28088645644E+03  0.00000000000E+00 0. -1.
          1   -1    0    0  501    0 -0.00000000000E+00 -0.00000000000E+00 -0.12146102906E+04  0.12146102906E+04  0.00000000000E+00 0. -1.
         25    2    1    2    0    0  0.74264455839E+01  0.64129184625E+02 -0.14370980510E+03  0.20111241833E+03  0.12500396917E+03 0.  0.
          2    1    1    2  501    0  0.43952292392E+01 -0.34069945124E+02 -0.10408803899E+04  0.10414471015E+04  0.00000000000E+00 0. -1.
          1    1    1    2  502    0 -0.11821674823E+02 -0.30059239502E+02  0.25086636086E+03  0.25293722717E+03  0.00000000000E+00 0. -1.
         22    1    3    3    0    0 -0.42144960780E+02  0.10005671312E+02 -0.11396620475E+03  0.12192049460E+03  0.00000000000E+00 0. -1.
         22    1    3    3    0    0  0.49571406363E+02  0.54123513313E+02 -0.29743600348E+02  0.79191923729E+02  0.00000000000E+00 0. -1.
</event>
<event>
 7    1  0.5194496E-006  0.3919915E+02  0.7818608E-02  0.1535849E+00
          2   -1    0    0  502    0  0.00000000000E+00  0.00000000000E+00  0.21471700511E+03  0.21471700511E+03  0.00000000000E+00 0. -1.
          1   -1    0    0  501    0 -0.00000000000E+00 -0.00000000000E+00 -0.46592386659E+03  0.46592386659E+03  0.00000000000E+00 0. -1.
         25    2    1    2    0    0  0.63968241816E+02  0.39329974794E+01 -0.19188983019E+03  0.23781044587E+03  0.12499878720E+03 0.  0.
          2    1    1    2  501    0 -0.30163532643E+02  0.15574058211E+02 -0.24791905155E+03  0.25023238422E+03  0.00000000000E+00 0. -1.
          1    1    1    2  502    0 -0.33804709173E+02 -0.19507055691E+02  0.18860202027E+03  0.19259804161E+03  0.00000000000E+00 0. -1.
         22    1    3    3    0    0  0.39935642566E+02 -0.47200801946E+02 -0.34978775442E+02  0.71037215479E+02  0.00000000000E+00 0.  1.
         22    1    3    3    0    0  0.24032599250E+02  0.51133799425E+02 -0.15691105475E+03  0.16677323039E+03  0.00000000000E+00 0.  1.
</event>
<event>
 7    1  0.5194496E-006  0.1315979E+03  0.7818608E-02  0.1263220E+00
          2   -1    0    0  502    0  0.00000000000E+00  0.00000000000E+00  0.81998444584E+03  0.81998444584E+03  0.00000000000E+00 0. -1.
          1   -1    0    0  501    0 -0.00000000000E+00 -0.00000000000E+00 -0.13121212861E+03  0.13121212861E+03  0.00000000000E+00 0. -1.
         25    2    1    2    0    0 -0.17404464239E+03  0.12164561551E+03  0.15218719960E+03  0.28961890917E+03  0.12501590104E+03 0.  0.
          2    1    1    2  501    0  0.67392492638E+02 -0.59030823787E+02 -0.19683362060E+02  0.91726882444E+02  0.00000000000E+00 0. -1.
          1    1    1    2  502    0  0.10665214975E+03 -0.62614791720E+02  0.55626847970E+03  0.56985078283E+03  0.00000000000E+00 0. -1.
         22    1    3    3    0    0 -0.19376943285E+03  0.10387426893E+03  0.13637595574E+03  0.25871771906E+03  0.00000000000E+00 0. -1.
         22    1    3    3    0    0  0.19724790461E+02  0.17771346580E+02  0.15811243861E+02  0.30901190113E+02  0.00000000000E+00 0. -1.
</event>
<event>
 7    1  0.5194496E-006  0.1059629E+03  0.7818608E-02  0.1319506E+00
          2   -1    0    0  502    0  0.00000000000E+00  0.00000000000E+00  0.24285264905E+03  0.24285264905E+03  0.00000000000E+00 0. -1.
          1   -1    0    0  501    0 -0.00000000000E+00 -0.00000000000E+00 -0.15909984065E+04  0.15909984065E+04  0.00000000000E+00 0. -1.
         25    2    1    2    0    0  0.54576781842E+02 -0.75416512400E+01 -0.63163207494E+02  0.15048736405E+03  0.12498541650E+03 0.  0.
          2    1    1    2  501    0  0.56873012267E+02  0.32969580665E+02 -0.14669752642E+04  0.14684474654E+04  0.00000000000E+00 0. -1.
          1    1    1    2  502    0 -0.11144979411E+03 -0.25427929425E+02  0.18199271427E+03  0.21491622612E+03  0.00000000000E+00 0. -1.
         22    1    3    3    0    0 -0.34931717817E+02 -0.27224956113E+02 -0.13780728598E+02  0.46382449544E+02  0.00000000000E+00 0.  1.
         22    1    3    3    0    0  0.89508499660E+02  0.19683304873E+02 -0.49382478896E+02  0.10410491450E+03  0.00000000000E+00 0.  1.
</event>
<event>
 7    1  0.5194496E-006  0.7082775E+02  0.7818608E-02  0.1476650E+00
          2   -1    0    0  502    0  0.00000000000E+00  0.00000000000E+00  0.14306286841E+04  0.14306286841E+04  0.00000000000E+00 0. -1.
          1   -1    0    0  501    0 -0.00000000000E+00 -0.00000000000E+00 -0.21391955954E+03  0.21391955954E+03  0.00000000000E+00 0. -1.
         25    2    1    2    0    0  0.29858338900E+01 -0.89811948584E+02  0.17336376706E+03  0.23184857289E+03  0.12499465472E+03 0.  0.
          2    1    1    2  501    0  0.16962318552E+02  0.22434487113E+02 -0.18259438185E+03  0.18474775979E+03  0.00000000000E+00 0. -1.
          1    1    1    2  502    0 -0.19948152442E+02  0.67377461471E+02  0.12259397393E+04  0.12279519109E+04  0.00000000000E+00 0. -1.
         22    1    3    3    0    0 -0.22060764593E+02  0.18005578644E+02  0.86737743067E+02  0.91292465566E+02  0.00000000000E+00 0. -1.
         22    1    3    3    0    0  0.25046598483E+02 -0.10781752723E+03  0.86626023997E+02  0.14055610733E+03  0.00000000000E+00 0. -1.
</event>
<event>
 7    1  0.5194496E-006  0.8601538E+02  0.7818608E-02  0.1410211E+00
          2   -1    0    0  502    0  0.00000000000E+00  0.00000000000E+00  0.84610084492E+03  0.84610084492E+03  0.00000000000E+00 0. -1.
          1   -1    0    0  501    0 -0.00000000000E+00 -0.00000000000E+00 -0.88697546327E+02  0.88697546327E+02  0.00000000000E+00 0. -1.
         25    2    1    2    0    0 -0.31004367069E+02 -0.39026296374E+02  0.31222144753E+02  0.13814447442E+03  0.12499900361E+03 0.  0.
          2    1    1    2  501    0 -0.25727441250E+02 -0.27921323449E+02 -0.21640400787E+02  0.43701355615E+02  0.00000000000E+00 0. -1.
          1    1    1    2  502    0  0.56731808319E+02  0.66947619824E+02  0.74782155463E+03  0.75295256122E+03  0.00000000000E+00 0. -1.
         22    1    3    3    0    0  0.66216153523E+01 -0.79186169320E+02  0.16171060076E+02  0.81091296607E+02  0.00000000000E+00 0.  1.
         22    1    3    3    0    0 -0.37625982422E+02  0.40159872945E+02  0.15051084677E+02  0.57053177809E+02  0.00000000000E+00 0.  1.
</event>
<event>
 7    1  0.5194496E-006  0.1024630E+03  0.7818608E-02  0.1336023E+00
          2   -1    0    0  502    0  0.00000000000E+00  0.00000000000E+00  0.37084869924E+03  0.37084869924E+03  0.00000000000E+00 0. -1.
          1   -1    0    0  501    0 -0.00000000000E+00 -0.00000000000E+00 -0.41081200741E+03  0.41081200741E+03  0.00000000000E+00 0. -1.
         25    2    1    2    0    0  0.51908301541E+02  0.11178975213E+03  0.14054111651E+03  0.22487590103E+03  0.12500377987E+03 0.  0.
          2    1    1    2  501    0 -0.57371720201E+02 -0.12697688239E+02 -0.35295714850E+03  0.35781488823E+03  0.00000000000E+00 0. -1.
          1    1    1    2  502    0  0.54634186599E+01 -0.99092063893E+02  0.17245272383E+03  0.19896991739E+03  0.00000000000E+00 0. -1.
         22    1    3    3    0    0  0.88716562319E+02  0.48968659069E+02  0.67590713266E+02  0.12180748138E+03  0.00000000000E+00 0. -1.
         22    1    3    3    0    0 -0.36808260778E+02  0.62821093063E+02  0.72950403239E+02  0.10306841964E+03  0.00000000000E+00 0. -1.
</event>
<event>
 7    1  0.5194496E-006  0.3906759E+02  0.7818608E-02  0.1594504E+00
          2   -1    0    0  502    0  0.00000000000E+00  0.00000000000E+00  0.59203022866E+02  0.59203022866E+02  0.00000000000E+00 0. -1.
          1   -1    0    0  501    0 -0.00000000000E+00 -0.00000000000E+00 -0.75870619490E+03  0.75870619490E+03  0.00000000000E+00 0. -1.
         25    2    1    2    0    0  0.43982019943E+01 -0.24516899919E+02 -0.28733588661E+03  0.31433601023E+03  0.12499917213E+03 0.  0.
          2    1    1    2  501    0  0.15454936090E+02  0.37168442677E+02 -0.45388767319E+03  0.45566914319E+03  0.00000000000E+00 0. -1.
          1    1    1    2  502    0 -0.19853138084E+02 -0.12651542758E+02  0.41720387762E+02  0.47904064347E+02  0.00000000000E+00 0. -1.
         22    1    3    3    0    0 -0.22009064730E+01 -0.23189515822E+02 -0.29951558092E+03  0.30042000740E+03  0.00000000000E+00 0.  1.
         22    1    3    3    0    0  0.65991084673E+01 -0.13273840974E+01  0.12179694314E+02  0.13916002827E+02  0.00000000000E+00 0.  1.
</event>
<event>
 7    1  0.5194496E-006  0.1245866E+03  0.7818608E-02  0.1256759E+00
          2   -1    0    0  502    0  0.00000000000E+00  0.00000000000E+00  0.14522715083E+04  0.14522715083E+04  0.00000000000E+00 0. -1.
          1   -1    0    0  501    0 -0.00000000000E+00 -0.00000000000E+00 -0.86949715445E+03  0.86949715445E+03  0.00000000000E+00 0. -1.
         25    2    1    2    0    0 -0.80513091404E+01  0.55529144997E+02 -0.71854892045E+02  0.15471317579E+03  0.12499892691E+03 0.  0.
          2    1    1    2  501    0 -0.72870148352E+02 -0.11569253245E+03 -0.74820819522E+03  0.76059866157E+03  0.00000000000E+00 0. -1.
          1    1    1    2  502    0  0.80921457492E+02  0.60163387454E+02  0.14028374411E+04  0.14064568254E+04  0.00000000000E+00 0. -1.
         22    1    3    3    0    0 -0.62504947247E+02  0.53836558441E+02 -0.45121279533E+02  0.94027513642E+02  0.00000000000E+00 0. -1.
         22    1    3    3    0    0  0.54453638106E+02  0.16925865563E+01 -0.26733612512E+02  0.60685662147E+02  0.00000000000E+00 0. -1.
</event>
<event>
 7    1  0.5194496E-006  0.5333474E+02  0.7818608E-02  0.1430028E+00
          2   -1    0    0  502    0  0.00000000000E+00  0.00000000000E+00  0.17101051833E+04  0.17101051833E+04  0.00000000000E+00 0. -1.
          1   -1    0    0  501    0 -0.00000000000E+00 -0.00000000000E+00 -0.15463655458E+03  0.15463655458E+03  0.00000000000E+00 0. -1.
         25    2    1    2    0    0 -0.21539461122E+02 -0.19756578024E+02  0.20044258794E+03  0.23802472386E+03  0.12499706936E+03 0.  0.
          2    1    1    2  501    0  0.45058947783E+02 -0.28535689140E+02 -0.13010618695E+03  0.14061370564E+03  0.00000000000E+00 0. -1.
          1    1    1    2  502    0 -0.23519486661E+02  0.48292267164E+02  0.14851322277E+04  0.14861033084E+04  0.00000000000E+00 0. -1.
         22    1    3    3    0    0 -0.54827409543E+02 -0.18944565051E+02  0.19603378830E+03  0.20443626766E+03  0.00000000000E+00 0. -1.
         22    1    3    3    0    0  0.33287948421E+02 -0.81201297294E+00  0.44087996380E+01  0.33588456193E+02  0.00000000000E+00 0. -1.
</event>
<event>
 7    1  0.5194496E-006  0.1435022E+03  0.7818608E-02  0.1350015E+00
          2   -1    0    0  502    0  0.00000000000E+00  0.00000000000E+00  0.22542737800E+03  0.22542737800E+03  0.00000000000E+00 0. -1.
          1   -1    0    0  501    0 -0.00000000000E+00 -0.00000000000E+00 -0.10632663947E+04  0.10632663947E+04  0.00000000000E+00 0. -1.
         25    2    1    2    0    0 -0.51253192095E+02  0.13603095393E+03 -0.81745518479E+03  0.83963662679E+03  0.12500150313E+03 0.  0.
          2    1    1    2  501    0  0.14588507483E+02 -0.14224385357E+03 -0.21097838182E+03  0.25486862503E+03  0.00000000000E+00 0. -1.
          1    1    1    2  502    0  0.36664684611E+02  0.62128996447E+01  0.19059454986E+03  0.19418852092E+03  0.00000000000E+00 0. -1.
         22    1    3    3    0    0 -0.51324801768E+02  0.10820721214E+02 -0.41097565380E+03  0.41430943907E+03  0.00000000000E+00 0. -1.
         22    1    3    3    0    0  0.71609673525E-01  0.12521023271E+03 -0.40647953099E+03  0.42532718773E+03  0.00000000000E+00 0. -1.
</event>
<event>
 7    1  0.5194496E-006  0.5223401E+02  0.7818608E-02  0.1460051E+00
          2   -1    0    0  502    0  0.00000000000E+00  0.00000000000E+00  0.97863297106E+01  0.97863297106E+01  0.00000000000E+00 0. -1.
          1   -1    0    0  501    0 -0.00000000000E+00 -0.00000000000E+00 -0.15868663914E+04  0.15868663914E+04  0.00000000000E+00 0. -1.
         25    2    1    2    0    0  0.30123447181E+01  0.26772178778E+01 -0.59359291845E+03  0.60662476970E+03  0.12499926669E+03 0.  0.
          2    1    1    2  501    0 -0.51187301724E+02 -0.22865461202E+02 -0.35793596796E+03  0.36229977412E+03  0.00000000000E+00 0. -1.
          1    1    1    2  502    0  0.48174957006E+02  0.20188243324E+02 -0.62555117529E+03  0.62772817728E+03  0.00000000000E+00 0. -1.
         22    1    3    3    0    0 -0.53944570849E+02 -0.63538110494E+01 -0.15468715324E+03  0.16394664686E+03  0.00000000000E+00 0. -1.
         22    1    3    3    0    0  0.56956915567E+02  0.90310289272E+01 -0.43890576521E+03  0.44267812284E+03  0.00000000000E+00 0. -1.
</event>
<event>
 7    1  0.5194496E-006  0.1463730E+03  0.7818608E-02  0.1324325E+00
          2   -1    0    0  502    0  0.00000000000E+00  0.00000000000E+00  0.54503057217E+03  0.54503057217E+03  0.00000000000E+00 0. -1.
          1   -1    0    0  501    0 -0.00000000000E+00 -0.00000000000E+00 -0.61367682442E+03  0.61367682442E+03  0.00000000000E+00 0. -1.
         25    2    1    2    0    0  0.13062994758E+03 -0.41934344439E+02 -0.43649042943E+03  0.47431077237E+03  0.12499656538E+03 0.  0.
          2    1    1    2  501    0 -0.11735210575E+02 -0.44053589625E+02 -0.14446557824E+03  0.15148840623E+03  0.00000000000E+00 0. -1.
          1    1    1    2  502    0 -0.11889473700E+03  0.85987934064E+02  0.51230975542E+03  0.53290821798E+03  0.00000000000E+00 0. -1.
         22    1    3    3    0    0  0.55916462580E+02 -0.48222664370E+01 -0.39452280996E+02  0.68603115941E+02  0.00000000000E+00 0. -1.
         22    1    3    3    0    0  0.74713484995E+02 -0.37112078002E+02 -0.39703814844E+03  0.40570765643E+03  0.00000000000E+00 0. -1.
</event>
<event>
 7    1  0.5194496E-006  0.7676928E+02  0.7818608E-02  0.1504862E+00
          2   -1    0    0  502    0  0.00000000000E+00  0.00000000000E+00  0.41374239486E+03  0.41374239486E+03  0.00000000000E+00 0. -1.
          1   -1    0    0  501    0 -0.00000000000E+00 -0.00000000000E+00 -0.64222741005E+03  0.64222741005E+03  0.00000000000E+00 0. -1.
         25    2    1    2    0    0 -0.39140905803E+02 -0.65750850340E+02  0.32717102264E+03  0.35850226064E+03  0.12501123150E+03 0.  0.
          2    1    1    2  501    0  0.55935232013E+02  0.52613138938E+02 -0.62254449666E+03  0.62726273833E+03  0.00000000000E+00 0. -1.
          1    1    1    2  502    0 -0.16794326210E+02  0.13137711402E+02  0.66888458828E+02  0.70204805947E+02  0.00000000000E+00 0. -1.
         22    1    3    3    0    0 -0.35039062904E+02 -0.13634512470E+02  0.29442428641E+03  0.29681525616E+03  0.00000000000E+00 0.  1.
         22    1    3    3    0    0 -0.41018428989E+01 -0.52116337870E+02  0.32746736223E+02  0.61687004477E+02  0.00000000000E+00 0.  1.
</event>
<event>
 7    1  0.5194496E-006  0.8791282E+02  0.7818608E-02  0.1318181E+00
          2   -1    0    0  502    0  0.00000000000E+00  0.00000000000E+00  0.24292435899E+03  0.24292435899E+03  0.00000000000E+00 0. -1.
          1   -1    0    0  501    0 -0.00000000000E+00 -0.00000000000E+00 -0.15860265723E+03  0.15860265723E+03  0.00000000000E+00 0. -1.
         25    2    1    2    0    0 -0.36868210003E+02  0.22896004218E+02  0.83842903156E+02  0.15659846159E+03  0.12493980088E+03 0.  0.
          2    1    1    2  501    0 -0.21303134439E+02  0.85292675374E+02 -0.61551802878E+02  0.10731863047E+03  0.00000000000E+00 0. -1.
          1    1    1    2  502    0  0.58171344442E+02 -0.10818867959E+03  0.62030601478E+02  0.13760992415E+03  0.00000000000E+00 0. -1.
         22    1    3    3    0    0  0.49532996984E+01  0.38242256673E+01 -0.31666838685E+02  0.32279227875E+02  0.00000000000E+00 0. -1.
         22    1    3    3    0    0 -0.41821509701E+02  0.19071778551E+02  0.11550974184E+03  0.12431923371E+03  0.00000000000E+00 0. -1.
</event>
<event>
 7    1  0.5194496E-006  0.5004619E+02  0.7818608E-02  0.1511631E+00
          2   -1    0    0  502    0  0.00000000000E+00  0.00000000000E+00  0.80414617461E+03  0.80414617461E+03  0.00000000000E+00 0. -1.
          1   -1    0    0  501    0 -0.00000000000E+00 -0.00000000000E+00 -0.47814836464E+03  0.47814836464E+03  0.00000000000E+00 0. -1.
         25    2    1    2    0    0 -0.44752012800E+02  0.38466473034E+01  0.89686798320E+02  0.16027158169E+03  0.12500287501E+03 0.  0.
          2    1    1    2  501    0  0.36878196091E+02 -0.34075901894E+02 -0.44107162452E+03  0.44392042800E+03  0.00000000000E+00 0. -1.
          1    1    1    2  502    0  0.78738167094E+01  0.30229254590E+02  0.67738263617E+03  0.67810252956E+03  0.00000000000E+00 0. -1.
         22    1    3    3    0    0  0.40866145371E+02  0.12943129124E+02  0.48808446641E+02  0.64960225465E+02  0.00000000000E+00 0. -1.
         22    1    3    3    0    0 -0.85618158171E+02 -0.90964818203E+01  0.40878351680E+02  0.95311356229E+02  0.00000000000E+00 0. -1.
</event>
<event>
 7    1  0.5194496E-006  0.5497612E+02  0.7818608E-02  0.1442244E+00
          2   -1    0    0  502    0  0.00000000000E+00  0.00000000000E+00  0.54055309801E+03  0.54055309801E+03  0.00000000000E+00 0. -1.
          1   -1    0    0  501    0 -0.00000000000E+00 -0.00000000000E+00 -0.28977839711E+04  0.28977839711E+04  0.00000000000E+00 0. -1.
         25    2    1    2    0    0 -0.41481078073E+01 -0.15583371730E+02 -0.37363925357E+02  0.13146358285E+03  0.12500624955E+03 0.  0.
          2    1    1    2  501    0  0.34469114420E+02 -0.31260870318E+02 -0.28115997076E+04  0.28119847578E+04  0.00000000000E+00 0. -1.
          1    1    1    2  502    0 -0.30321006613E+02  0.46844242048E+02  0.49173275989E+03  0.49488872851E+03  0.00000000000E+00 0. -1.
         22    1    3    3    0    0 -0.36827888274E+02 -0.51464992065E+02 -0.50747788877E+02  0.81118905558E+02  0.00000000000E+00 0. -1.
         22    1    3    3    0    0  0.32679780467E+02  0.35881620334E+02  0.13383863520E+02  0.50344677295E+02  0.00000000000E+00 0. -1.
</event>
<event>
 7    1  0.5194496E-006  0.2992196E+02  0.7818608E-02  0.1600233E+00
          2   -1    0    0  502    0  0.00000000000E+00  0.00000000000E+00  0.87453066393E+03  0.87453066393E+03  0.00000000000E+00 0. -1.
          1   -1    0    0  501    0 -0.00000000000E+00 -0.00000000000E+00 -0.31096453555E+03  0.31096453555E+03  0.00000000000E+00 0. -1.
         25    2    1    2    0    0  0.93772193735E+01 -0.19831742504E+02  0.30979005874E+03  0.33477833511E+03  0.12500169163E+03 0.  0.
          2    1    1    2  501    0 -0.29801333471E+02 -0.26840136848E+01 -0.29730050878E+03  0.29880246975E+03  0.00000000000E+00 0. -1.
          1    1    1    2  502    0  0.20424114098E+02  0.22515756188E+02  0.55107657841E+03  0.55191439462E+03  0.00000000000E+00 0. -1.
         22    1    3    3    0    0 -0.12643793999E+02 -0.59613902918E+02  0.26126710784E+03  0.26828004881E+03  0.00000000000E+00 0.  1.
         22    1    3    3    0    0  0.22021013372E+02  0.39782160414E+02  0.48522950903E+02  0.66498286305E+02  0.00000000000E+00 0.  1.
</event>
<event>
 7    1  0.5194496E-006  0.8646813E+02  0.7818608E-02  0.1326965E+00
          2   -1    0    0  502    0  0.00000000000E+00  0.00000000000E+00  0.13971184875E+04  0.13971184875E+04  0.00000000000E+00 0. -1.
          1   -1    0    0  501    0 -0.00000000000E+00 -0.00000000000E+00 -0.41855655583E+02  0.41855655583E+02  0.00000000000E+00 0. -1.
         25    2    1    2    0    0 -0.32218965432E+02  0.21062088058E+02  0.63296278806E+03  0.64633497853E+03  0.12500136046E+03 0.  0.
          2    1    1    2  501    0  0.24238233077E+02  0.83001482448E+02  0.28516320978E+02  0.91048990073E+02  0.00000000000E+00 0. -1.
          1    1    1    2  502    0  0.79807323556E+01 -0.10406357051E+03  0.69378372289E+03  0.70159017449E+03  0.00000000000E+00 0. -1.
         22    1    3    3    0    0 -0.61706687578E+02  0.22580305377E+02  0.16736136716E+03  0.17979825556E+03  0.00000000000E+00 0. -1.
         22    1    3    3    0    0  0.29487722146E+02 -0.15182173194E+01  0.46560142090E+03  0.46653672297E+03  0.00000000000E+00 0. -1.
</event>
<event>
 7    1  0.5194496E-006  0.6539735E+02  0.7818608E-02  0.1457666E+00
          2   -1    0    0  502    0  0.00000000000E+00  0.00000000000E+00  0.78081805271E+02  0.78081805271E+02  0.00000000000E+00 0. -1.
          1   -1    0    0  501    0 -0.00000000000E+00 -0.00000000000E+00 -0.14139220600E+04  0.14139220600E+04  0.00000000000E+00 0. -1.
         25    2    1    2    0    0 -0.29202807688E+02 -0.11796919645E+02 -0.12380214945E+02  0.12949618436E+03  0.12499608294E+03 0.  0.
          2    1    1    2  501    0  0.57233259372E+02  0.32616385948E+02 -0.13258725630E+04  0.13275080143E+04  0.00000000000E+00 0. -1.
          1    1    1    2  502    0 -0.28030451684E+02 -0.20819466303E+02  0.24125231984E+01  0.34999666669E+02  0.00000000000E+00 0. -1.
         22    1    3    3    0    0 -0.12049076364E+02  0.36594324888E+02 -0.51948814138E+02  0.64676148197E+02  0.00000000000E+00 0. -1.
         22    1    3    3    0    0 -0.17153731324E+02 -0.48391244533E+02  0.39568599194E+02  0.64820036161E+02  0.00000000000E+00 0. -1.
</event>
<event>
 7    1  0.5194496E-006  0.7808165E+02  0.7818608E-02  0.1370703E+00
          2   -1    0    0  502    0  0.00000000000E+00  0.00000000000E+00  0.18056662861E+04  0.18056662861E+04  0.00000000000E+00 0. -1.
          1   -1    0    0  501    0 -0.00000000000E+00 -0.00000000000E+00 -0.85051941068E+02  0.85051941068E+02  0.00000000000E+00 0. -1.
         25    2    1    2    0    0 -0.28003234666E+01  0.71417936943E+02  0.40881475865E+03  0.43343123299E+03  0.12499905326E+03 0.  0.
          2    1    1    2  501    0 -0.53270297634E+02 -0.58934402153E+02 -0.50267184246E+02  0.94009457924E+02  0.00000000000E+00 0. -1.
          1    1    1    2  502    0  0.56070621100E+02 -0.12483534790E+02  0.13620667706E+04  0.13632775362E+04  0.00000000000E+00 0. -1.
         22    1    3    3    0    0 -0.10721537526E+02 -0.10249069676E+01  0.31234146599E+03  0.31252710791E+03  0.00000000000E+00 0. -1.
         22    1    3    3    0    0  0.79212140597E+01  0.72442843911E+02  0.96473292662E+02  0.12090412509E+03  0.00000000000E+00 0. -1.
</event>
<event>
 7    1  0.5194496E-006  0.3188362E+02  0.7818608E-02  0.1586655E+00
          2   -1    0    0  502    0  0.00000000000E+00  0.00000000000E+00  0.11671462893E+03  0.11671462893E+03  0.00000000000E+00 0. -1.
          1   -1    0    0  501    0 -0.00000000000E+00 -0.00000000000E+00 -0.16180791201E+04  0.16180791201E+04  0.00000000000E+00 0. -1.
         25    2    1    2    0    0 -0.58553679370E+02 -0.15172169052E+02 -0.55458462451E+03  0.57170550728E+03  0.12499741292E+03 0.  0.
          2    1    1    2  501    0  0.31027185137E+02  0.26078996557E+01 -0.10525829756E+04  0.10530434027E+04  0.00000000000E+00 0. -1.
          1    1    1    2  502    0  0.27526494232E+02  0.12564269396E+02  0.10580310894E+03  0.11004483910E+03  0.00000000000E+00 0. -1.
         22    1    3    3    0    0 -0.28923712336E+02 -0.11750890046E+02 -0.21778814948E+02  0.38065487423E+02  0.00000000000E+00 0. -1.
         22    1    3    3    0    0 -0.29629967034E+02 -0.34212790061E+01 -0.53280580956E+03  0.53364001986E+03  0.00000000000E+00 0. -1.
</event>
<event>
 7    1  0.5194496E-006  0.7118523E+02  0.7818608E-02  0.1486501E+00
          2   -1    0    0  502    0  0.00000000000E+00  0.00000000000E+00  0.12848457634E+03  0.12848457634E+03  0.00000000000E+00 0. -1.
          1   -1    0    0  501    0 -0.00000000000E+00 -0.00000000000E+00 -0.12498972387E+03  0.12498972387E+03  0.00000000000E+00 0. -1.
         25    2    1    2    0    0  0.56473268466E+02 -0.73871199314E+01 -0.11476467568E+02  0.13784321791E+03  0.12500097529E+03 0.  0.
          2    1    1    2  501    0 -0.75491922038E+02  0.25271875565E+02 -0.90904186464E+01  0.80126984835E+02  0.00000000000E+00 0. -1.
          1    1    1    2  502    0  0.19018653572E+02 -0.17884755634E+02  0.24061738688E+02  0.35504097460E+02  0.00000000000E+00 0. -1.
         22    1    3    3    0    0  0.91757796396E+02 -0.12391423036E+02  0.14532140886E+02  0.93724189423E+02  0.00000000000E+00 0. -1.
         22    1    3    3    0    0 -0.35284527930E+02  0.50043031047E+01 -0.26008608454E+02  0.44119028486E+02  0.00000000000E+00 0. -1.
</event>
<event>
 7    1  0.5194496E-006  0.6106582E+02  0.7818608E-02  0.1539031E+00
          2   -1    0    0  502    0  0.00000000000E+00  0.00000000000E+00  0.12115889999E+04  0.12115889999E+04  0.00000000000E+00 0. -1.
          1   -1    0    0  501    0 -0.00000000000E+00 -0.00000000000E+00 -0.32725127932E+03  0.32725127932E+03  0.00000000000E+00 0. -1.
         25    2    1    2    0    0 -0.50356137026E+02 -0.60227018000E+02 -0.16746227809E+03  0.22322675233E+03  0.12499413641E+03 0.  0.
          2    1    1    2  501    0  0.37362988614E+02  0.43294889897E+02 -0.12560710929E+03  0.13801299328E+03  0.00000000000E+00 0. -1.
          1    1    1    2  502    0  0.12993148412E+02  0.16932128103E+02  0.11774071079E+04  0.11776005336E+04  0.00000000000E+00 0. -1.
         22    1    3    3    0    0 -0.87784182283E+02 -0.16024924323E+02 -0.92947534517E+02  0.12884915611E+03  0.00000000000E+00 0. -1.
         22    1    3    3    0    0  0.37428045256E+02 -0.44202093677E+02 -0.74514743578E+02  0.94377596216E+02  0.00000000000E+00 0. -1.
</event>
<event>
 7    1  0.5194496E-006  0.6277777E+02  0.7818608E-02  0.1504353E+00
          2   -1    0    0  502    0  0.00000000000E+00  0.00000000000E+00  0.95739201924E+03  0.95739201924E+03  0.00000000000E+00 0. -1.
          1   -1    0    0  501    0 -0.00000000000E+00 -0.00000000000E+00 -0.48231089275E+02  0.48231089275E+02  0.00000000000E+00 0. -1.
         25    2    1    2    0    0 -0.36017806207E+02 -0.30507888978E+02  0.85501607680E+02  0.15864084421E+03  0.12501351479E+03 0.  0.
          2    1    1    2  501    0 -0.24071205354E+02  0.10257170387E+02  0.59698784052E+01  0.26837882176E+02  0.00000000000E+00 0. -1.
          1    1    1    2  502    0  0.60089011561E+02  0.20250718590E+02  0.81768944388E+03  0.82014438213E+03  0.00000000000E+00 0. -1.
         22    1    3    3    0    0  0.12760546228E+02 -0.69551985736E+02  0.38994730841E+02  0.80752085380E+02  0.00000000000E+00 0.  1.
         22    1    3    3    0    0 -0.48778352435E+02  0.39044096759E+02  0.46506876838E+02  0.77888758825E+02  0.00000000000E+00 0.  1.
</event>
<event>
 7    1  0.5194496E-006  0.1375563E+03  0.7818608E-02  0.1319265E+00
          2   -1    0    0  502    0  0.00000000000E+00  0.00000000000E+00  0.29457307018E+03  0.29457307018E+03  0.00000000000E+00 0. -1.
          1   -1    0    0  501    0 -0.00000000000E+00 -0.00000000000E+00 -0.57664697092E+03  0.57664697092E+03  0.00000000000E+00 0. -1.
         25    2    1    2    0    0  0.89039677287E+02 -0.14145803434E+03 -0.22114949791E+03  0.30409180817E+03  0.12500515092E+03 0.  0.
          2    1    1    2  501    0 -0.49429553069E+02  0.11496873808E+02 -0.29345752541E+03  0.29781332751E+03  0.00000000000E+00 0. -1.
          1    1    1    2  502    0 -0.39610124218E+02  0.12996116054E+03  0.23253312257E+03  0.26931490542E+03  0.00000000000E+00 0. -1.
         22    1    3    3    0    0  0.75069426761E+00  0.19595100796E+02 -0.47263824232E+02  0.51170309732E+02  0.00000000000E+00 0.  1.
         22    1    3    3    0    0  0.88288983020E+02 -0.16105313514E+03 -0.17388567368E+03  0.25292149844E+03  0.00000000000E+00 0.  1.
</event>
<event>
 7    1  0.5194496E-006  0.1647483E+03  0.7818608E-02  0.1333273E+00
          2   -1    0    0  502    0  0.00000000000E+00  0.00000000000E+00  0.29992276423E+04  0.29992276423E+04  0.00000000000E+00 0. -1.
          1   -1    0    0  501    0 -0.00000000000E+00 -0.00000000000E+00 -0.28858555416E+03  0.28858555416E+03  0.00000000000E+00 0. -1.
         25    2    1    2    0    0  0.62872134446E+02  0.18316909613E+03  0.22096026311E+03  0.31929814556E+03  0.12499617923E+03 0.  0.
          2    1    1    2  501    0 -0.35092153229E+02 -0.15807830308E+03 -0.21189283986E+03  0.26668105427E+03  0.00000000000E+00 0. -1.
          1    1    1    2  502    0 -0.27779981216E+02 -0.25090793050E+02  0.27015746649E+04  0.27018339966E+04  0.00000000000E+00 0. -1.
         22    1    3    3    0    0 -0.10891323367E+02  0.14111503188E+03  0.16603066342E+03  0.21817024165E+03  0.00000000000E+00 0. -1.
         22    1    3    3    0    0  0.73763457812E+02  0.42054064253E+02  0.54929599689E+02  0.10112790392E+03  0.00000000000E+00 0. -1.
</event>
<event>
 7    1  0.5194496E-006  0.1309710E+03  0.7818608E-02  0.1327719E+00
          2   -1    0    0  502    0  0.00000000000E+00  0.00000000000E+00  0.73299180025E+03  0.73299180025E+03  0.00000000000E+00 0. -1.
          1   -1    0    0  501    0 -0.00000000000E+00 -0.00000000000E+00 -0.35274439329E+03  0.35274439329E+03  0.00000000000E+00 0. -1.
         25    2    1    2    0    0 -0.56364223349E+02 -0.14906309088E+03  0.21374726096E+03  0.29446016707E+03  0.12498867024E+03 0.  0.
          2    1    1    2  501    0 -0.16799208791E+02  0.46501870440E+02 -0.30205737031E+03  0.30607726530E+03  0.00000000000E+00 0. -1.
          1    1    1    2  502    0  0.73163432140E+02  0.10256122044E+03  0.46855751632E+03  0.48519876117E+03  0.00000000000E+00 0. -1.
         22    1    3    3    0    0 -0.83953276717E+02 -0.55234628481E+02  0.78310356297E+02  0.12740301707E+03  0.00000000000E+00 0.  1.
         22    1    3    3    0    0  0.27589053369E+02 -0.93828462399E+02  0.13543690467E+03  0.16705715000E+03  0.00000000000E+00 0.  1.
</event>
<event>
 7    1  0.5194496E-006  0.1300889E+03  0.7818608E-02  0.1227792E+00
          2   -1    0    0  502    0  0.00000000000E+00  0.00000000000E+00  0.91497129849E+03  0.91497129849E+03  0.00000000000E+00 0. -1.
          1   -1    0    0  501    0 -0.00000000000E+00 -0.00000000000E+00 -0.33005626722E+03  0.33005626722E+03  0.00000000000E+00 0. -1.
         25    2    1    2    0    0  0.13908632396E+03 -0.64463302258E+02 -0.47031793458E+02  0.20330797137E+03  0.12498647438E+03 0.  0.
          2    1    1    2  501    0 -0.29832157632E+02  0.13391267224E+03 -0.17617498261E+03  0.22329394509E+03  0.00000000000E+00 0. -1.
          1    1    1    2  502    0 -0.10925416633E+03 -0.69449369987E+02  0.80812180734E+03  0.81842564925E+03  0.00000000000E+00 0. -1.
         22    1    3    3    0    0  0.63462178755E+02  0.61433476227E+01  0.33661642599E+02  0.72099202734E+02  0.00000000000E+00 0. -1.
         22    1    3    3    0    0  0.75624145203E+02 -0.70606649881E+02 -0.80693436057E+02  0.13120876864E+03  0.00000000000E+00 0. -1.
</event>
<event>
 7    1  0.5194496E-006  0.9654439E+02  0.7818608E-02  0.1325324E+00
          2   -1    0    0  502    0  0.00000000000E+00  0.00000000000E+00  0.18693339326E+04  0.18693339326E+04  0.00000000000E+00 0. -1.
          1   -1    0    0  501    0 -0.00000000000E+00 -0.00000000000E+00 -0.18119961520E+03  0.18119961520E+03  0.00000000000E+00 0. -1.
         25    2    1    2    0    0  0.32080647641E+02  0.22553848386E+01 -0.13040594874E+02  0.12972507895E+03  0.12499713709E+03 0.  0.
          2    1    1    2  501    0  0.61813756639E+02 -0.29540904263E+02 -0.97673186753E+02  0.11930489070E+03  0.00000000000E+00 0. -1.
          1    1    1    2  502    0 -0.93894404280E+02  0.27285519425E+02  0.17988480990E+04  0.18015035781E+04  0.00000000000E+00 0. -1.
         22    1    3    3    0    0 -0.91485039399E+01 -0.56527768954E+02 -0.52631943138E+01  0.57504652000E+02  0.00000000000E+00 0.  1.
         22    1    3    3    0    0  0.41229151581E+02  0.58783153792E+02 -0.77774005603E+01  0.72220426953E+02  0.00000000000E+00 0.  1.
</event>
<event>
 7    1  0.5194496E-006  0.1202147E+03  0.7818608E-02  0.1244527E+00
          2   -1    0    0  502    0  0.00000000000E+00  0.00000000000E+00  0.12275389549E+03  0.12275389549E+03  0.00000000000E+00 0. -1.
          1   -1    0    0  501    0 -0.00000000000E+00 -0.00000000000E+00 -0.83277035695E+03  0.83277035695E+03  0.00000000000E+00 0. -1.
         25    2    1    2    0    0  0.12486375390E+03  0.46263483434E+02 -0.40585739327E+03  0.44505763270E+03  0.12499922325E+03 0.  0.
          2    1    1    2  501    0 -0.96224530959E+02  0.72058388659E+02 -0.35778448587E+03  0.37744047222E+03  0.00000000000E+00 0. -1.
          1    1    1    2  502    0 -0.28639222944E+02 -0.11832187209E+03  0.53625417682E+02  0.13302614754E+03  0.00000000000E+00 0. -1.
         22    1    3    3    0    0  0.72357434427E+02  0.69493741399E+02 -0.13508292744E+03  0.16826281733E+03  0.00000000000E+00 0. -1.
         22    1    3    3    0    0  0.52506319477E+02 -0.23230257964E+02 -0.27077446582E+03  0.27679481536E+03  0.00000000000E+00 0. -1.
</event>
<event>
 7    1  0.5194496E-006  0.6157148E+02  0.7818608E-02  0.1444888E+00
          2   -1    0    0  502    0  0.00000000000E+00  0.00000000000E+00  0.30868471828E+04  0.30868471828E+04  0.00000000000E+00 0. -1.
          1   -1    0    0  501    0 -0.00000000000E+00 -0.00000000000E+00 -0.66835782163E+03  0.66835782163E+03  0.00000000000E+00 0. -1.
         25    2    1    2    0    0 -0.84875976606E+02  0.88923165649E+01  0.19443645405E+03  0.24640098909E+03  0.12499963225E+03 0.  0.
          2    1    1    2  501    0  0.32990869437E+02  0.23903165064E+02 -0.64140060593E+03  0.64269315855E+03  0.00000000000E+00 0. -1.
          1    1    1    2  502    0  0.51885107169E+02 -0.32795481628E+02  0.28654535130E+04  0.28661108568E+04  0.00000000000E+00 0. -1.
         22    1    3    3    0    0 -0.10170345293E+03 -0.25628838157E+01  0.20077588829E+03  0.22508024798E+03  0.00000000000E+00 0.  1.
         22    1    3    3    0    0  0.16827476321E+02  0.11455200381E+02 -0.63394342399E+01  0.21320741112E+02  0.00000000000E+00 0.  1.
</event>
<event>
 7    1  0.7865167E-006  0.1485650E+03  0.7818608E-02  0.1336234E+00
          2   -1    0    0  502    0  0.00000000000E+00  0.00000000000E+00  0.12938970368E+04  0.12938970368E+04  0.00000000000E+00 0. -1.
          1   -1    0    0  501    0 -0.00000000000E+00 -0.00000000000E+00 -0.11136502788E+04  0.11136502788E+04  0.00000000000E+00 0. -1.
         25    2    1    2    0    0 -0.57208234933E+02 -0.92892025709E+02 -0.25029230057E+03  0.30029109558E+03  0.12500718291E+03 0.  0.
          2    1    1    2  501    0 -0.15667395375E+02 -0.37294149401E+02 -0.83348080587E+03  0.83446184731E+03  0.00000000000E+00 0. -1.
          1    1    1    2  502    0  0.72875630307E+02  0.13018617511E+03  0.12640198644E+04  0.12727943727E+04  0.00000000000E+00 0. -1.
         22    1    3    3    0    0 -0.96366454857E+02 -0.57439345689E+02 -0.15502937660E+03  0.19136321398E+03  0.00000000000E+00 0.  1.
         22    1    3    3    0    0  0.39158219925E+02 -0.35452680020E+02 -0.95262923968E+02  0.10892788161E+03  0.00000000000E+00 0.  1.
</event>
<event>
 7    1  0.5194496E-006  0.1095219E+03  0.7818608E-02  0.1352859E+00
          2   -1    0    0  502    0  0.00000000000E+00  0.00000000000E+00  0.99361301327E+03  0.99361301327E+03  0.00000000000E+00 0. -1.
          1   -1    0    0  501    0 -0.00000000000E+00 -0.00000000000E+00 -0.14190481612E+03  0.14190481612E+03  0.00000000000E+00 0. -1.
         25    2    1    2    0    0 -0.59389429513E+02 -0.13694652151E+03  0.15205318037E+03  0.24703589266E+03  0.12500043405E+03 0.  0.
          2    1    1    2  501    0  0.30165722758E+02  0.99424733232E+02 -0.64863998884E+02  0.12248504708E+03  0.00000000000E+00 0. -1.
          1    1    1    2  502    0  0.29223706756E+02  0.37521788275E+02  0.76451901566E+03  0.76599688964E+03  0.00000000000E+00 0. -1.
         22    1    3    3    0    0 -0.34636105890E+01 -0.40627723322E+02 -0.17338292918E+02  0.44308293828E+02  0.00000000000E+00 0. -1.
         22    1    3    3    0    0 -0.55925818924E+02 -0.96318798185E+02  0.16939147329E+03  0.20272759883E+03  0.00000000000E+00 0. -1.
</event>
<event>
 7    1  0.5194496E-006  0.4489974E+02  0.7818608E-02  0.1496009E+00
          2   -1    0    0  502    0  0.00000000000E+00  0.00000000000E+00  0.24998311744E+03  0.24998311744E+03  0.00000000000E+00 0. -1.
          1   -1    0    0  501    0 -0.00000000000E+00 -0.00000000000E+00 -0.11186676981E+04  0.11186676981E+04  0.00000000000E+00 0. -1.
         25    2    1    2    0    0 -0.14463931185E+02 -0.95460507604E+01 -0.65104627897E+03  0.66316400151E+03  0.12499961259E+03 0.  0.
          2    1    1    2  501    0  0.31903031395E+02 -0.31828632164E+02 -0.45838199052E+03  0.46059191751E+03  0.00000000000E+00 0. -1.
          1    1    1    2  502    0 -0.17439100210E+02  0.41374682925E+02  0.24074368886E+03  0.24489489650E+03  0.00000000000E+00 0. -1.
         22    1    3    3    0    0  0.43019666551E+02  0.14400893854E+02 -0.11680302688E+03  0.12530372917E+03  0.00000000000E+00 0. -1.
         22    1    3    3    0    0 -0.57483597736E+02 -0.23946944615E+02 -0.53424325209E+03  0.53786027235E+03  0.00000000000E+00 0. -1.
</event>
<event>
 7    1  0.5194496E-006  0.4958705E+02  0.7818608E-02  0.1464247E+00
          2   -1    0    0  502    0  0.00000000000E+00  0.00000000000E+00  0.46314190992E+03  0.46314190992E+03  0.00000000000E+00 0. -1.
          1   -1    0    0  501    0 -0.00000000000E+00 -0.00000000000E+00 -0.42497688031E+03  0.42497688031E+03  0.00000000000E+00 0. -1.
         25    2    1    2    0    0 -0.54759783736E+02 -0.15420964810E+02 -0.19665228786E+03  0.23985965500E+03  0.12499636677E+03 0.  0.
          2    1    1    2  501    0  0.32837830409E+02 -0.29139335404E+02 -0.20297019616E+03  0.20766397016E+03  0.00000000000E+00 0. -1.
          1    1    1    2  502    0  0.21921953326E+02  0.44560300214E+02  0.43778751363E+03  0.44059516507E+03  0.00000000000E+00 0. -1.
         22    1    3    3    0    0 -0.75512970713E+02  0.17769543869E+02 -0.18238238358E+03  0.19819510407E+03  0.00000000000E+00 0.  1.
         22    1    3    3    0    0  0.20753186977E+02 -0.33190508679E+02 -0.14269904274E+02  0.41664550929E+02  0.00000000000E+00 0.  1.
</event>
<event>
 7    1  0.5194496E-006  0.8596292E+02  0.7818608E-02  0.1372502E+00
          2   -1    0    0  502    0  0.00000000000E+00  0.00000000000E+00  0.30555899257E+04  0.30555899257E+04  0.00000000000E+00 0. -1.
          1   -1    0    0  501    0 -0.00000000000E+00 -0.00000000000E+00 -0.57229176964E+02  0.57229176964E+02  0.00000000000E+00 0. -1.
         25    2    1    2    0    0  0.22141116482E+02  0.10935585086E+03  0.33917821326E+03  0.37830490301E+03  0.12499523246E+03 0.  0.
          2    1    1    2  501    0 -0.50833315217E+02 -0.66700519434E+02  0.95746895687E+01  0.84407700532E+02  0.00000000000E+00 0. -1.
          1    1    1    2  502    0  0.28692198735E+02 -0.42655331430E+02  0.26496078459E+04  0.26501064991E+04  0.00000000000E+00 0. -1.
         22    1    3    3    0    0 -0.24386928536E+01  0.29940075137E+02  0.26558348935E+03  0.26727690723E+03  0.00000000000E+00 0.  1.
         22    1    3    3    0    0  0.24579809336E+02  0.79415775727E+02  0.73594723911E+02  0.11102799579E+03  0.00000000000E+00 0.  1.
</event>
<event>
 7    1  0.5194496E-006  0.6896778E+02  0.7818608E-02  0.1491639E+00
          2   -1    0    0  502    0  0.00000000000E+00  0.00000000000E+00  0.53670912683E+02  0.53670912683E+02  0.00000000000E+00 0. -1.
          1   -1    0    0  501    0 -0.00000000000E+00 -0.00000000000E+00 -0.70667010422E+03  0.70667010422E+03  0.00000000000E+00 0. -1.
         25    2    1    2    0    0 -0.26528157364E+02 -0.36227844586E+02 -0.62406256263E+03  0.63804045414E+03  0.12500135670E+03 0.  0.
          2    1    1    2  501    0 -0.21154032031E+02 -0.15112357276E+02 -0.43555747847E+02  0.50724546170E+02  0.00000000000E+00 0. -1.
          1    1    1    2  502    0  0.47682189395E+02  0.51340201862E+02  0.14619118946E+02  0.71576016594E+02  0.00000000000E+00 0. -1.
         22    1    3    3    0    0  0.48249915288E+02  0.20564774650E+01 -0.20131607129E+03  0.20702764063E+03  0.00000000000E+00 0. -1.
         22    1    3    3    0    0 -0.74778072652E+02 -0.38284322051E+02 -0.42274649134E+03  0.43101281350E+03  0.00000000000E+00 0. -1.
</event>
<event>
 7    1  0.5194496E-006  0.6506213E+02  0.7818608E-02  0.1377754E+00
          2   -1    0    0  502    0  0.00000000000E+00  0.00000000000E+00  0.29602218065E+03  0.29602218065E+03  0.00000000000E+00 0. -1.
          1   -1    0    0  501    0 -0.00000000000E+00 -0.00000000000E+00 -0.25550934717E+03  0.25550934717E+03  0.00000000000E+00 0. -1.
         25    2    1    2    0    0 -0.51527108039E+02 -0.11062908239E+02 -0.10118926289E+03  0.16923521110E+03  0.12499543572E+03 0.  0.
          2    1    1    2  501    0  0.28085564633E+02  0.71746263411E+02 -0.10326363732E+03  0.12883983874E+03  0.00000000000E+00 0. -1.
          1    1    1    2  502    0  0.23441543406E+02 -0.60683355173E+02  0.24496573368E+03  0.25345647798E+03  0.00000000000E+00 0. -1.
         22    1    3    3    0    0  0.14833508555E+02  0.12918502627E+02  0.20599382458E+02  0.28482542791E+02  0.00000000000E+00 0. -1.
         22    1    3    3    0    0 -0.66360616595E+02 -0.23981410866E+02 -0.12178864534E+03  0.14075266831E+03  0.00000000000E+00 0. -1.
</event>
<event>
 7    1  0.5194496E-006  0.6651175E+02  0.7818608E-02  0.1496230E+00
          2   -1    0    0  502    0  0.00000000000E+00  0.00000000000E+00  0.98439937289E+03  0.98439937289E+03  0.00000000000E+00 0. -1.
          1   -1    0    0  501    0 -0.00000000000E+00 -0.00000000000E+00 -0.35269567949E+03  0.35269567949E+03  0.00000000000E+00 0. -1.
         25    2    1    2    0    0  0.46365406164E+02  0.31105193404E+02  0.21683576333E+03  0.25642601704E+03  0.12497707795E+03 0.  0.
          2    1    1    2  501    0 -0.37039219003E+02 -0.55496734471E+02 -0.32932605585E+03  0.33601702686E+03  0.00000000000E+00 0. -1.
          1    1    1    2  502    0 -0.93261871616E+01  0.24391541067E+02  0.74419398593E+03  0.74465200848E+03  0.00000000000E+00 0. -1.
         22    1    3    3    0    0 -0.16452002702E+02  0.54825632078E+02  0.15466329818E+03  0.16491590017E+03  0.00000000000E+00 0. -1.
         22    1    3    3    0    0  0.62817408867E+02 -0.23720438674E+02  0.62172465151E+02  0.91510116875E+02  0.00000000000E+00 0. -1.
</event>
<event>
 7    1  0.5194496E-006  0.8039459E+02  0.7818608E-02  0.1394110E+00
          2   -1    0    0  502    0  0.00000000000E+00  0.00000000000E+00  0.13001518900E+03  0.13001518900E+03  0.00000000000E+00 0. -1.
          1   -1    0    0  501    0 -0.00000000000E+00 -0.00000000000E+00 -0.10844245122E+04  0.10844245122E+04  0.00000000000E+00 0. -1.
         25    2    1    2    0    0 -0.28519616874E+02 -0.12163413327E+03 -0.63571055426E+03  0.65981862078E+03  0.12499789040E+03 0.  0.
          2    1    1    2  501    0  0.16491044880E+02  0.43077614148E+02 -0.42187329713E+03  0.42438745768E+03  0.00000000000E+00 0. -1.
          1    1    1    2  502    0  0.12028571995E+02  0.78556519123E+02  0.10317452816E+03  0.13023362278E+03  0.00000000000E+00 0. -1.
         22    1    3    3    0    0 -0.55820383816E+02 -0.78580452286E+02 -0.56193967760E+03  0.57014647591E+03  0.00000000000E+00 0. -1.
         22    1    3    3    0    0  0.27300766942E+02 -0.43053680985E+02 -0.73770876660E+02  0.89672144867E+02  0.00000000000E+00 0. -1.
</event>
<event>
 7    1  0.5194496E-006  0.8316397E+02  0.7818608E-02  0.1330384E+00
          2   -1    0    0  502    0  0.00000000000E+00  0.00000000000E+00  0.88289299380E+03  0.88289299380E+03  0.00000000000E+00 0. -1.
          1   -1    0    0  501    0 -0.00000000000E+00 -0.00000000000E+00 -0.22956865803E+03  0.22956865803E+03  0.00000000000E+00 0. -1.
         25    2    1    2    0    0  0.10620900845E+03 -0.84509988806E+02  0.29426781945E+03  0.34733386885E+03  0.12499990080E+03 0.  0.
          2    1    1    2  501    0 -0.75135747546E+02  0.11814810817E+02 -0.19299630915E+03  0.20744287325E+03  0.00000000000E+00 0. -1.
          1    1    1    2  502    0 -0.31073260901E+02  0.72695177989E+02  0.55205282546E+03  0.55768490974E+03  0.00000000000E+00 0. -1.
         22    1    3    3    0    0  0.82918110728E+02 -0.34354642841E+02  0.27418378407E+03  0.28850026346E+03  0.00000000000E+00 0.  1.
         22    1    3    3    0    0  0.23290897718E+02 -0.50155345965E+02  0.20084035387E+02  0.58833605387E+02  0.00000000000E+00 0.  1.
</event>
<event>
 7    1  0.5194496E-006  0.5288755E+02  0.7818608E-02  0.1492928E+00
          2   -1    0    0  502    0  0.00000000000E+00  0.00000000000E+00  0.11529856584E+02  0.11529856584E+02  0.00000000000E+00 0. -1.
          1   -1    0    0  501    0 -0.00000000000E+00 -0.00000000000E+00 -0.14288111789E+04  0.14288111789E+04  0.00000000000E+00 0. -1.
         25    2    1    2    0    0 -0.78851368945E+02 -0.22913987802E+02 -0.10247079604E+04  0.10355646185E+04  0.12500034303E+03 0.  0.
          2    1    1    2  501    0  0.29903500395E+02  0.15321569731E+02 -0.27707115617E+03  0.27910104876E+03  0.00000000000E+00 0. -1.
          1    1    1    2  502    0  0.48947868549E+02  0.75924180714E+01 -0.11550220573E+03  0.12567536822E+03  0.00000000000E+00 0. -1.
         22    1    3    3    0    0 -0.69086707979E+02  0.41700701866E+02 -0.45271462879E+03  0.45985047230E+03  0.00000000000E+00 0. -1.
         22    1    3    3    0    0 -0.97646609655E+01 -0.64614689668E+02 -0.57199333166E+03  0.57571414625E+03  0.00000000000E+00 0. -1.
</event>
<event>
 7    1  0.5194496E-006  0.5356190E+02  0.7818608E-02  0.1544614E+00
          2   -1    0    0  502    0  0.00000000000E+00  0.00000000000E+00  0.12427202454E+04  0.12427202454E+04  0.00000000000E+00 0. -1.
          1   -1    0    0  501    0 -0.00000000000E+00 -0.00000000000E+00 -0.90354395726E+03  0.90354395726E+03  0.00000000000E+00 0. -1.
         25    2    1    2    0    0  0.37443306944E+02  0.82710492237E+01  0.17756190873E+03  0.22050954529E+03  0.12500326652E+03 0.  0.
          2    1    1    2  501    0 -0.43886247024E+02 -0.30835884313E+02 -0.88112263524E+03  0.88275361952E+03  0.00000000000E+00 0. -1.
          1    1    1    2  502    0  0.64429400804E+01  0.22564835089E+02  0.10427370147E+04  0.10430010379E+04  0.00000000000E+00 0. -1.
         22    1    3    3    0    0  0.73636264626E+02 -0.74712177919E+01  0.16195761321E+03  0.17806848975E+03  0.00000000000E+00 0. -1.
         22    1    3    3    0    0 -0.36192957682E+02  0.15742267016E+02  0.15604295519E+02  0.42441055538E+02  0.00000000000E+00 0. -1.
</event>
<event>
 7    1  0.5194496E-006  0.1742479E+03  0.7818608E-02  0.1302065E+00
          2   -1    0    0  502    0  0.00000000000E+00  0.00000000000E+00  0.32042602169E+04  0.32042602169E+04  0.00000000000E+00 0. -1.
          1   -1    0    0  501    0 -0.00000000000E+00 -0.00000000000E+00 -0.85901172649E+03  0.85901172649E+03  0.00000000000E+00 0. -1.
         25    2    1    2    0    0  0.13365668145E+03 -0.87494742633E+02  0.21240993682E+04  0.21337624237E+04  0.12499806494E+03 0.  0.
          2    1    1    2  501    0  0.46054886335E+02 -0.84424623713E+01 -0.84387713828E+03  0.84517510153E+03  0.00000000000E+00 0. -1.
          1    1    1    2  502    0 -0.17971156779E+03  0.95937205005E+02  0.10650262605E+04  0.10843344182E+04  0.00000000000E+00 0. -1.
         22    1    3    3    0    0  0.14503184423E+03 -0.10352476941E+03  0.20184536210E+04  0.20263036875E+04  0.00000000000E+00 0. -1.
         22    1    3    3    0    0 -0.11375162776E+02  0.16030026780E+02  0.10564574716E+03  0.10745873617E+03  0.00000000000E+00 0. -1.
</event>
<event>
 7    1  0.5194496E-006  0.8154315E+02  0.7818608E-02  0.1333225E+00
          2   -1    0    0  502    0  0.00000000000E+00  0.00000000000E+00  0.25047803488E+04  0.25047803488E+04  0.00000000000E+00 0. -1.
          1   -1    0    0  501    0 -0.00000000000E+00 -0.00000000000E+00 -0.19857757974E+03  0.19857757974E+03  0.00000000000E+00 0. -1.
         25    2    1    2    0    0  0.73618094091E+02 -0.39511004001E+02  0.15397714661E+03  0.21520943979E+03  0.12500159231E+03 0.  0.
          2    1    1    2  501    0 -0.11354666652E+02  0.82498343735E+02 -0.15698144860E+03  0.17770222390E+03  0.00000000000E+00 0. -1.
          1    1    1    2  502    0 -0.62263427439E+02 -0.42987339734E+02  0.23092070710E+04  0.23104462648E+04  0.00000000000E+00 0. -1.
         22    1    3    3    0    0  0.50879918125E+02  0.16601239784E+02  0.42307885970E+01  0.53686746995E+02  0.00000000000E+00 0. -1.
         22    1    3    3    0    0  0.22738175967E+02 -0.56112243784E+02  0.14974635801E+03  0.16152269279E+03  0.00000000000E+00 0. -1.
</event>
<event>
 7    1  0.5194496E-006  0.9220424E+02  0.7818608E-02  0.1302433E+00
          2   -1    0    0  502    0  0.00000000000E+00  0.00000000000E+00  0.23111328348E+04  0.23111328348E+04  0.00000000000E+00 0. -1.
          1   -1    0    0  501    0 -0.00000000000E+00 -0.00000000000E+00 -0.49446172792E+03  0.49446172792E+03  0.00000000000E+00 0. -1.
         25    2    1    2    0    0  0.13792499866E+03  0.45072284833E+02  0.69984758583E+03  0.72558036212E+03  0.12500160949E+03 0.  0.
          2    1    1    2  501    0 -0.87835481532E+02  0.27508322773E+02 -0.47596669720E+03  0.48478456709E+03  0.00000000000E+00 0. -1.
          1    1    1    2  502    0 -0.50089517131E+02 -0.72580607606E+02  0.15927902183E+04  0.15952296335E+04  0.00000000000E+00 0. -1.
         22    1    3    3    0    0  0.12862381925E+03 -0.12199536568E+02  0.40610621339E+03  0.42616331625E+03  0.00000000000E+00 0. -1.
         22    1    3    3    0    0  0.93011794137E+01  0.57271821400E+02  0.29374137245E+03  0.29941704586E+03  0.00000000000E+00 0. -1.
</event>
<event>
 7    1  0.5194496E-006  0.4981286E+02  0.7818608E-02  0.1485410E+00
          2   -1    0    0  502    0  0.00000000000E+00  0.00000000000E+00  0.18548452541E+04  0.18548452541E+04  0.00000000000E+00 0. -1.
          1   -1    0    0  501    0 -0.00000000000E+00 -0.00000000000E+00 -0.15771400084E+03  0.15771400084E+03  0.00000000000E+00 0. -1.
         25    2    1    2    0    0 -0.24278132284E+01 -0.12627058017E+02 -0.59206439229E+02  0.13891109934E+03  0.12500221679E+03 0.  0.
          2    1    1    2  501    0 -0.18576356676E+02 -0.32684164594E+02 -0.52250991191E+02  0.64370037463E+02  0.00000000000E+00 0. -1.
          1    1    1    2  502    0  0.21004169904E+02  0.45311222611E+02  0.18085886837E+04  0.18092781181E+04  0.00000000000E+00 0. -1.
         22    1    3    3    0    0 -0.49729163857E+02  0.80159472697E+01  0.11213416556E+02  0.51604126379E+02  0.00000000000E+00 0.  1.
         22    1    3    3    0    0  0.47301350628E+02 -0.20643005287E+02 -0.70419855785E+02  0.87306972959E+02  0.00000000000E+00 0.  1.
</event>
<event>
 7    1  0.5194496E-006  0.2496830E+02  0.7818608E-02  0.1667181E+00
          2   -1    0    0  502    0  0.00000000000E+00  0.00000000000E+00  0.29954804048E+03  0.29954804048E+03  0.00000000000E+00 0. -1.
          1   -1    0    0  501    0 -0.00000000000E+00 -0.00000000000E+00 -0.12095521745E+03  0.12095521745E+03  0.00000000000E+00 0. -1.
         25    2    1    2    0    0  0.10783912154E+01  0.66138036414E+00  0.18279833737E+03  0.22144729727E+03  0.12498829134E+03 0.  0.
          2    1    1    2  501    0 -0.24932851660E+02  0.33421577757E+01 -0.98524279154E+02  0.10168505639E+03  0.00000000000E+00 0. -1.
          1    1    1    2  502    0  0.23854460445E+02 -0.40035381399E+01  0.94318764818E+02  0.97370904266E+02  0.00000000000E+00 0. -1.
         22    1    3    3    0    0  0.17438516311E+02  0.45235647662E+02  0.16290620787E+03  0.16996705044E+03  0.00000000000E+00 0.  1.
         22    1    3    3    0    0 -0.16360125096E+02 -0.44574267298E+02  0.19892129499E+02  0.51480246836E+02  0.00000000000E+00 0.  1.
</event>
<event>
 7    1  0.5194496E-006  0.1408563E+03  0.7818608E-02  0.1323155E+00
          2   -1    0    0  502    0  0.00000000000E+00  0.00000000000E+00  0.97663543422E+03  0.97663543422E+03  0.00000000000E+00 0. -1.
          1   -1    0    0  501    0 -0.00000000000E+00 -0.00000000000E+00 -0.10375022750E+04  0.10375022750E+04  0.00000000000E+00 0. -1.
         25    2    1    2    0    0 -0.12271676394E+03  0.48645500426E+01 -0.13906490484E+03  0.22370861990E+03  0.12499372329E+03 0.  0.
          2    1    1    2  501    0  0.13851367165E+03  0.40324308363E+02 -0.84941646346E+03  0.86158018517E+03  0.00000000000E+00 0. -1.
          1    1    1    2  502    0 -0.15796907710E+02 -0.45188858406E+02  0.92761452748E+03  0.92884890418E+03  0.00000000000E+00 0. -1.
         22    1    3    3    0    0 -0.14223646504E+03 -0.19663852221E+02 -0.11898537077E+03  0.18648162786E+03  0.00000000000E+00 0.  1.
         22    1    3    3    0    0  0.19519701097E+02  0.24528402264E+02 -0.20079534062E+02  0.37226992044E+02  0.00000000000E+00 0.  1.
</event>
<event>
 7    1  0.5194496E-006  0.5958521E+02  0.7818608E-02  0.1534159E+00
          2   -1    0    0  502    0  0.00000000000E+00  0.00000000000E+00  0.13503527543E+04  0.13503527543E+04  0.00000000000E+00 0. -1.
          1   -1    0    0  501    0 -0.00000000000E+00 -0.00000000000E+00 -0.21830571885E+03  0.21830571885E+03  0.00000000000E+00 0. -1.
         25    2    1    2    0    0  0.58857495585E+02 -0.24026598132E+02  0.30884481032E+03  0.33920218722E+03  0.12502609627E+03 0.  0.
          2    1    1    2  501    0  0.70575530395E+00  0.22570118769E+02 -0.20163153277E+03  0.20289204853E+03  0.00000000000E+00 0. -1.
          1    1    1    2  502    0 -0.59563250889E+02  0.14564793636E+01  0.10248337579E+04  0.10265642374E+04  0.00000000000E+00 0. -1.
         22    1    3    3    0    0  0.74229719627E+02  0.30026170608E+02  0.14037387454E+03  0.16160583792E+03  0.00000000000E+00 0.  1.
         22    1    3    3    0    0 -0.15372224041E+02 -0.54052768740E+02  0.16847093578E+03  0.17759634930E+03  0.00000000000E+00 0.  1.
</event>
<event>
 7    1  0.5194496E-006  0.1403641E+03  0.7818608E-02  0.1216410E+00
          2   -1    0    0  502    0  0.00000000000E+00  0.00000000000E+00  0.67648851253E+03  0.67648851253E+03  0.00000000000E+00 0. -1.
          1   -1    0    0  501    0 -0.00000000000E+00 -0.00000000000E+00 -0.14585160383E+04  0.14585160383E+04  0.00000000000E+00 0. -1.
         25    2    1    2    0    0 -0.71792302785E+02 -0.20776163490E+03 -0.19169510581E+03  0.31732268993E+03  0.12501057667E+03 0.  0.
          2    1    1    2  501    0  0.11261136891E+03  0.74735791462E+02 -0.11922519210E+04  0.11998880790E+04  0.00000000000E+00 0. -1.
          1    1    1    2  502    0 -0.40819066123E+02  0.13302584343E+03  0.60191950107E+03  0.61779378190E+03  0.00000000000E+00 0. -1.
         22    1    3    3    0    0 -0.10631566922E+03 -0.17162198630E+03 -0.14184790621E+03  0.24673458655E+03  0.00000000000E+00 0.  1.
         22    1    3    3    0    0  0.34523366438E+02 -0.36139648593E+02 -0.49847199598E+02  0.70588103377E+02  0.00000000000E+00 0.  1.
</event>
<event>
 7    1  0.5194496E-006  0.1086144E+03  0.7818608E-02  0.1430323E+00
          2   -1    0    0  502    0  0.00000000000E+00  0.00000000000E+00  0.74518447560E+03  0.74518447560E+03  0.00000000000E+00 0. -1.
          1   -1    0    0  501    0 -0.00000000000E+00 -0.00000000000E+00 -0.12345968912E+03  0.12345968912E+03  0.00000000000E+00 0. -1.
         25    2    1    2    0    0  0.95408894007E+02  0.10312533853E+02  0.21507110138E+02  0.15904976281E+03  0.12500026342E+03 0.  0.
          2    1    1    2  501    0 -0.11468455547E+03 -0.27401411899E+02  0.94775533113E+01  0.11829289350E+03  0.00000000000E+00 0. -1.
          1    1    1    2  502    0  0.19275661459E+02  0.17088878046E+02  0.59074012303E+03  0.59130150840E+03  0.00000000000E+00 0. -1.
         22    1    3    3    0    0  0.92499463797E+02  0.40280600053E+02  0.54264562773E+02  0.11455706140E+03  0.00000000000E+00 0. -1.
         22    1    3    3    0    0  0.29094302101E+01 -0.29968066200E+02 -0.32757452635E+02  0.44492701413E+02  0.00000000000E+00 0. -1.
</event>
<event>
 7    1  0.5194496E-006  0.1032646E+03  0.7818608E-02  0.1345004E+00
          2   -1    0    0  502    0  0.00000000000E+00  0.00000000000E+00  0.29003271729E+04  0.29003271729E+04  0.00000000000E+00 0. -1.
          1   -1    0    0  501    0 -0.00000000000E+00 -0.00000000000E+00 -0.20844550056E+03  0.20844550056E+03  0.00000000000E+00 0. -1.
         25    2    1    2    0    0  0.51603497339E+02  0.86553219067E+02 -0.29971651080E+02  0.16333055699E+03  0.12499676120E+03 0.  0.
          2    1    1    2  501    0 -0.51237267920E+02  0.16871277414E+02 -0.10428569660E+03  0.11741126071E+03  0.00000000000E+00 0. -1.
          1    1    1    2  502    0 -0.36622941840E+00 -0.10342449648E+03  0.28261390200E+04  0.28280308557E+04  0.00000000000E+00 0. -1.
         22    1    3    3    0    0  0.40655040421E+02  0.11889515509E+03 -0.16972247983E+02  0.12679490296E+03  0.00000000000E+00 0. -1.
         22    1    3    3    0    0  0.10948456917E+02 -0.32341936024E+02 -0.12999403097E+02  0.36535654032E+02  0.00000000000E+00 0. -1.
</event>
<event>
 7    1  0.5194496E-006  0.9138155E+02  0.7818608E-02  0.1318830E+00
          2   -1    0    0  502    0  0.00000000000E+00  0.00000000000E+00  0.60225060021E+03  0.60225060021E+03  0.00000000000E+00 0. -1.
          1   -1    0    0  501    0 -0.00000000000E+00 -0.00000000000E+00 -0.31115262489E+03  0.31115262489E+03  0.00000000000E+00 0. -1.
         25    2    1    2    0    0  0.68110469272E+02 -0.11572530684E+03  0.36827885257E+03  0.41144231635E+03  0.12499633503E+03 0.  0.
          2    1    1    2  501    0  0.18967336866E+01  0.76666251925E+02 -0.27659840826E+03  0.28703308387E+03  0.00000000000E+00 0. -1.
          1    1    1    2  502    0 -0.70007202958E+02  0.39059054910E+02  0.19941753101E+03  0.21492782488E+03  0.00000000000E+00 0. -1.
         22    1    3    3    0    0  0.80627490528E+02 -0.10577786084E+03  0.18708377623E+03  0.22954321467E+03  0.00000000000E+00 0. -1.
         22    1    3    3    0    0 -0.12517021257E+02 -0.99474459924E+01  0.18119507634E+03  0.18189910169E+03  0.00000000000E+00 0. -1.
</event>
<event>
 7    1  0.5194496E-006  0.6627111E+02  0.7818608E-02  0.1503132E+00
          2   -1    0    0  502    0  0.00000000000E+00  0.00000000000E+00  0.26380014097E+03  0.26380014097E+03  0.00000000000E+00 0. -1.
          1   -1    0    0  501    0 -0.00000000000E+00 -0.00000000000E+00 -0.16888361275E+04  0.16888361275E+04  0.00000000000E+00 0. -1.
         25    2    1    2    0    0 -0.55678419931E+02 -0.81447836449E+01 -0.30742295471E+03  0.33660200314E+03  0.12500244593E+03 0.  0.
          2    1    1    2  501    0  0.65363322869E+02 -0.14896596192E+02 -0.13653724854E+04  0.13670172993E+04  0.00000000000E+00 0. -1.
          1    1    1    2  502    0 -0.96849029383E+01  0.23041379837E+02  0.24775945361E+03  0.24901696606E+03  0.00000000000E+00 0. -1.
         22    1    3    3    0    0 -0.59499759258E+01 -0.87647679120E+01 -0.27923677659E+03  0.27943765095E+03  0.00000000000E+00 0.  1.
         22    1    3    3    0    0 -0.49728444005E+02  0.61998426710E+00 -0.28186178117E+02  0.57164352183E+02  0.00000000000E+00 0.  1.
</event>
<event>
 7    1  0.5194496E-006  0.5897351E+02  0.7818608E-02  0.1420342E+00
          2   -1    0    0  502    0  0.00000000000E+00  0.00000000000E+00  0.11652975265E+04  0.11652975265E+04  0.00000000000E+00 0. -1.
          1   -1    0    0  501    0 -0.00000000000E+00 -0.00000000000E+00 -0.37474764601E+03  0.37474764601E+03  0.00000000000E+00 0. -1.
         25    2    1    2    0    0 -0.47709450238E+01 -0.95213148163E+01  0.12746178537E+03  0.17884278038E+03  0.12499926405E+03 0.  0.
          2    1    1    2  501    0 -0.42316490181E+02 -0.28819942223E+02 -0.34626237654E+03  0.35002701012E+03  0.00000000000E+00 0. -1.
          1    1    1    2  502    0  0.47087435205E+02  0.38341257039E+02  0.10093504717E+04  0.10111753820E+04  0.00000000000E+00 0. -1.
         22    1    3    3    0    0 -0.12833735115E+02 -0.56353765326E+01  0.15204045797E+03  0.15268517637E+03  0.00000000000E+00 0. -1.
         22    1    3    3    0    0  0.80627900917E+01 -0.38859382837E+01 -0.24578672601E+02  0.26157604004E+02  0.00000000000E+00 0. -1.
</event>
<event>
 7    1  0.5194496E-006  0.5874694E+02  0.7818608E-02  0.1405546E+00
          2   -1    0    0  502    0  0.00000000000E+00  0.00000000000E+00  0.17164794005E+04  0.17164794005E+04  0.00000000000E+00 0. -1.
          1   -1    0    0  501    0 -0.00000000000E+00 -0.00000000000E+00 -0.17274892839E+03  0.17274892839E+03  0.00000000000E+00 0. -1.
         25    2    1    2    0    0  0.25905156548E+01 -0.25520632227E+01  0.19214801455E+03  0.22926160009E+03  0.12500719172E+03 0.  0.
          2    1    1    2  501    0  0.80182460124E+01 -0.57097277858E+02 -0.14816903908E+03  0.15899199838E+03  0.00000000000E+00 0. -1.
          1    1    1    2  502    0 -0.10608761667E+02  0.59649341080E+02  0.14997514967E+04  0.15009747304E+04  0.00000000000E+00 0. -1.
         22    1    3    3    0    0 -0.37777455112E+02 -0.49617489671E+01  0.57573668906E+01  0.38534430592E+02  0.00000000000E+00 0. -1.
         22    1    3    3    0    0  0.40367970767E+02  0.24096857444E+01  0.18639064766E+03  0.19072716950E+03  0.00000000000E+00 0. -1.
</event>
<event>
 7    1  0.5194496E-006  0.1396342E+03  0.7818608E-02  0.1319009E+00
          2   -1    0    0  502    0  0.00000000000E+00  0.00000000000E+00  0.11018163622E+04  0.11018163622E+04  0.00000000000E+00 0. -1.
          1   -1    0    0  501    0 -0.00000000000E+00 -0.00000000000E+00 -0.15490104931E+03  0.15490104931E+03  0.00000000000E+00 0. -1.
         25    2    1    2    0    0  0.18034803148E+02 -0.14045119819E+03  0.59075220991E+03  0.62021321123E+03  0.12499784263E+03 0.  0.
          2    1    1    2  501    0  0.31903681713E+02  0.13633013833E+03 -0.10350194213E+03  0.17411606344E+03  0.00000000000E+00 0. -1.
          1    1    1    2  502    0 -0.49938484860E+02  0.41210598571E+01  0.45966504505E+03  0.46238813679E+03  0.00000000000E+00 0. -1.
         22    1    3    3    0    0 -0.81322657276E+01  0.16750959176E+02  0.15720001372E+03  0.15829899776E+03  0.00000000000E+00 0. -1.
         22    1    3    3    0    0  0.26167068875E+02 -0.15720215737E+03  0.43355219620E+03  0.46191421346E+03  0.00000000000E+00 0. -1.
</event>
<event>
 7    1  0.5194496E-006  0.6738674E+02  0.7818608E-02  0.1525551E+00
          2   -1    0    0  502    0  0.00000000000E+00  0.00000000000E+00  0.92567351844E+01  0.92567351844E+01  0.00000000000E+00 0. -1.
          1   -1    0    0  501    0 -0.00000000000E+00 -0.00000000000E+00 -0.31216557567E+04  0.31216557567E+04  0.00000000000E+00 0. -1.
         25    2    1    2    0    0  0.58754293578E+02  0.61654520353E+02 -0.14065974114E+04  0.14147065102E+04  0.12499954162E+03 0.  0.
          2    1    1    2  501    0 -0.10520530316E+02 -0.18329093537E+02 -0.15059983719E+04  0.15061466507E+04  0.00000000000E+00 0. -1.
          1    1    1    2  502    0 -0.48233763262E+02 -0.43325426816E+02 -0.19980323822E+03  0.21005933098E+03  0.00000000000E+00 0. -1.
         22    1    3    3    0    0  0.35374856051E+02 -0.98170419584E+01 -0.10311026706E+04  0.10317560138E+04  0.00000000000E+00 0. -1.
         22    1    3    3    0    0  0.23379437527E+02  0.71471562311E+02 -0.37549474086E+03  0.38295049645E+03  0.00000000000E+00 0. -1.
</event>
<event>
 7    1  0.5194496E-006  0.5937065E+02  0.7818608E-02  0.1412275E+00
          2   -1    0    0  502    0  0.00000000000E+00  0.00000000000E+00  0.50109970219E+03  0.50109970219E+03  0.00000000000E+00 0. -1.
          1   -1    0    0  501    0 -0.00000000000E+00 -0.00000000000E+00 -0.11653362098E+04  0.11653362098E+04  0.00000000000E+00 0. -1.
         25    2    1    2    0    0  0.18887196688E+02  0.74207422874E+01  0.17617337049E+03  0.21696464299E+03  0.12499922490E+03 0.  0.
          2    1    1    2  501    0 -0.39273194744E+01 -0.59441370459E+02 -0.11417526295E+04  0.11433056316E+04  0.00000000000E+00 0. -1.
          1    1    1    2  502    0 -0.14959877213E+02  0.52020628172E+02  0.30134275139E+03  0.30616563736E+03  0.00000000000E+00 0. -1.
         22    1    3    3    0    0  0.21728056613E+02 -0.10294923505E+02 -0.12733746596E+02  0.27207392314E+02  0.00000000000E+00 0. -1.
         22    1    3    3    0    0 -0.28408599253E+01  0.17715665792E+02  0.18890711709E+03  0.18975725068E+03  0.00000000000E+00 0. -1.
</event>
<event>
 7    1  0.5194496E-006  0.2372089E+03  0.7818608E-02  0.1272977E+00
          2   -1    0    0  502    0  0.00000000000E+00  0.00000000000E+00  0.29929584989E+03  0.29929584989E+03  0.00000000000E+00 0. -1.
          1   -1    0    0  501    0 -0.00000000000E+00 -0.00000000000E+00 -0.31734181151E+04  0.31734181151E+04  0.00000000000E+00 0. -1.
         25    2    1    2    0    0  0.19514305171E+03  0.13475627285E+03 -0.17178457026E+03  0.31839285630E+03  0.12499603458E+03 0.  0.
          2    1    1    2  501    0 -0.16627408529E+03 -0.16955506076E+03 -0.29212000819E+04  0.29308370662E+04  0.00000000000E+00 0. -1.
          1    1    1    2  502    0 -0.28868966425E+02  0.34798787906E+02  0.21886238691E+03  0.22348404253E+03  0.00000000000E+00 0. -1.
         22    1    3    3    0    0 -0.16476382502E+02  0.14976670192E+02 -0.28444714274E+02  0.36123034210E+02  0.00000000000E+00 0.  1.
         22    1    3    3    0    0  0.21161943422E+03  0.11977960266E+03 -0.14333985598E+03  0.28226982209E+03  0.00000000000E+00 0.  1.
</event>
<event>
 7    1  0.5194496E-006  0.5446761E+02  0.7818608E-02  0.1438194E+00
          2   -1    0    0  502    0  0.00000000000E+00  0.00000000000E+00  0.74832148760E+03  0.74832148760E+03  0.00000000000E+00 0. -1.
          1   -1    0    0  501    0 -0.00000000000E+00 -0.00000000000E+00 -0.16157420141E+04  0.16157420141E+04  0.00000000000E+00 0. -1.
         25    2    1    2    0    0  0.90001404843E+02  0.20290493897E+02  0.18730100025E+02  0.15647980891E+03  0.12499262752E+03 0.  0.
          2    1    1    2  501    0 -0.37104231660E+02 -0.31094185658E+02 -0.15453845899E+04  0.15461426529E+04  0.00000000000E+00 0. -1.
          1    1    1    2  502    0 -0.52897173183E+02  0.10803691762E+02  0.65923396341E+03  0.66144103986E+03  0.00000000000E+00 0. -1.
         22    1    3    3    0    0 -0.14120173442E+02 -0.34756467748E+02  0.26305445201E+01  0.37607327914E+02  0.00000000000E+00 0.  1.
         22    1    3    3    0    0  0.10412157828E+03  0.55046961645E+02  0.16099555505E+02  0.11887248100E+03  0.00000000000E+00 0.  1.
</event>
<event>
 7    1  0.5194496E-006  0.4251907E+02  0.7818608E-02  0.1520878E+00
          2   -1    0    0  502    0  0.00000000000E+00  0.00000000000E+00  0.99239511759E+03  0.99239511759E+03  0.00000000000E+00 0. -1.
          1   -1    0    0  501    0 -0.00000000000E+00 -0.00000000000E+00 -0.21779585994E+03  0.21779585994E+03  0.00000000000E+00 0. -1.
         25    2    1    2    0    0 -0.17606598715E+02 -0.66713015720E+02 -0.10475464978E+03  0.17708618312E+03  0.12500144326E+03 0.  0.
          2    1    1    2  501    0  0.22117187371E+02  0.32456190375E+02 -0.71524627044E+02  0.81598692053E+02  0.00000000000E+00 0. -1.
          1    1    1    2  502    0 -0.45105886560E+01  0.34256825345E+02  0.95087853448E+03  0.95150610236E+03  0.00000000000E+00 0. -1.
         22    1    3    3    0    0  0.36404800576E+02 -0.73619750950E+02 -0.36772215844E+02  0.89985404889E+02  0.00000000000E+00 0. -1.
         22    1    3    3    0    0 -0.54011399291E+02  0.69067352298E+01 -0.67982433936E+02  0.87100778233E+02  0.00000000000E+00 0. -1.
</event>
<event>
 7    1  0.5194496E-006  0.3042188E+03  0.7818608E-02  0.1148048E+00
          2   -1    0    0  502    0  0.00000000000E+00  0.00000000000E+00  0.75504084141E+03  0.75504084141E+03  0.00000000000E+00 0. -1.
          1   -1    0    0  501    0 -0.00000000000E+00 -0.00000000000E+00 -0.71083400261E+03  0.71083400261E+03  0.00000000000E+00 0. -1.
         25    2    1    2    0    0  0.36668370017E+03 -0.11528544382E+03 -0.19074182055E+03  0.44693975241E+03  0.12500012260E+03 0.  0.
          2    1    1    2  501    0 -0.23560986281E+03  0.14384795668E+03 -0.33461450183E+03  0.43378693725E+03  0.00000000000E+00 0. -1.
          1    1    1    2  502    0 -0.13107383737E+03 -0.28562512853E+02  0.56956316118E+03  0.58514815436E+03  0.00000000000E+00 0. -1.
         22    1    3    3    0    0  0.14009634192E+03 -0.81778462436E+02 -0.13539286644E+03  0.21129583578E+03  0.00000000000E+00 0. -1.
         22    1    3    3    0    0  0.22658735826E+03 -0.33506981388E+02 -0.55348954110E+02  0.23564391663E+03  0.00000000000E+00 0. -1.
</event>
<event>
 7    1  0.5194496E-006  0.5072840E+02  0.7818608E-02  0.1496759E+00
          2   -1    0    0  502    0  0.00000000000E+00  0.00000000000E+00  0.64497667853E+03  0.64497667853E+03  0.00000000000E+00 0. -1.
          1   -1    0    0  501    0 -0.00000000000E+00 -0.00000000000E+00 -0.42118151802E+03  0.42118151802E+03  0.00000000000E+00 0. -1.
         25    2    1    2    0    0  0.12367937573E+02 -0.81587742383E+02  0.92951271261E+02  0.17628511696E+03  0.12500791193E+03 0.  0.
          2    1    1    2  501    0  0.13009972094E+01  0.50332198404E+02 -0.37727022488E+03  0.38061508821E+03  0.00000000000E+00 0. -1.
          1    1    1    2  502    0 -0.13668934783E+02  0.31255543979E+02  0.50811411413E+03  0.50925799138E+03  0.00000000000E+00 0. -1.
         22    1    3    3    0    0 -0.37174677103E+01 -0.11303045893E+03  0.80580354933E+02  0.13886287414E+03  0.00000000000E+00 0.  1.
         22    1    3    3    0    0  0.16085405283E+02  0.31442716547E+02  0.12370916328E+02  0.37422242821E+02  0.00000000000E+00 0.  1.
</event>
<event>
 7    1  0.5194496E-006  0.7684153E+02  0.7818608E-02  0.1353649E+00
          2   -1    0    0  502    0  0.00000000000E+00  0.00000000000E+00  0.31834598254E+03  0.31834598254E+03  0.00000000000E+00 0. -1.
          1   -1    0    0  501    0 -0.00000000000E+00 -0.00000000000E+00 -0.63103071884E+03  0.63103071884E+03  0.00000000000E+00 0. -1.
         25    2    1    2    0    0  0.57531103423E+02 -0.21485820224E+01 -0.87875097949E+02  0.16328352284E+03  0.12500012690E+03 0.  0.
          2    1    1    2  501    0 -0.48172494694E+02 -0.64531288094E+02 -0.49813195518E+03  0.50459916881E+03  0.00000000000E+00 0. -1.
          1    1    1    2  502    0 -0.93586087282E+01  0.66679870116E+02  0.27332231683E+03  0.28149400973E+03  0.00000000000E+00 0. -1.
         22    1    3    3    0    0 -0.21481575815E+02  0.40910270662E+02 -0.41234801725E+02  0.61930745340E+02  0.00000000000E+00 0. -1.
         22    1    3    3    0    0  0.79012679238E+02 -0.43058852684E+02 -0.46640296225E+02  0.10135277750E+03  0.00000000000E+00 0. -1.
</event>
<event>
 7    1  0.5194496E-006  0.6570378E+02  0.7818608E-02  0.1379011E+00
          2   -1    0    0  502    0  0.00000000000E+00  0.00000000000E+00  0.11186720705E+04  0.11186720705E+04  0.00000000000E+00 0. -1.
          1   -1    0    0  501    0 -0.00000000000E+00 -0.00000000000E+00 -0.11476621948E+03  0.11476621948E+03  0.00000000000E+00 0. -1.
         25    2    1    2    0    0 -0.14285549662E+02  0.27265808050E+02  0.87782975974E+02  0.15577069849E+03  0.12494462141E+03 0.  0.
          2    1    1    2  501    0 -0.52742963021E+02 -0.35826010032E+02 -0.66846442483E+02  0.92378406652E+02  0.00000000000E+00 0. -1.
          1    1    1    2  502    0  0.67028512683E+02  0.85602019816E+01  0.98296931751E+03  0.98528918483E+03  0.00000000000E+00 0. -1.
         22    1    3    3    0    0  0.24317416458E+02 -0.38337992621E+02  0.91160607180E+01  0.46305949773E+02  0.00000000000E+00 0.  1.
         22    1    3    3    0    0 -0.38602966121E+02  0.65603800671E+02  0.78666915256E+02  0.10946474872E+03  0.00000000000E+00 0.  1.
</event>
<event>
 7    1  0.5194496E-006  0.7732186E+02  0.7818608E-02  0.1384451E+00
          2   -1    0    0  502    0  0.00000000000E+00  0.00000000000E+00  0.75864472448E+01  0.75864472448E+01  0.00000000000E+00 0. -1.
          1   -1    0    0  501    0 -0.00000000000E+00 -0.00000000000E+00 -0.36438280644E+04  0.36438280644E+04  0.00000000000E+00 0. -1.
         25    2    1    2    0    0  0.43017912889E+02  0.13451049055E+02 -0.14432899733E+04  0.14493939928E+04  0.12500211105E+03 0.  0.
          2    1    1    2  501    0  0.23168543020E+02  0.46368395320E+02 -0.17168595755E+04  0.17176418752E+04  0.00000000000E+00 0. -1.
          1    1    1    2  502    0 -0.66186455909E+02 -0.59819444375E+02 -0.47609206839E+03  0.48437864368E+03  0.00000000000E+00 0. -1.
         22    1    3    3    0    0  0.42971386250E+02  0.51036134164E+02 -0.40775503591E+03  0.41317719726E+03  0.00000000000E+00 0.  1.
         22    1    3    3    0    0  0.46526639084E-01 -0.37585085109E+02 -0.10355349374E+04  0.10362167955E+04  0.00000000000E+00 0.  1.
</event>
<event>
 7    1  0.5194496E-006  0.1292357E+03  0.7818608E-02  0.1265679E+00
          2   -1    0    0  502    0  0.00000000000E+00  0.00000000000E+00  0.56875029857E+03  0.56875029857E+03  0.00000000000E+00 0. -1.
          1   -1    0    0  501    0 -0.00000000000E+00 -0.00000000000E+00 -0.10380513572E+03  0.10380513572E+03  0.00000000000E+00 0. -1.
         25    2    1    2    0    0  0.74723329382E+02  0.13277014080E+02  0.14328301030E+03  0.20473068158E+03  0.12499910353E+03 0.  0.
          2    1    1    2  501    0 -0.15925262798E+03  0.14783848961E+02  0.29818751505E+02  0.16269333007E+03  0.00000000000E+00 0. -1.
          1    1    1    2  502    0  0.84529298595E+02 -0.28060863041E+02  0.29184340103E+03  0.30513142264E+03  0.00000000000E+00 0. -1.
         22    1    3    3    0    0  0.92155983911E+02  0.47672861710E+02  0.12379116150E+03  0.16152299768E+03  0.00000000000E+00 0. -1.
         22    1    3    3    0    0 -0.17432654529E+02 -0.34395847631E+02  0.19491848801E+02  0.43207683899E+02  0.00000000000E+00 0. -1.
</event>
<event>
 7    1  0.5194496E-006  0.1663018E+03  0.7818608E-02  0.1281045E+00
          2   -1    0    0  502    0  0.00000000000E+00  0.00000000000E+00  0.47676998678E+03  0.47676998678E+03  0.00000000000E+00 0. -1.
          1   -1    0    0  501    0 -0.00000000000E+00 -0.00000000000E+00 -0.26367413931E+04  0.26367413931E+04  0.00000000000E+00 0. -1.
         25    2    1    2    0    0 -0.56367114227E+02  0.19619808588E+03 -0.12300718154E+04  0.12531448441E+04  0.12499755543E+03 0.  0.
          2    1    1    2  501    0  0.67586537196E+02 -0.13755645592E+03 -0.13889849315E+04  0.13974150630E+04  0.00000000000E+00 0. -1.
          1    1    1    2  502    0 -0.11219422969E+02 -0.58641629958E+02  0.45908534053E+03  0.46295147273E+03  0.00000000000E+00 0. -1.
         22    1    3    3    0    0 -0.37495933561E+02  0.19969093633E+03 -0.90591396883E+03  0.92841937400E+03  0.00000000000E+00 0.  1.
         22    1    3    3    0    0 -0.18871180665E+02 -0.34928504464E+01 -0.32415784654E+03  0.32472547011E+03  0.00000000000E+00 0.  1.
</event>
<event>
 7    1  0.5194496E-006  0.8635127E+02  0.7818608E-02  0.1403300E+00
          2   -1    0    0  502    0  0.00000000000E+00  0.00000000000E+00  0.13224143440E+04  0.13224143440E+04  0.00000000000E+00 0. -1.
          1   -1    0    0  501    0 -0.00000000000E+00 -0.00000000000E+00 -0.28258772832E+03  0.28258772832E+03  0.00000000000E+00 0. -1.
         25    2    1    2    0    0  0.10515362661E+03  0.38525942486E+02  0.42837878427E+03  0.46008121132E+03  0.12499921905E+03 0.  0.
          2    1    1    2  501    0 -0.85960340565E+02 -0.35169611678E+01 -0.25933006358E+03  0.27322816664E+03  0.00000000000E+00 0. -1.
          1    1    1    2  502    0 -0.19193286045E+02 -0.35008981318E+02  0.87077789498E+03  0.87169269435E+03  0.00000000000E+00 0. -1.
         22    1    3    3    0    0  0.76458232923E+01  0.19179458520E+02  0.33945420194E+00  0.20650071963E+02  0.00000000000E+00 0. -1.
         22    1    3    3    0    0  0.97507803318E+02  0.19346483966E+02  0.42803933007E+03  0.43943113935E+03  0.00000000000E+00 0. -1.
</event>
<event>
 7    1  0.5194496E-006  0.6682195E+02  0.7818608E-02  0.1394431E+00
          2   -1    0    0  502    0  0.00000000000E+00  0.00000000000E+00  0.93584616670E+02  0.93584616670E+02  0.00000000000E+00 0. -1.
          1   -1    0    0  501    0 -0.00000000000E+00 -0.00000000000E+00 -0.24524399723E+03  0.24524399723E+03  0.00000000000E+00 0. -1.
         25    2    1    2    0    0 -0.31369499624E+02 -0.91695197896E+02 -0.11645054490E+03  0.19641232032E+03  0.12500006138E+03 0.  0.
          2    1    1    2  501    0  0.46831360175E+02  0.29509463978E+02 -0.52240750983E+02  0.76112290882E+02  0.00000000000E+00 0. -1.
          1    1    1    2  502    0 -0.15461860551E+02  0.62185733918E+02  0.17031915313E+02  0.66304002699E+02  0.00000000000E+00 0. -1.
         22    1    3    3    0    0  0.33362142836E+02 -0.86634880334E+02 -0.61584007582E+02  0.11140567784E+03  0.00000000000E+00 0.  1.
         22    1    3    3    0    0 -0.64731642460E+02 -0.50603175624E+01 -0.54866537313E+02  0.85006642482E+02  0.00000000000E+00 0.  1.
</event>
<event>
 7    1  0.5194496E-006  0.1323023E+03  0.7818608E-02  0.1304501E+00
          2   -1    0    0  502    0  0.00000000000E+00  0.00000000000E+00  0.65900330236E+03  0.65900330236E+03  0.00000000000E+00 0. -1.
          1   -1    0    0  501    0 -0.00000000000E+00 -0.00000000000E+00 -0.49601971079E+03  0.49601971079E+03  0.00000000000E+00 0. -1.
         25    2    1    2    0    0 -0.10262711973E+03 -0.83837647530E+02  0.70039252661E+02  0.19517131980E+03  0.12500108124E+03 0.  0.
          2    1    1    2  501    0  0.46886163439E+02 -0.37925752216E+02 -0.42276217645E+03  0.42704160551E+03  0.00000000000E+00 0. -1.
          1    1    1    2  502    0  0.55740956295E+02  0.12176339975E+03  0.51570651535E+03  0.53281008784E+03  0.00000000000E+00 0. -1.
         22    1    3    3    0    0 -0.26235805367E+02 -0.10041253912E+03  0.35201619030E+02  0.10959082752E+03  0.00000000000E+00 0. -1.
         22    1    3    3    0    0 -0.76391314367E+02  0.16574891586E+02  0.34837633632E+02  0.85580492280E+02  0.00000000000E+00 0. -1.
</event>
<event>
 7    1  0.5194496E-006  0.7717864E+02  0.7818608E-02  0.1436827E+00
          2   -1    0    0  502    0  0.00000000000E+00  0.00000000000E+00  0.66661546459E+03  0.66661546459E+03  0.00000000000E+00 0. -1.
          1   -1    0    0  501    0 -0.00000000000E+00 -0.00000000000E+00 -0.11099807445E+03  0.11099807445E+03  0.00000000000E+00 0. -1.
         25    2    1    2    0    0  0.39802573173E+02  0.52653317320E+02  0.16231523784E+03  0.21524079821E+03  0.12500299245E+03 0.  0.
          2    1    1    2  501    0 -0.70106691440E+02 -0.36128050716E+02 -0.65349358660E+02  0.10242423009E+03  0.00000000000E+00 0. -1.
          1    1    1    2  502    0  0.30304118267E+02 -0.16525266603E+02  0.45865151096E+03  0.45994851074E+03  0.00000000000E+00 0. -1.
         22    1    3    3    0    0 -0.37679593016E+02  0.33304603614E+02  0.24455306995E+02  0.55919678039E+02  0.00000000000E+00 0.  1.
         22    1    3    3    0    0  0.77482166189E+02  0.19348713705E+02  0.13785993085E+03  0.15932112017E+03  0.00000000000E+00 0.  1.
</event>
<event>
 7    1  0.5194496E-006  0.8795826E+02  0.7818608E-02  0.1366625E+00
          2   -1    0    0  502    0  0.00000000000E+00  0.00000000000E+00  0.20207353680E+03  0.20207353680E+03  0.00000000000E+00 0. -1.
          1   -1    0    0  501    0 -0.00000000000E+00 -0.00000000000E+00 -0.13197928539E+04  0.13197928539E+04  0.00000000000E+00 0. -1.
         25    2    1    2    0    0 -0.10450631050E+03  0.73431186963E+02 -0.54506865547E+02  0.18684486698E+03  0.12500519099E+03 0.  0.
          2    1    1    2  501    0  0.24772134497E+02 -0.46568532923E+02 -0.11854518151E+04  0.11866247482E+04  0.00000000000E+00 0. -1.
          1    1    1    2  502    0  0.79734176002E+02 -0.26862654040E+02  0.12223936356E+03  0.14839677560E+03  0.00000000000E+00 0. -1.
         22    1    3    3    0    0 -0.28307767990E+02  0.67392034427E+02  0.24327570814E+02  0.77037956453E+02  0.00000000000E+00 0. -1.
         22    1    3    3    0    0 -0.76198542509E+02  0.60391525357E+01 -0.78834436361E+02  0.10980691053E+03  0.00000000000E+00 0. -1.
</event>
<event>
 7    1  0.5194496E-006  0.9785015E+02  0.7818608E-02  0.1406708E+00
          2   -1    0    0  502    0  0.00000000000E+00  0.00000000000E+00  0.78970119785E+03  0.78970119785E+03  0.00000000000E+00 0. -1.
          1   -1    0    0  501    0 -0.00000000000E+00 -0.00000000000E+00 -0.65407394508E+03  0.65407394508E+03  0.00000000000E+00 0. -1.
         25    2    1    2    0    0  0.14090212802E+02  0.69595806101E+02 -0.97015829096E+02  0.17343421182E+03  0.12500097765E+03 0.  0.
          2    1    1    2  501    0 -0.18564456927E+02  0.28844360218E+02 -0.51504556820E+03  0.51618656850E+03  0.00000000000E+00 0. -1.
          1    1    1    2  502    0  0.44742441255E+01 -0.98440166319E+02  0.74768865006E+03  0.75415436260E+03  0.00000000000E+00 0. -1.
         22    1    3    3    0    0  0.67568641085E+02  0.57177891367E+02 -0.53979584162E+02  0.10367559031E+03  0.00000000000E+00 0. -1.
         22    1    3    3    0    0 -0.53478428283E+02  0.12417914733E+02 -0.43036244934E+02  0.69758621517E+02  0.00000000000E+00 0. -1.
</event>
<event>
 7    1  0.5194496E-006  0.1568698E+03  0.7818608E-02  0.1301593E+00
          2   -1    0    0  502    0  0.00000000000E+00  0.00000000000E+00  0.27773639829E+04  0.27773639829E+04  0.00000000000E+00 0. -1.
          1   -1    0    0  501    0 -0.00000000000E+00 -0.00000000000E+00 -0.17384843174E+04  0.17384843174E+04  0.00000000000E+00 0. -1.
         25    2    1    2    0    0  0.51808978969E+02 -0.11621613328E+03  0.15902359040E+03  0.23896534222E+03  0.12500229014E+03 0.  0.
          2    1    1    2  501    0  0.52069550145E+02 -0.41641716257E+01 -0.16956594942E+04  0.16964638808E+04  0.00000000000E+00 0. -1.
          1    1    1    2  502    0 -0.10387852911E+03  0.12038030491E+03  0.25755155693E+04  0.25804190773E+04  0.00000000000E+00 0. -1.
         22    1    3    3    0    0 -0.11632559000E+02 -0.10229254157E+02 -0.17592101788E+02  0.23440053644E+02  0.00000000000E+00 0.  1.
         22    1    3    3    0    0  0.63441537969E+02 -0.10598687912E+03  0.17661569219E+03  0.21552528857E+03  0.00000000000E+00 0.  1.
</event>
<event>
 7    1  0.5194496E-006  0.3504765E+03  0.7818608E-02  0.1257295E+00
          2   -1    0    0  502    0  0.00000000000E+00  0.00000000000E+00  0.22523802380E+04  0.22523802380E+04  0.00000000000E+00 0. -1.
          1   -1    0    0  501    0 -0.00000000000E+00 -0.00000000000E+00 -0.42337850756E+03  0.42337850756E+03  0.00000000000E+00 0. -1.
         25    2    1    2    0    0 -0.26515739032E+03  0.22285032902E+03  0.14250640329E+04  0.14718710503E+04  0.12500472050E+03 0.  0.
          2    1    1    2  501    0  0.13863666579E+02  0.32849805345E+02 -0.35907762221E+03  0.36084352528E+03  0.00000000000E+00 0. -1.
          1    1    1    2  502    0  0.25129372374E+03 -0.25570013437E+03  0.76301531971E+03  0.84304416991E+03  0.00000000000E+00 0. -1.
         22    1    3    3    0    0 -0.77896921825E+02  0.12733030560E+03  0.75469199953E+03  0.76931199868E+03  0.00000000000E+00 0. -1.
         22    1    3    3    0    0 -0.18726046849E+03  0.95520023424E+02  0.67037203339E+03  0.70255905167E+03  0.00000000000E+00 0. -1.
</event>
<event>
 7    1  0.5194496E-006  0.6679526E+02  0.7818608E-02  0.1390605E+00
          2   -1    0    0  502    0  0.00000000000E+00  0.00000000000E+00  0.49890726537E+03  0.49890726537E+03  0.00000000000E+00 0. -1.
          1   -1    0    0  501    0 -0.00000000000E+00 -0.00000000000E+00 -0.10655137332E+04  0.10655137332E+04  0.00000000000E+00 0. -1.
         25    2    1    2    0    0  0.80528525244E+02 -0.62104005089E+02 -0.70848068667E+01  0.16129071585E+03  0.12499099850E+03 0.  0.
          2    1    1    2  501    0 -0.23430984703E+02  0.62237820890E+02 -0.97825961595E+03  0.98051743156E+03  0.00000000000E+00 0. -1.
          1    1    1    2  502    0 -0.57097540540E+02 -0.13381580094E+00  0.41873795497E+03  0.42261285117E+03  0.00000000000E+00 0. -1.
         22    1    3    3    0    0  0.46865681002E+02 -0.92138746812E+00  0.51861459761E+02  0.69906022767E+02  0.00000000000E+00 0.  1.
         22    1    3    3    0    0  0.33662844242E+02 -0.61182617621E+02 -0.58946266627E+02  0.91384693087E+02  0.00000000000E+00 0.  1.
</event>
<event>
 7    1  0.5194496E-006  0.1253431E+03  0.7818608E-02  0.1235797E+00
          2   -1    0    0  502    0  0.00000000000E+00  0.00000000000E+00  0.99208790206E+03  0.99208790206E+03  0.00000000000E+00 0. -1.
          1   -1    0    0  501    0 -0.00000000000E+00 -0.00000000000E+00 -0.70089660820E+03  0.70089660820E+03  0.00000000000E+00 0. -1.
         25    2    1    2    0    0 -0.23178766810E+03  0.64568556437E+02  0.72778188589E+03  0.77665004343E+03  0.12499677984E+03 0.  0.
          2    1    1    2  501    0  0.10808582230E+03 -0.61787490587E+02 -0.65423556875E+03  0.66597628967E+03  0.00000000000E+00 0. -1.
          1    1    1    2  502    0  0.12370184580E+03 -0.27810658500E+01  0.21764497672E+03  0.25035817717E+03  0.00000000000E+00 0. -1.
         22    1    3    3    0    0 -0.14426561530E+03  0.14514565491E+02  0.25595000102E+03  0.29416601332E+03  0.00000000000E+00 0. -1.
         22    1    3    3    0    0 -0.87522052804E+02  0.50053990946E+02  0.47183188487E+03  0.48248403011E+03  0.00000000000E+00 0. -1.
</event>
<event>
 7    1  0.5194496E-006  0.8761795E+02  0.7818608E-02  0.1402782E+00
          2   -1    0    0  502    0  0.00000000000E+00  0.00000000000E+00  0.51534194347E+03  0.51534194347E+03  0.00000000000E+00 0. -1.
          1   -1    0    0  501    0 -0.00000000000E+00 -0.00000000000E+00 -0.75218890723E+03  0.75218890723E+03  0.00000000000E+00 0. -1.
         25    2    1    2    0    0 -0.95508309500E+02 -0.81057427482E+02 -0.58845970825E+02  0.18649228338E+03  0.12499751895E+03 0.  0.
          2    1    1    2  501    0  0.63735104497E+02  0.57575261780E+02 -0.62571615353E+03  0.63158354879E+03  0.00000000000E+00 0. -1.
          1    1    1    2  502    0  0.31773205002E+02  0.23482165702E+02  0.44771516059E+03  0.44945501854E+03  0.00000000000E+00 0. -1.
         22    1    3    3    0    0  0.27584380731E+02 -0.18369265028E+02  0.63496774682E+01  0.33743834428E+02  0.00000000000E+00 0.  1.
         22    1    3    3    0    0 -0.12309269023E+03 -0.62688162454E+02 -0.65195648293E+02  0.15274844895E+03  0.00000000000E+00 0.  1.
</event>
<event>
 7    1  0.5194496E-006  0.5488244E+02  0.7818608E-02  0.1556538E+00
          2   -1    0    0  502    0  0.00000000000E+00  0.00000000000E+00  0.32839953440E+04  0.32839953440E+04  0.00000000000E+00 0. -1.
          1   -1    0    0  501    0 -0.00000000000E+00 -0.00000000000E+00 -0.11211290555E+04  0.11211290555E+04  0.00000000000E+00 0. -1.
         25    2    1    2    0    0 -0.19278269268E+02 -0.39399460479E+02 -0.14604135383E+02  0.13327684965E+03  0.12500187490E+03 0.  0.
          2    1    1    2  501    0 -0.21103739106E+02  0.21672593182E+01 -0.10468471889E+04  0.10470621289E+04  0.00000000000E+00 0. -1.
          1    1    1    2  502    0  0.40382008373E+02  0.37232201161E+02  0.32243176128E+04  0.32247854210E+04  0.00000000000E+00 0. -1.
         22    1    3    3    0    0 -0.67131783317E+02 -0.43841477264E+02  0.72011566494E+01  0.80502224299E+02  0.00000000000E+00 0. -1.
         22    1    3    3    0    0  0.47853514049E+02  0.44420167845E+01 -0.21805292032E+02  0.52774625348E+02  0.00000000000E+00 0. -1.
</event>
<event>
 7    1  0.5194496E-006  0.6768811E+02  0.7818608E-02  0.1402691E+00
          2   -1    0    0  502    0  0.00000000000E+00  0.00000000000E+00  0.74402239553E+03  0.74402239553E+03  0.00000000000E+00 0. -1.
          1   -1    0    0  501    0 -0.00000000000E+00 -0.00000000000E+00 -0.80614703130E+03  0.80614703130E+03  0.00000000000E+00 0. -1.
         25    2    1    2    0    0 -0.37477520612E+02  0.71804063934E+01  0.45629530934E+03  0.47464293864E+03  0.12499754833E+03 0.  0.
          2    1    1    2  501    0  0.53765932359E+02  0.41336904960E+02 -0.79316308772E+03  0.79605728369E+03  0.00000000000E+00 0. -1.
          1    1    1    2  502    0 -0.16288411747E+02 -0.48517311354E+02  0.27474314260E+03  0.27946920450E+03  0.00000000000E+00 0. -1.
         22    1    3    3    0    0  0.22003487457E+02  0.44801870679E+02  0.10363800028E+03  0.11503128348E+03  0.00000000000E+00 0.  1.
         22    1    3    3    0    0 -0.59481008069E+02 -0.37621464286E+02  0.35265730906E+03  0.35961165516E+03  0.00000000000E+00 0.  1.
</event>
<event>
 7    1  0.5194496E-006  0.2489078E+03  0.7818608E-02  0.1149673E+00
          2   -1    0    0  502    0  0.00000000000E+00  0.00000000000E+00  0.26902975650E+03  0.26902975650E+03  0.00000000000E+00 0. -1.
          1   -1    0    0  501    0 -0.00000000000E+00 -0.00000000000E+00 -0.74847327227E+03  0.74847327227E+03  0.00000000000E+00 0. -1.
         25    2    1    2    0    0  0.11271791994E+03  0.77687201055E+02 -0.21092269343E+02  0.18658582536E+03  0.12501502195E+03 0.  0.
          2    1    1    2  501    0 -0.18934902301E+03  0.16156124683E+03 -0.51623933071E+03  0.57311267266E+03  0.00000000000E+00 0. -1.
          1    1    1    2  502    0  0.76631103071E+02 -0.23924844789E+03  0.57888084283E+02  0.25780453075E+03  0.00000000000E+00 0. -1.
         22    1    3    3    0    0  0.14076712972E+01 -0.27999487784E+02 -0.17507465701E+02  0.33052446353E+02  0.00000000000E+00 0.  1.
         22    1    3    3    0    0  0.11131024865E+03  0.10568668884E+03 -0.35848036422E+01  0.15353337900E+03  0.00000000000E+00 0.  1.
</event>
<event>
 7    1  0.5194496E-006  0.1848246E+03  0.7818608E-02  0.1215256E+00
          2   -1    0    0  502    0  0.00000000000E+00  0.00000000000E+00  0.25271289685E+04  0.25271289685E+04  0.00000000000E+00 0. -1.
          1   -1    0    0  501    0 -0.00000000000E+00 -0.00000000000E+00 -0.23067609073E+04  0.23067609073E+04  0.00000000000E+00 0. -1.
         25    2    1    2    0    0 -0.11510596068E+03 -0.25579085711E+03  0.21815741057E+03  0.37669269937E+03  0.12500555672E+03 0.  0.
          2    1    1    2  501    0  0.10201147648E+03  0.15271747328E+03 -0.22224931834E+04  0.22300683663E+04  0.00000000000E+00 0. -1.
          1    1    1    2  502    0  0.13094484197E+02  0.10307338383E+03  0.22247038340E+04  0.22271288102E+04  0.00000000000E+00 0. -1.
         22    1    3    3    0    0 -0.35801888360E+02 -0.19144260861E+03  0.94986389118E+02  0.21668978222E+03  0.00000000000E+00 0. -1.
         22    1    3    3    0    0 -0.79304072316E+02 -0.64348248498E+02  0.12317102146E+03  0.16000291715E+03  0.00000000000E+00 0. -1.
</event>
<event>
 7    1  0.5194496E-006  0.7836404E+02  0.7818608E-02  0.1463968E+00
          2   -1    0    0  502    0  0.00000000000E+00  0.00000000000E+00  0.15730951242E+04  0.15730951242E+04  0.00000000000E+00 0. -1.
          1   -1    0    0  501    0 -0.00000000000E+00 -0.00000000000E+00 -0.70746864884E+03  0.70746864884E+03  0.00000000000E+00 0. -1.
         25    2    1    2    0    0 -0.29784379382E+02  0.77806851587E+02 -0.32522522402E+02  0.15369766135E+03  0.12499696489E+03 0.  0.
          2    1    1    2  501    0  0.50847906099E+02 -0.59607945819E+02 -0.61173176783E+03  0.61672876740E+03  0.00000000000E+00 0. -1.
          1    1    1    2  502    0 -0.21063526716E+02 -0.18198905768E+02  0.15098807656E+04  0.15101373443E+04  0.00000000000E+00 0. -1.
         22    1    3    3    0    0  0.44732342349E+02  0.13765174652E+02  0.78779581988E+01  0.47460770227E+02  0.00000000000E+00 0. -1.
         22    1    3    3    0    0 -0.74516721731E+02  0.64041676935E+02 -0.40400480601E+02  0.10623689112E+03  0.00000000000E+00 0. -1.
</event>
<event>
 7    1  0.5194496E-006  0.6116674E+02  0.7818608E-02  0.1434449E+00
          2   -1    0    0  502    0  0.00000000000E+00  0.00000000000E+00  0.41181663450E+03  0.41181663450E+03  0.00000000000E+00 0. -1.
          1   -1    0    0  501    0 -0.00000000000E+00 -0.00000000000E+00 -0.38586306539E+03  0.38586306539E+03  0.00000000000E+00 0. -1.
         25    2    1    2    0    0  0.91331612555E+01  0.20503790388E+02 -0.17603614136E+03  0.21706328744E+03  0.12499571045E+03 0.  0.
          2    1    1    2  501    0  0.42130469864E+02  0.13817013358E+02 -0.18423527234E+03  0.18949544038E+03  0.00000000000E+00 0. -1.
          1    1    1    2  502    0 -0.51263631120E+02 -0.34320803747E+02  0.38622498282E+03  0.39112097207E+03  0.00000000000E+00 0. -1.
         22    1    3    3    0    0  0.42690207290E+02  0.27424261273E+02 -0.17561426820E+03  0.18279747017E+03  0.00000000000E+00 0. -1.
         22    1    3    3    0    0 -0.33557046034E+02 -0.69204708850E+01 -0.42187315992E+00  0.34265817264E+02  0.00000000000E+00 0. -1.
</event>
<event>
 7    1  0.5194496E-006  0.5787148E+02  0.7818608E-02  0.1423623E+00
          2   -1    0    0  502    0  0.00000000000E+00  0.00000000000E+00  0.17031048321E+04  0.17031048321E+04  0.00000000000E+00 0. -1.
          1   -1    0    0  501    0 -0.00000000000E+00 -0.00000000000E+00 -0.17300372280E+04  0.17300372280E+04  0.00000000000E+00 0. -1.
         25    2    1    2    0    0  0.64837024946E+01  0.87913050982E+02  0.71072929797E+02  0.16866292744E+03  0.12500031524E+03 0.  0.
          2    1    1    2  501    0  0.28044927656E+02 -0.50546463692E+02 -0.16803363723E+04  0.16813303623E+04  0.00000000000E+00 0. -1.
          1    1    1    2  502    0 -0.34528630150E+02 -0.37366587290E+02  0.15823310466E+04  0.15831487704E+04  0.00000000000E+00 0. -1.
         22    1    3    3    0    0 -0.53200680145E+02  0.12238510360E+02  0.12917375408E+02  0.56097701300E+02  0.00000000000E+00 0. -1.
         22    1    3    3    0    0  0.59684382639E+02  0.75674540622E+02  0.58155554389E+02  0.11256522614E+03  0.00000000000E+00 0. -1.
</event>
<event>
 7    1  0.5194496E-006  0.9072839E+02  0.7818608E-02  0.1362012E+00
          2   -1    0    0  502    0  0.00000000000E+00  0.00000000000E+00  0.98591870627E+03  0.98591870627E+03  0.00000000000E+00 0. -1.
          1   -1    0    0  501    0 -0.00000000000E+00 -0.00000000000E+00 -0.84768166277E+03  0.84768166277E+03  0.00000000000E+00 0. -1.
         25    2    1    2    0    0 -0.48420916455E+02 -0.88569307846E+01  0.53101915247E+02  0.14445925730E+03  0.12500253295E+03 0.  0.
          2    1    1    2  501    0 -0.41573692094E+02  0.33106165444E+02 -0.79866938053E+03  0.80043561232E+03  0.00000000000E+00 0. -1.
          1    1    1    2  502    0  0.89994608549E+02 -0.24249234660E+02  0.88380450879E+03  0.88870549942E+03  0.00000000000E+00 0. -1.
         22    1    3    3    0    0 -0.85154067991E+01  0.55351127559E+02  0.37127217477E+02  0.67191441066E+02  0.00000000000E+00 0.  1.
         22    1    3    3    0    0 -0.39905509656E+02 -0.64208058344E+02  0.15974697770E+02  0.77267816237E+02  0.00000000000E+00 0.  1.
</event>
<event>
 7    1  0.5194496E-006  0.3769585E+02  0.7818608E-02  0.1610207E+00
          2   -1    0    0  502    0  0.00000000000E+00  0.00000000000E+00  0.13759492530E+04  0.13759492530E+04  0.00000000000E+00 0. -1.
          1   -1    0    0  501    0 -0.00000000000E+00 -0.00000000000E+00 -0.44915486157E+03  0.44915486157E+03  0.00000000000E+00 0. -1.
         25    2    1    2    0    0  0.15511203596E+02 -0.37731182394E+01  0.16644286135E+03  0.20876649039E+03  0.12500155022E+03 0.  0.
          2    1    1    2  501    0  0.22173621906E+02 -0.11833294592E+01 -0.42740082204E+03  0.42797725694E+03  0.00000000000E+00 0. -1.
          1    1    1    2  502    0 -0.37684825502E+02  0.49564476986E+01  0.11877523521E+04  0.11883603672E+04  0.00000000000E+00 0. -1.
         22    1    3    3    0    0  0.55585036653E+02 -0.48275692428E+00  0.15825360887E+03  0.16773232865E+03  0.00000000000E+00 0.  1.
         22    1    3    3    0    0 -0.40073833058E+02 -0.32903613151E+01  0.81892524843E+01  0.41034161741E+02  0.00000000000E+00 0.  1.
</event>
<event>
 7    1  0.5194496E-006  0.1135778E+03  0.7818608E-02  0.1391913E+00
          2   -1    0    0  502    0  0.00000000000E+00  0.00000000000E+00  0.35625958210E+03  0.35625958210E+03  0.00000000000E+00 0. -1.
          1   -1    0    0  501    0 -0.00000000000E+00 -0.00000000000E+00 -0.13039499730E+04  0.13039499730E+04  0.00000000000E+00 0. -1.
         25    2    1    2    0    0  0.17400829874E+01  0.10792189628E+03 -0.14575678580E+03  0.22027476317E+03  0.12500306835E+03 0.  0.
          2    1    1    2  501    0 -0.34955036776E+02 -0.10888613781E+03 -0.11171418293E+04  0.11229799252E+04  0.00000000000E+00 0. -1.
          1    1    1    2  502    0  0.33214953788E+02  0.96424153362E+00  0.31520822422E+03  0.31695486671E+03  0.00000000000E+00 0. -1.
         22    1    3    3    0    0 -0.52593467706E+02  0.14398033729E+02 -0.31636814887E+02  0.63041766130E+02  0.00000000000E+00 0.  1.
         22    1    3    3    0    0  0.54333550693E+02  0.93523862548E+02 -0.11411997091E+03  0.15723299704E+03  0.00000000000E+00 0.  1.
</event>
<event>
 7    1  0.5194496E-006  0.4286084E+02  0.7818608E-02  0.1566098E+00
          2   -1    0    0  502    0  0.00000000000E+00  0.00000000000E+00  0.18164913277E+04  0.18164913277E+04  0.00000000000E+00 0. -1.
          1   -1    0    0  501    0 -0.00000000000E+00 -0.00000000000E+00 -0.10730714158E+03  0.10730714158E+03  0.00000000000E+00 0. -1.
         25    2    1    2    0    0  0.60217730901E+02  0.21335022852E+02  0.51815869973E+03  0.53683807202E+03  0.12500127660E+03 0.  0.
          2    1    1    2  501    0 -0.18193018404E+02 -0.17968510341E+02 -0.95947831754E+02  0.99296725529E+02  0.00000000000E+00 0. -1.
          1    1    1    2  502    0 -0.42024712497E+02 -0.33665125106E+01  0.12869733182E+04  0.12876636718E+04  0.00000000000E+00 0. -1.
         22    1    3    3    0    0  0.92914677615E+01 -0.34363540401E+02  0.43462255427E+02  0.56179639807E+02  0.00000000000E+00 0.  1.
         22    1    3    3    0    0  0.50926263139E+02  0.55698563253E+02  0.47469644430E+03  0.48065843221E+03  0.00000000000E+00 0.  1.
</event>
<event>
 7    1  0.5194496E-006  0.7641976E+02  0.7818608E-02  0.1472411E+00
          2   -1    0    0  502    0  0.00000000000E+00  0.00000000000E+00  0.14488128849E+03  0.14488128849E+03  0.00000000000E+00 0. -1.
          1   -1    0    0  501    0 -0.00000000000E+00 -0.00000000000E+00 -0.20054441933E+04  0.20054441933E+04  0.00000000000E+00 0. -1.
         25    2    1    2    0    0  0.43657211850E+02  0.52056824477E+02 -0.25978829051E+03  0.29619370015E+03  0.12499954801E+03 0.  0.
          2    1    1    2  501    0 -0.66771579477E+02 -0.38364356607E+02 -0.17251601346E+04  0.17268780379E+04  0.00000000000E+00 0. -1.
          1    1    1    2  502    0  0.23114367626E+02 -0.13692467870E+02  0.12438552025E+03  0.12725374381E+03  0.00000000000E+00 0. -1.
         22    1    3    3    0    0  0.39554296540E+02  0.75286571110E+02 -0.86491431657E+02  0.12129871357E+03  0.00000000000E+00 0.  1.
         22    1    3    3    0    0  0.41029153109E+01 -0.23229746633E+02 -0.17329685885E+03  0.17489498658E+03  0.00000000000E+00 0.  1.
</event>
<event>
 7    1  0.5194496E-006  0.3892051E+02  0.7818608E-02  0.1524096E+00
          2   -1    0    0  502    0  0.00000000000E+00  0.00000000000E+00  0.10783661161E+04  0.10783661161E+04  0.00000000000E+00 0. -1.
          1   -1    0    0  501    0 -0.00000000000E+00 -0.00000000000E+00 -0.28542844613E+02  0.28542844613E+02  0.00000000000E+00 0. -1.
         25    2    1    2    0    0  0.36934772895E+02 -0.54657850120E+02  0.55480828665E+03  0.57252813919E+03  0.12499830877E+03 0.  0.
          2    1    1    2  501    0 -0.42515785327E+01  0.36700942217E+02 -0.10059414427E+01  0.36960073022E+02  0.00000000000E+00 0. -1.
          1    1    1    2  502    0 -0.32683194362E+02  0.17956907904E+02  0.49602092624E+03  0.49742074847E+03  0.00000000000E+00 0. -1.
         22    1    3    3    0    0 -0.37729595564E+02  0.10398690022E+02  0.10787742284E+03  0.11475710651E+03  0.00000000000E+00 0. -1.
         22    1    3    3    0    0  0.74664368459E+02 -0.65056540143E+02  0.44693086381E+03  0.45777103268E+03  0.00000000000E+00 0. -1.
</event>
<event>
 7    1  0.5194496E-006  0.4729448E+02  0.7818608E-02  0.1484729E+00
          2   -1    0    0  502    0  0.00000000000E+00  0.00000000000E+00  0.15666309851E+04  0.15666309851E+04  0.00000000000E+00 0. -1.
          1   -1    0    0  501    0 -0.00000000000E+00 -0.00000000000E+00 -0.18675870792E+04  0.18675870792E+04  0.00000000000E+00 0. -1.
         25    2    1    2    0    0 -0.84170805722E+02  0.29977482723E+01  0.20241689947E+02  0.15207862026E+03  0.12499787877E+03 0.  0.
          2    1    1    2  501    0  0.46278141292E+02  0.91294899458E+01 -0.18010924682E+04  0.18017100468E+04  0.00000000000E+00 0. -1.
          1    1    1    2  502    0  0.37892664430E+02 -0.12127238218E+02  0.14798946841E+04  0.14804293972E+04  0.00000000000E+00 0. -1.
         22    1    3    3    0    0 -0.60353466675E+02  0.11123912385E+02 -0.48919130940E+02  0.78481614015E+02  0.00000000000E+00 0. -1.
         22    1    3    3    0    0 -0.23817339047E+02 -0.81261641124E+01  0.69160820887E+02  0.73597006245E+02  0.00000000000E+00 0. -1.
</event>
<event>
 7    1  0.5194496E-006  0.1436545E+03  0.7818608E-02  0.1346552E+00
          2   -1    0    0  502    0  0.00000000000E+00  0.00000000000E+00  0.11167510445E+04  0.11167510445E+04  0.00000000000E+00 0. -1.
          1   -1    0    0  501    0 -0.00000000000E+00 -0.00000000000E+00 -0.14680265032E+03  0.14680265032E+03  0.00000000000E+00 0. -1.
         25    2    1    2    0    0  0.89095443907E+02  0.65756661382E+02  0.88846155359E+02  0.18915762747E+03  0.12500012826E+03 0.  0.
          2    1    1    2  501    0  0.21431599136E+02  0.31699615164E+02 -0.87052680425E+02  0.95091262545E+02  0.00000000000E+00 0. -1.
          1    1    1    2  502    0 -0.11052704304E+03 -0.97456276547E+02  0.96815491928E+03  0.97930480485E+03  0.00000000000E+00 0. -1.
         22    1    3    3    0    0  0.11584108793E+03  0.73453059965E+02  0.84182750733E+02  0.16093863797E+03  0.00000000000E+00 0.  1.
         22    1    3    3    0    0 -0.26745644023E+02 -0.76963985830E+01  0.46634046257E+01  0.28218989494E+02  0.00000000000E+00 0.  1.
</event>
<event>
 7    1  0.5194496E-006  0.9594895E+02  0.7818608E-02  0.1331610E+00
          2   -1    0    0  502    0  0.00000000000E+00  0.00000000000E+00  0.27102177008E+03  0.27102177008E+03  0.00000000000E+00 0. -1.
          1   -1    0    0  501    0 -0.00000000000E+00 -0.00000000000E+00 -0.69649215118E+03  0.69649215118E+03  0.00000000000E+00 0. -1.
         25    2    1    2    0    0 -0.86973339937E+02 -0.32977415129E+02 -0.47566943112E+02  0.16290444435E+03  0.12499348841E+03 0.  0.
          2    1    1    2  501    0  0.38485079370E+02 -0.52653235863E+02 -0.57797702257E+03  0.58164499757E+03  0.00000000000E+00 0. -1.
          1    1    1    2  502    0  0.48488260567E+02  0.85630650992E+02  0.20007358458E+03  0.22296447934E+03  0.00000000000E+00 0. -1.
         22    1    3    3    0    0 -0.58125444680E+02  0.34133441758E+02  0.12224149477E+02  0.68506123784E+02  0.00000000000E+00 0. -1.
         22    1    3    3    0    0 -0.28847895257E+02 -0.67110856888E+02 -0.59791092589E+02  0.94398320567E+02  0.00000000000E+00 0. -1.
</event>
<event>
 7    1  0.5194496E-006  0.1383292E+03  0.7818608E-02  0.1282922E+00
          2   -1    0    0  502    0  0.00000000000E+00  0.00000000000E+00  0.84695593291E+03  0.84695593291E+03  0.00000000000E+00 0. -1.
          1   -1    0    0  501    0 -0.00000000000E+00 -0.00000000000E+00 -0.47720686578E+03  0.47720686578E+03  0.00000000000E+00 0. -1.
         25    2    1    2    0    0  0.75887255628E+02  0.24439023608E+02  0.23020102506E+03  0.27381383243E+03  0.12500144577E+03 0.  0.
          2    1    1    2  501    0 -0.14104122314E+03  0.25218567586E+01 -0.44229677945E+03  0.46424716208E+03  0.00000000000E+00 0. -1.
          1    1    1    2  502    0  0.65153967514E+02 -0.26960880366E+02  0.58184482152E+03  0.58610180419E+03  0.00000000000E+00 0. -1.
         22    1    3    3    0    0  0.10981423324E+03  0.68523982156E+01  0.16890050176E+03  0.20157753019E+03  0.00000000000E+00 0.  1.
         22    1    3    3    0    0 -0.33926977615E+02  0.17586625392E+02  0.61300523304E+02  0.72236302231E+02  0.00000000000E+00 0.  1.
</event>
<event>
 7    1  0.5194496E-006  0.1107590E+03  0.7818608E-02  0.1351201E+00
          2   -1    0    0  502    0  0.00000000000E+00  0.00000000000E+00  0.42766989825E+03  0.42766989825E+03  0.00000000000E+00 0. -1.
          1   -1    0    0  501    0 -0.00000000000E+00 -0.00000000000E+00 -0.24535381444E+04  0.24535381444E+04  0.00000000000E+00 0. -1.
         25    2    1    2    0    0 -0.77769513997E+02 -0.30289023141E+02  0.80207549638E+02  0.17035459232E+03  0.12498765489E+03 0.  0.
          2    1    1    2  501    0  0.11103951035E+03 -0.38873064706E+01 -0.24052934155E+04  0.24078582389E+04  0.00000000000E+00 0. -1.
          1    1    1    2  502    0 -0.33269996355E+02  0.34176329612E+02  0.29921761974E+03  0.30299521139E+03  0.00000000000E+00 0. -1.
         22    1    3    3    0    0  0.60719900689E+00 -0.46461090160E+02 -0.12269827628E+02  0.48057780427E+02  0.00000000000E+00 0.  1.
         22    1    3    3    0    0 -0.78376713004E+02  0.16172067019E+02  0.92477377267E+02  0.12229681189E+03  0.00000000000E+00 0.  1.
</event>
<event>
 7    1  0.5194496E-006  0.8516940E+02  0.7818608E-02  0.1374280E+00
          2   -1    0    0  502    0  0.00000000000E+00  0.00000000000E+00  0.15701870211E+04  0.15701870211E+04  0.00000000000E+00 0. -1.
          1   -1    0    0  501    0 -0.00000000000E+00 -0.00000000000E+00 -0.25203404151E+03  0.25203404151E+03  0.00000000000E+00 0. -1.
         25    2    1    2    0    0 -0.64955994429E+01 -0.97632857023E+02  0.69105703175E+01  0.15889897420E+03  0.12500704154E+03 0.  0.
          2    1    1    2  501    0 -0.42721925247E+02  0.28094906739E+02 -0.17107787699E+03  0.17855566829E+03  0.00000000000E+00 0. -1.
          1    1    1    2  502    0  0.49217524690E+02  0.69537950284E+02  0.14823202862E+04  0.14847664201E+04  0.00000000000E+00 0. -1.
         22    1    3    3    0    0 -0.22297852747E+02  0.25059461292E+02 -0.74546276585E+01  0.34361931129E+02  0.00000000000E+00 0. -1.
         22    1    3    3    0    0  0.15802253304E+02 -0.12269231831E+03  0.14365197976E+02  0.12453704307E+03  0.00000000000E+00 0. -1.
</event>
<event>
 7    1  0.5194496E-006  0.5080998E+02  0.7818608E-02  0.1557852E+00
          2   -1    0    0  502    0  0.00000000000E+00  0.00000000000E+00  0.15891107752E+04  0.15891107752E+04  0.00000000000E+00 0. -1.
          1   -1    0    0  501    0 -0.00000000000E+00 -0.00000000000E+00 -0.43366604761E+03  0.43366604761E+03  0.00000000000E+00 0. -1.
         25    2    1    2    0    0  0.44667970258E+02 -0.57373823741E+02  0.33941518473E+03  0.36893584749E+03  0.12499603480E+03 0.  0.
          2    1    1    2  501    0 -0.12756590261E+02  0.18805947344E+02 -0.41808975819E+03  0.41870686662E+03  0.00000000000E+00 0. -1.
          1    1    1    2  502    0 -0.31911379997E+02  0.38567876398E+02  0.12341193011E+04  0.12351341087E+04  0.00000000000E+00 0. -1.
         22    1    3    3    0    0  0.94195396103E+01 -0.90435019229E+02  0.26537666000E+03  0.28052092988E+03  0.00000000000E+00 0.  1.
         22    1    3    3    0    0  0.35248430648E+02  0.33061195488E+02  0.74038524739E+02  0.88414917608E+02  0.00000000000E+00 0.  1.
</event>
<event>
 7    1  0.5194496E-006  0.1182794E+03  0.7818608E-02  0.1284791E+00
          2   -1    0    0  502    0  0.00000000000E+00  0.00000000000E+00  0.16889586248E+04  0.16889586248E+04  0.00000000000E+00 0. -1.
          1   -1    0    0  501    0 -0.00000000000E+00 -0.00000000000E+00 -0.60094779510E+02  0.60094779510E+02  0.00000000000E+00 0. -1.
         25    2    1    2    0    0 -0.22695460134E+02  0.12381512628E+03  0.27319639139E+03  0.32574562140E+03  0.12501468788E+03 0.  0.
          2    1    1    2  501    0  0.79036525814E+02 -0.17814828687E+02  0.21598609634E+02  0.83848914555E+02  0.00000000000E+00 0. -1.
          1    1    1    2  502    0 -0.56341065681E+02 -0.10600029760E+03  0.13340688443E+04  0.13394588684E+04  0.00000000000E+00 0. -1.
         22    1    3    3    0    0  0.28121114321E+02 -0.21571848895E+01  0.10927999891E+03  0.11286083766E+03  0.00000000000E+00 0. -1.
         22    1    3    3    0    0 -0.50816574454E+02  0.12597231117E+03  0.16391639248E+03  0.21288478373E+03  0.00000000000E+00 0. -1.
</event>
<event>
 7    1  0.5194496E-006  0.1810608E+03  0.7818608E-02  0.1353199E+00
          2   -1    0    0  502    0  0.00000000000E+00  0.00000000000E+00  0.11205456369E+04  0.11205456369E+04  0.00000000000E+00 0. -1.
          1   -1    0    0  501    0 -0.00000000000E+00 -0.00000000000E+00 -0.87218003856E+02  0.87218003856E+02  0.00000000000E+00 0. -1.
         25    2    1    2    0    0 -0.11330510710E+03  0.17014089995E+03  0.28032106334E+03  0.36876955672E+03  0.12500045711E+03 0.  0.
          2    1    1    2  501    0  0.18178715505E+02 -0.22189780180E+02 -0.27004591528E+02  0.39396700439E+02  0.00000000000E+00 0. -1.
          1    1    1    2  502    0  0.95126391593E+02 -0.14795111977E+03  0.78001116118E+03  0.79959738355E+03  0.00000000000E+00 0. -1.
         22    1    3    3    0    0 -0.30657091309E+02  0.13209322598E+03  0.22374064799E+03  0.26162636557E+03  0.00000000000E+00 0.  1.
         22    1    3    3    0    0 -0.82648015789E+02  0.38047673968E+02  0.56580415353E+02  0.10714319115E+03  0.00000000000E+00 0.  1.
</event>
<event>
 7    1  0.5194496E-006  0.1131291E+03  0.7818608E-02  0.1389146E+00
          2   -1    0    0  502    0  0.00000000000E+00  0.00000000000E+00  0.65667228505E+03  0.65667228505E+03  0.00000000000E+00 0. -1.
          1   -1    0    0  501    0 -0.00000000000E+00 -0.00000000000E+00 -0.16655956869E+03  0.16655956869E+03  0.00000000000E+00 0. -1.
         25    2    1    2    0    0 -0.10113109404E+03 -0.86942571007E+02 -0.25849986591E+02  0.18460697163E+03  0.12500001333E+03 0.  0.
          2    1    1    2  501    0  0.33979889510E+02 -0.29787017756E+01 -0.50616718579E+02  0.61037347215E+02  0.00000000000E+00 0. -1.
          1    1    1    2  502    0  0.67151204530E+02  0.89921272783E+02  0.56657942153E+03  0.57758753490E+03  0.00000000000E+00 0. -1.
         22    1    3    3    0    0 -0.10476188625E+02 -0.84681120901E+02  0.12332366483E+02  0.86213282203E+02  0.00000000000E+00 0. -1.
         22    1    3    3    0    0 -0.90654905415E+02 -0.22614501057E+01 -0.38182353074E+02  0.98393689424E+02  0.00000000000E+00 0. -1.
</event>
<event>
 7    1  0.5194496E-006  0.5243049E+02  0.7818608E-02  0.1476324E+00
          2   -1    0    0  502    0  0.00000000000E+00  0.00000000000E+00  0.39515189769E+03  0.39515189769E+03  0.00000000000E+00 0. -1.
          1   -1    0    0  501    0 -0.00000000000E+00 -0.00000000000E+00 -0.12375189420E+03  0.12375189420E+03  0.00000000000E+00 0. -1.
         25    2    1    2    0    0 -0.62117112177E+02 -0.35275646172E+02  0.10360662682E+03  0.17737725468E+03  0.12500180207E+03 0.  0.
          2    1    1    2  501    0  0.36790291691E+02 -0.98345447291E+01 -0.79887727005E+02  0.88500241575E+02  0.00000000000E+00 0. -1.
          1    1    1    2  502    0  0.25326820486E+02  0.45110190901E+02  0.24768110368E+03  0.25302629563E+03  0.00000000000E+00 0. -1.
         22    1    3    3    0    0  0.24830420698E+01  0.27076990744E+02 -0.13058570402E+02  0.30163805904E+02  0.00000000000E+00 0. -1.
         22    1    3    3    0    0 -0.64600154247E+02 -0.62352636917E+02  0.11666519722E+03  0.14721344878E+03  0.00000000000E+00 0. -1.
</event>
<event>
 7    1  0.5194496E-006  0.1983116E+03  0.7818608E-02  0.1340399E+00
          2   -1    0    0  502    0  0.00000000000E+00  0.00000000000E+00  0.13671973809E+04  0.13671973809E+04  0.00000000000E+00 0. -1.
          1   -1    0    0  501    0 -0.00000000000E+00 -0.00000000000E+00 -0.69224804528E+03  0.69224804528E+03  0.00000000000E+00 0. -1.
         25    2    1    2    0    0  0.16496891239E+03  0.62860051006E+02  0.79332595039E+02  0.23040218550E+03  0.12500151352E+03 0.  0.
          2    1    1    2  501    0  0.28138585897E+02 -0.79043932883E+01 -0.60804717865E+03  0.60874923484E+03  0.00000000000E+00 0. -1.
          1    1    1    2  502    0 -0.19310749828E+03 -0.54955657718E+02  0.12036639192E+04  0.12202940058E+04  0.00000000000E+00 0. -1.
         22    1    3    3    0    0  0.10316364138E+02  0.46681017697E+02 -0.13019430188E+02  0.49548464605E+02  0.00000000000E+00 0.  1.
         22    1    3    3    0    0  0.15465254825E+03  0.16179033309E+02  0.92352025227E+02  0.18085372090E+03  0.00000000000E+00 0.  1.
</event>
<event>
 7    1  0.5731033E-006  0.9046091E+02  0.7818608E-02  0.1438776E+00
          2   -1    0    0  502    0  0.00000000000E+00  0.00000000000E+00  0.16276906032E+04  0.16276906032E+04  0.00000000000E+00 0. -1.
          1   -1    0    0  501    0 -0.00000000000E+00 -0.00000000000E+00 -0.76555742878E+03  0.76555742878E+03  0.00000000000E+00 0. -1.
         25    2    1    2    0    0 -0.73900261653E+02 -0.53749668498E+01 -0.82425999337E+02  0.16706280224E+03  0.12500318229E+03 0.  0.
          2    1    1    2  501    0 -0.10811218526E+02 -0.26932836178E+02 -0.63918730355E+03  0.63984581669E+03  0.00000000000E+00 0. -1.
          1    1    1    2  502    0  0.84711480179E+02  0.32307803027E+02  0.15837464773E+04  0.15863394130E+04  0.00000000000E+00 0. -1.
         22    1    3    3    0    0 -0.12514246139E+02  0.20150981856E+02 -0.96274838553E+02  0.99153986126E+02  0.00000000000E+00 0. -1.
         22    1    3    3    0    0 -0.61386015514E+02 -0.25525948706E+02  0.13848839216E+02  0.67908816111E+02  0.00000000000E+00 0. -1.
</event>
<event>
 7    1  0.5194496E-006  0.6446467E+02  0.7818608E-02  0.1461212E+00
          2   -1    0    0  502    0  0.00000000000E+00  0.00000000000E+00  0.33457830558E+04  0.33457830558E+04  0.00000000000E+00 0. -1.
          1   -1    0    0  501    0 -0.00000000000E+00 -0.00000000000E+00 -0.58468055940E+02  0.58468055940E+02  0.00000000000E+00 0. -1.
         25    2    1    2    0    0  0.62016392610E+02 -0.52101242409E+02  0.80967815973E+03  0.82326447358E+03  0.12500039478E+03 0.  0.
          2    1    1    2  501    0 -0.34103416296E+02 -0.53478439732E+01 -0.45460207140E+02  0.57081283022E+02  0.00000000000E+00 0. -1.
          1    1    1    2  502    0 -0.27912976314E+02  0.57449086382E+02  0.25230970473E+04  0.25239053552E+04  0.00000000000E+00 0. -1.
         22    1    3    3    0    0 -0.16923657839E+02  0.14313391234E+02  0.40628214253E+03  0.40688630193E+03  0.00000000000E+00 0.  1.
         22    1    3    3    0    0  0.78940050449E+02 -0.66414633643E+02  0.40339601720E+03  0.41637817164E+03  0.00000000000E+00 0.  1.
</event>
<event>
 7    1  0.5194496E-006  0.7376818E+02  0.7818608E-02  0.1364550E+00
          2   -1    0    0  502    0  0.00000000000E+00  0.00000000000E+00  0.13620955644E+03  0.13620955644E+03  0.00000000000E+00 0. -1.
          1   -1    0    0  501    0 -0.00000000000E+00 -0.00000000000E+00 -0.14114860210E+04  0.14114860210E+04  0.00000000000E+00 0. -1.
         25    2    1    2    0    0 -0.17563434233E+02  0.20217859545E+02 -0.36389173363E+03  0.38569411499E+03  0.12500208185E+03 0.  0.
          2    1    1    2  501    0  0.35657495801E+02  0.53135761932E+02 -0.10242148752E+04  0.10262119551E+04  0.00000000000E+00 0. -1.
          1    1    1    2  502    0 -0.18094061569E+02 -0.73353621477E+02  0.11283014427E+03  0.13578950734E+03  0.00000000000E+00 0. -1.
         22    1    3    3    0    0  0.26125430926E+02 -0.38690755894E+02 -0.81403860288E+02  0.93840829081E+02  0.00000000000E+00 0. -1.
         22    1    3    3    0    0 -0.43688865158E+02  0.58908615439E+02 -0.28248787334E+03  0.29185328591E+03  0.00000000000E+00 0. -1.
</event>
<event>
 7    1  0.5194496E-006  0.9392194E+02  0.7818608E-02  0.1458339E+00
          2   -1    0    0  502    0  0.00000000000E+00  0.00000000000E+00  0.39898149603E+04  0.39898149603E+04  0.00000000000E+00 0. -1.
          1   -1    0    0  501    0 -0.00000000000E+00 -0.00000000000E+00 -0.36456531625E+03  0.36456531625E+03  0.00000000000E+00 0. -1.
         25    2    1    2    0    0  0.57979630169E+02 -0.83375230657E+02  0.62460127753E+03  0.64503101770E+03  0.12500076522E+03 0.  0.
          2    1    1    2  501    0 -0.23893191888E+02 -0.37985065039E+01 -0.35328381264E+03  0.35411123329E+03  0.00000000000E+00 0. -1.
          1    1    1    2  502    0 -0.34086438282E+02  0.87173737161E+02  0.33539321792E+04  0.33552380256E+04  0.00000000000E+00 0. -1.
         22    1    3    3    0    0  0.13310022654E+02  0.32464232098E+02  0.18174002831E+03  0.18509597770E+03  0.00000000000E+00 0.  1.
         22    1    3    3    0    0  0.44669607515E+02 -0.11583946275E+03  0.44286124922E+03  0.45993504000E+03  0.00000000000E+00 0.  1.
</event>
<event>
 7    1  0.5194496E-006  0.8633692E+02  0.7818608E-02  0.1402832E+00
          2   -1    0    0  502    0  0.00000000000E+00  0.00000000000E+00  0.18410804740E+03  0.18410804740E+03  0.00000000000E+00 0. -1.
          1   -1    0    0  501    0 -0.00000000000E+00 -0.00000000000E+00 -0.28946738714E+03  0.28946738714E+03  0.00000000000E+00 0. -1.
         25    2    1    2    0    0 -0.67850723693E+02 -0.59992572548E+02  0.88517049513E+02  0.17794037922E+03  0.12499872414E+03 0.  0.
          2    1    1    2  501    0  0.33130695971E+02  0.80014210176E+02 -0.22743267243E+03  0.24336297445E+03  0.00000000000E+00 0. -1.
          1    1    1    2  502    0  0.34720027722E+02 -0.20021637627E+02  0.33556283166E+02  0.52272080868E+02  0.00000000000E+00 0. -1.
         22    1    3    3    0    0 -0.23203777162E+02  0.33670780235E+02 -0.99728230296E+00  0.40903927541E+02  0.00000000000E+00 0.  1.
         22    1    3    3    0    0 -0.44646946531E+02 -0.93663352784E+02  0.89514331816E+02  0.13703645168E+03  0.00000000000E+00 0.  1.
</event>
<event>
 7    1  0.5194496E-006  0.3556172E+02  0.7818608E-02  0.1546827E+00
          2   -1    0    0  502    0  0.00000000000E+00  0.00000000000E+00  0.37763110366E+03  0.37763110366E+03  0.00000000000E+00 0. -1.
          1   -1    0    0  501    0 -0.00000000000E+00 -0.00000000000E+00 -0.17263466254E+03  0.17263466254E+03  0.00000000000E+00 0. -1.
         25    2    1    2    0    0 -0.60031323547E+02  0.29898275641E+02  0.26467044857E+02  0.14430141874E+03  0.12499891317E+03 0.  0.
          2    1    1    2  501    0  0.25542466529E+02 -0.23698481859E+02 -0.10996319977E+03  0.11535138032E+03  0.00000000000E+00 0. -1.
          1    1    1    2  502    0  0.34488857018E+02 -0.61997937823E+01  0.28849259603E+03  0.29061296714E+03  0.00000000000E+00 0. -1.
         22    1    3    3    0    0  0.14008034960E+02 -0.13822210852E+01 -0.38474437699E+02  0.40968499299E+02  0.00000000000E+00 0. -1.
         22    1    3    3    0    0 -0.74039358507E+02  0.31280496727E+02  0.64941482556E+02  0.10333291944E+03  0.00000000000E+00 0. -1.
</event>
<event>
 7    1  0.5194496E-006  0.1516019E+03  0.7818608E-02  0.1330426E+00
          2   -1    0    0  502    0  0.00000000000E+00  0.00000000000E+00  0.64165470678E+03  0.64165470678E+03  0.00000000000E+00 0. -1.
          1   -1    0    0  501    0 -0.00000000000E+00 -0.00000000000E+00 -0.69637746532E+03  0.69637746532E+03  0.00000000000E+00 0. -1.
         25    2    1    2    0    0 -0.15692010131E+03 -0.35040662694E+01 -0.39139654157E+03  0.43983346287E+03  0.12500410245E+03 0.  0.
          2    1    1    2  501    0  0.11700563633E+02 -0.40033268254E+02 -0.26982972873E+03  0.27303415219E+03  0.00000000000E+00 0. -1.
          1    1    1    2  502    0  0.14521953768E+03  0.43537334523E+02  0.60650351175E+03  0.62516455705E+03  0.00000000000E+00 0. -1.
         22    1    3    3    0    0 -0.60415968922E+02 -0.85746018896E+01 -0.30228124944E+03  0.30837893388E+03  0.00000000000E+00 0. -1.
         22    1    3    3    0    0 -0.96504132387E+02  0.50705356202E+01 -0.89115292129E+02  0.13145452898E+03  0.00000000000E+00 0. -1.
</event>
<event>
 7    1  0.5194496E-006  0.1235801E+03  0.7818608E-02  0.1426617E+00
          2   -1    0    0  502    0  0.00000000000E+00  0.00000000000E+00  0.12794409340E+04  0.12794409340E+04  0.00000000000E+00 0. -1.
          1   -1    0    0  501    0 -0.00000000000E+00 -0.00000000000E+00 -0.42733459114E+03  0.42733459114E+03  0.00000000000E+00 0. -1.
         25    2    1    2    0    0 -0.62359817704E+02  0.11389228686E+03  0.12228166697E+04  0.12360281047E+04  0.12499867190E+03 0.  0.
          2    1    1    2  501    0  0.39299273267E+02 -0.11713153511E+03 -0.40827010067E+03  0.42655445666E+03  0.00000000000E+00 0. -1.
          1    1    1    2  502    0  0.23060544438E+02  0.32392482500E+01  0.37559773865E+02  0.44192963827E+02  0.00000000000E+00 0. -1.
         22    1    3    3    0    0  0.20100845058E+02  0.12736819581E+01  0.37907163193E+02  0.42925741218E+02  0.00000000000E+00 0. -1.
         22    1    3    3    0    0 -0.82460662763E+02  0.11261860490E+03  0.11849095065E+04  0.11931023634E+04  0.00000000000E+00 0. -1.
</event>
<event>
 7    1  0.5194496E-006  0.1243707E+03  0.7818608E-02  0.1246841E+00
          2   -1    0    0  502    0  0.00000000000E+00  0.00000000000E+00  0.20316080600E+04  0.20316080600E+04  0.00000000000E+00 0. -1.
          1   -1    0    0  501    0 -0.00000000000E+00 -0.00000000000E+00 -0.12225496339E+04  0.12225496339E+04  0.00000000000E+00 0. -1.
         25    2    1    2    0    0 -0.11665541235E+03  0.10768074597E+03  0.48868780005E+03  0.52881582114E+03  0.12500711374E+03 0.  0.
          2    1    1    2  501    0 -0.83259704962E+01 -0.11118691698E+03 -0.11973247627E+04  0.12025050685E+04  0.00000000000E+00 0. -1.
          1    1    1    2  502    0  0.12498138285E+03  0.35061710055E+01  0.15176953887E+04  0.15228368042E+04  0.00000000000E+00 0. -1.
         22    1    3    3    0    0  0.29633175353E+00  0.81025352511E+02  0.22442303830E+03  0.23860196077E+03  0.00000000000E+00 0.  1.
         22    1    3    3    0    0 -0.11695174410E+03  0.26655393463E+02  0.26426476174E+03  0.29021386037E+03  0.00000000000E+00 0.  1.
</event>
<event>
 7    1  0.5194496E-006  0.9182411E+02  0.7818608E-02  0.1323385E+00
          2   -1    0    0  502    0  0.00000000000E+00  0.00000000000E+00  0.30119687910E+04  0.30119687910E+04  0.00000000000E+00 0. -1.
          1   -1    0    0  501    0 -0.00000000000E+00 -0.00000000000E+00 -0.24675633628E+03  0.24675633628E+03  0.00000000000E+00 0. -1.
         25    2    1    2    0    0 -0.52684905718E+02 -0.33438643613E+02  0.40951729827E+03  0.43269247432E+03  0.12499807028E+03 0.  0.
          2    1    1    2  501    0  0.39971887509E+02 -0.61420880141E+02 -0.22855237255E+03  0.24001346485E+03  0.00000000000E+00 0. -1.
          1    1    1    2  502    0  0.12713018209E+02  0.94859523754E+02  0.25842475290E+04  0.25860191881E+04  0.00000000000E+00 0. -1.
         22    1    3    3    0    0 -0.18306363825E+02 -0.16421007705E+02  0.34682330815E+01  0.24835480491E+02  0.00000000000E+00 0.  1.
         22    1    3    3    0    0 -0.34378541893E+02 -0.17017635909E+02  0.40604906519E+03  0.40785699383E+03  0.00000000000E+00 0.  1.
</event>
<event>
 7    1  0.5194496E-006  0.3816014E+03  0.7818608E-02  0.1179560E+00
          2   -1    0    0  502    0  0.00000000000E+00  0.00000000000E+00  0.56652318555E+03  0.56652318555E+03  0.00000000000E+00 0. -1.
          1   -1    0    0  501    0 -0.00000000000E+00 -0.00000000000E+00 -0.64982225134E+03  0.64982225134E+03  0.00000000000E+00 0. -1.
         25    2    1    2    0    0 -0.23520817063E+03  0.24724837109E+03 -0.18541665285E+03  0.40799546058E+03  0.12500528052E+03 0.  0.
          2    1    1    2  501    0 -0.74220864825E+02 -0.31200696700E+01 -0.26165509301E+03  0.27199606488E+03  0.00000000000E+00 0. -1.
          1    1    1    2  502    0  0.30942903546E+03 -0.24412830142E+03  0.36377268007E+03  0.53635391143E+03  0.00000000000E+00 0. -1.
         22    1    3    3    0    0 -0.93551209238E+02  0.48285231053E+02 -0.11027219973E+03  0.15245737215E+03  0.00000000000E+00 0.  1.
         22    1    3    3    0    0 -0.14165696139E+03  0.19896314004E+03 -0.75144453118E+02  0.25553808843E+03  0.00000000000E+00 0.  1.
</event>
<event>
 7    1  0.5194496E-006  0.1080087E+03  0.7818608E-02  0.1323496E+00
          2   -1    0    0  502    0  0.00000000000E+00  0.00000000000E+00  0.20551988767E+04  0.20551988767E+04  0.00000000000E+00 0. -1.
          1   -1    0    0  501    0 -0.00000000000E+00 -0.00000000000E+00 -0.86600258960E+03  0.86600258960E+03  0.00000000000E+00 0. -1.
         25    2    1    2    0    0  0.39162664432E+02 -0.39463249473E+02  0.27892016557E+03  0.31066386014E+03  0.12499805154E+03 0.  0.
          2    1    1    2  501    0  0.17973326198E+02 -0.59588192852E+02 -0.84713095037E+03  0.84941429248E+03  0.00000000000E+00 0. -1.
          1    1    1    2  502    0 -0.57135990629E+02  0.99051442325E+02  0.17574070719E+04  0.17611233137E+04  0.00000000000E+00 0. -1.
         22    1    3    3    0    0  0.67138419929E+02  0.16516116400E+02  0.10399357191E+03  0.12487999251E+03  0.00000000000E+00 0.  1.
         22    1    3    3    0    0 -0.27975755497E+02 -0.55979365873E+02  0.17492659367E+03  0.18578386763E+03  0.00000000000E+00 0.  1.
</event>
<event>
 7    1  0.5194496E-006  0.1086976E+03  0.7818608E-02  0.1263892E+00
          2   -1    0    0  502    0  0.00000000000E+00  0.00000000000E+00  0.16780389064E+04  0.16780389064E+04  0.00000000000E+00 0. -1.
          1   -1    0    0  501    0 -0.00000000000E+00 -0.00000000000E+00 -0.44162279077E+03  0.44162279077E+03  0.00000000000E+00 0. -1.
         25    2    1    2    0    0 -0.21909330986E+02  0.34010910165E+02 -0.10284155513E+03  0.16684888078E+03  0.12500161103E+03 0.  0.
          2    1    1    2  501    0  0.50606532498E+02 -0.13787447395E+03 -0.28731397532E+03  0.32267586230E+03  0.00000000000E+00 0. -1.
          1    1    1    2  502    0 -0.28697201512E+02  0.10386356379E+03  0.16265716461E+04  0.16301369541E+04  0.00000000000E+00 0. -1.
         22    1    3    3    0    0 -0.70203161902E+02  0.40074403905E+02 -0.77451050391E+02  0.11195135996E+03  0.00000000000E+00 0.  1.
         22    1    3    3    0    0  0.48293830916E+02 -0.60634937408E+01 -0.25390504744E+02  0.54897520819E+02  0.00000000000E+00 0.  1.
</event>
<event>
 7    1  0.5194496E-006  0.7164548E+02  0.7818608E-02  0.1502797E+00
          2   -1    0    0  502    0  0.00000000000E+00  0.00000000000E+00  0.44045946542E+03  0.44045946542E+03  0.00000000000E+00 0. -1.
          1   -1    0    0  501    0 -0.00000000000E+00 -0.00000000000E+00 -0.19818778039E+03  0.19818778039E+03  0.00000000000E+00 0. -1.
         25    2    1    2    0    0  0.16853997572E+02  0.51187049195E+02 -0.89009639819E+02  0.16264163745E+03  0.12500166004E+03 0.  0.
          2    1    1    2  501    0  0.20706762309E+02  0.10401172909E+02 -0.67181456087E+02  0.71065479982E+02  0.00000000000E+00 0. -1.
          1    1    1    2  502    0 -0.37560759881E+02 -0.61588222104E+02  0.39846278093E+03  0.40494012838E+03  0.00000000000E+00 0. -1.
         22    1    3    3    0    0 -0.38662548571E+02  0.29090073650E+02 -0.90773299945E+02  0.10286309848E+03  0.00000000000E+00 0.  1.
         22    1    3    3    0    0  0.55516546142E+02  0.22096975545E+02  0.17636601262E+01  0.59778538965E+02  0.00000000000E+00 0.  1.
</event>
<event>
 7    1  0.5194496E-006  0.2840480E+02  0.7818608E-02  0.1655687E+00
          2   -1    0    0  502    0  0.00000000000E+00  0.00000000000E+00  0.63128909156E+03  0.63128909156E+03  0.00000000000E+00 0. -1.
          1   -1    0    0  501    0 -0.00000000000E+00 -0.00000000000E+00 -0.39203304336E+03  0.39203304336E+03  0.00000000000E+00 0. -1.
         25    2    1    2    0    0 -0.14634241427E+02 -0.13455432527E+01  0.26878982319E+02  0.12869885926E+03  0.12499978070E+03 0.  0.
          2    1    1    2  501    0 -0.82302528582E+00 -0.22651737352E+02 -0.34037789256E+03  0.34113177560E+03  0.00000000000E+00 0. -1.
          1    1    1    2  502    0  0.15457266713E+02  0.23997280605E+02  0.55275495844E+03  0.55349150007E+03  0.00000000000E+00 0. -1.
         22    1    3    3    0    0 -0.46736925502E+02  0.47766867934E+02  0.94632106458E+01  0.67494934871E+02  0.00000000000E+00 0. -1.
         22    1    3    3    0    0  0.32102684074E+02 -0.49112411186E+02  0.17415771673E+02  0.61203924386E+02  0.00000000000E+00 0. -1.
</event>
<event>
 7    1  0.5194496E-006  0.9798351E+02  0.7818608E-02  0.1368019E+00
          2   -1    0    0  502    0  0.00000000000E+00  0.00000000000E+00  0.20000894774E+04  0.20000894774E+04  0.00000000000E+00 0. -1.
          1   -1    0    0  501    0 -0.00000000000E+00 -0.00000000000E+00 -0.14024557193E+03  0.14024557193E+03  0.00000000000E+00 0. -1.
         25    2    1    2    0    0 -0.11348095947E+03 -0.68789455432E+02  0.14976670060E+02  0.18291666056E+03  0.12499714685E+03 0.  0.
          2    1    1    2  501    0  0.70983927577E+02  0.49175337307E+02 -0.22682000426E+02  0.89282724627E+02  0.00000000000E+00 0. -1.
          1    1    1    2  502    0  0.42497031898E+02  0.19614118125E+02  0.18675492358E+04  0.18681356642E+04  0.00000000000E+00 0. -1.
         22    1    3    3    0    0 -0.74740467896E+02  0.53225978321E+01 -0.37906025308E+02  0.83972223644E+02  0.00000000000E+00 0.  1.
         22    1    3    3    0    0 -0.38740491578E+02 -0.74112053264E+02  0.52882695368E+02  0.98944436913E+02  0.00000000000E+00 0.  1.
</event>
<event>
 7    1  0.5194496E-006  0.1450886E+03  0.7818608E-02  0.1375923E+00
          2   -1    0    0  502    0  0.00000000000E+00  0.00000000000E+00  0.22612425854E+04  0.22612425854E+04  0.00000000000E+00 0. -1.
          1   -1    0    0  501    0 -0.00000000000E+00 -0.00000000000E+00 -0.77650794550E+03  0.77650794550E+03  0.00000000000E+00 0. -1.
         25    2    1    2    0    0  0.17006296709E+03 -0.63534732887E+01  0.69374109578E+02  0.22225939184E+03  0.12499876312E+03 0.  0.
          2    1    1    2  501    0 -0.14367294783E+03 -0.70813266438E+01 -0.69257087588E+03  0.70735173658E+03  0.00000000000E+00 0. -1.
          1    1    1    2  502    0 -0.26390019260E+02  0.13434799932E+02  0.21079314062E+04  0.21081394025E+04  0.00000000000E+00 0. -1.
         22    1    3    3    0    0  0.13166138554E+01  0.32530112155E+02 -0.64981548240E+01  0.33198910900E+02  0.00000000000E+00 0. -1.
         22    1    3    3    0    0  0.16874635324E+03 -0.38883585443E+02  0.75872264402E+02  0.18906048094E+03  0.00000000000E+00 0. -1.
</event>
<event>
 7    1  0.5194496E-006  0.4559702E+02  0.7818608E-02  0.1551422E+00
          2   -1    0    0  502    0  0.00000000000E+00  0.00000000000E+00  0.10419541889E+04  0.10419541889E+04  0.00000000000E+00 0. -1.
          1   -1    0    0  501    0 -0.00000000000E+00 -0.00000000000E+00 -0.29548311269E+02  0.29548311269E+02  0.00000000000E+00 0. -1.
         25    2    1    2    0    0 -0.35509289272E+02 -0.25610782663E+02  0.55043843269E+03  0.56614934363E+03  0.12500315713E+03 0.  0.
          2    1    1    2  501    0  0.15833981171E+02  0.43188122010E+02  0.35054077920E+01  0.46132599388E+02  0.00000000000E+00 0. -1.
          1    1    1    2  502    0  0.19675308100E+02 -0.17577339347E+02  0.45846203719E+03  0.45922055720E+03  0.00000000000E+00 0. -1.
         22    1    3    3    0    0 -0.98257258444E+00  0.47073864315E+01 -0.60718028880E+01  0.77454326031E+01  0.00000000000E+00 0. -1.
         22    1    3    3    0    0 -0.34526716687E+02 -0.30318169095E+02  0.55651023558E+03  0.55840391102E+03  0.00000000000E+00 0. -1.
</event>
<event>
 7    1  0.5194496E-006  0.1081092E+03  0.7818608E-02  0.1362780E+00
          2   -1    0    0  502    0  0.00000000000E+00  0.00000000000E+00  0.14855728328E+04  0.14855728328E+04  0.00000000000E+00 0. -1.
          1   -1    0    0  501    0 -0.00000000000E+00 -0.00000000000E+00 -0.20628397005E+03  0.20628397005E+03  0.00000000000E+00 0. -1.
         25    2    1    2    0    0  0.58752655755E+02  0.46587187080E+02  0.53070306216E+03  0.55035658977E+03  0.12499758060E+03 0.  0.
          2    1    1    2  501    0 -0.10225688194E+03 -0.38149591010E+02 -0.18073002153E+03  0.21112840141E+03  0.00000000000E+00 0. -1.
          1    1    1    2  502    0  0.43504226186E+02 -0.84375960708E+01  0.92931582214E+03  0.93037181169E+03  0.00000000000E+00 0. -1.
         22    1    3    3    0    0  0.16160524160E+02  0.10204979908E+02  0.45885462866E+03  0.45925251703E+03  0.00000000000E+00 0.  1.
         22    1    3    3    0    0  0.42592131595E+02  0.36382207173E+02  0.71848433499E+02  0.91104072734E+02  0.00000000000E+00 0.  1.
</event>
<event>
 7    1  0.5194496E-006  0.8540124E+02  0.7818608E-02  0.1459702E+00
          2   -1    0    0  502    0  0.00000000000E+00  0.00000000000E+00  0.10298573029E+04  0.10298573029E+04  0.00000000000E+00 0. -1.
          1   -1    0    0  501    0 -0.00000000000E+00 -0.00000000000E+00 -0.38326117968E+02  0.38326117968E+02  0.00000000000E+00 0. -1.
         25    2    1    2    0    0 -0.52738814328E+02  0.36542774326E+02  0.18295851997E+03  0.23068537613E+03  0.12500066335E+03 0.  0.
          2    1    1    2  501    0 -0.26318869964E+02  0.11627743077E+01  0.22592557138E+01  0.26441240452E+02  0.00000000000E+00 0. -1.
          1    1    1    2  502    0  0.79057684291E+02 -0.37705548634E+02  0.80631340923E+03  0.81105680427E+03  0.00000000000E+00 0. -1.
         22    1    3    3    0    0 -0.92565033146E+02  0.13459224879E+02  0.13470633854E+03  0.16399766382E+03  0.00000000000E+00 0. -1.
         22    1    3    3    0    0  0.39826218819E+02  0.23083549447E+02  0.48252181429E+02  0.66687712310E+02  0.00000000000E+00 0. -1.
</event>
<event>
 7    1  0.5194496E-006  0.8266114E+02  0.7818608E-02  0.1375186E+00
          2   -1    0    0  502    0  0.00000000000E+00  0.00000000000E+00  0.38132931554E+03  0.38132931554E+03  0.00000000000E+00 0. -1.
          1   -1    0    0  501    0 -0.00000000000E+00 -0.00000000000E+00 -0.23673771042E+03  0.23673771042E+03  0.00000000000E+00 0. -1.
         25    2    1    2    0    0  0.33307414990E+02  0.35368630617E+02  0.15869022110E+03  0.20777021769E+03  0.12500221264E+03 0.  0.
          2    1    1    2  501    0  0.32746914501E+02  0.40769816837E+02 -0.19571666691E+03  0.20258221067E+03  0.00000000000E+00 0. -1.
          1    1    1    2  502    0 -0.66054329491E+02 -0.76138447454E+02  0.18161805094E+03  0.20771459759E+03  0.00000000000E+00 0. -1.
         22    1    3    3    0    0  0.73969427401E+02  0.32144167834E+02  0.14278618162E+03  0.16398968680E+03  0.00000000000E+00 0.  1.
         22    1    3    3    0    0 -0.40662012412E+02  0.32244627827E+01  0.15904039479E+02  0.43780530894E+02  0.00000000000E+00 0.  1.
</event>
<event>
 7    1  0.5194496E-006  0.7779591E+02  0.7818608E-02  0.1374707E+00
          2   -1    0    0  502    0  0.00000000000E+00  0.00000000000E+00  0.61847426987E+03  0.61847426987E+03  0.00000000000E+00 0. -1.
          1   -1    0    0  501    0 -0.00000000000E+00 -0.00000000000E+00 -0.33369440540E+03  0.33369440540E+03  0.00000000000E+00 0. -1.
         25    2    1    2    0    0 -0.68302249057E+02  0.55089577102E+02  0.42728664836E+02  0.15858909392E+03  0.12499881272E+03 0.  0.
          2    1    1    2  501    0  0.51546416937E+02  0.21322005141E+02 -0.26994169152E+03  0.27564502140E+03  0.00000000000E+00 0. -1.
          1    1    1    2  502    0  0.16755832120E+02 -0.76411582243E+02  0.51199289114E+03  0.51793455995E+03  0.00000000000E+00 0. -1.
         22    1    3    3    0    0  0.60839058637E+01  0.34649800899E+02 -0.34612307533E+02  0.49352147326E+02  0.00000000000E+00 0. -1.
         22    1    3    3    0    0 -0.74386154921E+02  0.20439776203E+02  0.77340972369E+02  0.10923694660E+03  0.00000000000E+00 0. -1.
</event>
<event>
 7    1  0.5194496E-006  0.8694923E+02  0.7818608E-02  0.1385124E+00
          2   -1    0    0  502    0  0.00000000000E+00  0.00000000000E+00  0.44052653903E+03  0.44052653903E+03  0.00000000000E+00 0. -1.
          1   -1    0    0  501    0 -0.00000000000E+00 -0.00000000000E+00 -0.17874475094E+04  0.17874475094E+04  0.00000000000E+00 0. -1.
         25    2    1    2    0    0 -0.11203069507E+03  0.10159399929E+02 -0.35827275184E+03  0.39577862572E+03  0.12500906296E+03 0.  0.
          2    1    1    2  501    0  0.29058452585E+02 -0.35458738148E+02 -0.14055841443E+04  0.14063315763E+04  0.00000000000E+00 0. -1.
          1    1    1    2  502    0  0.82972242489E+02  0.25299338220E+02  0.41693592574E+03  0.42586384644E+03  0.00000000000E+00 0. -1.
         22    1    3    3    0    0 -0.10997893370E+03  0.23969174060E+02 -0.15254725541E+03  0.18957993642E+03  0.00000000000E+00 0.  1.
         22    1    3    3    0    0 -0.20517613774E+01 -0.13809774131E+02 -0.20572549643E+03  0.20619868930E+03  0.00000000000E+00 0.  1.
</event>
<event>
 7    1  0.5194496E-006  0.2407495E+03  0.7818608E-02  0.1292350E+00
          2   -1    0    0  502    0  0.00000000000E+00  0.00000000000E+00  0.95988982795E+03  0.95988982795E+03  0.00000000000E+00 0. -1.
          1   -1    0    0  501    0 -0.00000000000E+00 -0.00000000000E+00 -0.23593178064E+03  0.23593178064E+03  0.00000000000E+00 0. -1.
         25    2    1    2    0    0 -0.22258370591E+03  0.58561340168E+02  0.22827633903E+03  0.34743045412E+03  0.12499958715E+03 0.  0.
          2    1    1    2  501    0 -0.21192414877E+02 -0.30425097005E+02 -0.15164495216E+03  0.15611212795E+03  0.00000000000E+00 0. -1.
          1    1    1    2  502    0  0.24377612079E+03 -0.28136243163E+02  0.64732666044E+03  0.69227902653E+03  0.00000000000E+00 0. -1.
         22    1    3    3    0    0 -0.73107047805E+02  0.14095494389E+02  0.16140130387E+03  0.17774617940E+03  0.00000000000E+00 0.  1.
         22    1    3    3    0    0 -0.14947665811E+03  0.44465845779E+02  0.66875035165E+02  0.16968427472E+03  0.00000000000E+00 0.  1.
</event>
<event>
 7    1  0.5194496E-006  0.1777924E+03  0.7818608E-02  0.1250535E+00
          2   -1    0    0  502    0  0.00000000000E+00  0.00000000000E+00  0.79036039525E+03  0.79036039525E+03  0.00000000000E+00 0. -1.
          1   -1    0    0  501    0 -0.00000000000E+00 -0.00000000000E+00 -0.40058913810E+03  0.40058913810E+03  0.00000000000E+00 0. -1.
         25    2    1    2    0    0  0.15436995614E+03  0.16133429351E+03 -0.63912354174E+02  0.26375834610E+03  0.12499935400E+03 0.  0.
          2    1    1    2  501    0 -0.74994278419E+02 -0.50604153770E+01 -0.21926503657E+03  0.23179065093E+03  0.00000000000E+00 0. -1.
          1    1    1    2  502    0 -0.79375677725E+02 -0.15627387813E+03  0.67294864790E+03  0.69540053632E+03  0.00000000000E+00 0. -1.
         22    1    3    3    0    0  0.16007204416E+03  0.94364525296E+02 -0.64051970048E+02  0.19654612136E+03  0.00000000000E+00 0.  1.
         22    1    3    3    0    0 -0.57020880123E+01  0.66969768211E+02  0.13961587398E+00  0.67212224740E+02  0.00000000000E+00 0.  1.
</event>
<event>
 7    1  0.5194496E-006  0.1895795E+03  0.7818608E-02  0.1216479E+00
          2   -1    0    0  502    0  0.00000000000E+00  0.00000000000E+00  0.42688860668E+04  0.42688860668E+04  0.00000000000E+00 0. -1.
          1   -1    0    0  501    0 -0.00000000000E+00 -0.00000000000E+00 -0.35154666527E+03  0.35154666527E+03  0.00000000000E+00 0. -1.
         25    2    1    2    0    0  0.10027582091E+03 -0.20063134777E+03 -0.10132961618E+03  0.27605001902E+03  0.12501097519E+03 0.  0.
          2    1    1    2  501    0 -0.29865873939E+01  0.17752670132E+03 -0.11367842488E+03  0.21082560012E+03  0.00000000000E+00 0. -1.
          1    1    1    2  502    0 -0.97289233517E+02  0.23104646458E+02  0.41323474426E+04  0.41335571130E+04  0.00000000000E+00 0. -1.
         22    1    3    3    0    0  0.68085178053E+02 -0.16662502379E+03 -0.12919099270E+03  0.22156218680E+03  0.00000000000E+00 0. -1.
         22    1    3    3    0    0  0.32190642858E+02 -0.34006323981E+02  0.27861376523E+02  0.54487832220E+02  0.00000000000E+00 0. -1.
</event>
<event>
 7    1  0.5194496E-006  0.7045131E+02  0.7818608E-02  0.1468806E+00
          2   -1    0    0  502    0  0.00000000000E+00  0.00000000000E+00  0.28934595274E+03  0.28934595274E+03  0.00000000000E+00 0. -1.
          1   -1    0    0  501    0 -0.00000000000E+00 -0.00000000000E+00 -0.36096082155E+03  0.36096082155E+03  0.00000000000E+00 0. -1.
         25    2    1    2    0    0  0.38616446531E+02 -0.14920229179E+02 -0.22034811614E+03  0.25669780110E+03  0.12500650233E+03 0.  0.
          2    1    1    2  501    0  0.25529772267E+02 -0.15570307320E+02 -0.11585604721E+03  0.11965294571E+03  0.00000000000E+00 0. -1.
          1    1    1    2  502    0 -0.64146218797E+02  0.30490536499E+02  0.26458929455E+03  0.27395602748E+03  0.00000000000E+00 0. -1.
         22    1    3    3    0    0  0.31850285692E+02 -0.62701215230E+02 -0.71785803285E+02  0.10049420204E+03  0.00000000000E+00 0.  1.
         22    1    3    3    0    0  0.67661608383E+01  0.47780986051E+02 -0.14856231285E+03  0.15620359906E+03  0.00000000000E+00 0.  1.
</event>
<event>
 7    1  0.5194496E-006  0.1201507E+03  0.7818608E-02  0.1390120E+00
          2   -1    0    0  502    0  0.00000000000E+00  0.00000000000E+00  0.30555907065E+04  0.30555907065E+04  0.00000000000E+00 0. -1.
          1   -1    0    0  501    0 -0.00000000000E+00 -0.00000000000E+00 -0.21256389951E+02  0.21256389951E+02  0.00000000000E+00 0. -1.
         25    2    1    2    0    0 -0.31746668597E+02  0.10007062775E+03  0.17350013178E+04  0.17426635563E+04  0.12499886529E+03 0.  0.
          2    1    1    2  501    0  0.86931318251E+01 -0.12207045673E+03  0.20056377414E+03  0.23495232377E+03  0.00000000000E+00 0. -1.
          1    1    1    2  502    0  0.23053536772E+02  0.21999828976E+02  0.10987692246E+04  0.10992312164E+04  0.00000000000E+00 0. -1.
         22    1    3    3    0    0 -0.86688268401E+01 -0.13125475976E+02  0.85102830356E+03  0.85117366039E+03  0.00000000000E+00 0. -1.
         22    1    3    3    0    0 -0.23077841757E+02  0.11319610373E+03  0.88397301419E+03  0.89148989590E+03  0.00000000000E+00 0. -1.
</event>
<event>
 7    1  0.5194496E-006  0.7289516E+02  0.7818608E-02  0.1475339E+00
          2   -1    0    0  502    0  0.00000000000E+00  0.00000000000E+00  0.99454468460E+03  0.99454468460E+03  0.00000000000E+00 0. -1.
          1   -1    0    0  501    0 -0.00000000000E+00 -0.00000000000E+00 -0.13986083721E+03  0.13986083721E+03  0.00000000000E+00 0. -1.
         25    2    1    2    0    0 -0.32461048812E+02 -0.83004865605E+02  0.59311462442E+03  0.61266154577E+03  0.12500273821E+03 0.  0.
          2    1    1    2  501    0  0.23006826782E+02  0.15215693777E+02 -0.12558886850E+03  0.12858225114E+03  0.00000000000E+00 0. -1.
          1    1    1    2  502    0  0.94542220298E+01  0.67789171828E+02  0.38715809147E+03  0.39316172489E+03  0.00000000000E+00 0. -1.
         22    1    3    3    0    0 -0.65974580813E+02 -0.13621472685E+02  0.38266330685E+03  0.38854780432E+03  0.00000000000E+00 0. -1.
         22    1    3    3    0    0  0.33513532000E+02 -0.69383392919E+02  0.21045131757E+03  0.22411374145E+03  0.00000000000E+00 0. -1.
</event>
<event>
 7    1  0.5194496E-006  0.7700021E+02  0.7818608E-02  0.1396094E+00
          2   -1    0    0  502    0  0.00000000000E+00  0.00000000000E+00  0.67713050634E+03  0.67713050634E+03  0.00000000000E+00 0. -1.
          1   -1    0    0  501    0 -0.00000000000E+00 -0.00000000000E+00 -0.99275453970E+03  0.99275453970E+03  0.00000000000E+00 0. -1.
         25    2    1    2    0    0 -0.54238597677E+02  0.85800604582E+01  0.43997640497E+03  0.46067375044E+03  0.12500249798E+03 0.  0.
          2    1    1    2  501    0 -0.43678881234E+02  0.18419204564E+02 -0.97042637731E+03  0.97158348357E+03  0.00000000000E+00 0. -1.
          1    1    1    2  502    0  0.97917478911E+02 -0.26999265022E+02  0.21482593899E+03  0.23762781203E+03  0.00000000000E+00 0. -1.
         22    1    3    3    0    0  0.25159010117E+02  0.49649724217E+00  0.17319840822E+02  0.30548309048E+02  0.00000000000E+00 0.  1.
         22    1    3    3    0    0 -0.79397607794E+02  0.80835632161E+01  0.42265656415E+03  0.43012544139E+03  0.00000000000E+00 0.  1.
</event>
<event>
 7    1  0.5194496E-006  0.9136950E+02  0.7818608E-02  0.1313323E+00
          2   -1    0    0  502    0  0.00000000000E+00  0.00000000000E+00  0.16284063071E+03  0.16284063071E+03  0.00000000000E+00 0. -1.
          1   -1    0    0  501    0 -0.00000000000E+00 -0.00000000000E+00 -0.43095603628E+03  0.43095603628E+03  0.00000000000E+00 0. -1.
         25    2    1    2    0    0  0.10169663528E+03 -0.47758818079E+01 -0.28148228115E+02  0.16364995486E+03  0.12499588115E+03 0.  0.
          2    1    1    2  501    0 -0.58592741344E+02  0.72872489757E+02 -0.30974073305E+03  0.32354726210E+03  0.00000000000E+00 0. -1.
          1    1    1    2  502    0 -0.43103893940E+02 -0.68096607949E+02  0.69773555599E+02  0.10659945004E+03  0.00000000000E+00 0. -1.
         22    1    3    3    0    0 -0.34689141029E+01 -0.47465526836E+02 -0.54545198240E+01  0.47903667807E+02  0.00000000000E+00 0.  1.
         22    1    3    3    0    0  0.10516554939E+03  0.42689645028E+02 -0.22693708291E+02  0.11574628705E+03  0.00000000000E+00 0.  1.
</event>
<event>
 7    1  0.5194496E-006  0.1022125E+03  0.7818608E-02  0.1279143E+00
          2   -1    0    0  502    0  0.00000000000E+00  0.00000000000E+00  0.12475562052E+04  0.12475562052E+04  0.00000000000E+00 0. -1.
          1   -1    0    0  501    0 -0.00000000000E+00 -0.00000000000E+00 -0.14701385919E+03  0.14701385919E+03  0.00000000000E+00 0. -1.
         25    2    1    2    0    0  0.62081293997E+02 -0.85305051665E+02  0.70120889106E+03  0.72003587808E+03  0.12500687149E+03 0.  0.
          2    1    1    2  501    0 -0.94670552921E+02 -0.28664137658E+02 -0.11212464036E+03  0.14951950159E+03  0.00000000000E+00 0. -1.
          1    1    1    2  502    0  0.32589258924E+02  0.11396918932E+03  0.51145809535E+03  0.52501468476E+03  0.00000000000E+00 0. -1.
         22    1    3    3    0    0  0.77898053735E+02 -0.97347001484E+02  0.67847937486E+03  0.68983969702E+03  0.00000000000E+00 0. -1.
         22    1    3    3    0    0 -0.15816759738E+02  0.12041949820E+02  0.22729516198E+02  0.30196181061E+02  0.00000000000E+00 0. -1.
</event>
<event>
 7    1  0.5194496E-006  0.1003203E+03  0.7818608E-02  0.1335065E+00
          2   -1    0    0  502    0  0.00000000000E+00  0.00000000000E+00  0.21800152962E+03  0.21800152962E+03  0.00000000000E+00 0. -1.
          1   -1    0    0  501    0 -0.00000000000E+00 -0.00000000000E+00 -0.93356847308E+03  0.93356847308E+03  0.00000000000E+00 0. -1.
         25    2    1    2    0    0  0.92274321163E+02 -0.10539729314E+03 -0.16071421022E+03  0.24713698427E+03  0.12499796750E+03 0.  0.
          2    1    1    2  501    0 -0.59117667203E+02  0.12947386778E+02 -0.71446483354E+03  0.71702338300E+03  0.00000000000E+00 0. -1.
          1    1    1    2  502    0 -0.33156653960E+02  0.92449906364E+02  0.15961210030E+03  0.18740963543E+03  0.00000000000E+00 0. -1.
         22    1    3    3    0    0  0.88876180717E+02 -0.39889856365E+02 -0.15259651497E+03  0.18104107965E+03  0.00000000000E+00 0. -1.
         22    1    3    3    0    0  0.33981404458E+01 -0.65507436777E+02 -0.81176952550E+01  0.66095904623E+02  0.00000000000E+00 0. -1.
</event>
<event>
 7    1  0.5194496E-006  0.9433638E+02  0.7818608E-02  0.1383034E+00
          2   -1    0    0  502    0  0.00000000000E+00  0.00000000000E+00  0.52580134510E+03  0.52580134510E+03  0.00000000000E+00 0. -1.
          1   -1    0    0  501    0 -0.00000000000E+00 -0.00000000000E+00 -0.16307073211E+04  0.16307073211E+04  0.00000000000E+00 0. -1.
         25    2    1    2    0    0 -0.10875058821E+03  0.83355926952E+02  0.34748898300E+03  0.39388938689E+03  0.12500141920E+03 0.  0.
          2    1    1    2  501    0  0.76413651250E+02 -0.55048621261E+02 -0.16031215578E+04  0.16058854647E+04  0.00000000000E+00 0. -1.
          1    1    1    2  502    0  0.32336936955E+02 -0.28307305691E+02  0.15072659879E+03  0.15673381458E+03  0.00000000000E+00 0. -1.
         22    1    3    3    0    0 -0.62992090844E+02  0.22422566904E+02  0.29217464711E+03  0.29972787563E+03  0.00000000000E+00 0. -1.
         22    1    3    3    0    0 -0.45758497361E+02  0.60933360048E+02  0.55314335893E+02  0.94161511260E+02  0.00000000000E+00 0. -1.
</event>
<event>
 7    1  0.5194496E-006  0.6568303E+02  0.7818608E-02  0.1501093E+00
          2   -1    0    0  502    0  0.00000000000E+00  0.00000000000E+00  0.99424749443E+02  0.99424749443E+02  0.00000000000E+00 0. -1.
          1   -1    0    0  501    0 -0.00000000000E+00 -0.00000000000E+00 -0.23900888203E+03  0.23900888203E+03  0.00000000000E+00 0. -1.
         25    2    1    2    0    0  0.57851958632E+02  0.21398236750E+02  0.10484813195E+02  0.13980021414E+03  0.12501773839E+03 0.  0.
          2    1    1    2  501    0 -0.42242414564E+01  0.25221288593E+02 -0.11788397768E+03  0.12062582563E+03  0.00000000000E+00 0. -1.
          1    1    1    2  502    0 -0.53627717176E+02 -0.46619525343E+02 -0.32184968100E+02  0.78007591709E+02  0.00000000000E+00 0. -1.
         22    1    3    3    0    0  0.29398723041E+02  0.48045788119E+02 -0.44927119400E+02  0.72049488062E+02  0.00000000000E+00 0.  1.
         22    1    3    3    0    0  0.28453235591E+02 -0.26647551369E+02  0.55411932595E+02  0.67750726074E+02  0.00000000000E+00 0.  1.
</event>
<event>
 7    1  0.5194496E-006  0.1184383E+03  0.7818608E-02  0.1361897E+00
          2   -1    0    0  502    0  0.00000000000E+00  0.00000000000E+00  0.10246618443E+03  0.10246618443E+03  0.00000000000E+00 0. -1.
          1   -1    0    0  501    0 -0.00000000000E+00 -0.00000000000E+00 -0.37334656956E+03  0.37334656956E+03  0.00000000000E+00 0. -1.
         25    2    1    2    0    0 -0.44053125904E+02  0.13303656838E+03 -0.16764019327E+03  0.25172889361E+03  0.12499918021E+03 0.  0.
          2    1    1    2  501    0  0.11331250560E+02 -0.10874947708E+03 -0.13405806624E+03  0.17299251755E+03  0.00000000000E+00 0. -1.
          1    1    1    2  502    0  0.32721875344E+02 -0.24287091305E+02  0.30817874378E+02  0.51091342821E+02  0.00000000000E+00 0. -1.
         22    1    3    3    0    0 -0.71787694859E+02  0.31202174328E+02 -0.46439586516E+02  0.91014746123E+02  0.00000000000E+00 0.  1.
         22    1    3    3    0    0  0.27734568955E+02  0.10183439405E+03 -0.12120060675E+03  0.16071414749E+03  0.00000000000E+00 0.  1.
</event>
<event>
 7    1  0.5194496E-006  0.5108098E+02  0.7818608E-02  0.1498105E+00
          2   -1    0    0  502    0  0.00000000000E+00  0.00000000000E+00  0.70167325563E+03  0.70167325563E+03  0.00000000000E+00 0. -1.
          1   -1    0    0  501    0 -0.00000000000E+00 -0.00000000000E+00 -0.35599637711E+02  0.35599637711E+02  0.00000000000E+00 0. -1.
         25    2    1    2    0    0 -0.18746040938E+02 -0.18725683909E+02  0.13122282931E+03  0.18316324482E+03  0.12500911180E+03 0.  0.
          2    1    1    2  501    0  0.76789004420E+01 -0.32675147824E+02  0.25759879617E+02  0.42310781075E+02  0.00000000000E+00 0. -1.
          1    1    1    2  502    0  0.11067140496E+02  0.51400831733E+02  0.50909090898E+03  0.51179886744E+03  0.00000000000E+00 0. -1.
         22    1    3    3    0    0  0.27693295731E+01 -0.70847785329E+02  0.81045711749E+02  0.10768233497E+03  0.00000000000E+00 0. -1.
         22    1    3    3    0    0 -0.21515370511E+02  0.52122101420E+02  0.50177117565E+02  0.75480909850E+02  0.00000000000E+00 0. -1.
</event>
<event>
 7    1  0.5194496E-006  0.3633462E+02  0.7818608E-02  0.1543187E+00
          2   -1    0    0  502    0  0.00000000000E+00  0.00000000000E+00  0.12903735341E+03  0.12903735341E+03  0.00000000000E+00 0. -1.
          1   -1    0    0  501    0 -0.00000000000E+00 -0.00000000000E+00 -0.10484366561E+04  0.10484366561E+04  0.00000000000E+00 0. -1.
         25    2    1    2    0    0  0.22489296816E+02 -0.49682921561E+02 -0.55532167137E+03  0.57182210505E+03  0.12499679980E+03 0.  0.
          2    1    1    2  501    0  0.99870747478E+01  0.33455038577E+02 -0.48149026397E+03  0.48275444644E+03  0.00000000000E+00 0. -1.
          1    1    1    2  502    0 -0.32476371564E+02  0.16227882985E+02  0.11741263262E+03  0.12289745805E+03  0.00000000000E+00 0. -1.
         22    1    3    3    0    0  0.20569679062E+02 -0.42796253023E+02 -0.60310368902E+02  0.76759179038E+02  0.00000000000E+00 0.  1.
         22    1    3    3    0    0  0.19196177533E+01 -0.68866685387E+01 -0.49501130247E+03  0.49506292601E+03  0.00000000000E+00 0.  1.
</event>
<event>
 7    1  0.5194496E-006  0.9528564E+02  0.7818608E-02  0.1433790E+00
          2   -1    0    0  502    0  0.00000000000E+00  0.00000000000E+00  0.27680536277E+04  0.27680536277E+04  0.00000000000E+00 0. -1.
          1   -1    0    0  501    0 -0.00000000000E+00 -0.00000000000E+00 -0.52189523765E+03  0.52189523765E+03  0.00000000000E+00 0. -1.
         25    2    1    2    0    0 -0.15367179336E+02  0.11790233411E+03  0.25084714818E+03  0.30444483077E+03  0.12500101058E+03 0.  0.
          2    1    1    2  501    0 -0.99425155325E+01 -0.26820277568E+02 -0.49378526066E+03  0.49461304527E+03  0.00000000000E+00 0. -1.
          1    1    1    2  502    0  0.25309694868E+02 -0.91082056538E+02  0.24890965025E+04  0.24908909893E+04  0.00000000000E+00 0. -1.
         22    1    3    3    0    0  0.21434907041E+02  0.11951394273E+02  0.15493685176E+03  0.15686847707E+03  0.00000000000E+00 0.  1.
         22    1    3    3    0    0 -0.36802086377E+02  0.10595093983E+03  0.95910296422E+02  0.14757635370E+03  0.00000000000E+00 0.  1.
</event>
<event>
 7    1  0.5194496E-006  0.4349218E+02  0.7818608E-02  0.1592137E+00
          2   -1    0    0  502    0  0.00000000000E+00  0.00000000000E+00  0.20451433158E+03  0.20451433158E+03  0.00000000000E+00 0. -1.
          1   -1    0    0  501    0 -0.00000000000E+00 -0.00000000000E+00 -0.34594673672E+03  0.34594673672E+03  0.00000000000E+00 0. -1.
         25    2    1    2    0    0  0.41395608733E+02  0.36772103549E+02  0.20964585507E+02  0.13831321214E+03  0.12500098714E+03 0.  0.
          2    1    1    2  501    0 -0.21416255207E+02  0.12486843077E+01 -0.28316145711E+03  0.28397293179E+03  0.00000000000E+00 0. -1.
          1    1    1    2  502    0 -0.19979353526E+02 -0.38020787857E+02  0.12076446647E+03  0.12817492437E+03  0.00000000000E+00 0. -1.
         22    1    3    3    0    0  0.86427193699E+02  0.20498380409E+02  0.14354455962E+02  0.89977184975E+02  0.00000000000E+00 0.  1.
         22    1    3    3    0    0 -0.45031584966E+02  0.16273723140E+02  0.66101295452E+01  0.48336027164E+02  0.00000000000E+00 0.  1.
</event>
<event>
 7    1  0.5194496E-006  0.1328247E+03  0.7818608E-02  0.1343632E+00
          2   -1    0    0  502    0  0.00000000000E+00  0.00000000000E+00  0.15885237828E+03  0.15885237828E+03  0.00000000000E+00 0. -1.
          1   -1    0    0  501    0 -0.00000000000E+00 -0.00000000000E+00 -0.33187727404E+03  0.33187727404E+03  0.00000000000E+00 0. -1.
         25    2    1    2    0    0  0.11870840391E+03  0.63362920126E+02 -0.10566159949E+03  0.21189826387E+03  0.12501982171E+03 0.  0.
          2    1    1    2  501    0 -0.13220349046E+03 -0.23129640488E+02 -0.14048333451E+03  0.19428924425E+03  0.00000000000E+00 0. -1.
          1    1    1    2  502    0  0.13495086549E+02 -0.40233279638E+02  0.73120038243E+02  0.84542144189E+02  0.00000000000E+00 0. -1.
         22    1    3    3    0    0  0.45909338435E+02  0.12381250204E+02  0.25119118583E+02  0.53776694121E+02  0.00000000000E+00 0.  1.
         22    1    3    3    0    0  0.72799065472E+02  0.50981669922E+02 -0.13078071807E+03  0.15812156975E+03  0.00000000000E+00 0.  1.
</event>
<event>
 7    1  0.5194496E-006  0.1207441E+03  0.7818608E-02  0.1302884E+00
          2   -1    0    0  502    0  0.00000000000E+00  0.00000000000E+00  0.19551160986E+03  0.19551160986E+03  0.00000000000E+00 0. -1.
          1   -1    0    0  501    0 -0.00000000000E+00 -0.00000000000E+00 -0.10017023544E+04  0.10017023544E+04  0.00000000000E+00 0. -1.
         25    2    1    2    0    0 -0.82677511904E+02  0.48010199408E+02  0.48813507000E+02  0.16476722724E+03  0.12499972194E+03 0.  0.
          2    1    1    2  501    0 -0.65687754125E+02 -0.13517335283E+02 -0.87610680075E+03  0.87866986162E+03  0.00000000000E+00 0. -1.
          1    1    1    2  502    0  0.14836526603E+03 -0.34492864125E+02  0.21102549178E+02  0.15377687544E+03  0.00000000000E+00 0. -1.
         22    1    3    3    0    0 -0.58749862700E+02  0.76377360689E+02  0.72635045119E+02  0.12066854343E+03  0.00000000000E+00 0.  1.
         22    1    3    3    0    0 -0.23927649204E+02 -0.28367161281E+02 -0.23821538118E+02  0.44098683812E+02  0.00000000000E+00 0.  1.
</event>
<event>
 7    1  0.5194496E-006  0.8524521E+02  0.7818608E-02  0.1456548E+00
          2   -1    0    0  502    0  0.00000000000E+00  0.00000000000E+00  0.25617418225E+04  0.25617418225E+04  0.00000000000E+00 0. -1.
          1   -1    0    0  501    0 -0.00000000000E+00 -0.00000000000E+00 -0.10888910633E+02  0.10888910633E+02  0.00000000000E+00 0. -1.
         25    2    1    2    0    0 -0.61428761212E+02  0.66478318264E+02  0.95626162740E+03  0.96863526833E+03  0.12500049407E+03 0.  0.
          2    1    1    2  501    0  0.36195688424E+02 -0.76102572768E+02  0.38554202156E+03  0.39464462473E+03  0.00000000000E+00 0. -1.
          1    1    1    2  502    0  0.25233072788E+02  0.96242545036E+01  0.12090492629E+04  0.12093508401E+04  0.00000000000E+00 0. -1.
         22    1    3    3    0    0 -0.37416790060E+02  0.73913485878E+02  0.92414702907E+03  0.92785287137E+03  0.00000000000E+00 0. -1.
         22    1    3    3    0    0 -0.24011971152E+02 -0.74351676144E+01  0.32114598333E+02  0.40782396965E+02  0.00000000000E+00 0. -1.
</event>
<event>
 7    1  0.5194496E-006  0.2835553E+03  0.7818608E-02  0.1157026E+00
          2   -1    0    0  502    0  0.00000000000E+00  0.00000000000E+00  0.35263709502E+03  0.35263709502E+03  0.00000000000E+00 0. -1.
          1   -1    0    0  501    0 -0.00000000000E+00 -0.00000000000E+00 -0.19662515455E+04  0.19662515455E+04  0.00000000000E+00 0. -1.
         25    2    1    2    0    0 -0.39812427184E+02 -0.30018513350E+03 -0.17706639701E+03  0.37238937780E+03  0.12500078408E+03 0.  0.
          2    1    1    2  501    0  0.12613393849E+03  0.29180806298E+02 -0.16087897907E+04  0.16139906693E+04  0.00000000000E+00 0. -1.
          1    1    1    2  502    0 -0.86321511308E+02  0.27100432720E+03  0.17224173721E+03  0.33250859344E+03  0.00000000000E+00 0. -1.
         22    1    3    3    0    0  0.16376748676E+02 -0.24148530123E+03 -0.15761560160E+03  0.28883563920E+03  0.00000000000E+00 0.  1.
         22    1    3    3    0    0 -0.56189175860E+02 -0.58699832269E+02 -0.19450795409E+02  0.83553738602E+02  0.00000000000E+00 0.  1.
</event>
<event>
 7    1  0.5194496E-006  0.8157401E+02  0.7818608E-02  0.1383023E+00
          2   -1    0    0  502    0  0.00000000000E+00  0.00000000000E+00  0.13458941521E+03  0.13458941521E+03  0.00000000000E+00 0. -1.
          1   -1    0    0  501    0 -0.00000000000E+00 -0.00000000000E+00 -0.65451083601E+03  0.65451083601E+03  0.00000000000E+00 0. -1.
         25    2    1    2    0    0  0.64915083678E+02  0.76497596318E+02 -0.22980240364E+02  0.16191941455E+03  0.12499582004E+03 0.  0.
          2    1    1    2  501    0 -0.49690172485E+02  0.11946980910E+01 -0.53641696833E+03  0.53871486378E+03  0.00000000000E+00 0. -1.
          1    1    1    2  502    0 -0.15224911192E+02 -0.77692294409E+02  0.39475787895E+02  0.88465972901E+02  0.00000000000E+00 0. -1.
         22    1    3    3    0    0  0.27763557423E+02 -0.35687844986E+01  0.43285065695E+02  0.51547533945E+02  0.00000000000E+00 0.  1.
         22    1    3    3    0    0  0.37151526255E+02  0.80066380817E+02 -0.66265306060E+02  0.11037188060E+03  0.00000000000E+00 0.  1.
</event>
<event>
 7    1  0.5194496E-006  0.1413446E+03  0.7818608E-02  0.1301420E+00
          2   -1    0    0  502    0  0.00000000000E+00  0.00000000000E+00  0.18680064055E+04  0.18680064055E+04  0.00000000000E+00 0. -1.
          1   -1    0    0  501    0 -0.00000000000E+00 -0.00000000000E+00 -0.47434806607E+02  0.47434806607E+02  0.00000000000E+00 0. -1.
         25    2    1    2    0    0  0.53484040514E+02 -0.13414928682E+03  0.63246107755E+03  0.66067237958E+03  0.12499761914E+03 0.  0.
          2    1    1    2  501    0 -0.10113668951E+03  0.10097030967E+03  0.12438726672E+03  0.18946193687E+03  0.00000000000E+00 0. -1.
          1    1    1    2  502    0  0.47652649000E+02  0.33178977146E+02  0.10637232546E+04  0.10653068956E+04  0.00000000000E+00 0. -1.
         22    1    3    3    0    0  0.38169513834E+01  0.19676364963E+02  0.24841534231E+02  0.31919120899E+02  0.00000000000E+00 0. -1.
         22    1    3    3    0    0  0.49667089130E+02 -0.15382565178E+03  0.60761954332E+03  0.62875325869E+03  0.00000000000E+00 0. -1.
</event>
<event>
 7    1  0.7314542E-006  0.1004194E+03  0.7818608E-02  0.1402866E+00
          2   -1    0    0  502    0  0.00000000000E+00  0.00000000000E+00  0.14774271772E+04  0.14774271772E+04  0.00000000000E+00 0. -1.
          1   -1    0    0  501    0 -0.00000000000E+00 -0.00000000000E+00 -0.86097536048E+03  0.86097536048E+03  0.00000000000E+00 0. -1.
         25    2    1    2    0    0  0.36309043384E+02 -0.11569151479E+03 -0.39408650275E+03  0.43085042449E+03  0.12500017362E+03 0.  0.
          2    1    1    2  501    0 -0.30767076503E+02  0.15496863005E+02 -0.44611665732E+03  0.44744478732E+03  0.00000000000E+00 0. -1.
          1    1    1    2  502    0 -0.55419668807E+01  0.10019465178E+03  0.14566549768E+04  0.14601073258E+04  0.00000000000E+00 0. -1.
         22    1    3    3    0    0 -0.37088400911E+02 -0.52145296108E+02 -0.24281461828E+03  0.25110479931E+03  0.00000000000E+00 0.  1.
         22    1    3    3    0    0  0.73397444294E+02 -0.63546218679E+02 -0.15127188448E+03  0.17974562518E+03  0.00000000000E+00 0.  1.
</event>
<event>
 7    1  0.5194496E-006  0.3298548E+02  0.7818608E-02  0.1582153E+00
          2   -1    0    0  502    0  0.00000000000E+00  0.00000000000E+00  0.14046728856E+04  0.14046728856E+04  0.00000000000E+00 0. -1.
          1   -1    0    0  501    0 -0.00000000000E+00 -0.00000000000E+00 -0.55623668863E+03  0.55623668863E+03  0.00000000000E+00 0. -1.
         25    2    1    2    0    0  0.22612550906E+02 -0.30328613873E+02  0.49141672098E+03  0.50847460552E+03  0.12499951409E+03 0.  0.
          2    1    1    2  501    0 -0.32927897055E+02  0.20861905051E+01 -0.54696068338E+03  0.54795491399E+03  0.00000000000E+00 0. -1.
          1    1    1    2  502    0  0.10315346149E+02  0.28242423368E+02  0.90398015936E+03  0.90448005471E+03  0.00000000000E+00 0. -1.
         22    1    3    3    0    0  0.46128459806E+01 -0.44088259096E+02  0.51400010007E+02  0.67874987786E+02  0.00000000000E+00 0. -1.
         22    1    3    3    0    0  0.17999704926E+02  0.13759645223E+02  0.44001671097E+03  0.44059961774E+03  0.00000000000E+00 0. -1.
</event>
<event>
 7    1  0.5194496E-006  0.8623043E+02  0.7818608E-02  0.1451797E+00
          2   -1    0    0  502    0  0.00000000000E+00  0.00000000000E+00  0.10987183189E+02  0.10987183189E+02  0.00000000000E+00 0. -1.
          1   -1    0    0  501    0 -0.00000000000E+00 -0.00000000000E+00 -0.35339366011E+04  0.35339366011E+04  0.00000000000E+00 0. -1.
         25    2    1    2    0    0  0.82911120716E+02 -0.76555066993E+01 -0.20212527321E+04  0.20268251221E+04  0.12499843070E+03 0.  0.
          2    1    1    2  501    0 -0.81734200696E+02  0.35273239707E+02 -0.14807309663E+04  0.14834044882E+04  0.00000000000E+00 0. -1.
          1    1    1    2  502    0 -0.11769200196E+01 -0.27617733008E+02 -0.20965719486E+02  0.34694174018E+02  0.00000000000E+00 0. -1.
         22    1    3    3    0    0 -0.28677803685E+02  0.14500090271E+02 -0.27517752351E+03  0.27704753831E+03  0.00000000000E+00 0.  1.
         22    1    3    3    0    0  0.11158892440E+03 -0.22155596970E+02 -0.17460752086E+04  0.17497775838E+04  0.00000000000E+00 0.  1.
</event>
<event>
 7    1  0.5194496E-006  0.9280544E+02  0.7818608E-02  0.1389910E+00
          2   -1    0    0  502    0  0.00000000000E+00  0.00000000000E+00  0.74975971703E+03  0.74975971703E+03  0.00000000000E+00 0. -1.
          1   -1    0    0  501    0 -0.00000000000E+00 -0.00000000000E+00 -0.96766389127E+02  0.96766389127E+02  0.00000000000E+00 0. -1.
         25    2    1    2    0    0  0.79454086318E+00 -0.71652007291E+02  0.48013730664E+03  0.50128698193E+03  0.12498865381E+03 0.  0.
          2    1    1    2  501    0  0.37830886452E+02  0.86344268818E+02 -0.58020842905E+02  0.11069293988E+03  0.00000000000E+00 0. -1.
          1    1    1    2  502    0 -0.38625427315E+02 -0.14692261527E+02  0.23087686418E+03  0.23454618436E+03  0.00000000000E+00 0. -1.
         22    1    3    3    0    0  0.39561238449E+02 -0.74509372767E+02  0.18170039789E+03  0.20032916116E+03  0.00000000000E+00 0. -1.
         22    1    3    3    0    0 -0.38766697586E+02  0.28573654761E+01  0.29843690874E+03  0.30095782076E+03  0.00000000000E+00 0. -1.
</event>
<event>
 7    1  0.5194496E-006  0.1924858E+03  0.7818608E-02  0.1382509E+00
          2   -1    0    0  502    0  0.00000000000E+00  0.00000000000E+00  0.21939167541E+04  0.21939167541E+04  0.00000000000E+00 0. -1.
          1   -1    0    0  501    0 -0.00000000000E+00 -0.00000000000E+00 -0.11379386224E+04  0.11379386224E+04  0.00000000000E+00 0. -1.
         25    2    1    2    0    0 -0.12587700653E+03 -0.12128613891E+03 -0.30912193463E+03  0.37647897251E+03  0.12499879203E+03 0.  0.
          2    1    1    2  501    0 -0.20831506879E+02 -0.36713374005E+01 -0.79069856827E+03  0.79098145127E+03  0.00000000000E+00 0. -1.
          1    1    1    2  502    0  0.14670851341E+03  0.12495747631E+03  0.21557986346E+04  0.21643949528E+04  0.00000000000E+00 0. -1.
         22    1    3    3    0    0 -0.14228383412E+03 -0.12848923998E+03 -0.30085311656E+03  0.35674468740E+03  0.00000000000E+00 0.  1.
         22    1    3    3    0    0  0.16406827591E+02  0.72031010705E+01 -0.82688180686E+01  0.19734285112E+02  0.00000000000E+00 0.  1.
</event>
<event>
 7    1  0.5194496E-006  0.9653140E+02  0.7818608E-02  0.1337119E+00
          2   -1    0    0  502    0  0.00000000000E+00  0.00000000000E+00  0.92222995953E+02  0.92222995953E+02  0.00000000000E+00 0. -1.
          1   -1    0    0  501    0 -0.00000000000E+00 -0.00000000000E+00 -0.21295725158E+04  0.21295725158E+04  0.00000000000E+00 0. -1.
         25    2    1    2    0    0  0.48603196960E+02 -0.59399887326E+02 -0.10214308510E+04  0.10319094516E+04  0.12500206179E+03 0.  0.
          2    1    1    2  501    0 -0.10594756937E+03  0.36416904043E+02 -0.10886836100E+04  0.10944327668E+04  0.00000000000E+00 0. -1.
          1    1    1    2  502    0  0.57344372407E+02  0.22982983282E+02  0.72764941135E+02  0.95453293425E+02  0.00000000000E+00 0. -1.
         22    1    3    3    0    0  0.76524691017E+02 -0.79242831440E+02 -0.84826225389E+03  0.85538547219E+03  0.00000000000E+00 0.  1.
         22    1    3    3    0    0 -0.27921494057E+02  0.19842944114E+02 -0.17316859712E+03  0.17652397936E+03  0.00000000000E+00 0.  1.
</event>
<event>
 7    1  0.5194496E-006  0.8796370E+02  0.7818608E-02  0.1334941E+00
          2   -1    0    0  502    0  0.00000000000E+00  0.00000000000E+00  0.22424074477E+04  0.22424074477E+04  0.00000000000E+00 0. -1.
          1   -1    0    0  501    0 -0.00000000000E+00 -0.00000000000E+00 -0.49265788026E+03  0.49265788026E+03  0.00000000000E+00 0. -1.
         25    2    1    2    0    0  0.23909067226E+02  0.50462825098E+02  0.41011664141E+03  0.43236508640E+03  0.12500307262E+03 0.  0.
          2    1    1    2  501    0 -0.59013019042E+02  0.35937934829E+02 -0.47785335155E+03  0.48282284242E+03  0.00000000000E+00 0. -1.
          1    1    1    2  502    0  0.35103951816E+02 -0.86400759927E+02  0.18174862776E+04  0.18198773991E+04  0.00000000000E+00 0. -1.
         22    1    3    3    0    0  0.65171098221E+02  0.59509319810E+02  0.33233079978E+03  0.34384937352E+03  0.00000000000E+00 0. -1.
         22    1    3    3    0    0 -0.41262030995E+02 -0.90464947125E+01  0.77785841624E+02  0.88515712874E+02  0.00000000000E+00 0. -1.
</event>
<event>
 7    1  0.5194496E-006  0.5175229E+02  0.7818608E-02  0.1505622E+00
          2   -1    0    0  502    0  0.00000000000E+00  0.00000000000E+00  0.22072128404E+04  0.22072128404E+04  0.00000000000E+00 0. -1.
          1   -1    0    0  501    0 -0.00000000000E+00 -0.00000000000E+00 -0.58265769550E+02  0.58265769550E+02  0.00000000000E+00 0. -1.
         25    2    1    2    0    0  0.42123861837E+02 -0.10094914142E+02  0.98202220776E+03  0.99089277365E+03  0.12499818121E+03 0.  0.
          2    1    1    2  501    0 -0.32947247646E+02  0.40193218136E+02 -0.41033599220E+02  0.66217612284E+02  0.00000000000E+00 0. -1.
          1    1    1    2  502    0 -0.91766141910E+01 -0.30098303993E+02  0.12079584623E+04  0.12083682240E+04  0.00000000000E+00 0. -1.
         22    1    3    3    0    0  0.21106798713E+02  0.56912740508E+02  0.52679684665E+03  0.53028244797E+03  0.00000000000E+00 0. -1.
         22    1    3    3    0    0  0.21017063125E+02 -0.67007654650E+02  0.45522536112E+03  0.46061032569E+03  0.00000000000E+00 0. -1.
</event>
<event>
 7    1  0.5194496E-006  0.6785807E+02  0.7818608E-02  0.1510920E+00
          2   -1    0    0  502    0  0.00000000000E+00  0.00000000000E+00  0.46080684882E+03  0.46080684882E+03  0.00000000000E+00 0. -1.
          1   -1    0    0  501    0 -0.00000000000E+00 -0.00000000000E+00 -0.24665859451E+04  0.24665859451E+04  0.00000000000E+00 0. -1.
         25    2    1    2    0    0 -0.73237583380E+02 -0.73785402522E+01 -0.14509367628E+04  0.14581746140E+04  0.12505010490E+03 0.  0.
          2    1    1    2  501    0  0.61191568453E+02  0.27146959682E+02 -0.10106291605E+04  0.10128438505E+04  0.00000000000E+00 0. -1.
          1    1    1    2  502    0  0.12046014928E+02 -0.19768419429E+02  0.45578682702E+03  0.45637432943E+03  0.00000000000E+00 0. -1.
         22    1    3    3    0    0  0.52091713474E+01 -0.40661144075E+02 -0.19051089857E+03  0.19487141036E+03  0.00000000000E+00 0. -1.
         22    1    3    3    0    0 -0.78446754728E+02  0.33282603823E+02 -0.12604258642E+04  0.12633032036E+04  0.00000000000E+00 0. -1.
</event>
<event>
 7    1  0.5194496E-006  0.5046942E+02  0.7818608E-02  0.1446828E+00
          2   -1    0    0  502    0  0.00000000000E+00  0.00000000000E+00  0.39194369943E+04  0.39194369943E+04  0.00000000000E+00 0. -1.
          1   -1    0    0  501    0 -0.00000000000E+00 -0.00000000000E+00 -0.40021469482E+02  0.40021469482E+02  0.00000000000E+00 0. -1.
         25    2    1    2    0    0  0.12296713622E+02  0.11383415776E+02  0.91781969605E+03  0.92644454493E+03  0.12500283619E+03 0.  0.
          2    1    1    2  501    0 -0.38326027939E+02  0.32837137895E+02 -0.17544339047E+02  0.53431880702E+02  0.00000000000E+00 0. -1.
          1    1    1    2  502    0  0.26029314317E+02 -0.44220553671E+02  0.29791401678E+04  0.29795820381E+04  0.00000000000E+00 0. -1.
         22    1    3    3    0    0  0.42209672743E+02 -0.23379339251E+02  0.15708607831E+03  0.16432980855E+03  0.00000000000E+00 0. -1.
         22    1    3    3    0    0 -0.29912959121E+02  0.34762755027E+02  0.76073361773E+03  0.76211473638E+03  0.00000000000E+00 0. -1.
</event>
<event>
 7    1  0.5194496E-006  0.1702836E+03  0.7818608E-02  0.1246428E+00
          2   -1    0    0  502    0  0.00000000000E+00  0.00000000000E+00  0.20117191911E+03  0.20117191911E+03  0.00000000000E+00 0. -1.
          1   -1    0    0  501    0 -0.00000000000E+00 -0.00000000000E+00 -0.15718428277E+04  0.15718428277E+04  0.00000000000E+00 0. -1.
         25    2    1    2    0    0 -0.24702496144E+02  0.13630533959E+03 -0.17517474489E+03  0.25592350831E+03  0.12498516690E+03 0.  0.
          2    1    1    2  501    0  0.72505191688E+02  0.37814046320E+02 -0.13039168884E+04  0.13064785328E+04  0.00000000000E+00 0. -1.
          1    1    1    2  502    0 -0.47802695544E+02 -0.17411938591E+03  0.10842072468E+03  0.21061270567E+03  0.00000000000E+00 0. -1.
         22    1    3    3    0    0 -0.10599235374E+02  0.87040160029E+02 -0.18409384213E+03  0.20390898940E+03  0.00000000000E+00 0. -1.
         22    1    3    3    0    0 -0.14103260770E+02  0.49265179561E+02  0.89190972476E+01  0.52014518908E+02  0.00000000000E+00 0. -1.
</event>
<event>
 7    1  0.5194496E-006  0.1341640E+03  0.7818608E-02  0.1325263E+00
          2   -1    0    0  502    0  0.00000000000E+00  0.00000000000E+00  0.26231160878E+03  0.26231160878E+03  0.00000000000E+00 0. -1.
          1   -1    0    0  501    0 -0.00000000000E+00 -0.00000000000E+00 -0.38455030349E+03  0.38455030349E+03  0.00000000000E+00 0. -1.
         25    2    1    2    0    0  0.10129147514E+03 -0.99252715997E+02 -0.13541625487E+03  0.23253737919E+03  0.12500002429E+03 0.  0.
          2    1    1    2  501    0  0.21234151552E+02  0.44522296901E+02 -0.17577678225E+03  0.18256670368E+03  0.00000000000E+00 0. -1.
          1    1    1    2  502    0 -0.12252562669E+03  0.54730419096E+02  0.18895434241E+03  0.23175782939E+03  0.00000000000E+00 0. -1.
         22    1    3    3    0    0  0.85369033305E+02 -0.39383922881E+02 -0.12435572651E+02  0.94834638694E+02  0.00000000000E+00 0.  1.
         22    1    3    3    0    0  0.15922441831E+02 -0.59868793116E+02 -0.12298068222E+03  0.13770274050E+03  0.00000000000E+00 0.  1.
</event>
<event>
 7    1  0.5194496E-006  0.8552707E+02  0.7818608E-02  0.1368864E+00
          2   -1    0    0  502    0  0.00000000000E+00  0.00000000000E+00  0.20120618352E+04  0.20120618352E+04  0.00000000000E+00 0. -1.
          1   -1    0    0  501    0 -0.00000000000E+00 -0.00000000000E+00 -0.20252665867E+02  0.20252665867E+02  0.00000000000E+00 0. -1.
         25    2    1    2    0    0  0.26311974330E+02  0.12969292994E+03  0.80223735329E+03  0.82263138485E+03  0.12500019304E+03 0.  0.
          2    1    1    2  501    0 -0.95899451863E+01 -0.52376830420E+02  0.73231393680E+02  0.90543560974E+02  0.00000000000E+00 0. -1.
          1    1    1    2  502    0 -0.16722029144E+02 -0.77316099523E+02  0.11163404224E+04  0.11191395552E+04  0.00000000000E+00 0. -1.
         22    1    3    3    0    0  0.70814225269E+02  0.11275078667E+03  0.54535581622E+03  0.56137363732E+03  0.00000000000E+00 0. -1.
         22    1    3    3    0    0 -0.44502250940E+02  0.16942143273E+02  0.25688153708E+03  0.26125774754E+03  0.00000000000E+00 0. -1.
</event>
<event>
 7    1  0.5194496E-006  0.1627891E+03  0.7818608E-02  0.1247508E+00
          2   -1    0    0  502    0  0.00000000000E+00  0.00000000000E+00  0.38251443316E+03  0.38251443316E+03  0.00000000000E+00 0. -1.
          1   -1    0    0  501    0 -0.00000000000E+00 -0.00000000000E+00 -0.17428973456E+04  0.17428973456E+04  0.00000000000E+00 0. -1.
         25    2    1    2    0    0  0.22090706858E+02  0.10655751342E+03 -0.28157312086E+03  0.32672844103E+03  0.12500219514E+03 0.  0.
          2    1    1    2  501    0 -0.64359686519E+02  0.54933778575E+02 -0.14180625057E+04  0.14205847949E+04  0.00000000000E+00 0. -1.
          1    1    1    2  502    0  0.42268979661E+02 -0.16149129199E+03  0.33925271416E+03  0.37809854284E+03  0.00000000000E+00 0. -1.
         22    1    3    3    0    0 -0.49278481934E+02  0.20579680243E+02 -0.10432260507E+03  0.11719683421E+03  0.00000000000E+00 0.  1.
         22    1    3    3    0    0  0.71369188792E+02  0.85977833174E+02 -0.17725051579E+03  0.20953160682E+03  0.00000000000E+00 0.  1.
</event>
<event>
 7    1  0.5194496E-006  0.3973020E+02  0.7818608E-02  0.1535461E+00
          2   -1    0    0  502    0  0.00000000000E+00  0.00000000000E+00  0.21105690575E+03  0.21105690575E+03  0.00000000000E+00 0. -1.
          1   -1    0    0  501    0 -0.00000000000E+00 -0.00000000000E+00 -0.90105128139E+02  0.90105128139E+02  0.00000000000E+00 0. -1.
         25    2    1    2    0    0  0.44218831487E+02  0.55728796295E+02  0.74919049611E+02  0.16216858407E+03  0.12499912748E+03 0.  0.
          2    1    1    2  501    0 -0.23508420646E+02 -0.29297979502E+02 -0.34960699138E+02  0.51315377114E+02  0.00000000000E+00 0. -1.
          1    1    1    2  502    0 -0.20710410841E+02 -0.26430816793E+02  0.80993427142E+02  0.87678072708E+02  0.00000000000E+00 0. -1.
         22    1    3    3    0    0  0.11603096492E+02 -0.71662726964E+01  0.88911306401E+02  0.89951140730E+02  0.00000000000E+00 0.  1.
         22    1    3    3    0    0  0.32615734995E+02  0.62895068991E+02 -0.13992256791E+02  0.72217443341E+02  0.00000000000E+00 0.  1.
</event>
<event>
 7    1  0.5194496E-006  0.1692187E+03  0.7818608E-02  0.1283470E+00
          2   -1    0    0  502    0  0.00000000000E+00  0.00000000000E+00  0.35813837680E+04  0.35813837680E+04  0.00000000000E+00 0. -1.
          1   -1    0    0  501    0 -0.00000000000E+00 -0.00000000000E+00 -0.53027633284E+03  0.53027633284E+03  0.00000000000E+00 0. -1.
         25    2    1    2    0    0 -0.35908806171E+02 -0.21695542221E+03  0.17248262752E+03  0.30616103211E+03  0.12500089279E+03 0.  0.
          2    1    1    2  501    0  0.99307136214E+01  0.16583519071E+03 -0.44829340830E+03  0.47808671753E+03  0.00000000000E+00 0. -1.
          1    1    1    2  502    0  0.25978092550E+02  0.51120231506E+02  0.33269182159E+04  0.33274123512E+04  0.00000000000E+00 0. -1.
         22    1    3    3    0    0  0.95100643358E+01  0.14753400000E+01 -0.12896521029E+02  0.16091556993E+02  0.00000000000E+00 0.  1.
         22    1    3    3    0    0 -0.45418870507E+02 -0.21843076221E+03  0.18537914855E+03  0.29006947512E+03  0.00000000000E+00 0.  1.
</event>
<event>
 7    1  0.5194496E-006  0.1182796E+03  0.7818608E-02  0.1406787E+00
          2   -1    0    0  502    0  0.00000000000E+00  0.00000000000E+00  0.84714284801E+03  0.84714284801E+03  0.00000000000E+00 0. -1.
          1   -1    0    0  501    0 -0.00000000000E+00 -0.00000000000E+00 -0.10619457274E+03  0.10619457274E+03  0.00000000000E+00 0. -1.
         25    2    1    2    0    0  0.37776656756E+02  0.93005520192E+02  0.35421171971E+03  0.38880387305E+03  0.12500162691E+03 0.  0.
          2    1    1    2  501    0  0.19431513939E+02  0.20656469439E+02 -0.77840216139E+02  0.82845474905E+02  0.00000000000E+00 0. -1.
          1    1    1    2  502    0 -0.57208170695E+02 -0.11366198963E+03  0.46457677170E+03  0.48168807280E+03  0.00000000000E+00 0. -1.
         22    1    3    3    0    0  0.81988610692E+02  0.73435348926E+02  0.27203723741E+03  0.29346062989E+03  0.00000000000E+00 0. -1.
         22    1    3    3    0    0 -0.44211953936E+02  0.19570171267E+02  0.82174482305E+02  0.95343243160E+02  0.00000000000E+00 0. -1.
</event>
<event>
 7    1  0.5194496E-006  0.1087845E+03  0.7818608E-02  0.1433534E+00
          2   -1    0    0  502    0  0.00000000000E+00  0.00000000000E+00  0.84866024103E+03  0.84866024103E+03  0.00000000000E+00 0. -1.
          1   -1    0    0  501    0 -0.00000000000E+00 -0.00000000000E+00 -0.60162429275E+03  0.60162429275E+03  0.00000000000E+00 0. -1.
         25    2    1    2    0    0 -0.10288972594E+03 -0.77229351331E+02  0.14675556571E+03  0.23176020202E+03  0.12499970705E+03 0.  0.
          2    1    1    2  501    0  0.77867978379E+02  0.75212837219E+02 -0.55363835562E+03  0.56412394184E+03  0.00000000000E+00 0. -1.
          1    1    1    2  502    0  0.25021747565E+02  0.20165141119E+01  0.65391873818E+03  0.65440038992E+03  0.00000000000E+00 0. -1.
         22    1    3    3    0    0  0.17030322008E+02  0.88903175971E+01 -0.51898084130E+01  0.19899842362E+02  0.00000000000E+00 0. -1.
         22    1    3    3    0    0 -0.11992004795E+03 -0.86119668928E+02  0.15194537412E+03  0.21186035966E+03  0.00000000000E+00 0. -1.
</event>
<event>
 7    1  0.5194496E-006  0.1123325E+03  0.7818608E-02  0.1300030E+00
          2   -1    0    0  502    0  0.00000000000E+00  0.00000000000E+00  0.85555066370E+03  0.85555066370E+03  0.00000000000E+00 0. -1.
          1   -1    0    0  501    0 -0.00000000000E+00 -0.00000000000E+00 -0.82094614466E+02  0.82094614466E+02  0.00000000000E+00 0. -1.
         25    2    1    2    0    0  0.11426652067E+02 -0.94200614403E+02  0.83289070970E+02  0.17767191807E+03  0.12500366794E+03 0.  0.
          2    1    1    2  501    0 -0.82825228976E+02  0.11366027637E+03  0.11956538628E+03  0.18459295376E+03  0.00000000000E+00 0. -1.
          1    1    1    2  502    0  0.71398576910E+02 -0.19459661965E+02  0.57060159198E+03  0.57538040634E+03  0.00000000000E+00 0. -1.
         22    1    3    3    0    0  0.11590143448E+01 -0.53398495259E+02 -0.26842700339E+02  0.59776861507E+02  0.00000000000E+00 0. -1.
         22    1    3    3    0    0  0.10267637722E+02 -0.40802119144E+02  0.11013177131E+03  0.11789505657E+03  0.00000000000E+00 0. -1.
</event>
<event>
 7    1  0.5194496E-006  0.1168933E+03  0.7818608E-02  0.1293603E+00
          2   -1    0    0  502    0  0.00000000000E+00  0.00000000000E+00  0.75848920419E+03  0.75848920419E+03  0.00000000000E+00 0. -1.
          1   -1    0    0  501    0 -0.00000000000E+00 -0.00000000000E+00 -0.79629163987E+03  0.79629163987E+03  0.00000000000E+00 0. -1.
         25    2    1    2    0    0 -0.12642139212E+03 -0.12648079822E+03 -0.17397130766E+03  0.27905461106E+03  0.12500279740E+03 0.  0.
          2    1    1    2  501    0  0.71325078714E+02  0.24693130026E+02 -0.56249685784E+03  0.56753830937E+03  0.00000000000E+00 0. -1.
          1    1    1    2  502    0  0.55096313403E+02  0.10178766820E+03  0.69866572982E+03  0.70818792363E+03  0.00000000000E+00 0. -1.
         22    1    3    3    0    0 -0.14212718295E+03 -0.13399231677E+03 -0.17408000483E+03  0.26164465438E+03  0.00000000000E+00 0. -1.
         22    1    3    3    0    0  0.15705790831E+02  0.75115185454E+01  0.10869716169E+00  0.17409956678E+02  0.00000000000E+00 0. -1.
</event>
<event>
 7    1  0.5194496E-006  0.1339735E+03  0.7818608E-02  0.1241393E+00
          2   -1    0    0  502    0  0.00000000000E+00  0.00000000000E+00  0.12732556568E+04  0.12732556568E+04  0.00000000000E+00 0. -1.
          1   -1    0    0  501    0 -0.00000000000E+00 -0.00000000000E+00 -0.28806536307E+03  0.28806536307E+03  0.00000000000E+00 0. -1.
         25    2    1    2    0    0 -0.21396470078E+03  0.51758981535E+02  0.18063798173E+03  0.31099066510E+03  0.12500091196E+03 0.  0.
          2    1    1    2  501    0  0.10644522349E+03 -0.71698480271E+02 -0.20120166081E+03  0.23864904356E+03  0.00000000000E+00 0. -1.
          1    1    1    2  502    0  0.10751947728E+03  0.19939498737E+02  0.10057539728E+04  0.10116813112E+04  0.00000000000E+00 0. -1.
         22    1    3    3    0    0 -0.12178871534E+02  0.33632785910E+02  0.73653286364E+02  0.81879764241E+02  0.00000000000E+00 0. -1.
         22    1    3    3    0    0 -0.20178582924E+03  0.18126195624E+02  0.10698469536E+03  0.22911090086E+03  0.00000000000E+00 0. -1.
</event>
<event>
 7    1  0.5194496E-006  0.1115604E+03  0.7818608E-02  0.1405993E+00
          2   -1    0    0  502    0  0.00000000000E+00  0.00000000000E+00  0.64265332882E+03  0.64265332882E+03  0.00000000000E+00 0. -1.
          1   -1    0    0  501    0 -0.00000000000E+00 -0.00000000000E+00 -0.26247744740E+03  0.26247744740E+03  0.00000000000E+00 0. -1.
         25    2    1    2    0    0 -0.12974391848E+03 -0.39067132531E+02  0.11338742360E+03  0.21643027887E+03  0.12500253019E+03 0.  0.
          2    1    1    2  501    0  0.22642025545E+02  0.20068377530E+02 -0.20363232184E+03  0.20586773325E+03  0.00000000000E+00 0. -1.
          1    1    1    2  502    0  0.10710189294E+03  0.18998755001E+02  0.47042077966E+03  0.48283276411E+03  0.00000000000E+00 0. -1.
         22    1    3    3    0    0  0.19038901334E+02  0.48519706857E+01  0.40535071338E+02  0.45045681169E+02  0.00000000000E+00 0. -1.
         22    1    3    3    0    0 -0.14878281981E+03 -0.43919103217E+02  0.72852352262E+02  0.17138459770E+03  0.00000000000E+00 0. -1.
</event>
<event>
 7    1  0.5194496E-006  0.9136748E+02  0.7818608E-02  0.1303665E+00
          2   -1    0    0  502    0  0.00000000000E+00  0.00000000000E+00  0.14440414632E+04  0.14440414632E+04  0.00000000000E+00 0. -1.
          1   -1    0    0  501    0 -0.00000000000E+00 -0.00000000000E+00 -0.14249440589E+04  0.14249440589E+04  0.00000000000E+00 0. -1.
         25    2    1    2    0    0  0.16617697546E+02  0.12495457308E+03 -0.67436229462E+02  0.18989754714E+03  0.12499456051E+03 0.  0.
          2    1    1    2  501    0  0.55231707121E+02 -0.68501179548E+02 -0.12932710042E+04  0.12962611016E+04  0.00000000000E+00 0. -1.
          1    1    1    2  502    0 -0.71849404667E+02 -0.56453393534E+02  0.13798046380E+04  0.13828268733E+04  0.00000000000E+00 0. -1.
         22    1    3    3    0    0 -0.13226999435E+01  0.11387133083E+03 -0.99698562072E+02  0.15135465899E+03  0.00000000000E+00 0.  1.
         22    1    3    3    0    0  0.17940397489E+02  0.11083242256E+02  0.32262332611E+02  0.38542888144E+02  0.00000000000E+00 0.  1.
</event>
<event>
 7    1  0.5194496E-006  0.6768113E+02  0.7818608E-02  0.1380563E+00
          2   -1    0    0  502    0  0.00000000000E+00  0.00000000000E+00  0.35580473307E+03  0.35580473307E+03  0.00000000000E+00 0. -1.
          1   -1    0    0  501    0 -0.00000000000E+00 -0.00000000000E+00 -0.25260262601E+03  0.25260262601E+03  0.00000000000E+00 0. -1.
         25    2    1    2    0    0  0.17809073056E+02 -0.92831839611E+01  0.16650898939E+03  0.20917264354E+03  0.12499844267E+03 0.  0.
          2    1    1    2  501    0  0.64684372879E+02  0.19916491361E+02 -0.21545510206E+03  0.22583541734E+03  0.00000000000E+00 0. -1.
          1    1    1    2  502    0 -0.82493445934E+02 -0.10633307400E+02  0.15214821973E+03  0.17339929819E+03  0.00000000000E+00 0. -1.
         22    1    3    3    0    0 -0.53253744690E+02 -0.83185374286E+00  0.54105460332E+02  0.75921368151E+02  0.00000000000E+00 0. -1.
         22    1    3    3    0    0  0.71062817746E+02 -0.84513302182E+01  0.11240352906E+03  0.13325127539E+03  0.00000000000E+00 0. -1.
</event>
<event>
 7    1  0.5194496E-006  0.6585810E+02  0.7818608E-02  0.1402191E+00
          2   -1    0    0  502    0  0.00000000000E+00  0.00000000000E+00  0.16368194564E+04  0.16368194564E+04  0.00000000000E+00 0. -1.
          1   -1    0    0  501    0 -0.00000000000E+00 -0.00000000000E+00 -0.81536951563E+03  0.81536951563E+03  0.00000000000E+00 0. -1.
         25    2    1    2    0    0 -0.38758961335E+02 -0.11077909004E+03  0.10488695940E+04  0.10627918905E+04  0.12499965383E+03 0.  0.
          2    1    1    2  501    0  0.13527445903E+02  0.64388282311E+02 -0.80586490814E+03  0.80854628368E+03  0.00000000000E+00 0. -1.
          1    1    1    2  502    0  0.25231515432E+02  0.46390807729E+02  0.57844525487E+03  0.58085079779E+03  0.00000000000E+00 0. -1.
         22    1    3    3    0    0 -0.14061132073E+02  0.12686994672E+02  0.47024149026E+03  0.47062270922E+03  0.00000000000E+00 0.  1.
         22    1    3    3    0    0 -0.24697829261E+02 -0.12346608471E+03  0.57862810373E+03  0.59216918129E+03  0.00000000000E+00 0.  1.
</event>
<event>
 7    1  0.5194496E-006  0.4906160E+02  0.7818608E-02  0.1536094E+00
          2   -1    0    0  502    0  0.00000000000E+00  0.00000000000E+00  0.13994600204E+03  0.13994600204E+03  0.00000000000E+00 0. -1.
          1   -1    0    0  501    0 -0.00000000000E+00 -0.00000000000E+00 -0.56271596032E+03  0.56271596032E+03  0.00000000000E+00 0. -1.
         25    2    1    2    0    0  0.55723049014E+02 -0.48574531463E+02 -0.48005386984E+02  0.15296973946E+03  0.12502272079E+03 0.  0.
          2    1    1    2  501    0 -0.31189400081E+02  0.37111842105E+02 -0.45882442416E+03  0.46137828266E+03  0.00000000000E+00 0. -1.
          1    1    1    2  502    0 -0.24533648933E+02  0.11462689359E+02  0.84059852867E+02  0.88313940244E+02  0.00000000000E+00 0. -1.
         22    1    3    3    0    0  0.79243724849E+02 -0.11288380851E+02 -0.67558418787E+02  0.10474318794E+03  0.00000000000E+00 0.  1.
         22    1    3    3    0    0 -0.23520675835E+02 -0.37286150612E+02  0.19553031803E+02  0.48226551524E+02  0.00000000000E+00 0.  1.
</event>
<event>
 7    1  0.5194496E-006  0.7722993E+02  0.7818608E-02  0.1341297E+00
          2   -1    0    0  502    0  0.00000000000E+00  0.00000000000E+00  0.92375930870E+03  0.92375930870E+03  0.00000000000E+00 0. -1.
          1   -1    0    0  501    0 -0.00000000000E+00 -0.00000000000E+00 -0.21375951724E+03  0.21375951724E+03  0.00000000000E+00 0. -1.
         25    2    1    2    0    0 -0.51503697210E+02  0.82411392174E+02 -0.39178469290E+02  0.16310875241E+03  0.12500097708E+03 0.  0.
          2    1    1    2  501    0 -0.24973213933E+02 -0.70157726602E+02 -0.98342686549E+02  0.12335741572E+03  0.00000000000E+00 0. -1.
          1    1    1    2  502    0  0.76476911144E+02 -0.12253665572E+02  0.84752094729E+03  0.85105265781E+03  0.00000000000E+00 0. -1.
         22    1    3    3    0    0 -0.43106030835E+02  0.22675315363E+02  0.40378950282E+02  0.63267364787E+02  0.00000000000E+00 0.  1.
         22    1    3    3    0    0 -0.83976663754E+01  0.59736076811E+02 -0.79557419573E+02  0.99841387622E+02  0.00000000000E+00 0.  1.
</event>
<event>
 7    1  0.5194496E-006  0.2307170E+03  0.7818608E-02  0.1199507E+00
          2   -1    0    0  502    0  0.00000000000E+00  0.00000000000E+00  0.94632576886E+03  0.94632576886E+03  0.00000000000E+00 0. -1.
          1   -1    0    0  501    0 -0.00000000000E+00 -0.00000000000E+00 -0.42161291591E+03  0.42161291591E+03  0.00000000000E+00 0. -1.
         25    2    1    2    0    0  0.12290315611E+03  0.27730402226E+03  0.38932446016E+03  0.50911781380E+03  0.12499882606E+03 0.  0.
          2    1    1    2  501    0 -0.41139037200E+02 -0.89552995327E+02 -0.33318450689E+03  0.34745370193E+03  0.00000000000E+00 0. -1.
          1    1    1    2  502    0 -0.81764118905E+02 -0.18775102693E+03  0.46857289968E+03  0.51136716903E+03  0.00000000000E+00 0. -1.
         22    1    3    3    0    0  0.12460754371E+03  0.24719549173E+03  0.27242643741E+03  0.38839260405E+03  0.00000000000E+00 0.  1.
         22    1    3    3    0    0 -0.17043876051E+01  0.30108530527E+02  0.11689802275E+03  0.12072520975E+03  0.00000000000E+00 0.  1.
</event>
<event>
 7    1  0.5194496E-006  0.6099658E+02  0.7818608E-02  0.1507093E+00
          2   -1    0    0  502    0  0.00000000000E+00  0.00000000000E+00  0.55484915232E+03  0.55484915232E+03  0.00000000000E+00 0. -1.
          1   -1    0    0  501    0 -0.00000000000E+00 -0.00000000000E+00 -0.50936916335E+03  0.50936916335E+03  0.00000000000E+00 0. -1.
         25    2    1    2    0    0  0.41988821927E+02  0.35597206853E+02  0.42208751842E+03  0.44363649604E+03  0.12500098043E+03 0.  0.
          2    1    1    2  501    0 -0.59065368235E+02 -0.15422883538E+02 -0.49526659569E+03  0.49901461288E+03  0.00000000000E+00 0. -1.
          1    1    1    2  502    0  0.17076546308E+02 -0.20174323315E+02  0.11865906624E+03  0.12156720675E+03  0.00000000000E+00 0. -1.
         22    1    3    3    0    0  0.75943456220E+02  0.12248149078E+02  0.36624091801E+03  0.37423232854E+03  0.00000000000E+00 0.  1.
         22    1    3    3    0    0 -0.33954634293E+02  0.23349057775E+02  0.55846600412E+02  0.69404167501E+02  0.00000000000E+00 0.  1.
</event>
<event>
 7    1  0.5194496E-006  0.5514632E+02  0.7818608E-02  0.1512937E+00
          2   -1    0    0  502    0  0.00000000000E+00  0.00000000000E+00  0.72007098370E+03  0.72007098370E+03  0.00000000000E+00 0. -1.
          1   -1    0    0  501    0 -0.00000000000E+00 -0.00000000000E+00 -0.24337227575E+04  0.24337227575E+04  0.00000000000E+00 0. -1.
         25    2    1    2    0    0 -0.54163674898E+02  0.61578105097E+02 -0.61274440271E+03  0.63071863895E+03  0.12499892705E+03 0.  0.
          2    1    1    2  501    0  0.34743476979E+02 -0.41269141639E+02 -0.18113118878E+04  0.18121150643E+04  0.00000000000E+00 0. -1.
          1    1    1    2  502    0  0.19420197919E+02 -0.20308963458E+02  0.71040451677E+03  0.71096003793E+03  0.00000000000E+00 0. -1.
         22    1    3    3    0    0  0.30564080167E+02  0.20738690313E+02 -0.34425936323E+03  0.34623513029E+03  0.00000000000E+00 0.  1.
         22    1    3    3    0    0 -0.84727755066E+02  0.40839414784E+02 -0.26848503948E+03  0.28448350867E+03  0.00000000000E+00 0.  1.
</event>
<event>
 7    1  0.5194496E-006  0.6864390E+02  0.7818608E-02  0.1386042E+00
          2   -1    0    0  502    0  0.00000000000E+00  0.00000000000E+00  0.18817933581E+03  0.18817933581E+03  0.00000000000E+00 0. -1.
          1   -1    0    0  501    0 -0.00000000000E+00 -0.00000000000E+00 -0.96647906287E+03  0.96647906287E+03  0.00000000000E+00 0. -1.
         25    2    1    2    0    0 -0.26530002637E+02  0.10691592331E+03 -0.82943173004E+02  0.18611786339E+03  0.12500173370E+03 0.  0.
          2    1    1    2  501    0  0.43670317759E+02 -0.51883196476E+02 -0.82441279040E+03  0.82719732332E+03  0.00000000000E+00 0. -1.
          1    1    1    2  502    0 -0.17140315123E+02 -0.55032726835E+02  0.12905623635E+03  0.14134321196E+03  0.00000000000E+00 0. -1.
         22    1    3    3    0    0 -0.50581864580E+02  0.67109926976E+02  0.75471418603E+01  0.84375509915E+02  0.00000000000E+00 0.  1.
         22    1    3    3    0    0  0.24051861943E+02  0.39805996335E+02 -0.90490314864E+02  0.10174235348E+03  0.00000000000E+00 0.  1.
</event>
<event>
 7    1  0.5194496E-006  0.3640926E+02  0.7818608E-02  0.1558835E+00
          2   -1    0    0  502    0  0.00000000000E+00  0.00000000000E+00  0.84952093563E+03  0.84952093563E+03  0.00000000000E+00 0. -1.
          1   -1    0    0  501    0 -0.00000000000E+00 -0.00000000000E+00 -0.99678737007E+02  0.99678737007E+02  0.00000000000E+00 0. -1.
         25    2    1    2    0    0  0.23679259200E+02 -0.10856956117E+02  0.74440658374E+02  0.14780025592E+03  0.12499969287E+03 0.  0.
          2    1    1    2  501    0  0.71891468191E+01  0.30683978171E+02 -0.58570598884E+02  0.66510941972E+02  0.00000000000E+00 0. -1.
          1    1    1    2  502    0 -0.30868406019E+02 -0.19827022054E+02  0.73397213914E+03  0.73488847475E+03  0.00000000000E+00 0. -1.
         22    1    3    3    0    0 -0.23572169624E+02 -0.12225780319E+02 -0.25768086682E+02  0.37001502354E+02  0.00000000000E+00 0.  1.
         22    1    3    3    0    0  0.47251428823E+02  0.13688242025E+01  0.10020874506E+03  0.11079875356E+03  0.00000000000E+00 0.  1.
</event>
<event>
 7    1  0.5194496E-006  0.9185574E+02  0.7818608E-02  0.1431939E+00
          2   -1    0    0  502    0  0.00000000000E+00  0.00000000000E+00  0.27214007737E+03  0.27214007737E+03  0.00000000000E+00 0. -1.
          1   -1    0    0  501    0 -0.00000000000E+00 -0.00000000000E+00 -0.12428477800E+04  0.12428477800E+04  0.00000000000E+00 0. -1.
         25    2    1    2    0    0  0.80275489201E+02 -0.74517267066E+02 -0.11208325910E+01  0.16620253227E+03  0.12500019284E+03 0.  0.
          2    1    1    2  501    0 -0.50251937698E+02  0.76509002703E+02 -0.11561718464E+04  0.11597897323E+04  0.00000000000E+00 0. -1.
          1    1    1    2  502    0 -0.30023551503E+02 -0.19917356373E+01  0.18658497641E+03  0.18899559275E+03  0.00000000000E+00 0. -1.
         22    1    3    3    0    0  0.25033341584E+02 -0.20421026803E+02  0.59665813111E+02  0.67850540019E+02  0.00000000000E+00 0.  1.
         22    1    3    3    0    0  0.55242147617E+02 -0.54096240262E+02 -0.60786645702E+02  0.98351992250E+02  0.00000000000E+00 0.  1.
</event>
<event>
 7    1  0.5194496E-006  0.1114021E+03  0.7818608E-02  0.1454286E+00
          2   -1    0    0  502    0  0.00000000000E+00  0.00000000000E+00  0.58854972670E+03  0.58854972670E+03  0.00000000000E+00 0. -1.
          1   -1    0    0  501    0 -0.00000000000E+00 -0.00000000000E+00 -0.47277802301E+03  0.47277802301E+03  0.00000000000E+00 0. -1.
         25    2    1    2    0    0  0.96755477088E+02 -0.11952010303E+01  0.31856479249E+03  0.35562853655E+03  0.12500031256E+03 0.  0.
          2    1    1    2  501    0 -0.11039161304E+03  0.17178525846E+02 -0.44691882389E+03  0.46067108128E+03  0.00000000000E+00 0. -1.
          1    1    1    2  502    0  0.13636135948E+02 -0.15983324815E+02  0.24412573509E+03  0.24502813188E+03  0.00000000000E+00 0. -1.
         22    1    3    3    0    0  0.73670517239E+00  0.48984341150E+02  0.83766213123E+02  0.97040130221E+02  0.00000000000E+00 0. -1.
         22    1    3    3    0    0  0.96018771916E+02 -0.50179542180E+02  0.23479857937E+03  0.25858840633E+03  0.00000000000E+00 0. -1.
</event>
<event>
 7    1  0.5194496E-006  0.8698412E+02  0.7818608E-02  0.1392291E+00
          2   -1    0    0  502    0  0.00000000000E+00  0.00000000000E+00  0.22924744277E+04  0.22924744277E+04  0.00000000000E+00 0. -1.
          1   -1    0    0  501    0 -0.00000000000E+00 -0.00000000000E+00 -0.31262146867E+02  0.31262146867E+02  0.00000000000E+00 0. -1.
         25    2    1    2    0    0  0.31492122035E+02  0.70433601596E+02  0.17034521485E+04  0.17097737625E+04  0.12499780237E+03 0.  0.
          2    1    1    2  501    0 -0.70668568284E+02 -0.52094008458E+02  0.43669208216E+02  0.98055249766E+02  0.00000000000E+00 0. -1.
          1    1    1    2  502    0  0.39176446250E+02 -0.18339593139E+02  0.51409092412E+03  0.51590756234E+03  0.00000000000E+00 0. -1.
         22    1    3    3    0    0  0.62383955771E+02  0.87081640330E+02  0.14426034449E+04  0.14465751517E+04  0.00000000000E+00 0. -1.
         22    1    3    3    0    0 -0.30891833736E+02 -0.16648038733E+02  0.26084870357E+03  0.26319861083E+03  0.00000000000E+00 0. -1.
</event>
<event>
 7    1  0.5194496E-006  0.7175307E+02  0.7818608E-02  0.1481853E+00
          2   -1    0    0  502    0  0.00000000000E+00  0.00000000000E+00  0.17169168672E+03  0.17169168672E+03  0.00000000000E+00 0. -1.
          1   -1    0    0  501    0 -0.00000000000E+00 -0.00000000000E+00 -0.31218649452E+03  0.31218649452E+03  0.00000000000E+00 0. -1.
         25    2    1    2    0    0  0.63317061257E+02  0.49302206401E+02 -0.41931649859E+02  0.15434691352E+03  0.12499979460E+03 0.  0.
          2    1    1    2  501    0 -0.38719546327E+02 -0.59839731794E+02 -0.20643347868E+03  0.21839134115E+03  0.00000000000E+00 0. -1.
          1    1    1    2  502    0 -0.24597514930E+02  0.10537525394E+02  0.10787032074E+03  0.11113992657E+03  0.00000000000E+00 0. -1.
         22    1    3    3    0    0  0.88575500638E+02  0.29489436450E+02 -0.65910556925E+02  0.11427794052E+03  0.00000000000E+00 0.  1.
         22    1    3    3    0    0 -0.25258439382E+02  0.19812769951E+02  0.23978907066E+02  0.40068972999E+02  0.00000000000E+00 0.  1.
</event>
<event>
 7    1  0.5194496E-006  0.1127717E+03  0.7818608E-02  0.1361974E+00
          2   -1    0    0  502    0  0.00000000000E+00  0.00000000000E+00  0.47352292296E+03  0.47352292296E+03  0.00000000000E+00 0. -1.
          1   -1    0    0  501    0 -0.00000000000E+00 -0.00000000000E+00 -0.30623864637E+03  0.30623864637E+03  0.00000000000E+00 0. -1.
         25    2    1    2    0    0  0.12593856090E+03 -0.31342406120E+02 -0.16169959946E+03  0.24210478014E+03  0.12500038623E+03 0.  0.
          2    1    1    2  501    0 -0.89118242375E+02  0.53103791483E+02 -0.77146006491E+02  0.12928101218E+03  0.00000000000E+00 0. -1.
          1    1    1    2  502    0 -0.36820318526E+02 -0.21761385363E+02  0.40612988254E+03  0.40837577700E+03  0.00000000000E+00 0. -1.
         22    1    3    3    0    0  0.15457453342E+02  0.38448621108E+02 -0.73723434449E+02  0.84571709903E+02  0.00000000000E+00 0.  1.
         22    1    3    3    0    0  0.11048110756E+03 -0.69791027228E+02 -0.87976165015E+02  0.15753307024E+03  0.00000000000E+00 0.  1.
</event>
<event>
 7    1  0.5194496E-006  0.4561090E+02  0.7818608E-02  0.1512116E+00
          2   -1    0    0  502    0  0.00000000000E+00  0.00000000000E+00  0.21684963785E+04  0.21684963785E+04  0.00000000000E+00 0. -1.
          1   -1    0    0  501    0 -0.00000000000E+00 -0.00000000000E+00 -0.14529642413E+02  0.14529642413E+02  0.00000000000E+00 0. -1.
         25    2    1    2    0    0 -0.12161226328E+02  0.16585591177E+02  0.86727189383E+03  0.87647400178E+03  0.12499264262E+03 0.  0.
          2    1    1    2  501    0  0.46027312284E+02 -0.12089506180E+02  0.48717339485E+02  0.68103221673E+02  0.00000000000E+00 0. -1.
          1    1    1    2  502    0 -0.33866085956E+02 -0.44960849970E+01  0.12379775027E+04  0.12384487974E+04  0.00000000000E+00 0. -1.
         22    1    3    3    0    0 -0.43052736547E+02  0.50811340799E+02  0.29862734115E+03  0.30596342815E+03  0.00000000000E+00 0. -1.
         22    1    3    3    0    0  0.30891510219E+02 -0.34225749622E+02  0.56864455268E+03  0.57051057364E+03  0.00000000000E+00 0. -1.
</event>
<event>
 7    1  0.5194496E-006  0.1508706E+03  0.7818608E-02  0.1316493E+00
          2   -1    0    0  502    0  0.00000000000E+00  0.00000000000E+00  0.25989565127E+03  0.25989565127E+03  0.00000000000E+00 0. -1.
          1   -1    0    0  501    0 -0.00000000000E+00 -0.00000000000E+00 -0.76613670199E+03  0.76613670199E+03  0.00000000000E+00 0. -1.
         25    2    1    2    0    0 -0.66052958963E+02  0.96128066029E+02 -0.13144381106E+03  0.21564548518E+03  0.12498760477E+03 0.  0.
          2    1    1    2  501    0  0.28992770260E+01  0.47345830293E+02 -0.56325868443E+03  0.56525249141E+03  0.00000000000E+00 0. -1.
          1    1    1    2  502    0  0.63153681937E+02 -0.14347389632E+03  0.18846144477E+03  0.24513437668E+03  0.00000000000E+00 0. -1.
         22    1    3    3    0    0 -0.78999545845E+02  0.14946347093E+02 -0.98337652300E+02  0.12702210593E+03  0.00000000000E+00 0. -1.
         22    1    3    3    0    0  0.12946586882E+02  0.81181718936E+02 -0.33106158756E+02  0.88623379245E+02  0.00000000000E+00 0. -1.
</event>
<event>
 7    1  0.5194496E-006  0.1152669E+03  0.7818608E-02  0.1341656E+00
          2   -1    0    0  502    0  0.00000000000E+00  0.00000000000E+00  0.94821256029E+03  0.94821256029E+03  0.00000000000E+00 0. -1.
          1   -1    0    0  501    0 -0.00000000000E+00 -0.00000000000E+00 -0.23535621227E+03  0.23535621227E+03  0.00000000000E+00 0. -1.
         25    2    1    2    0    0  0.76452245104E+02 -0.53744918329E+02  0.27352932739E+03  0.31492317387E+03  0.12499940190E+03 0.  0.
          2    1    1    2  501    0 -0.59599935085E+02  0.10054408775E+03 -0.19770720486E+03  0.22967238558E+03  0.00000000000E+00 0. -1.
          1    1    1    2  502    0 -0.16852310019E+02 -0.46799169425E+02  0.63703422550E+03  0.63897321311E+03  0.00000000000E+00 0. -1.
         22    1    3    3    0    0 -0.31147377380E+02 -0.28984623737E+02  0.50304131540E+02  0.65884544325E+02  0.00000000000E+00 0. -1.
         22    1    3    3    0    0  0.10759962248E+03 -0.24760294593E+02  0.22322519585E+03  0.24903862955E+03  0.00000000000E+00 0. -1.
</event>
<event>
 7    1  0.5194496E-006  0.6886327E+02  0.7818608E-02  0.1440394E+00
          2   -1    0    0  502    0  0.00000000000E+00  0.00000000000E+00  0.64380888638E+03  0.64380888638E+03  0.00000000000E+00 0. -1.
          1   -1    0    0  501    0 -0.00000000000E+00 -0.00000000000E+00 -0.10194856169E+04  0.10194856169E+04  0.00000000000E+00 0. -1.
         25    2    1    2    0    0  0.92012925516E+02  0.38551531159E+02 -0.39298622544E+02  0.16469314641E+03  0.12500740668E+03 0.  0.
          2    1    1    2  501    0 -0.24414901964E+02 -0.28680982769E+02 -0.91509322173E+03  0.91586805309E+03  0.00000000000E+00 0. -1.
          1    1    1    2  502    0 -0.67598023552E+02 -0.98705483895E+01  0.57871511372E+03  0.58273330380E+03  0.00000000000E+00 0. -1.
         22    1    3    3    0    0  0.32049226608E+02  0.61647396424E+02  0.24950848175E+02  0.73824787414E+02  0.00000000000E+00 0.  1.
         22    1    3    3    0    0  0.59963698908E+02 -0.23095865266E+02 -0.64249470719E+02  0.90868358997E+02  0.00000000000E+00 0.  1.
</event>
<event>
 7    1  0.5194496E-006  0.7159461E+02  0.7818608E-02  0.1511756E+00
          2   -1    0    0  502    0  0.00000000000E+00  0.00000000000E+00  0.17926854605E+03  0.17926854605E+03  0.00000000000E+00 0. -1.
          1   -1    0    0  501    0 -0.00000000000E+00 -0.00000000000E+00 -0.24312176223E+03  0.24312176223E+03  0.00000000000E+00 0. -1.
         25    2    1    2    0    0 -0.70463278129E+02 -0.49273165450E+02 -0.10560969187E+03  0.18485599222E+03  0.12500164977E+03 0.  0.
          2    1    1    2  501    0  0.60606656707E+02  0.29809075779E+02 -0.85196247422E+02  0.10872050594E+03  0.00000000000E+00 0. -1.
          1    1    1    2  502    0  0.98566214222E+01  0.19464089671E+02  0.12695272312E+03  0.12881381013E+03  0.00000000000E+00 0. -1.
         22    1    3    3    0    0 -0.28469222985E+02  0.37479728520E+02 -0.65039509215E+02  0.80283027261E+02  0.00000000000E+00 0.  1.
         22    1    3    3    0    0 -0.41994055145E+02 -0.86752893970E+02 -0.40570182658E+02  0.10457296496E+03  0.00000000000E+00 0.  1.
</event>
<event>
 7    1  0.5194496E-006  0.3505252E+03  0.7818608E-02  0.1273573E+00
          2   -1    0    0  502    0  0.00000000000E+00  0.00000000000E+00  0.18991426501E+04  0.18991426501E+04  0.00000000000E+00 0. -1.
          1   -1    0    0  501    0 -0.00000000000E+00 -0.00000000000E+00 -0.44747266422E+03  0.44747266422E+03  0.00000000000E+00 0. -1.
         25    2    1    2    0    0  0.33238716702E+03 -0.25099876183E+02  0.32485116404E+03  0.48194193258E+03  0.12501405926E+03 0.  0.
          2    1    1    2  501    0 -0.35425052834E+03  0.39445275756E+01 -0.28367546376E+03  0.45385103819E+03  0.00000000000E+00 0. -1.
          1    1    1    2  502    0  0.21863361321E+02  0.21155348607E+02  0.14104942856E+04  0.14108223435E+04  0.00000000000E+00 0. -1.
         22    1    3    3    0    0  0.11571749512E+03 -0.64866751470E+02  0.15333539103E+03  0.20275595248E+03  0.00000000000E+00 0. -1.
         22    1    3    3    0    0  0.21666967190E+03  0.39766875287E+02  0.17151577301E+03  0.27918598010E+03  0.00000000000E+00 0. -1.
</event>
<event>
 7    1  0.5194496E-006  0.2100284E+03  0.7818608E-02  0.1326399E+00
          2   -1    0    0  502    0  0.00000000000E+00  0.00000000000E+00  0.88943500771E+03  0.88943500771E+03  0.00000000000E+00 0. -1.
          1   -1    0    0  501    0 -0.00000000000E+00 -0.00000000000E+00 -0.56108111748E+03  0.56108111748E+03  0.00000000000E+00 0. -1.
         25    2    1    2    0    0 -0.15814548333E+03  0.99697941274E+02  0.11647912603E+03  0.25326410432E+03  0.12500258536E+03 0.  0.
          2    1    1    2  501    0 -0.30929266070E+02  0.40547004866E+01 -0.47566127414E+03  0.47668302657E+03  0.00000000000E+00 0. -1.
          1    1    1    2  502    0  0.18907474940E+03 -0.10375264176E+03  0.68753603834E+03  0.72056899430E+03  0.00000000000E+00 0. -1.
         22    1    3    3    0    0 -0.14275300388E+03  0.10404281589E+03  0.48151955340E+02  0.18308997367E+03  0.00000000000E+00 0.  1.
         22    1    3    3    0    0 -0.15392479445E+02 -0.43448746140E+01  0.68327170689E+02  0.70174130655E+02  0.00000000000E+00 0.  1.
</event>
<event>
 7    1  0.5194496E-006  0.4913330E+02  0.7818608E-02  0.1554686E+00
          2   -1    0    0  502    0  0.00000000000E+00  0.00000000000E+00  0.16347811355E+04  0.16347811355E+04  0.00000000000E+00 0. -1.
          1   -1    0    0  501    0 -0.00000000000E+00 -0.00000000000E+00 -0.30267179327E+03  0.30267179327E+03  0.00000000000E+00 0. -1.
         25    2    1    2    0    0 -0.23991704895E+02 -0.15561592570E+02  0.32303375756E+02  0.13223797706E+03  0.12500243767E+03 0.  0.
          2    1    1    2  501    0  0.31942701461E+02  0.38183501398E+02 -0.25015906654E+03  0.25506445171E+03  0.00000000000E+00 0. -1.
          1    1    1    2  502    0 -0.79509965657E+01 -0.22621908829E+02  0.15499650330E+04  0.15501505000E+04  0.00000000000E+00 0. -1.
         22    1    3    3    0    0  0.50914597110E+02  0.51309509072E+00  0.19706055421E+02  0.54597509886E+02  0.00000000000E+00 0. -1.
         22    1    3    3    0    0 -0.74906302005E+02 -0.16074687660E+02  0.12597320335E+02  0.77640467175E+02  0.00000000000E+00 0. -1.
</event>
<event>
 7    1  0.5194496E-006  0.3561315E+03  0.7818608E-02  0.1295494E+00
          2   -1    0    0  502    0  0.00000000000E+00  0.00000000000E+00  0.12861964651E+04  0.12861964651E+04  0.00000000000E+00 0. -1.
          1   -1    0    0  501    0 -0.00000000000E+00 -0.00000000000E+00 -0.50559884993E+03  0.50559884993E+03  0.00000000000E+00 0. -1.
         25    2    1    2    0    0  0.29973161149E+03  0.16055966688E+03 -0.17420414162E+03  0.40198502611E+03  0.12500573069E+03 0.  0.
          2    1    1    2  501    0  0.23316865877E+02 -0.69918654282E+01 -0.18942271141E+03  0.19098043359E+03  0.00000000000E+00 0. -1.
          1    1    1    2  502    0 -0.32304847736E+03 -0.15356780145E+03  0.11442244682E+04  0.11988298553E+04  0.00000000000E+00 0. -1.
         22    1    3    3    0    0  0.23700653724E+03  0.16612786723E+03 -0.17644388931E+03  0.33897346952E+03  0.00000000000E+00 0.  1.
         22    1    3    3    0    0  0.62725074252E+02 -0.55682003450E+01  0.22397476860E+01  0.63011556596E+02  0.00000000000E+00 0.  1.
</event>
<event>
 7    1  0.5194496E-006  0.8668837E+02  0.7818608E-02  0.1339718E+00
          2   -1    0    0  502    0  0.00000000000E+00  0.00000000000E+00  0.56999312363E+03  0.56999312363E+03  0.00000000000E+00 0. -1.
          1   -1    0    0  501    0 -0.00000000000E+00 -0.00000000000E+00 -0.29820102687E+04  0.29820102687E+04  0.00000000000E+00 0. -1.
         25    2    1    2    0    0 -0.33506853911E+02  0.83156067005E+02 -0.80168850209E+03  0.81631351649E+03  0.12500264832E+03 0.  0.
          2    1    1    2  501    0 -0.33748458875E+02 -0.82546505199E+02 -0.21700803072E+04  0.21719119282E+04  0.00000000000E+00 0. -1.
          1    1    1    2  502    0  0.67255312787E+02 -0.60956180591E+00  0.55975166423E+03  0.56377794766E+03  0.00000000000E+00 0. -1.
         22    1    3    3    0    0  0.30106594291E+02 -0.12101101261E+02 -0.94668576298E+02  0.10007488701E+03  0.00000000000E+00 0.  1.
         22    1    3    3    0    0 -0.63613448203E+02  0.95257168266E+02 -0.70701992579E+03  0.71623862948E+03  0.00000000000E+00 0.  1.
</event>
<event>
 7    1  0.5194496E-006  0.1145579E+03  0.7818608E-02  0.1297874E+00
          2   -1    0    0  502    0  0.00000000000E+00  0.00000000000E+00  0.33642134077E+04  0.33642134077E+04  0.00000000000E+00 0. -1.
          1   -1    0    0  501    0 -0.00000000000E+00 -0.00000000000E+00 -0.21692819369E+03  0.21692819369E+03  0.00000000000E+00 0. -1.
         25    2    1    2    0    0  0.37790362387E+02  0.15064116996E+03  0.12881892928E+04  0.13035255211E+04  0.12500502573E+03 0.  0.
          2    1    1    2  501    0  0.32051751004E+02 -0.66725854061E+02 -0.20122275759E+03  0.21440674550E+03  0.00000000000E+00 0. -1.
          1    1    1    2  502    0 -0.69842113391E+02 -0.83915315896E+02  0.20603186788E+04  0.20632093348E+04  0.00000000000E+00 0. -1.
         22    1    3    3    0    0  0.67954323359E+02  0.43824508592E+02  0.72560622609E+03  0.73009778315E+03  0.00000000000E+00 0.  1.
         22    1    3    3    0    0 -0.30163960972E+02  0.10681666136E+03  0.56258306676E+03  0.57342773798E+03  0.00000000000E+00 0.  1.
</event>
<event>
 7    1  0.5194496E-006  0.8556568E+02  0.7818608E-02  0.1405939E+00
          2   -1    0    0  502    0  0.00000000000E+00  0.00000000000E+00  0.11027988967E+04  0.11027988967E+04  0.00000000000E+00 0. -1.
          1   -1    0    0  501    0 -0.00000000000E+00 -0.00000000000E+00 -0.97408136778E+03  0.97408136778E+03  0.00000000000E+00 0. -1.
         25    2    1    2    0    0  0.11778088998E+03  0.27744477092E+02  0.17604243506E+03  0.24750470255E+03  0.12500217915E+03 0.  0.
          2    1    1    2  501    0 -0.78654562569E+02 -0.32895141475E+02 -0.93597486426E+03  0.93984976303E+03  0.00000000000E+00 0. -1.
          1    1    1    2  502    0 -0.39126327410E+02  0.51506643832E+01  0.88864995815E+03  0.88952579893E+03  0.00000000000E+00 0. -1.
         22    1    3    3    0    0  0.90203985586E+02 -0.22152828605E+02  0.42190535744E+02  0.10201739135E+03  0.00000000000E+00 0.  1.
         22    1    3    3    0    0  0.27576904393E+02  0.49897305697E+02  0.13385189932E+03  0.14548731121E+03  0.00000000000E+00 0.  1.
</event>
<event>
 7    1  0.5261222E-006  0.1159312E+03  0.7818608E-02  0.1268237E+00
          2   -1    0    0  502    0  0.00000000000E+00  0.00000000000E+00  0.63459069627E+03  0.63459069627E+03  0.00000000000E+00 0. -1.
          1   -1    0    0  501    0 -0.00000000000E+00 -0.00000000000E+00 -0.14623885342E+04  0.14623885342E+04  0.00000000000E+00 0. -1.
         25    2    1    2    0    0 -0.18901902251E+02 -0.71679360087E+02 -0.20625799398E+03  0.25231341877E+03  0.12499795454E+03 0.  0.
          2    1    1    2  501    0  0.11378844345E+03  0.52283529100E+02 -0.12260592111E+04  0.12324376522E+04  0.00000000000E+00 0. -1.
          1    1    1    2  502    0 -0.94886541195E+02  0.19395830987E+02  0.60451936721E+03  0.61222815950E+03  0.00000000000E+00 0. -1.
         22    1    3    3    0    0  0.55600612182E+01 -0.74252868675E+01 -0.17757511073E+03  0.17781723515E+03  0.00000000000E+00 0.  1.
         22    1    3    3    0    0 -0.24461963469E+02 -0.64254073220E+02 -0.28682883251E+02  0.74496183618E+02  0.00000000000E+00 0.  1.
</event>
<event>
 7    1  0.5194496E-006  0.1149954E+03  0.7818608E-02  0.1342748E+00
          2   -1    0    0  502    0  0.00000000000E+00  0.00000000000E+00  0.40607526232E+03  0.40607526232E+03  0.00000000000E+00 0. -1.
          1   -1    0    0  501    0 -0.00000000000E+00 -0.00000000000E+00 -0.85219621729E+03  0.85219621729E+03  0.00000000000E+00 0. -1.
         25    2    1    2    0    0  0.60120728588E+02  0.13693945796E+03  0.25807645303E+03  0.32341478183E+03  0.12500699317E+03 0.  0.
          2    1    1    2  501    0 -0.72136784192E+02 -0.89032542328E+02 -0.81001497109E+03  0.81807992435E+03  0.00000000000E+00 0. -1.
          1    1    1    2  502    0  0.12016055604E+02 -0.47906915636E+02  0.10581756309E+03  0.11677677344E+03  0.00000000000E+00 0. -1.
         22    1    3    3    0    0  0.30971645891E+01  0.45905613671E+02  0.19169642301E+03  0.19714065129E+03  0.00000000000E+00 0. -1.
         22    1    3    3    0    0  0.57023563999E+02  0.91033844293E+02  0.66380030020E+02  0.12627413054E+03  0.00000000000E+00 0. -1.
</event>
<event>
 7    1  0.5194496E-006  0.2055732E+03  0.7818608E-02  0.1338125E+00
          2   -1    0    0  502    0  0.00000000000E+00  0.00000000000E+00  0.14184768792E+04  0.14184768792E+04  0.00000000000E+00 0. -1.
          1   -1    0    0  501    0 -0.00000000000E+00 -0.00000000000E+00 -0.25036451661E+03  0.25036451661E+03  0.00000000000E+00 0. -1.
         25    2    1    2    0    0 -0.10377749250E+03 -0.15438964886E+03  0.15517351835E+03  0.27259889283E+03  0.12500161579E+03 0.  0.
          2    1    1    2  501    0  0.10479077770E+03  0.18312862810E+03 -0.13334640130E+03  0.24959660306E+03  0.00000000000E+00 0. -1.
          1    1    1    2  502    0 -0.10132852068E+01 -0.28738979240E+02  0.11462852455E+04  0.11466458999E+04  0.00000000000E+00 0. -1.
         22    1    3    3    0    0 -0.11699430736E+03 -0.65505666365E+02  0.98203526612E+02  0.16620046005E+03  0.00000000000E+00 0. -1.
         22    1    3    3    0    0  0.13216814868E+02 -0.88883982491E+02  0.56969991737E+02  0.10639843278E+03  0.00000000000E+00 0. -1.
</event>
<event>
 7    1  0.5194496E-006  0.1047708E+03  0.7818608E-02  0.1321864E+00
          2   -1    0    0  502    0  0.00000000000E+00  0.00000000000E+00  0.66267988131E+03  0.66267988131E+03  0.00000000000E+00 0. -1.
          1   -1    0    0  501    0 -0.00000000000E+00 -0.00000000000E+00 -0.76462485855E+03  0.76462485855E+03  0.00000000000E+00 0. -1.
         25    2    1    2    0    0  0.29450447120E+02  0.16337964926E+03 -0.55072332142E+02  0.21500286421E+03  0.12503212077E+03 0.  0.
          2    1    1    2  501    0 -0.23214613730E+02 -0.60821717068E+02 -0.62334964875E+03  0.62673996534E+03  0.00000000000E+00 0. -1.
          1    1    1    2  502    0 -0.62358333906E+01 -0.10255793219E+03  0.57647700364E+03  0.58556191031E+03  0.00000000000E+00 0. -1.
         22    1    3    3    0    0  0.45868789926E+02  0.16669959943E+03 -0.17392680986E+02  0.17376768311E+03  0.00000000000E+00 0.  1.
         22    1    3    3    0    0 -0.16418342805E+02 -0.33199501705E+01 -0.37679651156E+02  0.41235181106E+02  0.00000000000E+00 0.  1.
</event>
<event>
 7    1  0.5194496E-006  0.7381548E+02  0.7818608E-02  0.1422793E+00
          2   -1    0    0  502    0  0.00000000000E+00  0.00000000000E+00  0.17022374759E+04  0.17022374759E+04  0.00000000000E+00 0. -1.
          1   -1    0    0  501    0 -0.00000000000E+00 -0.00000000000E+00 -0.59063379789E+03  0.59063379789E+03  0.00000000000E+00 0. -1.
         25    2    1    2    0    0  0.47671728739E+02  0.47787178845E+02 -0.53248535499E+03  0.55110960738E+03  0.12499975156E+03 0.  0.
          2    1    1    2  501    0  0.24429232983E+02 -0.31852530571E+02 -0.39639305897E+02  0.56414942169E+02  0.00000000000E+00 0. -1.
          1    1    1    2  502    0 -0.72100961722E+02 -0.15934648275E+02  0.16837283389E+04  0.16853467242E+04  0.00000000000E+00 0. -1.
         22    1    3    3    0    0  0.63957936396E+02 -0.20981061869E+02 -0.19459242549E+03  0.20590540217E+03  0.00000000000E+00 0.  1.
         22    1    3    3    0    0 -0.16286207657E+02  0.68768240714E+02 -0.33789292949E+03  0.34520420521E+03  0.00000000000E+00 0.  1.
</event>
<event>
 7    1  0.5194496E-006  0.7470509E+02  0.7818608E-02  0.1374675E+00
          2   -1    0    0  502    0  0.00000000000E+00  0.00000000000E+00  0.10585257218E+04  0.10585257218E+04  0.00000000000E+00 0. -1.
          1   -1    0    0  501    0 -0.00000000000E+00 -0.00000000000E+00 -0.18125628770E+04  0.18125628770E+04  0.00000000000E+00 0. -1.
         25    2    1    2    0    0  0.22954414679E+02  0.12486256701E+02 -0.43587461295E+02  0.13493508608E+03  0.12499919566E+03 0.  0.
          2    1    1    2  501    0  0.51061870438E+02 -0.27728840287E+02 -0.17214011615E+04  0.17223815379E+04  0.00000000000E+00 0. -1.
          1    1    1    2  502    0 -0.74016285118E+02  0.15242583586E+02  0.10109514676E+04  0.10137719747E+04  0.00000000000E+00 0. -1.
         22    1    3    3    0    0 -0.33813494518E+02  0.21671280391E+02 -0.62592802579E+02  0.74369723275E+02  0.00000000000E+00 0.  1.
         22    1    3    3    0    0  0.56767909197E+02 -0.91850236904E+01  0.19005341284E+02  0.60565362809E+02  0.00000000000E+00 0.  1.
</event>
<event>
 7    1  0.5194496E-006  0.1653524E+03  0.7818608E-02  0.1249595E+00
          2   -1    0    0  502    0  0.00000000000E+00  0.00000000000E+00  0.10826961507E+03  0.10826961507E+03  0.00000000000E+00 0. -1.
          1   -1    0    0  501    0 -0.00000000000E+00 -0.00000000000E+00 -0.18074552828E+04  0.18074552828E+04  0.00000000000E+00 0. -1.
         25    2    1    2    0    0  0.83387130692E+02  0.21038636474E+03 -0.58452942218E+03  0.63915153957E+03  0.12499683635E+03 0.  0.
          2    1    1    2  501    0 -0.85636210759E+02 -0.12883527208E+03 -0.11685834526E+04  0.11787787637E+04  0.00000000000E+00 0. -1.
          1    1    1    2  502    0  0.22490800671E+01 -0.81551092657E+02  0.53927207091E+02  0.97794594633E+02  0.00000000000E+00 0. -1.
         22    1    3    3    0    0 -0.23886077126E+02  0.30796258828E+02 -0.40114495887E+02  0.55929661348E+02  0.00000000000E+00 0. -1.
         22    1    3    3    0    0  0.10727320782E+03  0.17959010591E+03 -0.54441492630E+03  0.58322187822E+03  0.00000000000E+00 0. -1.
</event>
<event>
 7    1  0.5194496E-006  0.9789224E+02  0.7818608E-02  0.1361943E+00
          2   -1    0    0  502    0  0.00000000000E+00  0.00000000000E+00  0.55183901607E+03  0.55183901607E+03  0.00000000000E+00 0. -1.
          1   -1    0    0  501    0 -0.00000000000E+00 -0.00000000000E+00 -0.64165948455E+03  0.64165948455E+03  0.00000000000E+00 0. -1.
         25    2    1    2    0    0 -0.59015337176E+02 -0.32002873927E+02 -0.18393742871E+03  0.23230380515E+03  0.12500034498E+03 0.  0.
          2    1    1    2  501    0  0.10591691260E+03  0.16864646480E+02 -0.42572239838E+03  0.43902433777E+03  0.00000000000E+00 0. -1.
          1    1    1    2  502    0 -0.46901575420E+02  0.15138227447E+02  0.51983935860E+03  0.52217035770E+03  0.00000000000E+00 0. -1.
         22    1    3    3    0    0 -0.82163094594E+02 -0.12596028406E+02 -0.54519161142E+02  0.99407107274E+02  0.00000000000E+00 0.  1.
         22    1    3    3    0    0  0.23147757418E+02 -0.19406845521E+02 -0.12941826757E+03  0.13289669788E+03  0.00000000000E+00 0.  1.
</event>
<event>
 7    1  0.5194496E-006  0.5498434E+02  0.7818608E-02  0.1503595E+00
          2   -1    0    0  502    0  0.00000000000E+00  0.00000000000E+00  0.90121244012E+03  0.90121244012E+03  0.00000000000E+00 0. -1.
          1   -1    0    0  501    0 -0.00000000000E+00 -0.00000000000E+00 -0.69063445903E+03  0.69063445903E+03  0.00000000000E+00 0. -1.
         25    2    1    2    0    0  0.38483385086E-01  0.62770656820E+02  0.69842456990E+00  0.13987565490E+03  0.12499821679E+03 0.  0.
          2    1    1    2  501    0 -0.26331495495E+02 -0.48263878509E+02 -0.61955680040E+03  0.62199146179E+03  0.00000000000E+00 0. -1.
          1    1    1    2  502    0  0.26293012110E+02 -0.14506778312E+02  0.82943635692E+03  0.82997978246E+03  0.00000000000E+00 0. -1.
         22    1    3    3    0    0 -0.16542421431E+02  0.86138785397E+02 -0.34705866227E+02  0.94329418567E+02  0.00000000000E+00 0. -1.
         22    1    3    3    0    0  0.16580904817E+02 -0.23368128577E+02  0.35404290797E+02  0.45546236338E+02  0.00000000000E+00 0. -1.
</event>
<event>
 7    1  0.5194496E-006  0.1259070E+03  0.7818608E-02  0.1380619E+00
          2   -1    0    0  502    0  0.00000000000E+00  0.00000000000E+00  0.31370236354E+03  0.31370236354E+03  0.00000000000E+00 0. -1.
          1   -1    0    0  501    0 -0.00000000000E+00 -0.00000000000E+00 -0.73371200653E+03  0.73371200653E+03  0.00000000000E+00 0. -1.
         25    2    1    2    0    0 -0.10469192091E+03 -0.82068761804E+02  0.10600237737E+02  0.18284759207E+03  0.12500078767E+03 0.  0.
          2    1    1    2  501    0  0.28155724579E+02 -0.16901436945E+02 -0.62908932197E+03  0.62994585356E+03  0.00000000000E+00 0. -1.
          1    1    1    2  502    0  0.76536196327E+02  0.98970198748E+02  0.19847944125E+03  0.23462092444E+03  0.00000000000E+00 0. -1.
         22    1    3    3    0    0 -0.12124021905E+03 -0.52014421082E+02 -0.24032437436E+02  0.13409790738E+03  0.00000000000E+00 0. -1.
         22    1    3    3    0    0  0.16548298139E+02 -0.30054340721E+02  0.34632675174E+02  0.48749684688E+02  0.00000000000E+00 0. -1.
</event>
<event>
 7    1  0.5194496E-006  0.5248209E+02  0.7818608E-02  0.1567272E+00
          2   -1    0    0  502    0  0.00000000000E+00  0.00000000000E+00  0.62191381399E+03  0.62191381399E+03  0.00000000000E+00 0. -1.
          1   -1    0    0  501    0 -0.00000000000E+00 -0.00000000000E+00 -0.10087259686E+04  0.10087259686E+04  0.00000000000E+00 0. -1.
         25    2    1    2    0    0 -0.32212039819E+02  0.52790639326E+02 -0.16778825198E+03  0.21817676559E+03  0.12499494562E+03 0.  0.
          2    1    1    2  501    0  0.20664929956E+02 -0.16321251143E+01 -0.81445897381E+03  0.81472272779E+03  0.00000000000E+00 0. -1.
          1    1    1    2  502    0  0.11547109864E+02 -0.51158514212E+02  0.59543507119E+03  0.59774028919E+03  0.00000000000E+00 0. -1.
         22    1    3    3    0    0  0.43051820555E+02 -0.18168872934E+01 -0.32314988524E+02  0.53861106709E+02  0.00000000000E+00 0.  1.
         22    1    3    3    0    0 -0.75263860375E+02  0.54607526620E+02 -0.13547326346E+03  0.16431565888E+03  0.00000000000E+00 0.  1.
</event>
<event>
 7    1  0.5194496E-006  0.5945670E+02  0.7818608E-02  0.1407978E+00
          2   -1    0    0  502    0  0.00000000000E+00  0.00000000000E+00  0.70403862233E+03  0.70403862233E+03  0.00000000000E+00 0. -1.
          1   -1    0    0  501    0 -0.00000000000E+00 -0.00000000000E+00 -0.10084896231E+03  0.10084896231E+03  0.00000000000E+00 0. -1.
         25    2    1    2    0    0  0.49608848937E+01 -0.21166646903E+02  0.97041605951E+02  0.15973051514E+03  0.12499650739E+03 0.  0.
          2    1    1    2  501    0  0.44084987431E+02  0.47972662450E+02 -0.52529112689E+02  0.83690920291E+02  0.00000000000E+00 0. -1.
          1    1    1    2  502    0 -0.49045872325E+02 -0.26806015547E+02  0.55867716675E+03  0.56146614921E+03  0.00000000000E+00 0. -1.
         22    1    3    3    0    0 -0.45684314585E+02  0.24123678678E+02  0.16228048111E+02  0.54151251301E+02  0.00000000000E+00 0.  1.
         22    1    3    3    0    0  0.50645199479E+02 -0.45290325581E+02  0.80813557840E+02  0.10557926384E+03  0.00000000000E+00 0.  1.
</event>
<event>
 7    1  0.5194496E-006  0.1024024E+03  0.7818608E-02  0.1368260E+00
          2   -1    0    0  502    0  0.00000000000E+00  0.00000000000E+00  0.14279457646E+03  0.14279457646E+03  0.00000000000E+00 0. -1.
          1   -1    0    0  501    0 -0.00000000000E+00 -0.00000000000E+00 -0.14441210779E+04  0.14441210779E+04  0.00000000000E+00 0. -1.
         25    2    1    2    0    0  0.94330235475E+02 -0.75272945376E+02 -0.29560469030E+02  0.17624572745E+03  0.12499810193E+03 0.  0.
          2    1    1    2  501    0 -0.11833729466E+01  0.44680142275E+02 -0.13060437981E+04  0.13068083708E+04  0.00000000000E+00 0. -1.
          1    1    1    2  502    0 -0.93146862528E+02  0.30592803101E+02  0.34277765733E+02  0.10386155604E+03  0.00000000000E+00 0. -1.
         22    1    3    3    0    0  0.12162883319E+03 -0.38614991441E+02 -0.16254706450E+02  0.12864255170E+03  0.00000000000E+00 0.  1.
         22    1    3    3    0    0 -0.27298597712E+02 -0.36657953935E+02 -0.13305762579E+02  0.47603175751E+02  0.00000000000E+00 0.  1.
</event>
<event>
 7    1  0.5194496E-006  0.1539717E+03  0.7818608E-02  0.1205071E+00
          2   -1    0    0  502    0  0.00000000000E+00  0.00000000000E+00  0.14092950206E+04  0.14092950206E+04  0.00000000000E+00 0. -1.
          1   -1    0    0  501    0 -0.00000000000E+00 -0.00000000000E+00 -0.48140743540E+03  0.48140743540E+03  0.00000000000E+00 0. -1.
         25    2    1    2    0    0  0.37896973436E+02 -0.56250600075E+02  0.10421916606E+03  0.17631108868E+03  0.12499461913E+03 0.  0.
          2    1    1    2  501    0 -0.14247595753E+03 -0.58377050354E+02 -0.42711492045E+03  0.45402030103E+03  0.00000000000E+00 0. -1.
          1    1    1    2  502    0  0.10457898409E+03  0.11462765043E+03  0.12507833395E+04  0.12603710663E+04  0.00000000000E+00 0. -1.
         22    1    3    3    0    0 -0.14525698901E+02 -0.81589610784E+02  0.50229188480E+02  0.96906304706E+02  0.00000000000E+00 0.  1.
         22    1    3    3    0    0  0.52422672337E+02  0.25339010709E+02  0.53989977577E+02  0.79404783971E+02  0.00000000000E+00 0.  1.
</event>
<event>
 7    1  0.5194496E-006  0.1469779E+03  0.7818608E-02  0.1307038E+00
          2   -1    0    0  502    0  0.00000000000E+00  0.00000000000E+00  0.52970041011E+03  0.52970041011E+03  0.00000000000E+00 0. -1.
          1   -1    0    0  501    0 -0.00000000000E+00 -0.00000000000E+00 -0.14572665501E+03  0.14572665501E+03  0.00000000000E+00 0. -1.
         25    2    1    2    0    0 -0.77568243212E+02  0.10172214153E+03  0.16077493663E+03  0.24050922834E+03  0.12502752591E+03 0.  0.
          2    1    1    2  501    0  0.48619603698E+02 -0.14616589279E+03 -0.45827729709E+02  0.16071252251E+03  0.00000000000E+00 0. -1.
          1    1    1    2  502    0  0.28948639515E+02  0.44443751263E+02  0.26902654818E+03  0.27420531428E+03  0.00000000000E+00 0. -1.
         22    1    3    3    0    0  0.26800812932E+02  0.61014938327E+02  0.54430260762E+02  0.86045101891E+02  0.00000000000E+00 0. -1.
         22    1    3    3    0    0 -0.10436905614E+03  0.40707203205E+02  0.10634467587E+03  0.15446412644E+03  0.00000000000E+00 0. -1.
</event>
<event>
 7    1  0.6237134E-006  0.7833563E+02  0.7818608E-02  0.1426629E+00
          2   -1    0    0  502    0  0.00000000000E+00  0.00000000000E+00  0.15256670703E+04  0.15256670703E+04  0.00000000000E+00 0. -1.
          1   -1    0    0  501    0 -0.00000000000E+00 -0.00000000000E+00 -0.14933263288E+04  0.14933263288E+04  0.00000000000E+00 0. -1.
         25    2    1    2    0    0  0.36574585555E+02 -0.48614672132E+02 -0.49239999738E+02  0.14747693113E+03  0.12499512385E+03 0.  0.
          2    1    1    2  501    0  0.33971001282E+02  0.13975286675E+02 -0.13936799104E+04  0.13941639180E+04  0.00000000000E+00 0. -1.
          1    1    1    2  502    0 -0.70545586837E+02  0.34639385457E+02  0.14752606516E+04  0.14773525500E+04  0.00000000000E+00 0. -1.
         22    1    3    3    0    0 -0.23219083148E+02 -0.37736468973E+02  0.25518995439E+02  0.51131067278E+02  0.00000000000E+00 0.  1.
         22    1    3    3    0    0  0.59793668703E+02 -0.10878203160E+02 -0.74758995177E+02  0.96345863849E+02  0.00000000000E+00 0.  1.
</event>
<event>
 7    1  0.5194496E-006  0.2433708E+03  0.7818608E-02  0.1315930E+00
          2   -1    0    0  502    0  0.00000000000E+00  0.00000000000E+00  0.10952713465E+04  0.10952713465E+04  0.00000000000E+00 0. -1.
          1   -1    0    0  501    0 -0.00000000000E+00 -0.00000000000E+00 -0.10383517833E+04  0.10383517833E+04  0.00000000000E+00 0. -1.
         25    2    1    2    0    0  0.13945281423E+03 -0.17445565050E+03  0.26004287958E+03  0.36486369311E+03  0.12498541493E+03 0.  0.
          2    1    1    2  501    0 -0.13504597367E+03  0.20367982511E+03 -0.97050893040E+03  0.10008049111E+04  0.00000000000E+00 0. -1.
          1    1    1    2  502    0 -0.44068405586E+01 -0.29224174610E+02  0.76738561406E+03  0.76795452554E+03  0.00000000000E+00 0. -1.
         22    1    3    3    0    0  0.64600474314E+02 -0.21138580109E+01  0.94231811213E+02  0.11426864803E+03  0.00000000000E+00 0. -1.
         22    1    3    3    0    0  0.74852339919E+02 -0.17234179249E+03  0.16581106836E+03  0.25059504509E+03  0.00000000000E+00 0. -1.
</event>
<event>
 7    1  0.5194496E-006  0.5766034E+02  0.7818608E-02  0.1414523E+00
          2   -1    0    0  502    0  0.00000000000E+00  0.00000000000E+00  0.47492898144E+02  0.47492898144E+02  0.00000000000E+00 0. -1.
          1   -1    0    0  501    0 -0.00000000000E+00 -0.00000000000E+00 -0.12950883322E+04  0.12950883322E+04  0.00000000000E+00 0. -1.
         25    2    1    2    0    0  0.64920469163E+02  0.28185457225E+02 -0.18627721659E+03  0.23522848039E+03  0.12499659697E+03 0.  0.
          2    1    1    2  501    0 -0.52289661313E+02  0.25108324162E+02 -0.10497789380E+04  0.10513802620E+04  0.00000000000E+00 0. -1.
          1    1    1    2  502    0 -0.12630807850E+02 -0.53293781388E+02 -0.11539279507E+02  0.55972488002E+02  0.00000000000E+00 0. -1.
         22    1    3    3    0    0 -0.14395055037E+02 -0.11300143408E+02  0.92927632439E+01  0.20524772819E+02  0.00000000000E+00 0.  1.
         22    1    3    3    0    0  0.79315524200E+02  0.39485600633E+02 -0.19556997983E+03  0.21470370758E+03  0.00000000000E+00 0.  1.
</event>
<event>
 7    1  0.5194496E-006  0.4840360E+02  0.7818608E-02  0.1486874E+00
          2   -1    0    0  502    0  0.00000000000E+00  0.00000000000E+00  0.16204986454E+04  0.16204986454E+04  0.00000000000E+00 0. -1.
          1   -1    0    0  501    0 -0.00000000000E+00 -0.00000000000E+00 -0.12743913600E+02  0.12743913600E+02  0.00000000000E+00 0. -1.
         25    2    1    2    0    0  0.69582537570E+02  0.34441296640E+00  0.75424140866E+03  0.76769319584E+03  0.12502356674E+03 0.  0.
          2    1    1    2  501    0 -0.39848936722E+02 -0.24476625455E+02  0.93226276574E+02  0.10429852154E+03  0.00000000000E+00 0. -1.
          1    1    1    2  502    0 -0.29733600847E+02  0.24132212488E+02  0.76028704658E+03  0.76125084163E+03  0.00000000000E+00 0. -1.
         22    1    3    3    0    0 -0.25671510238E+02 -0.24225950796E+02  0.98909430214E+02  0.10501903882E+03  0.00000000000E+00 0.  1.
         22    1    3    3    0    0  0.95254047808E+02  0.24570363763E+02  0.65533197845E+03  0.66267415701E+03  0.00000000000E+00 0.  1.
</event>
<event>
 7    1  0.5194496E-006  0.3382828E+03  0.7818608E-02  0.1189444E+00
          2   -1    0    0  502    0  0.00000000000E+00  0.00000000000E+00  0.33772407893E+03  0.33772407893E+03  0.00000000000E+00 0. -1.
          1   -1    0    0  501    0 -0.00000000000E+00 -0.00000000000E+00 -0.11706689288E+04  0.11706689288E+04  0.00000000000E+00 0. -1.
         25    2    1    2    0    0 -0.65070139954E+02 -0.37082523687E+03 -0.37830420123E+03  0.54816432398E+03  0.12499831203E+03 0.  0.
          2    1    1    2  501    0  0.74667474661E+01  0.32271205968E+03 -0.66373782893E+03  0.73806959790E+03  0.00000000000E+00 0. -1.
          1    1    1    2  502    0  0.57603392488E+02  0.48113177182E+02  0.20909718026E+03  0.22215908588E+03  0.00000000000E+00 0. -1.
         22    1    3    3    0    0  0.26084601399E+02 -0.11503634893E+03 -0.69330816874E+02  0.13682298847E+03  0.00000000000E+00 0. -1.
         22    1    3    3    0    0 -0.91154741353E+02 -0.25578888793E+03 -0.30897338436E+03  0.41134133551E+03  0.00000000000E+00 0. -1.
</event>
<event>
 7    1  0.5194496E-006  0.7317446E+02  0.7818608E-02  0.1453034E+00
          2   -1    0    0  502    0  0.00000000000E+00  0.00000000000E+00  0.38736496598E+03  0.38736496598E+03  0.00000000000E+00 0. -1.
          1   -1    0    0  501    0 -0.00000000000E+00 -0.00000000000E+00 -0.12639925992E+03  0.12639925992E+03  0.00000000000E+00 0. -1.
         25    2    1    2    0    0  0.15164687257E+02 -0.46790872484E+02  0.14069344627E+02  0.13506352244E+03  0.12499942059E+03 0.  0.
          2    1    1    2  501    0 -0.22150478661E+02  0.78306316812E+02 -0.39522511798E+02  0.90468513288E+02  0.00000000000E+00 0. -1.
          1    1    1    2  502    0  0.69857914034E+01 -0.31515444328E+02  0.28641887323E+03  0.28823219017E+03  0.00000000000E+00 0. -1.
         22    1    3    3    0    0  0.40516033064E+02 -0.10170552979E+02 -0.44793511549E+02  0.61249063340E+02  0.00000000000E+00 0. -1.
         22    1    3    3    0    0 -0.25351345807E+02 -0.36620319505E+02  0.58862856176E+02  0.73814459099E+02  0.00000000000E+00 0. -1.
</event>
<event>
 7    1  0.5194496E-006  0.9996002E+02  0.7818608E-02  0.1314801E+00
          2   -1    0    0  502    0  0.00000000000E+00  0.00000000000E+00  0.56287506721E+03  0.56287506721E+03  0.00000000000E+00 0. -1.
          1   -1    0    0  501    0 -0.00000000000E+00 -0.00000000000E+00 -0.53741631540E+03  0.53741631540E+03  0.00000000000E+00 0. -1.
         25    2    1    2    0    0 -0.55297753722E+01  0.31017356661E+02  0.69348798487E+02  0.14637998087E+03  0.12500075246E+03 0.  0.
          2    1    1    2  501    0 -0.11433616748E+01 -0.10340158614E+03 -0.49057256629E+03  0.50135280800E+03  0.00000000000E+00 0. -1.
          1    1    1    2  502    0  0.66731370470E+01  0.72384229477E+02  0.44668251962E+03  0.45255859374E+03  0.00000000000E+00 0. -1.
         22    1    3    3    0    0 -0.43804414273E+02  0.83386631670E+01  0.87597411859E+02  0.98293776902E+02  0.00000000000E+00 0. -1.
         22    1    3    3    0    0  0.38274638901E+02  0.22678693494E+02 -0.18248613372E+02  0.48086203964E+02  0.00000000000E+00 0. -1.
</event>
<event>
 7    1  0.5194496E-006  0.8761057E+02  0.7818608E-02  0.1424096E+00
          2   -1    0    0  502    0  0.00000000000E+00  0.00000000000E+00  0.10369091417E+03  0.10369091417E+03  0.00000000000E+00 0. -1.
          1   -1    0    0  501    0 -0.00000000000E+00 -0.00000000000E+00 -0.13360672434E+04  0.13360672434E+04  0.00000000000E+00 0. -1.
         25    2    1    2    0    0 -0.11318496196E+03  0.23104865832E+02 -0.16309903917E+03  0.23573449341E+03  0.12499913746E+03 0.  0.
          2    1    1    2  501    0  0.29479246489E+02 -0.15882787389E+02 -0.11101065649E+04  0.11106114867E+04  0.00000000000E+00 0. -1.
          1    1    1    2  502    0  0.83705715473E+02 -0.72220784433E+01  0.40829274837E+02  0.93412177491E+02  0.00000000000E+00 0. -1.
         22    1    3    3    0    0 -0.88443986375E+02 -0.32278302532E+02 -0.48116100322E+02  0.10573261867E+03  0.00000000000E+00 0.  1.
         22    1    3    3    0    0 -0.24740975587E+02  0.55383168364E+02 -0.11498293885E+03  0.13000187474E+03  0.00000000000E+00 0.  1.
</event>
<event>
 7    1  0.5194496E-006  0.8579609E+02  0.7818608E-02  0.1355009E+00
          2   -1    0    0  502    0  0.00000000000E+00  0.00000000000E+00  0.26173258168E+04  0.26173258168E+04  0.00000000000E+00 0. -1.
          1   -1    0    0  501    0 -0.00000000000E+00 -0.00000000000E+00 -0.29579967468E+03  0.29579967468E+03  0.00000000000E+00 0. -1.
         25    2    1    2    0    0 -0.45545220011E+01  0.45220927287E+02 -0.93552654877E+02  0.16260875937E+03  0.12499533373E+03 0.  0.
          2    1    1    2  501    0  0.97490966524E+01 -0.10460874135E+03 -0.15088555943E+03  0.18385996219E+03  0.00000000000E+00 0. -1.
          1    1    1    2  502    0 -0.51945746513E+01  0.59387814061E+02  0.25659643565E+04  0.25666567699E+04  0.00000000000E+00 0. -1.
         22    1    3    3    0    0 -0.30726061398E+02  0.35977313878E+02  0.15728209685E+02  0.49858144197E+02  0.00000000000E+00 0. -1.
         22    1    3    3    0    0  0.26171539396E+02  0.92436134082E+01 -0.10928086456E+03  0.11275061518E+03  0.00000000000E+00 0. -1.
</event>
<event>
 7    1  0.5194496E-006  0.9696710E+02  0.7818608E-02  0.1398616E+00
          2   -1    0    0  502    0  0.00000000000E+00  0.00000000000E+00  0.24314293715E+03  0.24314293715E+03  0.00000000000E+00 0. -1.
          1   -1    0    0  501    0 -0.00000000000E+00 -0.00000000000E+00 -0.14816759020E+04  0.14816759020E+04  0.00000000000E+00 0. -1.
         25    2    1    2    0    0  0.19329570673E+02  0.74248350013E+02 -0.23611167142E+02  0.14855625314E+03  0.12500009340E+03 0.  0.
          2    1    1    2  501    0  0.95759517415E+01 -0.97177492936E+02 -0.13919801285E+04  0.13954009611E+04  0.00000000000E+00 0. -1.
          1    1    1    2  502    0 -0.28905522415E+02  0.22929142923E+02  0.17705833087E+03  0.18086162488E+03  0.00000000000E+00 0. -1.
         22    1    3    3    0    0  0.84993655130E+01 -0.31020851398E+02  0.15539854600E+02  0.35721415377E+02  0.00000000000E+00 0.  1.
         22    1    3    3    0    0  0.10830205160E+02  0.10526920141E+03 -0.39151021742E+02  0.11283483776E+03  0.00000000000E+00 0.  1.
</event>
<event>
 7    1  0.5194496E-006  0.1132555E+03  0.7818608E-02  0.1395816E+00
          2   -1    0    0  502    0  0.00000000000E+00  0.00000000000E+00  0.32306836619E+03  0.32306836619E+03  0.00000000000E+00 0. -1.
          1   -1    0    0  501    0 -0.00000000000E+00 -0.00000000000E+00 -0.16086071718E+04  0.16086071718E+04  0.00000000000E+00 0. -1.
         25    2    1    2    0    0  0.82145543200E+02  0.57440144949E+01 -0.11656515937E+04  0.11752231068E+04  0.12499931570E+03 0.  0.
          2    1    1    2  501    0  0.29983123173E+02  0.12013358493E+02 -0.42741782615E+03  0.42863656700E+03  0.00000000000E+00 0. -1.
          1    1    1    2  502    0 -0.11212866637E+03 -0.17757372988E+02  0.30753061424E+03  0.32781586418E+03  0.00000000000E+00 0. -1.
         22    1    3    3    0    0  0.27730217764E+02 -0.58795422269E+02 -0.47299072533E+03  0.47743700412E+03  0.00000000000E+00 0. -1.
         22    1    3    3    0    0  0.54415325436E+02  0.64539436764E+02 -0.69266086836E+03  0.69778610268E+03  0.00000000000E+00 0. -1.
</event>
<event>
 7    1  0.5194496E-006  0.8556376E+02  0.7818608E-02  0.1353795E+00
          2   -1    0    0  502    0  0.00000000000E+00  0.00000000000E+00  0.98635536374E+02  0.98635536374E+02  0.00000000000E+00 0. -1.
          1   -1    0    0  501    0 -0.00000000000E+00 -0.00000000000E+00 -0.25016744646E+04  0.25016744646E+04  0.00000000000E+00 0. -1.
         25    2    1    2    0    0 -0.25211789880E+02  0.14197131563E+02 -0.64031483026E+03  0.65304412471E+03  0.12500541618E+03 0.  0.
          2    1    1    2  501    0 -0.34891031319E+02  0.49295869584E+02 -0.18336756709E+04  0.18346699793E+04  0.00000000000E+00 0. -1.
          1    1    1    2  502    0  0.60102821198E+02 -0.63493001146E+02  0.70951572947E+02  0.11259589697E+03  0.00000000000E+00 0. -1.
         22    1    3    3    0    0  0.52420240120E+01  0.22519454376E+02 -0.16438487012E+02  0.28369499403E+02  0.00000000000E+00 0. -1.
         22    1    3    3    0    0 -0.30453813892E+02 -0.83223228135E+01 -0.62387634324E+03  0.62467462530E+03  0.00000000000E+00 0. -1.
</event>
<event>
 7    1  0.5194496E-006  0.5897858E+02  0.7818608E-02  0.1440850E+00
          2   -1    0    0  502    0  0.00000000000E+00  0.00000000000E+00  0.10806240827E+04  0.10806240827E+04  0.00000000000E+00 0. -1.
          1   -1    0    0  501    0 -0.00000000000E+00 -0.00000000000E+00 -0.91779329209E+03  0.91779329209E+03  0.00000000000E+00 0. -1.
         25    2    1    2    0    0 -0.34505681178E+02 -0.65177722595E+02  0.72786972982E+02  0.16237076707E+03  0.12501017961E+03 0.  0.
          2    1    1    2  501    0  0.43286996056E+02  0.68698938557E+01 -0.87154762356E+03  0.87264896700E+03  0.00000000000E+00 0. -1.
          1    1    1    2  502    0 -0.87813148782E+01  0.58307828739E+02  0.96159144115E+03  0.96339764068E+03  0.00000000000E+00 0. -1.
         22    1    3    3    0    0  0.44026317641E+02 -0.16036414986E+01  0.20197459132E+02  0.48464684735E+02  0.00000000000E+00 0.  1.
         22    1    3    3    0    0 -0.78531998819E+02 -0.63574081097E+02  0.52589513851E+02  0.11390608233E+03  0.00000000000E+00 0.  1.
</event>
<event>
 7    1  0.5194496E-006  0.7567009E+02  0.7818608E-02  0.1435287E+00
          2   -1    0    0  502    0  0.00000000000E+00  0.00000000000E+00  0.13843198326E+04  0.13843198326E+04  0.00000000000E+00 0. -1.
          1   -1    0    0  501    0 -0.00000000000E+00 -0.00000000000E+00 -0.52752162369E+03  0.52752162369E+03  0.00000000000E+00 0. -1.
         25    2    1    2    0    0 -0.91218551353E+02  0.28534908603E+02 -0.59551537613E+02  0.16824947294E+03  0.12500573744E+03 0.  0.
          2    1    1    2  501    0  0.59660413849E+02 -0.45042943466E+02 -0.41000249853E+03  0.41676165915E+03  0.00000000000E+00 0. -1.
          1    1    1    2  502    0  0.31558137504E+02  0.16508034862E+02  0.13263522451E+04  0.13268303242E+04  0.00000000000E+00 0. -1.
         22    1    3    3    0    0 -0.39883733753E+02  0.58518101848E+02  0.15511447840E+02  0.72496106627E+02  0.00000000000E+00 0.  1.
         22    1    3    3    0    0 -0.51334817600E+02 -0.29983193245E+02 -0.75062985453E+02  0.95753366314E+02  0.00000000000E+00 0.  1.
</event>
<event>
 7    1  0.5194496E-006  0.9635022E+02  0.7818608E-02  0.1399391E+00
          2   -1    0    0  502    0  0.00000000000E+00  0.00000000000E+00  0.27837374324E+03  0.27837374324E+03  0.00000000000E+00 0. -1.
          1   -1    0    0  501    0 -0.00000000000E+00 -0.00000000000E+00 -0.27962469573E+03  0.27962469573E+03  0.00000000000E+00 0. -1.
         25    2    1    2    0    0  0.64706435857E+02  0.78884591556E+02 -0.65505044294E+02  0.17411581175E+03  0.12496280825E+03 0.  0.
          2    1    1    2  501    0 -0.83839090385E+02 -0.47327322358E+02 -0.14353998331E+03  0.17283690383E+03  0.00000000000E+00 0. -1.
          1    1    1    2  502    0  0.19132654527E+02 -0.31557269198E+02  0.20779407511E+03  0.21104572339E+03  0.00000000000E+00 0. -1.
         22    1    3    3    0    0 -0.20592801846E+02  0.65331181703E+02 -0.50401811807E+01  0.68685007220E+02  0.00000000000E+00 0. -1.
         22    1    3    3    0    0  0.85299237703E+02  0.13553409853E+02 -0.60464863114E+02  0.10543080452E+03  0.00000000000E+00 0. -1.
</event>
<event>
 7    1  0.5194496E-006  0.7246171E+02  0.7818608E-02  0.1378894E+00
          2   -1    0    0  502    0  0.00000000000E+00  0.00000000000E+00  0.39943474475E+03  0.39943474475E+03  0.00000000000E+00 0. -1.
          1   -1    0    0  501    0 -0.00000000000E+00 -0.00000000000E+00 -0.14505903400E+03  0.14505903400E+03  0.00000000000E+00 0. -1.
         25    2    1    2    0    0 -0.36332259988E+02  0.37471241055E+02 -0.60935253284E+02  0.14853974634E+03  0.12500729630E+03 0.  0.
          2    1    1    2  501    0  0.77014557564E+02 -0.78626036113E+02  0.43982652925E+02  0.11852328628E+03  0.00000000000E+00 0. -1.
          1    1    1    2  502    0 -0.40682297576E+02  0.41154795058E+02  0.27132831111E+03  0.27743074614E+03  0.00000000000E+00 0. -1.
         22    1    3    3    0    0 -0.30948638556E+02  0.17923984666E+02 -0.99082261666E+02  0.10533936601E+03  0.00000000000E+00 0. -1.
         22    1    3    3    0    0 -0.53836214315E+01  0.19547256389E+02  0.38147008382E+02  0.43200380329E+02  0.00000000000E+00 0. -1.
</event>
<event>
 7    1  0.5194496E-006  0.9063445E+02  0.7818608E-02  0.1315021E+00
          2   -1    0    0  502    0  0.00000000000E+00  0.00000000000E+00  0.47870969798E+03  0.47870969798E+03  0.00000000000E+00 0. -1.
          1   -1    0    0  501    0 -0.00000000000E+00 -0.00000000000E+00 -0.53740403833E+03  0.53740403833E+03  0.00000000000E+00 0. -1.
         25    2    1    2    0    0  0.12251016022E+03  0.10211985986E+03 -0.17590006488E+03  0.26833356528E+03  0.12499945718E+03 0.  0.
          2    1    1    2  501    0 -0.75658304620E+02 -0.26033161444E+02 -0.30546372583E+03  0.31576889072E+03  0.00000000000E+00 0. -1.
          1    1    1    2  502    0 -0.46851855597E+02 -0.76086698421E+02  0.42266945036E+03  0.43201128031E+03  0.00000000000E+00 0. -1.
         22    1    3    3    0    0 -0.23194318190E+02  0.11948878821E+02 -0.47571858031E+02  0.54257108086E+02  0.00000000000E+00 0.  1.
         22    1    3    3    0    0  0.14570447841E+03  0.90170981044E+02 -0.12832820685E+03  0.21407645719E+03  0.00000000000E+00 0.  1.
</event>
<event>
 7    1  0.5194496E-006  0.1390649E+03  0.7818608E-02  0.1283573E+00
          2   -1    0    0  502    0  0.00000000000E+00  0.00000000000E+00  0.62912215053E+02  0.62912215053E+02  0.00000000000E+00 0. -1.
          1   -1    0    0  501    0 -0.00000000000E+00 -0.00000000000E+00 -0.25759385321E+04  0.25759385321E+04  0.00000000000E+00 0. -1.
         25    2    1    2    0    0 -0.18736592678E+03 -0.45961866865E+02 -0.91562976799E+03  0.94404480589E+03  0.12499695904E+03 0.  0.
          2    1    1    2  501    0  0.11808379340E+03  0.53652539600E+02 -0.16171583297E+04  0.16223512076E+04  0.00000000000E+00 0. -1.
          1    1    1    2  502    0  0.69282133381E+02 -0.76906727352E+01  0.19761780714E+02  0.72454733661E+02  0.00000000000E+00 0. -1.
         22    1    3    3    0    0 -0.60196040990E+02 -0.41448251598E+02 -0.58876753337E+03  0.59328638047E+03  0.00000000000E+00 0.  1.
         22    1    3    3    0    0 -0.12716988579E+03 -0.45136152672E+01 -0.32686223463E+03  0.35075842541E+03  0.00000000000E+00 0.  1.
</event>
<event>
 7    1  0.5194496E-006  0.1628969E+03  0.7818608E-02  0.1347387E+00
          2   -1    0    0  502    0  0.00000000000E+00  0.00000000000E+00  0.87089895452E+03  0.87089895452E+03  0.00000000000E+00 0. -1.
          1   -1    0    0  501    0 -0.00000000000E+00 -0.00000000000E+00 -0.98929348733E+03  0.98929348733E+03  0.00000000000E+00 0. -1.
         25    2    1    2    0    0  0.55631344846E+02  0.15679640242E+03 -0.73847106262E+02  0.22081346303E+03  0.12500092805E+03 0.  0.
          2    1    1    2  501    0 -0.33195819075E+02  0.45337172173E+01 -0.83330532822E+03  0.83397858908E+03  0.00000000000E+00 0. -1.
          1    1    1    2  502    0 -0.22435525771E+02 -0.16133011963E+03  0.78875790169E+03  0.80540038974E+03  0.00000000000E+00 0. -1.
         22    1    3    3    0    0  0.86595921776E+02  0.15321107632E+03 -0.54985778043E+02  0.18437983448E+03  0.00000000000E+00 0. -1.
         22    1    3    3    0    0 -0.30964576930E+02  0.35853260998E+01 -0.18861328219E+02  0.36433628558E+02  0.00000000000E+00 0. -1.
</event>
<event>
 7    1  0.5194496E-006  0.8367265E+02  0.7818608E-02  0.1381924E+00
          2   -1    0    0  502    0  0.00000000000E+00  0.00000000000E+00  0.91948300937E+02  0.91948300937E+02  0.00000000000E+00 0. -1.
          1   -1    0    0  501    0 -0.00000000000E+00 -0.00000000000E+00 -0.17564507483E+04  0.17564507483E+04  0.00000000000E+00 0. -1.
         25    2    1    2    0    0 -0.26058173504E+02  0.28374703984E+02 -0.85641725139E+03  0.86634826769E+03  0.12499864091E+03 0.  0.
          2    1    1    2  501    0 -0.46195535652E+02  0.16014266915E+02 -0.87355286196E+03  0.87492004601E+03  0.00000000000E+00 0. -1.
          1    1    1    2  502    0  0.72253709157E+02 -0.44388970898E+02  0.65467665938E+02  0.10713073559E+03  0.00000000000E+00 0. -1.
         22    1    3    3    0    0  0.14807465629E+02  0.52629150737E+01 -0.74845249345E+03  0.74861745522E+03  0.00000000000E+00 0. -1.
         22    1    3    3    0    0 -0.40865639134E+02  0.23111788910E+02 -0.10796475794E+03  0.11773081247E+03  0.00000000000E+00 0. -1.
</event>
<event>
 7    1  0.5194496E-006  0.3376649E+02  0.7818608E-02  0.1621045E+00
          2   -1    0    0  502    0  0.00000000000E+00  0.00000000000E+00  0.21412041995E+03  0.21412041995E+03  0.00000000000E+00 0. -1.
          1   -1    0    0  501    0 -0.00000000000E+00 -0.00000000000E+00 -0.13786483136E+04  0.13786483136E+04  0.00000000000E+00 0. -1.
         25    2    1    2    0    0  0.13666908121E+02  0.50672606513E+02 -0.10014615232E+04  0.10105963502E+04  0.12500121199E+03 0.  0.
          2    1    1    2  501    0 -0.14919536578E+02 -0.27451989046E+02 -0.37131610790E+03  0.37262830846E+03  0.00000000000E+00 0. -1.
          1    1    1    2  502    0  0.12526284577E+01 -0.23220617467E+02  0.20824973752E+03  0.20954407491E+03  0.00000000000E+00 0. -1.
         22    1    3    3    0    0 -0.48282655927E+02  0.20005795913E+01 -0.22399388409E+03  0.22914728297E+03  0.00000000000E+00 0. -1.
         22    1    3    3    0    0  0.61949564047E+02  0.48672026921E+02 -0.77746763916E+03  0.78144906720E+03  0.00000000000E+00 0. -1.
</event>
<event>
 7    1  0.5194496E-006  0.6009426E+02  0.7818608E-02  0.1462433E+00
          2   -1    0    0  502    0  0.00000000000E+00  0.00000000000E+00  0.54344388737E+02  0.54344388737E+02  0.00000000000E+00 0. -1.
          1   -1    0    0  501    0 -0.00000000000E+00 -0.00000000000E+00 -0.22119710677E+04  0.22119710677E+04  0.00000000000E+00 0. -1.
         25    2    1    2    0    0  0.58404689083E+02  0.37582356522E+02 -0.10081003612E+03  0.17496253427E+03  0.12500273512E+03 0.  0.
          2    1    1    2  501    0 -0.32996740213E+02  0.16076300973E+02 -0.20223907308E+04  0.20227237825E+04  0.00000000000E+00 0. -1.
          1    1    1    2  502    0 -0.25407948870E+02 -0.53658657495E+02 -0.34425912043E+02  0.68629139656E+02  0.00000000000E+00 0. -1.
         22    1    3    3    0    0  0.44527620980E+02  0.77744294605E+02 -0.97392350357E+02  0.13233349645E+03  0.00000000000E+00 0. -1.
         22    1    3    3    0    0  0.13877068103E+02 -0.40161938083E+02 -0.34176857661E+01  0.42629037823E+02  0.00000000000E+00 0. -1.
</event>
<event>
 7    1  0.5194496E-006  0.6977735E+02  0.7818608E-02  0.1418304E+00
          2   -1    0    0  502    0  0.00000000000E+00  0.00000000000E+00  0.13164707763E+03  0.13164707763E+03  0.00000000000E+00 0. -1.
          1   -1    0    0  501    0 -0.00000000000E+00 -0.00000000000E+00 -0.21126293728E+03  0.21126293728E+03  0.00000000000E+00 0. -1.
         25    2    1    2    0    0 -0.18820799777E+02 -0.36718004090E+02 -0.12676416238E+03  0.18274800292E+03  0.12500098151E+03 0.  0.
          2    1    1    2  501    0 -0.43952082361E+02 -0.55535673283E+00 -0.30563530931E+02  0.53537121588E+02  0.00000000000E+00 0. -1.
          1    1    1    2  502    0  0.62772882138E+02  0.37273360822E+02  0.77711833666E+02  0.10662489039E+03  0.00000000000E+00 0. -1.
         22    1    3    3    0    0 -0.53721655342E+02 -0.55883320929E+02 -0.39879112658E+02  0.87173995189E+02  0.00000000000E+00 0. -1.
         22    1    3    3    0    0  0.34900855565E+02  0.19165316839E+02 -0.86885049726E+02  0.95574007736E+02  0.00000000000E+00 0. -1.
</event>
<event>
 7    1  0.5194496E-006  0.3355522E+02  0.7818608E-02  0.1573932E+00
          2   -1    0    0  502    0  0.00000000000E+00  0.00000000000E+00  0.23595862543E+03  0.23595862543E+03  0.00000000000E+00 0. -1.
          1   -1    0    0  501    0 -0.00000000000E+00 -0.00000000000E+00 -0.12487792739E+04  0.12487792739E+04  0.00000000000E+00 0. -1.
         25    2    1    2    0    0  0.99170613116E+01  0.24303901077E+02 -0.20176274868E+03  0.23879235445E+03  0.12499821630E+03 0.  0.
          2    1    1    2  501    0  0.23527211610E+02 -0.20338865357E+02 -0.10269608492E+04  0.10274316449E+04  0.00000000000E+00 0. -1.
          1    1    1    2  502    0 -0.33444272922E+02 -0.39650357205E+01  0.21590294944E+03  0.21851389996E+03  0.00000000000E+00 0. -1.
         22    1    3    3    0    0  0.45816366520E+02  0.55156829016E+02 -0.76337958417E+02  0.10473251226E+03  0.00000000000E+00 0.  1.
         22    1    3    3    0    0 -0.35899305209E+02 -0.30852927939E+02 -0.12542479026E+03  0.13405984220E+03  0.00000000000E+00 0.  1.
</event>
<event>
 7    1  0.5194496E-006  0.7073281E+02  0.7818608E-02  0.1505161E+00
          2   -1    0    0  502    0  0.00000000000E+00  0.00000000000E+00  0.11013450419E+03  0.11013450419E+03  0.00000000000E+00 0. -1.
          1   -1    0    0  501    0 -0.00000000000E+00 -0.00000000000E+00 -0.43343154027E+03  0.43343154027E+03  0.00000000000E+00 0. -1.
         25    2    1    2    0    0 -0.22702303362E+02  0.48217367630E+02 -0.10867513269E+03  0.17399379390E+03  0.12499298673E+03 0.  0.
          2    1    1    2  501    0  0.42859374634E+02 -0.59490030538E+02 -0.28563632553E+03  0.29489676192E+03  0.00000000000E+00 0. -1.
          1    1    1    2  502    0 -0.20157071272E+02  0.11272662909E+02  0.71014422146E+02  0.74675488643E+02  0.00000000000E+00 0. -1.
         22    1    3    3    0    0  0.88598633797E+01  0.73067145291E+01 -0.12045187761E+03  0.12099809947E+03  0.00000000000E+00 0. -1.
         22    1    3    3    0    0 -0.31562166742E+02  0.40910653100E+02  0.11776744922E+02  0.52995694424E+02  0.00000000000E+00 0. -1.
</event>
<event>
 7    1  0.5194496E-006  0.1103641E+03  0.7818608E-02  0.1444093E+00
          2   -1    0    0  502    0  0.00000000000E+00  0.00000000000E+00  0.71224418190E+03  0.71224418190E+03  0.00000000000E+00 0. -1.
          1   -1    0    0  501    0 -0.00000000000E+00 -0.00000000000E+00 -0.62556260775E+03  0.62556260775E+03  0.00000000000E+00 0. -1.
         25    2    1    2    0    0 -0.94558544524E+02  0.67390468306E+01  0.29602236431E+03  0.33502432013E+03  0.12500128725E+03 0.  0.
          2    1    1    2  501    0 -0.22058976896E+02  0.60105190789E+01 -0.59716561985E+03  0.59760313113E+03  0.00000000000E+00 0. -1.
          1    1    1    2  502    0  0.11661752142E+03 -0.12749565910E+02  0.38782482970E+03  0.40517933839E+03  0.00000000000E+00 0. -1.
         22    1    3    3    0    0 -0.58420534747E+02 -0.58258010266E+02  0.15377924508E+03  0.17451364089E+03  0.00000000000E+00 0.  1.
         22    1    3    3    0    0 -0.36138009777E+02  0.64997057097E+02  0.14224311923E+03  0.16051067924E+03  0.00000000000E+00 0.  1.
</event>
<event>
 7    1  0.6535175E-006  0.8255114E+02  0.7818608E-02  0.1370898E+00
          2   -1    0    0  502    0  0.00000000000E+00  0.00000000000E+00  0.18698119737E+04  0.18698119737E+04  0.00000000000E+00 0. -1.
          1   -1    0    0  501    0 -0.00000000000E+00 -0.00000000000E+00 -0.45426952831E+03  0.45426952831E+03  0.00000000000E+00 0. -1.
         25    2    1    2    0    0  0.31371415934E+02  0.18262960071E+02 -0.20884399632E+03  0.24608627904E+03  0.12499976193E+03 0.  0.
          2    1    1    2  501    0  0.51382784832E+02 -0.17389911523E+02 -0.22262096374E+03  0.22913466150E+03  0.00000000000E+00 0. -1.
          1    1    1    2  502    0 -0.82754200766E+02 -0.87304854781E+00  0.18470074055E+04  0.18488605615E+04  0.00000000000E+00 0. -1.
         22    1    3    3    0    0 -0.44676030111E+02 -0.43378923598E+01 -0.42603655278E+02  0.61885672168E+02  0.00000000000E+00 0.  1.
         22    1    3    3    0    0  0.76047446044E+02  0.22600852431E+02 -0.16624034104E+03  0.18420060687E+03  0.00000000000E+00 0.  1.
</event>
<event>
 7    1  0.5194496E-006  0.1762103E+03  0.7818608E-02  0.1396104E+00
          2   -1    0    0  502    0  0.00000000000E+00  0.00000000000E+00  0.33927815227E+03  0.33927815227E+03  0.00000000000E+00 0. -1.
          1   -1    0    0  501    0 -0.00000000000E+00 -0.00000000000E+00 -0.86888770248E+03  0.86888770248E+03  0.00000000000E+00 0. -1.
         25    2    1    2    0    0 -0.70679914833E+02  0.15551012140E+03 -0.24999150719E+03  0.32756723644E+03  0.12500197000E+03 0.  0.
          2    1    1    2  501    0 -0.20332826942E+02 -0.39489763161E+01 -0.55389541297E+03  0.55428255139E+03  0.00000000000E+00 0. -1.
          1    1    1    2  502    0  0.91012741775E+02 -0.15156114508E+03  0.27427736995E+03  0.32631606692E+03  0.00000000000E+00 0. -1.
         22    1    3    3    0    0 -0.16978457709E+02  0.15695300012E+03 -0.19042591491E+03  0.24735509160E+03  0.00000000000E+00 0.  1.
         22    1    3    3    0    0 -0.53701457123E+02 -0.14428787187E+01 -0.59565592282E+02  0.80212144842E+02  0.00000000000E+00 0.  1.
</event>
<event>
 7    1  0.5194496E-006  0.1168827E+03  0.7818608E-02  0.1361561E+00
          2   -1    0    0  502    0  0.00000000000E+00  0.00000000000E+00  0.38577828208E+03  0.38577828208E+03  0.00000000000E+00 0. -1.
          1   -1    0    0  501    0 -0.00000000000E+00 -0.00000000000E+00 -0.84614512318E+03  0.84614512318E+03  0.00000000000E+00 0. -1.
         25    2    1    2    0    0  0.70875904845E+02  0.32682809801E+02 -0.21005284430E+03  0.25659170146E+03  0.12500217565E+03 0.  0.
          2    1    1    2  501    0  0.40830289558E+02  0.68980456106E+01 -0.60240714527E+03  0.60382867127E+03  0.00000000000E+00 0. -1.
          1    1    1    2  502    0 -0.11170619440E+03 -0.39580855412E+02  0.35209314846E+03  0.37150303253E+03  0.00000000000E+00 0. -1.
         22    1    3    3    0    0 -0.68537634700E+01 -0.14474114193E+02  0.97354939783E+01  0.18741768817E+02  0.00000000000E+00 0.  1.
         22    1    3    3    0    0  0.77729668315E+02  0.47156923994E+02 -0.21978833828E+03  0.23784993265E+03  0.00000000000E+00 0.  1.
</event>
<event>
 7    1  0.5194496E-006  0.9953624E+02  0.7818608E-02  0.1403819E+00
          2   -1    0    0  502    0  0.00000000000E+00  0.00000000000E+00  0.96686452116E+03  0.96686452116E+03  0.00000000000E+00 0. -1.
          1   -1    0    0  501    0 -0.00000000000E+00 -0.00000000000E+00 -0.50826375477E+03  0.50826375477E+03  0.00000000000E+00 0. -1.
         25    2    1    2    0    0  0.71468417004E+02 -0.18702375510E+02 -0.14904879812E+03  0.20808217816E+03  0.12500054066E+03 0.  0.
          2    1    1    2  501    0  0.28485994956E+02  0.19454167015E+02 -0.32612122271E+03  0.32794049524E+03  0.00000000000E+00 0. -1.
          1    1    1    2  502    0 -0.99954411960E+02 -0.75179150479E+00  0.93377078721E+03  0.93910560254E+03  0.00000000000E+00 0. -1.
         22    1    3    3    0    0  0.47010893562E+02  0.80042475192E+00  0.82214786297E+01  0.47731095777E+02  0.00000000000E+00 0.  1.
         22    1    3    3    0    0  0.24457523443E+02 -0.19502800262E+02 -0.15727027675E+03  0.16035108238E+03  0.00000000000E+00 0.  1.
</event>
<event>
 7    1  0.5194496E-006  0.5466558E+02  0.7818608E-02  0.1515232E+00
          2   -1    0    0  502    0  0.00000000000E+00  0.00000000000E+00  0.16171047410E+04  0.16171047410E+04  0.00000000000E+00 0. -1.
          1   -1    0    0  501    0 -0.00000000000E+00 -0.00000000000E+00 -0.24612006074E+02  0.24612006074E+02  0.00000000000E+00 0. -1.
         25    2    1    2    0    0 -0.17781281939E+02  0.27949588846E+02  0.60897225150E+03  0.62255485714E+03  0.12501997263E+03 0.  0.
          2    1    1    2  501    0  0.11641345163E+02 -0.55177795386E+02  0.27511370983E+02  0.62745402655E+02  0.00000000000E+00 0. -1.
          1    1    1    2  502    0  0.61399367761E+01  0.27228206540E+02  0.95600911243E+03  0.95641648726E+03  0.00000000000E+00 0. -1.
         22    1    3    3    0    0  0.51484677081E+02 -0.24659279932E+01  0.30408742512E+03  0.30842489344E+03  0.00000000000E+00 0. -1.
         22    1    3    3    0    0 -0.69265959021E+02  0.30415516840E+02  0.30488482637E+03  0.31412996370E+03  0.00000000000E+00 0. -1.
</event>
<event>
 7    1  0.5194496E-006  0.7005423E+02  0.7818608E-02  0.1492530E+00
          2   -1    0    0  502    0  0.00000000000E+00  0.00000000000E+00  0.51461242028E+03  0.51461242028E+03  0.00000000000E+00 0. -1.
          1   -1    0    0  501    0 -0.00000000000E+00 -0.00000000000E+00 -0.74979227938E+03  0.74979227938E+03  0.00000000000E+00 0. -1.
         25    2    1    2    0    0 -0.90388974522E+02  0.18928094615E+02 -0.11546831147E+03  0.19361284589E+03  0.12499825463E+03 0.  0.
          2    1    1    2  501    0  0.20821701616E+02 -0.14610721623E+02 -0.59242325497E+03  0.59296907969E+03  0.00000000000E+00 0. -1.
          1    1    1    2  502    0  0.69567272906E+02 -0.43173729916E+01  0.47271170734E+03  0.47782277407E+03  0.00000000000E+00 0. -1.
         22    1    3    3    0    0 -0.11495731423E+03  0.20470299108E+02 -0.56508803821E+02  0.12972070825E+03  0.00000000000E+00 0.  1.
         22    1    3    3    0    0  0.24568339704E+02 -0.15422044935E+01 -0.58959507649E+02  0.63892137644E+02  0.00000000000E+00 0.  1.
</event>
<event>
 7    1  0.5194496E-006  0.9813655E+02  0.7818608E-02  0.1293248E+00
          2   -1    0    0  502    0  0.00000000000E+00  0.00000000000E+00  0.50950851075E+03  0.50950851075E+03  0.00000000000E+00 0. -1.
          1   -1    0    0  501    0 -0.00000000000E+00 -0.00000000000E+00 -0.29507455985E+03  0.29507455985E+03  0.00000000000E+00 0. -1.
         25    2    1    2    0    0 -0.90971083741E+02 -0.10208762730E+03 -0.56896231466E+02  0.19380410749E+03  0.12500091680E+03 0.  0.
          2    1    1    2  501    0  0.90102753217E+02  0.42452373281E+01 -0.15174819789E+03  0.17653340686E+03  0.00000000000E+00 0. -1.
          1    1    1    2  502    0  0.86833052435E+00  0.97842389975E+02  0.42307838026E+03  0.43424555624E+03  0.00000000000E+00 0. -1.
         22    1    3    3    0    0 -0.16164860685E+02  0.57225671907E+01  0.31305828135E+02  0.35694612638E+02  0.00000000000E+00 0.  1.
         22    1    3    3    0    0 -0.74806223056E+02 -0.10781019449E+03 -0.88202059601E+02  0.15810949485E+03  0.00000000000E+00 0.  1.
</event>
<event>
 7    1  0.5194496E-006  0.3726243E+02  0.7818608E-02  0.1535071E+00
          2   -1    0    0  502    0  0.00000000000E+00  0.00000000000E+00  0.56512711390E+03  0.56512711390E+03  0.00000000000E+00 0. -1.
          1   -1    0    0  501    0 -0.00000000000E+00 -0.00000000000E+00 -0.24118590826E+03  0.24118590826E+03  0.00000000000E+00 0. -1.
         25    2    1    2    0    0 -0.32763056004E+02 -0.36492399337E+02  0.26025781887E+03  0.29285721812E+03  0.12500441941E+03 0.  0.
          2    1    1    2  501    0 -0.31245851424E+01  0.37151194597E+02 -0.22221106506E+03  0.22531695837E+03  0.00000000000E+00 0. -1.
          1    1    1    2  502    0  0.35887641147E+02 -0.65879526009E+00  0.28589445183E+03  0.28813884567E+03  0.00000000000E+00 0. -1.
         22    1    3    3    0    0 -0.79257453917E+02 -0.33275395250E+02  0.14547162574E+03  0.16897038151E+03  0.00000000000E+00 0. -1.
         22    1    3    3    0    0  0.46494397913E+02 -0.32170040861E+01  0.11478619313E+03  0.12388683661E+03  0.00000000000E+00 0. -1.
</event>
<event>
 7    1  0.5194496E-006  0.6350343E+02  0.7818608E-02  0.1496024E+00
          2   -1    0    0  502    0  0.00000000000E+00  0.00000000000E+00  0.34398309165E+04  0.34398309165E+04  0.00000000000E+00 0. -1.
          1   -1    0    0  501    0 -0.00000000000E+00 -0.00000000000E+00 -0.62249444607E+03  0.62249444607E+03  0.00000000000E+00 0. -1.
         25    2    1    2    0    0 -0.88321115407E+02  0.55041958416E+01  0.85904460307E+03  0.87259057266E+03  0.12500304732E+03 0.  0.
          2    1    1    2  501    0  0.27003113758E+02  0.45852853757E+01 -0.61504156645E+03  0.61565113616E+03  0.00000000000E+00 0. -1.
          1    1    1    2  502    0  0.61318001649E+02 -0.10089481217E+02  0.25733334338E+04  0.25740836537E+04  0.00000000000E+00 0. -1.
         22    1    3    3    0    0 -0.38875177005E+02 -0.56104093629E+02  0.28090160682E+03  0.28907552892E+03  0.00000000000E+00 0.  1.
         22    1    3    3    0    0 -0.49445938402E+02  0.61608289471E+02  0.57814299625E+03  0.58351504374E+03  0.00000000000E+00 0.  1.
</event>
<event>
 7    1  0.5194496E-006  0.8459301E+02  0.7818608E-02  0.1324022E+00
          2   -1    0    0  502    0  0.00000000000E+00  0.00000000000E+00  0.20685498766E+03  0.20685498766E+03  0.00000000000E+00 0. -1.
          1   -1    0    0  501    0 -0.00000000000E+00 -0.00000000000E+00 -0.95221578634E+03  0.95221578634E+03  0.00000000000E+00 0. -1.
         25    2    1    2    0    0  0.47937209823E+02  0.42130404584E+02  0.16353085349E+02  0.14129938174E+03  0.12500057921E+03 0.  0.
          2    1    1    2  501    0 -0.80679476797E+02  0.29871840936E+02 -0.87521214380E+03  0.87943038469E+03  0.00000000000E+00 0. -1.
          1    1    1    2  502    0  0.32742266974E+02 -0.72002245521E+02  0.11349825977E+03  0.13834100757E+03  0.00000000000E+00 0. -1.
         22    1    3    3    0    0  0.16787343116E+02  0.68700402010E+02 -0.32268651912E+02  0.77735616171E+02  0.00000000000E+00 0.  1.
         22    1    3    3    0    0  0.31149866706E+02 -0.26569997426E+02  0.48621737262E+02  0.63563765570E+02  0.00000000000E+00 0.  1.
</event>
<event>
 7    1  0.5194496E-006  0.6733372E+02  0.7818608E-02  0.1505865E+00
          2   -1    0    0  502    0  0.00000000000E+00  0.00000000000E+00  0.13487817753E+04  0.13487817753E+04  0.00000000000E+00 0. -1.
          1   -1    0    0  501    0 -0.00000000000E+00 -0.00000000000E+00 -0.14915556729E+03  0.14915556729E+03  0.00000000000E+00 0. -1.
         25    2    1    2    0    0  0.42140175646E+02 -0.38235457001E+02  0.46760851725E+03  0.48736061519E+03  0.12499959703E+03 0.  0.
          2    1    1    2  501    0  0.21469770453E+02  0.11046204497E+02 -0.13684792618E+03  0.13896159389E+03  0.00000000000E+00 0. -1.
          1    1    1    2  502    0 -0.63609946099E+02  0.27189252504E+02  0.86886561695E+03  0.87161513354E+03  0.00000000000E+00 0. -1.
         22    1    3    3    0    0 -0.31787352550E+02 -0.38975600464E+00  0.28482559672E+03  0.28659415249E+03  0.00000000000E+00 0. -1.
         22    1    3    3    0    0  0.73927528196E+02 -0.37845700996E+02  0.18278292052E+03  0.20076646270E+03  0.00000000000E+00 0. -1.
</event>
<event>
 7    1  0.5194496E-006  0.4162994E+02  0.7818608E-02  0.1502088E+00
          2   -1    0    0  502    0  0.00000000000E+00  0.00000000000E+00  0.33895820972E+04  0.33895820972E+04  0.00000000000E+00 0. -1.
          1   -1    0    0  501    0 -0.00000000000E+00 -0.00000000000E+00 -0.29963211421E+02  0.29963211421E+02  0.00000000000E+00 0. -1.
         25    2    1    2    0    0 -0.46766465611E+00  0.39424416621E+01  0.11335577015E+04  0.11404355640E+04  0.12499780618E+03 0.  0.
          2    1    1    2  501    0 -0.31515577294E+02 -0.28087352432E+02 -0.94330396407E+01  0.43256366187E+02  0.00000000000E+00 0. -1.
          1    1    1    2  502    0  0.31983241950E+02  0.24144910770E+02  0.22354942240E+04  0.22358533785E+04  0.00000000000E+00 0. -1.
         22    1    3    3    0    0 -0.57364642203E+02 -0.16044210430E+02  0.40101485192E+03  0.40541464000E+03  0.00000000000E+00 0.  1.
         22    1    3    3    0    0  0.56896977547E+02  0.19986652092E+02  0.73254284953E+03  0.73502092399E+03  0.00000000000E+00 0.  1.
</event>
<event>
 7    1  0.5194496E-006  0.4441421E+02  0.7818608E-02  0.1530021E+00
          2   -1    0    0  502    0  0.00000000000E+00  0.00000000000E+00  0.71523354820E+02  0.71523354820E+02  0.00000000000E+00 0. -1.
          1   -1    0    0  501    0 -0.00000000000E+00 -0.00000000000E+00 -0.14994355434E+04  0.14994355434E+04  0.00000000000E+00 0. -1.
         25    2    1    2    0    0 -0.36538311464E+02  0.95927063188E+01 -0.68954213789E+02  0.14768611029E+03  0.12501774015E+03 0.  0.
          2    1    1    2  501    0  0.23507738245E+02 -0.37864741474E+02 -0.13831373369E+04  0.13838552111E+04  0.00000000000E+00 0. -1.
          1    1    1    2  502    0  0.13030573218E+02  0.28272035155E+02  0.24179362154E+02  0.39417576846E+02  0.00000000000E+00 0. -1.
         22    1    3    3    0    0 -0.34986743755E+01 -0.53332382996E+02 -0.79730631231E+01  0.54038444962E+02  0.00000000000E+00 0. -1.
         22    1    3    3    0    0 -0.33039637088E+02  0.62925089314E+02 -0.60981150666E+02  0.93647665324E+02  0.00000000000E+00 0. -1.
</event>
<event>
 7    1  0.5194496E-006  0.1058503E+03  0.7818608E-02  0.1329642E+00
          2   -1    0    0  502    0  0.00000000000E+00  0.00000000000E+00  0.33379519962E+03  0.33379519962E+03  0.00000000000E+00 0. -1.
          1   -1    0    0  501    0 -0.00000000000E+00 -0.00000000000E+00 -0.29865900551E+03  0.29865900551E+03  0.00000000000E+00 0. -1.
         25    2    1    2    0    0 -0.30137506338E+02  0.54856808722E+02  0.13290622565E+02  0.14042639401E+03  0.12500157093E+03 0.  0.
          2    1    1    2  501    0  0.87015405751E+02 -0.74422636115E+02 -0.21719911931E+03  0.24553180452E+03  0.00000000000E+00 0. -1.
          1    1    1    2  502    0 -0.56877899413E+02  0.19565827393E+02  0.23904469085E+03  0.24649600660E+03  0.00000000000E+00 0. -1.
         22    1    3    3    0    0  0.34332537812E+02  0.63734940969E+02 -0.57440066986E+01  0.72621343046E+02  0.00000000000E+00 0. -1.
         22    1    3    3    0    0 -0.64470044150E+02 -0.88781322463E+01  0.19034629264E+02  0.67805050963E+02  0.00000000000E+00 0. -1.
</event>
<event>
 7    1  0.5194496E-006  0.8544195E+02  0.7818608E-02  0.1377986E+00
          2   -1    0    0  502    0  0.00000000000E+00  0.00000000000E+00  0.20007824347E+04  0.20007824347E+04  0.00000000000E+00 0. -1.
          1   -1    0    0  501    0 -0.00000000000E+00 -0.00000000000E+00 -0.52541782079E+02  0.52541782079E+02  0.00000000000E+00 0. -1.
         25    2    1    2    0    0  0.98770850640E+01 -0.44593041409E+02  0.13758067515E+03  0.19141612489E+03  0.12500237814E+03 0.  0.
          2    1    1    2  501    0  0.42716720804E+02 -0.24897216392E+02  0.29196617158E+00  0.49443653430E+02  0.00000000000E+00 0. -1.
          1    1    1    2  502    0 -0.52593805868E+02  0.69490257801E+02  0.18103680113E+04  0.18124644384E+04  0.00000000000E+00 0. -1.
         22    1    3    3    0    0  0.27249649780E+02  0.17481255151E+02 -0.69946512358E+01  0.33121938963E+02  0.00000000000E+00 0. -1.
         22    1    3    3    0    0 -0.17372564716E+02 -0.62074296560E+02  0.14457532639E+03  0.15829418593E+03  0.00000000000E+00 0. -1.
</event>
<event>
 7    1  0.5194496E-006  0.7280035E+02  0.7818608E-02  0.1377131E+00
          2   -1    0    0  502    0  0.00000000000E+00  0.00000000000E+00  0.23554320640E+04  0.23554320640E+04  0.00000000000E+00 0. -1.
          1   -1    0    0  501    0 -0.00000000000E+00 -0.00000000000E+00 -0.14690403253E+04  0.14690403253E+04  0.00000000000E+00 0. -1.
         25    2    1    2    0    0  0.17256181345E+02  0.12667906090E+03  0.18019005575E+03  0.25384792129E+03  0.12499980276E+03 0.  0.
          2    1    1    2  501    0  0.44863411106E+01 -0.72438693353E+02 -0.14308922801E+04  0.14327317295E+04  0.00000000000E+00 0. -1.
          1    1    1    2  502    0 -0.21742522455E+02 -0.54240367548E+02  0.21370939630E+04  0.21378927386E+04  0.00000000000E+00 0. -1.
         22    1    3    3    0    0  0.54947216945E+02  0.11702400990E+03  0.17009878360E+03  0.21365254907E+03  0.00000000000E+00 0. -1.
         22    1    3    3    0    0 -0.37691035600E+02  0.96550510002E+01  0.10091272146E+02  0.40195372221E+02  0.00000000000E+00 0. -1.
</event>
<event>
 7    1  0.5194496E-006  0.7016505E+02  0.7818608E-02  0.1369916E+00
          2   -1    0    0  502    0  0.00000000000E+00  0.00000000000E+00  0.73300421450E+03  0.73300421450E+03  0.00000000000E+00 0. -1.
          1   -1    0    0  501    0 -0.00000000000E+00 -0.00000000000E+00 -0.25100693066E+03  0.25100693066E+03  0.00000000000E+00 0. -1.
         25    2    1    2    0    0 -0.33510652562E+02  0.25901408348E+02  0.20170203634E+03  0.24104482014E+03  0.12500018825E+03 0.  0.
          2    1    1    2  501    0 -0.24815705458E+02 -0.65630132963E+02 -0.22349862091E+03  0.23425363847E+03  0.00000000000E+00 0. -1.
          1    1    1    2  502    0  0.58326358020E+02  0.39728724615E+02  0.50379386841E+03  0.50871268654E+03  0.00000000000E+00 0. -1.
         22    1    3    3    0    0  0.44219629709E+02  0.13798199850E+02  0.11497037917E+03  0.12395141813E+03  0.00000000000E+00 0. -1.
         22    1    3    3    0    0 -0.77730282271E+02  0.12103208497E+02  0.86731657172E+02  0.11709340201E+03  0.00000000000E+00 0. -1.
</event>
<event>
 7    1  0.5194496E-006  0.6811558E+02  0.7818608E-02  0.1504961E+00
          2   -1    0    0  502    0  0.00000000000E+00  0.00000000000E+00  0.76761336814E+03  0.76761336814E+03  0.00000000000E+00 0. -1.
          1   -1    0    0  501    0 -0.00000000000E+00 -0.00000000000E+00 -0.69370982281E+03  0.69370982281E+03  0.00000000000E+00 0. -1.
         25    2    1    2    0    0 -0.30261458591E+02  0.64842507272E+02  0.48685891768E+03  0.50771711638E+03  0.12499903165E+03 0.  0.
          2    1    1    2  501    0  0.47845286385E+02 -0.48485907069E+02 -0.68104493766E+03  0.68444303030E+03  0.00000000000E+00 0. -1.
          1    1    1    2  502    0 -0.17583827794E+02 -0.16356600203E+02  0.26808956531E+03  0.26916304426E+03  0.00000000000E+00 0. -1.
         22    1    3    3    0    0 -0.68230833067E+02  0.69429420827E+02  0.41555056239E+03  0.42679990740E+03  0.00000000000E+00 0.  1.
         22    1    3    3    0    0  0.37969374476E+02 -0.45869135551E+01  0.71308355297E+02  0.80917208981E+02  0.00000000000E+00 0.  1.
</event>
<event>
 7    1  0.5194496E-006  0.1114953E+03  0.7818608E-02  0.1279821E+00
          2   -1    0    0  502    0  0.00000000000E+00  0.00000000000E+00  0.72371597099E+02  0.72371597099E+02  0.00000000000E+00 0. -1.
          1   -1    0    0  501    0 -0.00000000000E+00 -0.00000000000E+00 -0.77924736008E+03  0.77924736008E+03  0.00000000000E+00 0. -1.
         25    2    1    2    0    0  0.46687788765E+02  0.69228739807E+02 -0.18819376520E+03  0.24086127765E+03  0.12499957510E+03 0.  0.
          2    1    1    2  501    0  0.25229540438E+02 -0.12349822526E+03 -0.50393831544E+03  0.51946334531E+03  0.00000000000E+00 0. -1.
          1    1    1    2  502    0 -0.71917329204E+02  0.54269485457E+02 -0.14743682344E+02  0.91294334219E+02  0.00000000000E+00 0. -1.
         22    1    3    3    0    0  0.15614517896E+02 -0.22285936367E+02 -0.11881464431E+03  0.12189091776E+03  0.00000000000E+00 0. -1.
         22    1    3    3    0    0  0.31073270870E+02  0.91514676174E+02 -0.69379120887E+02  0.11897035989E+03  0.00000000000E+00 0. -1.
</event>
<event>
 7    1  0.5194496E-006  0.6340661E+02  0.7818608E-02  0.1500120E+00
          2   -1    0    0  502    0  0.00000000000E+00  0.00000000000E+00  0.59777103092E+02  0.59777103092E+02  0.00000000000E+00 0. -1.
          1   -1    0    0  501    0 -0.00000000000E+00 -0.00000000000E+00 -0.26427874407E+03  0.26427874407E+03  0.00000000000E+00 0. -1.
         25    2    1    2    0    0  0.12486623453E+02 -0.71141495251E+02 -0.11142657364E+03  0.18236752954E+03  0.12500002561E+03 0.  0.
          2    1    1    2  501    0  0.12142621842E+02  0.60914531468E+02 -0.96540577737E+02  0.11479593442E+03  0.00000000000E+00 0. -1.
          1    1    1    2  502    0 -0.24629245295E+02  0.10226963782E+02  0.34655104060E+01  0.26892383204E+02  0.00000000000E+00 0. -1.
         22    1    3    3    0    0 -0.14451021479E+02 -0.81697785059E+02 -0.12530245856E+03  0.15027995950E+03  0.00000000000E+00 0. -1.
         22    1    3    3    0    0  0.26937644933E+02  0.10556289809E+02  0.13875884914E+02  0.32087570042E+02  0.00000000000E+00 0. -1.
</event>
<event>
 7    1  0.5194496E-006  0.6198659E+02  0.7818608E-02  0.1425349E+00
          2   -1    0    0  502    0  0.00000000000E+00  0.00000000000E+00  0.82244776854E+03  0.82244776854E+03  0.00000000000E+00 0. -1.
          1   -1    0    0  501    0 -0.00000000000E+00 -0.00000000000E+00 -0.15305246140E+03  0.15305246140E+03  0.00000000000E+00 0. -1.
         25    2    1    2    0    0  0.45594119030E+02  0.39874946202E+02  0.51847207969E+03  0.53675603608E+03  0.12499963927E+03 0.  0.
          2    1    1    2  501    0 -0.62101655070E+02  0.39997182628E+01 -0.13518521459E+03  0.14882088413E+03  0.00000000000E+00 0. -1.
          1    1    1    2  502    0  0.16507536041E+02 -0.43874664464E+02  0.28610844204E+03  0.28992330974E+03  0.00000000000E+00 0. -1.
         22    1    3    3    0    0  0.71983992248E+02  0.52928407433E+02  0.48034728545E+03  0.48858635479E+03  0.00000000000E+00 0.  1.
         22    1    3    3    0    0 -0.26389873218E+02 -0.13053461232E+02  0.38124794244E+02  0.48169681281E+02  0.00000000000E+00 0.  1.
</event>
<event>
 7    1  0.5194496E-006  0.9405756E+02  0.7818608E-02  0.1484107E+00
          2   -1    0    0  502    0  0.00000000000E+00  0.00000000000E+00  0.18592382089E+04  0.18592382089E+04  0.00000000000E+00 0. -1.
          1   -1    0    0  501    0 -0.00000000000E+00 -0.00000000000E+00 -0.14438828521E+03  0.14438828521E+03  0.00000000000E+00 0. -1.
         25    2    1    2    0    0 -0.83216207549E+02 -0.49238116330E+02  0.30269465489E+03  0.34147618436E+03  0.12503040067E+03 0.  0.
          2    1    1    2  501    0 -0.58688090378E+01  0.19216612418E+02 -0.12274259507E+03  0.12437630705E+03  0.00000000000E+00 0. -1.
          1    1    1    2  502    0  0.89085016587E+02  0.30021503912E+02  0.15348978639E+04  0.15377740027E+04  0.00000000000E+00 0. -1.
         22    1    3    3    0    0 -0.93037818710E+02 -0.11912036642E+01  0.11739348408E+03  0.14979547650E+03  0.00000000000E+00 0.  1.
         22    1    3    3    0    0  0.98216111604E+01 -0.48046912666E+02  0.18530117081E+03  0.19168070786E+03  0.00000000000E+00 0.  1.
</event>
<event>
 7    1  0.5194496E-006  0.2945445E+03  0.7818608E-02  0.1107858E+00
          2   -1    0    0  502    0  0.00000000000E+00  0.00000000000E+00  0.28063571508E+04  0.28063571508E+04  0.00000000000E+00 0. -1.
          1   -1    0    0  501    0 -0.00000000000E+00 -0.00000000000E+00 -0.26302072924E+03  0.26302072924E+03  0.00000000000E+00 0. -1.
         25    2    1    2    0    0  0.24805220448E+01 -0.25749892229E+02  0.12063789671E+03  0.17563620276E+03  0.12500145462E+03 0.  0.
          2    1    1    2  501    0  0.29442935938E+03  0.82332485530E+01 -0.13129912832E+03  0.32248394556E+03  0.00000000000E+00 0. -1.
          1    1    1    2  502    0 -0.29690988143E+03  0.17516643676E+02  0.25539976532E+04  0.25712577317E+04  0.00000000000E+00 0. -1.
         22    1    3    3    0    0 -0.22813396986E+02 -0.67308293656E+02  0.10025122608E+03  0.12288680079E+03  0.00000000000E+00 0.  1.
         22    1    3    3    0    0  0.25293919030E+02  0.41558401427E+02  0.20386670630E+02  0.52749401972E+02  0.00000000000E+00 0.  1.
</event>
<event>
 7    1  0.5194496E-006  0.1224891E+03  0.7818608E-02  0.1296901E+00
          2   -1    0    0  502    0  0.00000000000E+00  0.00000000000E+00  0.27768053618E+03  0.27768053618E+03  0.00000000000E+00 0. -1.
          1   -1    0    0  501    0 -0.00000000000E+00 -0.00000000000E+00 -0.67289600689E+03  0.67289600689E+03  0.00000000000E+00 0. -1.
         25    2    1    2    0    0  0.16417304034E+03  0.54984906836E+02  0.91317525709E+02  0.23225078242E+03  0.12500163311E+03 0.  0.
          2    1    1    2  501    0 -0.12087737187E+03 -0.16144801957E+00 -0.58513221737E+03  0.59748730271E+03  0.00000000000E+00 0. -1.
          1    1    1    2  502    0 -0.43295668466E+02 -0.54823458817E+02  0.98599220954E+02  0.12083845794E+03  0.00000000000E+00 0. -1.
         22    1    3    3    0    0  0.17989253670E+03  0.64287316636E+02  0.95405578884E+02  0.21353315509E+03  0.00000000000E+00 0.  1.
         22    1    3    3    0    0 -0.15719496366E+02 -0.93024097996E+01 -0.40880531748E+01  0.18717627329E+02  0.00000000000E+00 0.  1.
</event>
<event>
 7    1  0.5194496E-006  0.1243228E+03  0.7818608E-02  0.1258622E+00
          2   -1    0    0  502    0  0.00000000000E+00  0.00000000000E+00  0.15909314207E+04  0.15909314207E+04  0.00000000000E+00 0. -1.
          1   -1    0    0  501    0 -0.00000000000E+00 -0.00000000000E+00 -0.81088632307E+03  0.81088632307E+03  0.00000000000E+00 0. -1.
         25    2    1    2    0    0  0.79620341397E+02  0.18001861535E+03  0.93535496309E+03  0.96398122409E+03  0.12499917117E+03 0.  0.
          2    1    1    2  501    0  0.22766688819E+01 -0.12402416280E+03 -0.78785404923E+03  0.79755951444E+03  0.00000000000E+00 0. -1.
          1    1    1    2  502    0 -0.81897010279E+02 -0.55994452545E+02  0.63254418379E+03  0.64027700525E+03  0.00000000000E+00 0. -1.
         22    1    3    3    0    0  0.54959425760E+02  0.30731706710E+02  0.48075904936E+03  0.48486517695E+03  0.00000000000E+00 0.  1.
         22    1    3    3    0    0  0.24660915637E+02  0.14928690864E+03  0.45459591373E+03  0.47911604714E+03  0.00000000000E+00 0.  1.
</event>
<event>
 7    1  0.5194496E-006  0.1064593E+03  0.7818608E-02  0.1347313E+00
          2   -1    0    0  502    0  0.00000000000E+00  0.00000000000E+00  0.17733482798E+04  0.17733482798E+04  0.00000000000E+00 0. -1.
          1   -1    0    0  501    0 -0.00000000000E+00 -0.00000000000E+00 -0.36087339000E+03  0.36087339000E+03  0.00000000000E+00 0. -1.
         25    2    1    2    0    0 -0.11242859442E+03  0.47842977348E+01  0.22895736689E+02  0.16974246865E+03  0.12500085022E+03 0.  0.
          2    1    1    2  501    0  0.15405670148E+02 -0.48929927102E+02 -0.28345166487E+03  0.28805610349E+03  0.00000000000E+00 0. -1.
          1    1    1    2  502    0  0.97022924275E+02  0.44145629367E+02  0.16730308180E+04  0.16764230977E+04  0.00000000000E+00 0. -1.
         22    1    3    3    0    0 -0.11644921799E+03  0.15619325382E+02 -0.25296026892E+02  0.12018432790E+03  0.00000000000E+00 0.  1.
         22    1    3    3    0    0  0.40206235653E+01 -0.10835027647E+02  0.48191763581E+02  0.49558140754E+02  0.00000000000E+00 0.  1.
</event>
<event>
 7    1  0.5194496E-006  0.1533936E+03  0.7818608E-02  0.1277706E+00
          2   -1    0    0  502    0  0.00000000000E+00  0.00000000000E+00  0.11379938273E+04  0.11379938273E+04  0.00000000000E+00 0. -1.
          1   -1    0    0  501    0 -0.00000000000E+00 -0.00000000000E+00 -0.55727617568E+03  0.55727617568E+03  0.00000000000E+00 0. -1.
         25    2    1    2    0    0 -0.11521846946E+03  0.85670307420E+02 -0.11170882560E+02  0.19069578505E+03  0.12500158615E+03 0.  0.
          2    1    1    2  501    0 -0.36598922468E+02 -0.55906759778E+02 -0.44814387815E+03  0.45309820396E+03  0.00000000000E+00 0. -1.
          1    1    1    2  502    0  0.15181739193E+03 -0.29763547642E+02  0.10400324124E+04  0.10514760140E+04  0.00000000000E+00 0. -1.
         22    1    3    3    0    0 -0.17115272404E+02 -0.24802382789E+02 -0.29070307455E+02  0.41870914929E+02  0.00000000000E+00 0.  1.
         22    1    3    3    0    0 -0.98103197057E+02  0.11047269021E+03  0.17899424896E+02  0.14882487012E+03  0.00000000000E+00 0.  1.
</event>
<event>
 7    1  0.5194496E-006  0.1491673E+03  0.7818608E-02  0.1270067E+00
          2   -1    0    0  502    0  0.00000000000E+00  0.00000000000E+00  0.46806012358E+03  0.46806012358E+03  0.00000000000E+00 0. -1.
          1   -1    0    0  501    0 -0.00000000000E+00 -0.00000000000E+00 -0.16937456624E+03  0.16937456624E+03  0.00000000000E+00 0. -1.
         25    2    1    2    0    0 -0.70414228004E+02  0.11775158849E+03  0.79648051030E+02  0.20196783803E+03  0.12499438175E+03 0.  0.
          2    1    1    2  501    0  0.91492411428E+01 -0.15916316027E+03 -0.41417191252E+02  0.16471795267E+03  0.00000000000E+00 0. -1.
          1    1    1    2  502    0  0.61264986861E+02  0.41411571783E+02  0.26045469756E+03  0.27074889912E+03  0.00000000000E+00 0. -1.
         22    1    3    3    0    0  0.22008888565E+02  0.75229666828E+02  0.10794988002E+02  0.79122852027E+02  0.00000000000E+00 0. -1.
         22    1    3    3    0    0 -0.92423116569E+02  0.42521921661E+02  0.68853063028E+02  0.12284498600E+03  0.00000000000E+00 0. -1.
</event>
<event>
 7    1  0.5194496E-006  0.6907647E+02  0.7818608E-02  0.1392670E+00
          2   -1    0    0  502    0  0.00000000000E+00  0.00000000000E+00  0.72313598619E+03  0.72313598619E+03  0.00000000000E+00 0. -1.
          1   -1    0    0  501    0 -0.00000000000E+00 -0.00000000000E+00 -0.57902821011E+03  0.57902821011E+03  0.00000000000E+00 0. -1.
         25    2    1    2    0    0  0.74635783384E+02  0.77375159206E+02 -0.78085250600E+02  0.18241742442E+03  0.12498557896E+03 0.  0.
          2    1    1    2  501    0 -0.10288643591E+02 -0.53322103447E+02 -0.44536489155E+03  0.44866355940E+03  0.00000000000E+00 0. -1.
          1    1    1    2  502    0 -0.64347139793E+02 -0.24053055760E+02  0.66755791823E+03  0.67108321249E+03  0.00000000000E+00 0. -1.
         22    1    3    3    0    0  0.25248052750E+01  0.68521470478E+02 -0.85260274285E+02  0.10941152101E+03  0.00000000000E+00 0.  1.
         22    1    3    3    0    0  0.72110978109E+02  0.88536887284E+01  0.71750236852E+01  0.73005903411E+02  0.00000000000E+00 0.  1.
</event>
<event>
 7    1  0.5194496E-006  0.1395068E+03  0.7818608E-02  0.1232447E+00
          2   -1    0    0  502    0  0.00000000000E+00  0.00000000000E+00  0.20244699808E+03  0.20244699808E+03  0.00000000000E+00 0. -1.
          1   -1    0    0  501    0 -0.00000000000E+00 -0.00000000000E+00 -0.16580869521E+04  0.16580869521E+04  0.00000000000E+00 0. -1.
         25    2    1    2    0    0  0.10507324264E+03  0.95680825723E+02 -0.73052051069E+03  0.75463915931E+03  0.12499934996E+03 0.  0.
          2    1    1    2  501    0  0.35294817766E+02 -0.10950823521E+03 -0.88513929180E+03  0.89258576262E+03  0.00000000000E+00 0. -1.
          1    1    1    2  502    0 -0.14036806041E+03  0.13827409489E+02  0.16001984846E+03  0.21330902826E+03  0.00000000000E+00 0. -1.
         22    1    3    3    0    0 -0.53473561018E+01  0.70674553171E+02 -0.20042074535E+03  0.21258401128E+03  0.00000000000E+00 0. -1.
         22    1    3    3    0    0  0.11042059874E+03  0.25006272553E+02 -0.53009976534E+03  0.54205514803E+03  0.00000000000E+00 0. -1.
</event>
<event>
 7    1  0.5194496E-006  0.1161070E+03  0.7818608E-02  0.1257669E+00
          2   -1    0    0  502    0  0.00000000000E+00  0.00000000000E+00  0.36004537258E+02  0.36004537258E+02  0.00000000000E+00 0. -1.
          1   -1    0    0  501    0 -0.00000000000E+00 -0.00000000000E+00 -0.18277091327E+04  0.18277091327E+04  0.00000000000E+00 0. -1.
         25    2    1    2    0    0  0.31799070490E+02 -0.66463994312E+01 -0.27472375164E+03  0.30356752830E+03  0.12499899604E+03 0.  0.
          2    1    1    2  501    0 -0.13325625705E+03 -0.28070388329E+02 -0.13774720710E+04  0.13841873006E+04  0.00000000000E+00 0. -1.
          1    1    1    2  502    0  0.10145718656E+03  0.34716787760E+02 -0.13950877275E+03  0.17595884102E+03  0.00000000000E+00 0. -1.
         22    1    3    3    0    0  0.55008551243E+02 -0.34999924634E+02 -0.70277701978E+02  0.95863918288E+02  0.00000000000E+00 0.  1.
         22    1    3    3    0    0 -0.23209480754E+02  0.28353525203E+02 -0.20444604967E+03  0.20770361001E+03  0.00000000000E+00 0.  1.
</event>
<event>
 7    1  0.5194496E-006  0.5921025E+02  0.7818608E-02  0.1482773E+00
          2   -1    0    0  502    0  0.00000000000E+00  0.00000000000E+00  0.10042793299E+04  0.10042793299E+04  0.00000000000E+00 0. -1.
          1   -1    0    0  501    0 -0.00000000000E+00 -0.00000000000E+00 -0.14220525883E+03  0.14220525883E+03  0.00000000000E+00 0. -1.
         25    2    1    2    0    0  0.24063744713E+02  0.30152959164E+02  0.90012318176E+02  0.15876208864E+03  0.12495966793E+03 0.  0.
          2    1    1    2  501    0 -0.55786211800E+02 -0.24518327215E+02 -0.98899656621E+02  0.11616536436E+03  0.00000000000E+00 0. -1.
          1    1    1    2  502    0  0.31722467087E+02 -0.56346319490E+01  0.87096140953E+03  0.87155713575E+03  0.00000000000E+00 0. -1.
         22    1    3    3    0    0  0.45727481983E+01 -0.45609052944E+02  0.10108652118E+02  0.46939115715E+02  0.00000000000E+00 0. -1.
         22    1    3    3    0    0  0.19490996514E+02  0.75762012108E+02  0.79903666058E+02  0.11182297292E+03  0.00000000000E+00 0. -1.
</event>
<event>
 7    1  0.5194496E-006  0.1056569E+03  0.7818608E-02  0.1271247E+00
          2   -1    0    0  502    0  0.00000000000E+00  0.00000000000E+00  0.19134005228E+04  0.19134005228E+04  0.00000000000E+00 0. -1.
          1   -1    0    0  501    0 -0.00000000000E+00 -0.00000000000E+00 -0.29592692121E+03  0.29592692121E+03  0.00000000000E+00 0. -1.
         25    2    1    2    0    0 -0.72297032022E+02  0.26932256064E+02  0.73316871924E+02  0.16417579900E+03  0.12500448797E+03 0.  0.
          2    1    1    2  501    0  0.16354405251E+01 -0.10564425328E+03 -0.23771764291E+03  0.26014046334E+03  0.00000000000E+00 0. -1.
          1    1    1    2  502    0  0.70661591497E+02  0.78711997217E+02  0.17818743725E+04  0.17850111816E+04  0.00000000000E+00 0. -1.
         22    1    3    3    0    0 -0.79375835547E+02  0.27606006135E+02  0.10341080764E+03  0.13325318000E+03  0.00000000000E+00 0.  1.
         22    1    3    3    0    0  0.70788035257E+01 -0.67375007086E+00 -0.30093935719E+02  0.30922618996E+02  0.00000000000E+00 0.  1.
</event>
<event>
 7    1  0.5194496E-006  0.1068506E+03  0.7818608E-02  0.1271794E+00
          2   -1    0    0  502    0  0.00000000000E+00  0.00000000000E+00  0.30924910643E+04  0.30924910643E+04  0.00000000000E+00 0. -1.
          1   -1    0    0  501    0 -0.00000000000E+00 -0.00000000000E+00 -0.22963559975E+03  0.22963559975E+03  0.00000000000E+00 0. -1.
         25    2    1    2    0    0  0.45029586595E+02 -0.20250920709E+03  0.14689131364E+04  0.14887480317E+04  0.12500902704E+03 0.  0.
          2    1    1    2  501    0 -0.25156657657E+02  0.10294603712E+03 -0.20523546226E+03  0.23098125238E+03  0.00000000000E+00 0. -1.
          1    1    1    2  502    0 -0.19872928938E+02  0.99563169969E+02  0.15991777904E+04  0.16023973800E+04  0.00000000000E+00 0. -1.
         22    1    3    3    0    0 -0.45073158161E+00 -0.12919096027E+03  0.51562250415E+03  0.53156097878E+03  0.00000000000E+00 0.  1.
         22    1    3    3    0    0  0.45480318177E+02 -0.73318246826E+02  0.95329063230E+03  0.95718705292E+03  0.00000000000E+00 0.  1.
</event>
<event>
 7    1  0.5194496E-006  0.9157019E+02  0.7818608E-02  0.1416528E+00
          2   -1    0    0  502    0  0.00000000000E+00  0.00000000000E+00  0.57342325140E+02  0.57342325140E+02  0.00000000000E+00 0. -1.
          1   -1    0    0  501    0 -0.00000000000E+00 -0.00000000000E+00 -0.39910041033E+04  0.39910041033E+04  0.00000000000E+00 0. -1.
         25    2    1    2    0    0 -0.81847721899E+02 -0.82058775771E+02 -0.12631316620E+03  0.21216155341E+03  0.12499926611E+03 0.  0.
          2    1    1    2  501    0  0.48192648462E+02  0.77541228725E+02 -0.38004348136E+04  0.38015312633E+04  0.00000000000E+00 0. -1.
          1    1    1    2  502    0  0.33655073437E+02  0.45175470464E+01 -0.69137983936E+01  0.34653611754E+02  0.00000000000E+00 0. -1.
         22    1    3    3    0    0 -0.92812947094E+02 -0.32867818254E+02 -0.29116761797E+02  0.10267581235E+03  0.00000000000E+00 0. -1.
         22    1    3    3    0    0  0.10965225195E+02 -0.49190957517E+02 -0.97196404408E+02  0.10948574106E+03  0.00000000000E+00 0. -1.
</event>
<event>
 7    1  0.5194496E-006  0.9186290E+02  0.7818608E-02  0.1298792E+00
          2   -1    0    0  502    0  0.00000000000E+00  0.00000000000E+00  0.56776694205E+03  0.56776694205E+03  0.00000000000E+00 0. -1.
          1   -1    0    0  501    0 -0.00000000000E+00 -0.00000000000E+00 -0.36631660586E+03  0.36631660586E+03  0.00000000000E+00 0. -1.
         25    2    1    2    0    0  0.51079243818E+02  0.37500562036E+02  0.16505808778E+03  0.21652791528E+03  0.12499913780E+03 0.  0.
          2    1    1    2  501    0  0.50197141644E+02 -0.76540559602E+02 -0.32633924981E+03  0.33893290820E+03  0.00000000000E+00 0. -1.
          1    1    1    2  502    0 -0.10127638546E+03  0.39039997566E+02  0.36273149821E+03  0.37862272444E+03  0.00000000000E+00 0. -1.
         22    1    3    3    0    0  0.56214476792E+02  0.51493850145E+02  0.32067074665E+02  0.82704179346E+02  0.00000000000E+00 0. -1.
         22    1    3    3    0    0 -0.51352329743E+01 -0.13993288109E+02  0.13299101311E+03  0.13382373593E+03  0.00000000000E+00 0. -1.
</event>
<event>
 7    1  0.5194496E-006  0.1475698E+03  0.7818608E-02  0.1388541E+00
          2   -1    0    0  502    0  0.00000000000E+00  0.00000000000E+00  0.38158236852E+03  0.38158236852E+03  0.00000000000E+00 0. -1.
          1   -1    0    0  501    0 -0.00000000000E+00 -0.00000000000E+00 -0.16237418267E+04  0.16237418267E+04  0.00000000000E+00 0. -1.
         25    2    1    2    0    0  0.11464404203E+03 -0.44937689519E+02  0.30489265236E+02  0.17809142165E+03  0.12499722740E+03 0.  0.
          2    1    1    2  501    0 -0.14085986733E+03  0.46727824610E+02 -0.15457561512E+04  0.15528641508E+04  0.00000000000E+00 0. -1.
          1    1    1    2  502    0  0.26215825292E+02 -0.17901350911E+01  0.27310742776E+03  0.27436862280E+03  0.00000000000E+00 0. -1.
         22    1    3    3    0    0 -0.81197316681E+01 -0.10408871250E+02 -0.33066636726E+02  0.35604453477E+02  0.00000000000E+00 0. -1.
         22    1    3    3    0    0  0.12276377370E+03 -0.34528818270E+02  0.63555901962E+02  0.14248696817E+03  0.00000000000E+00 0. -1.
</event>
<event>
 7    1  0.5194496E-006  0.6529262E+02  0.7818608E-02  0.1397765E+00
          2   -1    0    0  502    0  0.00000000000E+00  0.00000000000E+00  0.37655061438E+04  0.37655061438E+04  0.00000000000E+00 0. -1.
          1   -1    0    0  501    0 -0.00000000000E+00 -0.00000000000E+00 -0.30999156322E+03  0.30999156322E+03  0.00000000000E+00 0. -1.
         25    2    1    2    0    0  0.72961873194E+02  0.22780678983E+02  0.85182084936E+03  0.86433005835E+03  0.12500118431E+03 0.  0.
          2    1    1    2  501    0 -0.30376042838E+02 -0.57847832050E+02 -0.29995813557E+03  0.30699178938E+03  0.00000000000E+00 0. -1.
          1    1    1    2  502    0 -0.42585830356E+02  0.35067153067E+02  0.29036518668E+04  0.29041758593E+04  0.00000000000E+00 0. -1.
         22    1    3    3    0    0  0.72113027653E+02  0.48493542393E+02  0.31143470309E+03  0.32333185228E+03  0.00000000000E+00 0.  1.
         22    1    3    3    0    0  0.84884554190E+00 -0.25712863410E+02  0.54038614627E+03  0.54099820607E+03  0.00000000000E+00 0.  1.
</event>
<event>
 7    1  0.5194496E-006  0.4954547E+02  0.7818608E-02  0.1570223E+00
          2   -1    0    0  502    0  0.00000000000E+00  0.00000000000E+00  0.73808898165E+03  0.73808898165E+03  0.00000000000E+00 0. -1.
          1   -1    0    0  501    0 -0.00000000000E+00 -0.00000000000E+00 -0.42694004646E+03  0.42694004646E+03  0.00000000000E+00 0. -1.
         25    2    1    2    0    0  0.67546655179E+01  0.42959894803E+02  0.32703429989E+02  0.13632648577E+03  0.12499687324E+03 0.  0.
          2    1    1    2  501    0  0.21462150525E+02 -0.20062921490E+01 -0.37387152540E+03  0.37449241196E+03  0.00000000000E+00 0. -1.
          1    1    1    2  502    0 -0.28216816042E+02 -0.40953602654E+02  0.65231703060E+03  0.65421013038E+03  0.00000000000E+00 0. -1.
         22    1    3    3    0    0 -0.43849333877E+02  0.55831312122E+02  0.43148910020E+02  0.83076638898E+02  0.00000000000E+00 0. -1.
         22    1    3    3    0    0  0.50603999395E+02 -0.12871417319E+02 -0.10445480030E+02  0.53249846870E+02  0.00000000000E+00 0. -1.
</event>
<event>
 7    1  0.5194496E-006  0.1297597E+03  0.7818608E-02  0.1295492E+00
          2   -1    0    0  502    0  0.00000000000E+00  0.00000000000E+00  0.89022491102E+03  0.89022491102E+03  0.00000000000E+00 0. -1.
          1   -1    0    0  501    0 -0.00000000000E+00 -0.00000000000E+00 -0.15037177605E+03  0.15037177605E+03  0.00000000000E+00 0. -1.
         25    2    1    2    0    0  0.64585786004E+02  0.32776817187E+02  0.72466202649E+03  0.73892134424E+03  0.12499622729E+03 0.  0.
          2    1    1    2  501    0 -0.13056910226E+03 -0.22292992491E+02 -0.10172736511E+03  0.16701414548E+03  0.00000000000E+00 0. -1.
          1    1    1    2  502    0  0.65983316252E+02 -0.10483824696E+02  0.11691847360E+03  0.13466119735E+03  0.00000000000E+00 0. -1.
         22    1    3    3    0    0 -0.14977662899E+02 -0.36051580009E+02  0.21481277973E+03  0.21833134714E+03  0.00000000000E+00 0. -1.
         22    1    3    3    0    0  0.79563448903E+02  0.68828397196E+02  0.50984924676E+03  0.52058999710E+03  0.00000000000E+00 0. -1.
</event>
<event>
 7    1  0.5194496E-006  0.6650746E+02  0.7818608E-02  0.1401786E+00
          2   -1    0    0  502    0  0.00000000000E+00  0.00000000000E+00  0.19374966209E+04  0.19374966209E+04  0.00000000000E+00 0. -1.
          1   -1    0    0  501    0 -0.00000000000E+00 -0.00000000000E+00 -0.13408575645E+04  0.13408575645E+04  0.00000000000E+00 0. -1.
         25    2    1    2    0    0  0.20622843629E+02 -0.11577882064E+03  0.25469171859E+03  0.30711300419E+03  0.12498195403E+03 0.  0.
          2    1    1    2  501    0 -0.66348716952E+01  0.52039127182E+02 -0.13134804650E+04  0.13145276810E+04  0.00000000000E+00 0. -1.
          1    1    1    2  502    0 -0.13987971934E+02  0.63739693461E+02  0.16554278027E+04  0.16567135003E+04  0.00000000000E+00 0. -1.
         22    1    3    3    0    0  0.41709408774E+02 -0.13514732879E+03  0.22578239426E+03  0.26642478266E+03  0.00000000000E+00 0.  1.
         22    1    3    3    0    0 -0.21086565145E+02  0.19368508150E+02  0.28909324335E+02  0.40688221527E+02  0.00000000000E+00 0.  1.
</event>
<event>
 7    1  0.5194496E-006  0.6360054E+02  0.7818608E-02  0.1476312E+00
          2   -1    0    0  502    0  0.00000000000E+00  0.00000000000E+00  0.39298902452E+03  0.39298902452E+03  0.00000000000E+00 0. -1.
          1   -1    0    0  501    0 -0.00000000000E+00 -0.00000000000E+00 -0.20465803034E+03  0.20465803034E+03  0.00000000000E+00 0. -1.
         25    2    1    2    0    0  0.57416511092E+02  0.33453102173E+02 -0.53079656354E+02  0.15118951024E+03  0.12500020919E+03 0.  0.
          2    1    1    2  501    0 -0.64261029579E+02 -0.28119019595E+01 -0.91623059113E+02  0.11194718253E+03  0.00000000000E+00 0. -1.
          1    1    1    2  502    0  0.68445184876E+01 -0.30641200213E+02  0.33303370965E+03  0.33451036209E+03  0.00000000000E+00 0. -1.
         22    1    3    3    0    0  0.50080880117E+02  0.72102794225E+02 -0.34465585994E+01  0.87856623282E+02  0.00000000000E+00 0. -1.
         22    1    3    3    0    0  0.73356309748E+01 -0.38649692052E+02 -0.49633097755E+02  0.63332886957E+02  0.00000000000E+00 0. -1.
</event>
<event>
 7    1  0.5194496E-006  0.5892948E+02  0.7818608E-02  0.1434573E+00
          2   -1    0    0  502    0  0.00000000000E+00  0.00000000000E+00  0.15139770112E+04  0.15139770112E+04  0.00000000000E+00 0. -1.
          1   -1    0    0  501    0 -0.00000000000E+00 -0.00000000000E+00 -0.25305677017E+03  0.25305677017E+03  0.00000000000E+00 0. -1.
         25    2    1    2    0    0 -0.18741255295E+01  0.16156421344E+02  0.74664930134E+02  0.14650851111E+03  0.12500139894E+03 0.  0.
          2    1    1    2  501    0 -0.31965930909E+02  0.33048999106E+02 -0.21405737716E+03  0.21893975837E+03  0.00000000000E+00 0. -1.
          1    1    1    2  502    0  0.33840056438E+02 -0.49205420450E+02  0.14003126880E+04  0.14015855119E+04  0.00000000000E+00 0. -1.
         22    1    3    3    0    0 -0.51597136867E+02  0.43891990840E+02  0.51264505936E+02  0.84951874385E+02  0.00000000000E+00 0.  1.
         22    1    3    3    0    0  0.49723011337E+02 -0.27735569496E+02  0.23400424198E+02  0.61556636721E+02  0.00000000000E+00 0.  1.
</event>
<event>
 7    1  0.5194496E-006  0.3372944E+03  0.7818608E-02  0.1227965E+00
          2   -1    0    0  502    0  0.00000000000E+00  0.00000000000E+00  0.91445939305E+03  0.91445939305E+03  0.00000000000E+00 0. -1.
          1   -1    0    0  501    0 -0.00000000000E+00 -0.00000000000E+00 -0.85744609180E+03  0.85744609180E+03  0.00000000000E+00 0. -1.
         25    2    1    2    0    0  0.64080923482E+02  0.30194649287E+03  0.43780897311E+02  0.33588699453E+03  0.12500102725E+03 0.  0.
          2    1    1    2  501    0 -0.10732690161E+03 -0.32672357359E+03 -0.66886871024E+03  0.75209886909E+03  0.00000000000E+00 0. -1.
          1    1    1    2  502    0  0.43245978130E+02  0.24777080718E+02  0.68210111417E+03  0.68391962123E+03  0.00000000000E+00 0. -1.
         22    1    3    3    0    0  0.44216316766E+02  0.29980705008E+02  0.33390519351E+02  0.62998826368E+02  0.00000000000E+00 0.  1.
         22    1    3    3    0    0  0.19864606716E+02  0.27196578787E+03  0.10390377960E+02  0.27288816816E+03  0.00000000000E+00 0.  1.
</event>
<event>
 7    1  0.5194496E-006  0.8963536E+02  0.7818608E-02  0.1314102E+00
          2   -1    0    0  502    0  0.00000000000E+00  0.00000000000E+00  0.22971418690E+04  0.22971418690E+04  0.00000000000E+00 0. -1.
          1   -1    0    0  501    0 -0.00000000000E+00 -0.00000000000E+00 -0.15944737914E+03  0.15944737914E+03  0.00000000000E+00 0. -1.
         25    2    1    2    0    0 -0.72400795677E+02 -0.72003427213E+02 -0.37344911618E+02  0.16566718630E+03  0.12499842179E+03 0.  0.
          2    1    1    2  501    0 -0.58052752006E+01  0.95208622394E+02 -0.17405134940E+02  0.96960413162E+02  0.00000000000E+00 0. -1.
          1    1    1    2  502    0  0.78206070878E+02 -0.23205195181E+02  0.21924445364E+04  0.21939616487E+04  0.00000000000E+00 0. -1.
         22    1    3    3    0    0 -0.86521328543E+02 -0.78658809314E+02 -0.65093222041E+02  0.13382927980E+03  0.00000000000E+00 0.  1.
         22    1    3    3    0    0  0.14120532866E+02  0.66553821012E+01  0.27748310423E+02  0.31837906506E+02  0.00000000000E+00 0.  1.
</event>
<event>
 7    1  0.5194496E-006  0.8851837E+02  0.7818608E-02  0.1372496E+00
          2   -1    0    0  502    0  0.00000000000E+00  0.00000000000E+00  0.87300659247E+03  0.87300659247E+03  0.00000000000E+00 0. -1.
          1   -1    0    0  501    0 -0.00000000000E+00 -0.00000000000E+00 -0.90052986842E+03  0.90052986842E+03  0.00000000000E+00 0. -1.
         25    2    1    2    0    0 -0.21225133193E+02  0.10537240598E+03  0.42738563982E+02  0.17030131962E+03  0.12498841704E+03 0.  0.
          2    1    1    2  501    0 -0.24329988103E+02 -0.84944169411E+02 -0.83359806317E+03  0.83826797098E+03  0.00000000000E+00 0. -1.
          1    1    1    2  502    0  0.45555121296E+02 -0.20428236569E+02  0.76333622324E+03  0.76496717030E+03  0.00000000000E+00 0. -1.
         22    1    3    3    0    0 -0.67784205786E+02  0.46713956056E+02 -0.33064733677E+01  0.82388257722E+02  0.00000000000E+00 0. -1.
         22    1    3    3    0    0  0.46559072593E+02  0.58658449924E+02  0.46045037350E+02  0.87913061900E+02  0.00000000000E+00 0. -1.
</event>
<event>
 7    1  0.5194496E-006  0.1162184E+03  0.7818608E-02  0.1407947E+00
          2   -1    0    0  502    0  0.00000000000E+00  0.00000000000E+00  0.92577394054E+03  0.92577394054E+03  0.00000000000E+00 0. -1.
          1   -1    0    0  501    0 -0.00000000000E+00 -0.00000000000E+00 -0.28338949217E+03  0.28338949217E+03  0.00000000000E+00 0. -1.
         25    2    1    2    0    0 -0.13090375957E+03 -0.12886410721E+02  0.67817890851E+01  0.18157387277E+03  0.12498489813E+03 0.  0.
          2    1    1    2  501    0  0.11343142729E+03 -0.97579486234E+01 -0.17918773701E+03  0.21229731829E+03  0.00000000000E+00 0. -1.
          1    1    1    2  502    0  0.17472332275E+02  0.22644359344E+02  0.81479039629E+03  0.81529224165E+03  0.00000000000E+00 0. -1.
         22    1    3    3    0    0 -0.64170857795E+02  0.31155908958E+02 -0.46807297698E+02  0.85320060777E+02  0.00000000000E+00 0. -1.
         22    1    3    3    0    0 -0.66732901770E+02 -0.44042319679E+02  0.53589086783E+02  0.96253811995E+02  0.00000000000E+00 0. -1.
</event>
<event>
 7    1  0.5194496E-006  0.9127917E+02  0.7818608E-02  0.1426485E+00
          2   -1    0    0  502    0  0.00000000000E+00  0.00000000000E+00  0.26489884469E+04  0.26489884469E+04  0.00000000000E+00 0. -1.
          1   -1    0    0  501    0 -0.00000000000E+00 -0.00000000000E+00 -0.10383826583E+04  0.10383826583E+04  0.00000000000E+00 0. -1.
         25    2    1    2    0    0  0.59101868793E+02 -0.96449005134E+02  0.17999429826E+04  0.18078214428E+04  0.12501274755E+03 0.  0.
          2    1    1    2  501    0 -0.63807619144E+02  0.65242645345E+02 -0.10321348378E+04  0.10361613477E+04  0.00000000000E+00 0. -1.
          1    1    1    2  502    0  0.47057503507E+01  0.31206359789E+02  0.84279764379E+03  0.84338831469E+03  0.00000000000E+00 0. -1.
         22    1    3    3    0    0  0.38540170975E+02 -0.89616213592E+02  0.61569671538E+03  0.62337697732E+03  0.00000000000E+00 0. -1.
         22    1    3    3    0    0  0.20561697818E+02 -0.68327915422E+01  0.11842462672E+04  0.11844444655E+04  0.00000000000E+00 0. -1.
</event>
<event>
 7    1  0.5194496E-006  0.5051048E+02  0.7818608E-02  0.1538387E+00
          2   -1    0    0  502    0  0.00000000000E+00  0.00000000000E+00  0.65058104018E+02  0.65058104018E+02  0.00000000000E+00 0. -1.
          1   -1    0    0  501    0 -0.00000000000E+00 -0.00000000000E+00 -0.74207888426E+03  0.74207888426E+03  0.00000000000E+00 0. -1.
         25    2    1    2    0    0 -0.24480350188E+02 -0.12780541798E+02 -0.43296178722E+03  0.45149037724E+03  0.12500008702E+03 0.  0.
          2    1    1    2  501    0 -0.12230633307E+02 -0.22843299367E+02 -0.28742111202E+03  0.28858672934E+03  0.00000000000E+00 0. -1.
          1    1    1    2  502    0  0.36710983494E+02  0.35623841165E+02  0.43362119001E+02  0.67059881693E+02  0.00000000000E+00 0. -1.
         22    1    3    3    0    0 -0.29625484140E+02  0.45571309888E+02 -0.10393520822E+03  0.11728998722E+03  0.00000000000E+00 0. -1.
         22    1    3    3    0    0  0.51451339527E+01 -0.58351851686E+02 -0.32902657900E+03  0.33420039002E+03  0.00000000000E+00 0. -1.
</event>
<event>
 7    1  0.5194496E-006  0.5282131E+02  0.7818608E-02  0.1440459E+00
          2   -1    0    0  502    0  0.00000000000E+00  0.00000000000E+00  0.93056509621E+03  0.93056509621E+03  0.00000000000E+00 0. -1.
          1   -1    0    0  501    0 -0.00000000000E+00 -0.00000000000E+00 -0.19070148181E+03  0.19070148181E+03  0.00000000000E+00 0. -1.
         25    2    1    2    0    0  0.72136328467E+02 -0.59606249430E+01  0.18960986859E+03  0.23835586079E+03  0.12498974027E+03 0.  0.
          2    1    1    2  501    0 -0.30534186464E+02  0.38426391285E+02 -0.16170986304E+03  0.16899409426E+03  0.00000000000E+00 0. -1.
          1    1    1    2  502    0 -0.41602142003E+02 -0.32465766342E+02  0.71196360885E+03  0.71391662296E+03  0.00000000000E+00 0. -1.
         22    1    3    3    0    0  0.74051959401E+02  0.42799010279E+02  0.74869241217E+02  0.11366992237E+03  0.00000000000E+00 0.  1.
         22    1    3    3    0    0 -0.19156309338E+01 -0.48759635222E+02  0.11474062738E+03  0.12468593842E+03  0.00000000000E+00 0.  1.
</event>
<event>
 7    1  0.5194496E-006  0.5779941E+02  0.7818608E-02  0.1553628E+00
          2   -1    0    0  502    0  0.00000000000E+00  0.00000000000E+00  0.25168993407E+03  0.25168993407E+03  0.00000000000E+00 0. -1.
          1   -1    0    0  501    0 -0.00000000000E+00 -0.00000000000E+00 -0.10889413298E+03  0.10889413298E+03  0.00000000000E+00 0. -1.
         25    2    1    2    0    0 -0.47486588121E+02 -0.20375088641E+02  0.16532756654E+02  0.13621131994E+03  0.12494027112E+03 0.  0.
          2    1    1    2  501    0  0.44014428669E+02  0.40600713581E+02 -0.29855879179E+02  0.66910846624E+02  0.00000000000E+00 0. -1.
          1    1    1    2  502    0  0.34721594520E+01 -0.20225624940E+02  0.15611892361E+03  0.15746190049E+03  0.00000000000E+00 0. -1.
         22    1    3    3    0    0  0.35703173837E+02  0.13365275943E+02 -0.15135852861E+02  0.41017572635E+02  0.00000000000E+00 0.  1.
         22    1    3    3    0    0 -0.83189761959E+02 -0.33740364584E+02  0.31668609514E+02  0.95193747303E+02  0.00000000000E+00 0.  1.
</event>
<event>
 7    1  0.5194496E-006  0.2585197E+02  0.7818608E-02  0.1683372E+00
          2   -1    0    0  502    0  0.00000000000E+00  0.00000000000E+00  0.74096855911E+03  0.74096855911E+03  0.00000000000E+00 0. -1.
          1   -1    0    0  501    0 -0.00000000000E+00 -0.00000000000E+00 -0.14945552007E+03  0.14945552007E+03  0.00000000000E+00 0. -1.
         25    2    1    2    0    0 -0.22777429369E+02  0.19235766569E+02  0.15226273998E+03  0.19924235432E+03  0.12499899107E+03 0.  0.
          2    1    1    2  501    0  0.20349617205E+02  0.65586776273E+01 -0.12475895158E+03  0.12657771989E+03  0.00000000000E+00 0. -1.
          1    1    1    2  502    0  0.24278121645E+01 -0.25794444196E+02  0.56400925064E+03  0.56460400497E+03  0.00000000000E+00 0. -1.
         22    1    3    3    0    0 -0.25669188741E+02 -0.48977586947E+02  0.41537906704E+02  0.69160024343E+02  0.00000000000E+00 0. -1.
         22    1    3    3    0    0  0.28917593721E+01  0.68213353516E+02  0.11072483327E+03  0.13008232998E+03  0.00000000000E+00 0. -1.
</event>
<event>
 7    1  0.5194496E-006  0.1150820E+03  0.7818608E-02  0.1325780E+00
          2   -1    0    0  502    0  0.00000000000E+00  0.00000000000E+00  0.87855262046E+03  0.87855262046E+03  0.00000000000E+00 0. -1.
          1   -1    0    0  501    0 -0.00000000000E+00 -0.00000000000E+00 -0.27517378935E+03  0.27517378935E+03  0.00000000000E+00 0. -1.
         25    2    1    2    0    0 -0.47099922803E+02  0.80602410461E+02  0.22094442328E+01  0.15602745483E+03  0.12499813485E+03 0.  0.
          2    1    1    2  501    0 -0.53345524942E+02 -0.20760480752E+02 -0.18974375016E+03  0.19819039664E+03  0.00000000000E+00 0. -1.
          1    1    1    2  502    0  0.10044544775E+03 -0.59841929709E+02  0.79091313704E+03  0.79950855835E+03  0.00000000000E+00 0. -1.
         22    1    3    3    0    0  0.16115160086E+02  0.40692045395E+02  0.50654762291E+02  0.66943602276E+02  0.00000000000E+00 0.  1.
         22    1    3    3    0    0 -0.63215082889E+02  0.39910365065E+02 -0.48445318058E+02  0.89083852555E+02  0.00000000000E+00 0.  1.
</event>
<event>
 7    1  0.5194496E-006  0.6642107E+02  0.7818608E-02  0.1397999E+00
          2   -1    0    0  502    0  0.00000000000E+00  0.00000000000E+00  0.17776408875E+03  0.17776408875E+03  0.00000000000E+00 0. -1.
          1   -1    0    0  501    0 -0.00000000000E+00 -0.00000000000E+00 -0.47094419119E+03  0.47094419119E+03  0.00000000000E+00 0. -1.
         25    2    1    2    0    0 -0.41559059103E+02  0.31327876944E+02 -0.22632975912E+03  0.26373962139E+03  0.12499934703E+03 0.  0.
          2    1    1    2  501    0  0.40336055100E+02  0.36094513904E+02 -0.21525804386E+03  0.22195908794E+03  0.00000000000E+00 0. -1.
          1    1    1    2  502    0  0.12230040026E+01 -0.67422390848E+02  0.14840770054E+03  0.16300957060E+03  0.00000000000E+00 0. -1.
         22    1    3    3    0    0  0.26959916661E+02  0.25545212400E+02 -0.12597644860E+02  0.39218562429E+02  0.00000000000E+00 0.  1.
         22    1    3    3    0    0 -0.68518975764E+02  0.57826645440E+01 -0.21373211426E+03  0.22452105896E+03  0.00000000000E+00 0.  1.
</event>
<event>
 7    1  0.5194496E-006  0.1710019E+03  0.7818608E-02  0.1197087E+00
          2   -1    0    0  502    0  0.00000000000E+00  0.00000000000E+00  0.38127147454E+03  0.38127147454E+03  0.00000000000E+00 0. -1.
          1   -1    0    0  501    0 -0.00000000000E+00 -0.00000000000E+00 -0.10640199348E+04  0.10640199348E+04  0.00000000000E+00 0. -1.
         25    2    1    2    0    0  0.58711877514E+02 -0.15169884863E+02 -0.43561011882E+02  0.14560146527E+03  0.12500005986E+03 0.  0.
          2    1    1    2  501    0 -0.16122332746E+03  0.10532484999E+03 -0.94519409683E+03  0.96461296177E+03  0.00000000000E+00 0. -1.
          1    1    1    2  502    0  0.10251144995E+03 -0.90154965126E+02  0.30600664849E+03  0.33507698224E+03  0.00000000000E+00 0. -1.
         22    1    3    3    0    0  0.67201980828E+01 -0.53754580051E+02  0.17172270589E+02  0.56829594543E+02  0.00000000000E+00 0. -1.
         22    1    3    3    0    0  0.51991679431E+02  0.38584695188E+02 -0.60733282471E+02  0.88771870728E+02  0.00000000000E+00 0. -1.
</event>
<event>
 7    1  0.5194496E-006  0.1272482E+03  0.7818608E-02  0.1271668E+00
          2   -1    0    0  502    0  0.00000000000E+00  0.00000000000E+00  0.76547537854E+02  0.76547537854E+02  0.00000000000E+00 0. -1.
          1   -1    0    0  501    0 -0.00000000000E+00 -0.00000000000E+00 -0.60760417132E+03  0.60760417132E+03  0.00000000000E+00 0. -1.
         25    2    1    2    0    0  0.74623900424E+02 -0.12177404442E+03 -0.39148023848E+03  0.43506293036E+03  0.12500132739E+03 0.  0.
          2    1    1    2  501    0  0.10716838017E+02  0.12014980985E+03 -0.88602189535E+02  0.14967022221E+03  0.00000000000E+00 0. -1.
          1    1    1    2  502    0 -0.85340738441E+02  0.16242345679E+01 -0.50974205455E+02  0.99418556605E+02  0.00000000000E+00 0. -1.
         22    1    3    3    0    0  0.70982971368E+01  0.24852363808E+02 -0.82509745339E+02  0.86463193816E+02  0.00000000000E+00 0.  1.
         22    1    3    3    0    0  0.67525603287E+02 -0.14662640823E+03 -0.30897049314E+03  0.34859973655E+03  0.00000000000E+00 0.  1.
</event>
<event>
 7    1  0.5194496E-006  0.5491598E+02  0.7818608E-02  0.1557234E+00
          2   -1    0    0  502    0  0.00000000000E+00  0.00000000000E+00  0.40041639438E+03  0.40041639438E+03  0.00000000000E+00 0. -1.
          1   -1    0    0  501    0 -0.00000000000E+00 -0.00000000000E+00 -0.33810775307E+03  0.33810775307E+03  0.00000000000E+00 0. -1.
         25    2    1    2    0    0  0.25040700160E+02  0.70235605665E+02  0.10456751533E+03  0.17921804902E+03  0.12499866745E+03 0.  0.
          2    1    1    2  501    0 -0.69158178153E+01 -0.19942954103E+02 -0.29764108250E+03  0.29838861230E+03  0.00000000000E+00 0. -1.
          1    1    1    2  502    0 -0.18124882344E+02 -0.50292651562E+02  0.25538220849E+03  0.26091748614E+03  0.00000000000E+00 0. -1.
         22    1    3    3    0    0  0.18812813745E+01  0.17432038549E+02  0.11858933380E+03  0.11987846044E+03  0.00000000000E+00 0.  1.
         22    1    3    3    0    0  0.23159418785E+02  0.52803567116E+02 -0.14021818473E+02  0.59339588572E+02  0.00000000000E+00 0.  1.
</event>
<event>
 7    1  0.5194496E-006  0.1081153E+03  0.7818608E-02  0.1377568E+00
          2   -1    0    0  502    0  0.00000000000E+00  0.00000000000E+00  0.35284308230E+03  0.35284308230E+03  0.00000000000E+00 0. -1.
          1   -1    0    0  501    0 -0.00000000000E+00 -0.00000000000E+00 -0.45798922110E+04  0.45798922110E+04  0.00000000000E+00 0. -1.
         25    2    1    2    0    0 -0.20207809170E+01  0.88107955694E+02 -0.50196279359E+03  0.52474559976E+03  0.12499681160E+03 0.  0.
          2    1    1    2  501    0 -0.33625201498E+02 -0.10443618159E+03 -0.40646698026E+04  0.40661502892E+04  0.00000000000E+00 0. -1.
          1    1    1    2  502    0  0.35645982415E+02  0.16328225897E+02  0.33958346745E+03  0.34183940438E+03  0.00000000000E+00 0. -1.
         22    1    3    3    0    0 -0.63165160277E+02  0.36764460662E+02 -0.24350929091E+03  0.25424051172E+03  0.00000000000E+00 0.  1.
         22    1    3    3    0    0  0.61144379360E+02  0.51343495032E+02 -0.25845350268E+03  0.27050508804E+03  0.00000000000E+00 0.  1.
</event>
<event>
 7    1  0.5194496E-006  0.1907345E+03  0.7818608E-02  0.1248391E+00
          2   -1    0    0  502    0  0.00000000000E+00  0.00000000000E+00  0.27093843855E+03  0.27093843855E+03  0.00000000000E+00 0. -1.
          1   -1    0    0  501    0 -0.00000000000E+00 -0.00000000000E+00 -0.52445358231E+03  0.52445358231E+03  0.00000000000E+00 0. -1.
         25    2    1    2    0    0  0.17165079969E+03  0.14287216695E+03 -0.29397953453E+02  0.25761581376E+03  0.12500085884E+03 0.  0.
          2    1    1    2  501    0 -0.54401631839E+01 -0.71375187040E+02 -0.32351222729E+03  0.33133694920E+03  0.00000000000E+00 0. -1.
          1    1    1    2  502    0 -0.16621063651E+03 -0.71496979909E+02  0.99395036981E+02  0.20643925790E+03  0.00000000000E+00 0. -1.
         22    1    3    3    0    0  0.88899877089E+02  0.14431909300E+03 -0.40048790623E+02  0.17416972866E+03  0.00000000000E+00 0.  1.
         22    1    3    3    0    0  0.82750922602E+02 -0.14469260537E+01  0.10650837170E+02  0.83446085102E+02  0.00000000000E+00 0.  1.
</event>
<event>
 7    1  0.5194496E-006  0.1693601E+03  0.7818608E-02  0.1201617E+00
          2   -1    0    0  502    0  0.00000000000E+00  0.00000000000E+00  0.55848841867E+03  0.55848841867E+03  0.00000000000E+00 0. -1.
          1   -1    0    0  501    0 -0.00000000000E+00 -0.00000000000E+00 -0.61833867460E+03  0.61833867460E+03  0.00000000000E+00 0. -1.
         25    2    1    2    0    0  0.11240843019E+03  0.23426562649E+03  0.10026318987E+03  0.30527931048E+03  0.12500684472E+03 0.  0.
          2    1    1    2  501    0 -0.10565151966E+03 -0.77815958033E+02 -0.48952680603E+03  0.50680771576E+03  0.00000000000E+00 0. -1.
          1    1    1    2  502    0 -0.67569105363E+01 -0.15644966846E+03  0.32941336023E+03  0.36474006703E+03  0.00000000000E+00 0. -1.
         22    1    3    3    0    0  0.47689327025E+02  0.16565108322E+02  0.53193062563E+02  0.73336052734E+02  0.00000000000E+00 0.  1.
         22    1    3    3    0    0  0.64719103168E+02  0.21770051817E+03  0.47070127306E+02  0.23194325774E+03  0.00000000000E+00 0.  1.
</event>
<event>
 7    1  0.5194496E-006  0.8977104E+02  0.7818608E-02  0.1435807E+00
          2   -1    0    0  502    0  0.00000000000E+00  0.00000000000E+00  0.16512415839E+04  0.16512415839E+04  0.00000000000E+00 0. -1.
          1   -1    0    0  501    0 -0.00000000000E+00 -0.00000000000E+00 -0.88728511875E+02  0.88728511875E+02  0.00000000000E+00 0. -1.
         25    2    1    2    0    0 -0.55717401076E+02  0.86038828063E+02  0.24741268292E+02  0.16353489288E+03  0.12499768845E+03 0.  0.
          2    1    1    2  501    0  0.28166627867E+02 -0.74412333101E+02  0.63334543689E+02  0.10169473274E+03  0.00000000000E+00 0. -1.
          1    1    1    2  502    0  0.27550773209E+02 -0.11626494963E+02  0.14744372600E+04  0.14747404701E+04  0.00000000000E+00 0. -1.
         22    1    3    3    0    0  0.61240235513E+01  0.94861693146E+00  0.53998530838E+02  0.54352965616E+02  0.00000000000E+00 0.  1.
         22    1    3    3    0    0 -0.61841424627E+02  0.85090211132E+02 -0.29257262546E+02  0.10918192727E+03  0.00000000000E+00 0.  1.
</event>
<event>
 7    1  0.5194496E-006  0.8075650E+02  0.7818608E-02  0.1393201E+00
          2   -1    0    0  502    0  0.00000000000E+00  0.00000000000E+00  0.22865446810E+03  0.22865446810E+03  0.00000000000E+00 0. -1.
          1   -1    0    0  501    0 -0.00000000000E+00 -0.00000000000E+00 -0.21341597352E+03  0.21341597352E+03  0.00000000000E+00 0. -1.
         25    2    1    2    0    0 -0.10362716224E+03 -0.14565402398E+02  0.38537982693E+02  0.16751273109E+03  0.12499839705E+03 0.  0.
          2    1    1    2  501    0  0.75867463510E+02 -0.22432958615E+02 -0.13342249087E+03  0.15511502416E+03  0.00000000000E+00 0. -1.
          1    1    1    2  502    0  0.27759698728E+02  0.36998361014E+02  0.11012300276E+03  0.11944268637E+03  0.00000000000E+00 0. -1.
         22    1    3    3    0    0 -0.45906873051E+02  0.53965516985E+02  0.23732119551E+01  0.70889704131E+02  0.00000000000E+00 0. -1.
         22    1    3    3    0    0 -0.57720289188E+02 -0.68530919384E+02  0.36164770738E+02  0.96623026955E+02  0.00000000000E+00 0. -1.
</event>
<event>
 7    1  0.5194496E-006  0.9018251E+02  0.7818608E-02  0.1332633E+00
          2   -1    0    0  502    0  0.00000000000E+00  0.00000000000E+00  0.99100711887E+03  0.99100711887E+03  0.00000000000E+00 0. -1.
          1   -1    0    0  501    0 -0.00000000000E+00 -0.00000000000E+00 -0.95123613180E+02  0.95123613180E+02  0.00000000000E+00 0. -1.
         25    2    1    2    0    0  0.75987005441E+02  0.39842941938E+01  0.18734018959E+03  0.23772048427E+03  0.12499912964E+03 0.  0.
          2    1    1    2  501    0 -0.63398903004E+02 -0.71591399545E+02 -0.34896618807E+02  0.10179648027E+03  0.00000000000E+00 0. -1.
          1    1    1    2  502    0 -0.12588102437E+02  0.67607105352E+02  0.74343993491E+03  0.74661376751E+03  0.00000000000E+00 0. -1.
         22    1    3    3    0    0  0.37049203417E+02  0.64340762211E+02  0.10237270692E+03  0.12646164746E+03  0.00000000000E+00 0.  1.
         22    1    3    3    0    0  0.38937802024E+02 -0.60356468018E+02  0.84967482666E+02  0.11125883681E+03  0.00000000000E+00 0.  1.
</event>
<event>
 7    1  0.5194496E-006  0.8185333E+02  0.7818608E-02  0.1334826E+00
          2   -1    0    0  502    0  0.00000000000E+00  0.00000000000E+00  0.34658800181E+04  0.34658800181E+04  0.00000000000E+00 0. -1.
          1   -1    0    0  501    0 -0.00000000000E+00 -0.00000000000E+00 -0.53899719385E+03  0.53899719385E+03  0.00000000000E+00 0. -1.
         25    2    1    2    0    0 -0.41633222769E+02 -0.45276705788E+02 -0.31678511690E+03  0.34606509817E+03  0.12499974622E+03 0.  0.
          2    1    1    2  501    0  0.11051087363E+03  0.17341110662E+02 -0.19206979264E+03  0.22227049412E+03  0.00000000000E+00 0. -1.
          1    1    1    2  502    0 -0.68877650861E+02  0.27935595126E+02  0.34357377338E+04  0.34365416197E+04  0.00000000000E+00 0. -1.
         22    1    3    3    0    0 -0.58177045987E+02 -0.59352379545E+02 -0.10861290041E+03  0.13676269876E+03  0.00000000000E+00 0. -1.
         22    1    3    3    0    0  0.16543823218E+02  0.14075673757E+02 -0.20817221650E+03  0.20930239941E+03  0.00000000000E+00 0. -1.
</event>
<event>
 7    1  0.5194496E-006  0.7990177E+02  0.7818608E-02  0.1453953E+00
          2   -1    0    0  502    0  0.00000000000E+00  0.00000000000E+00  0.10078276481E+04  0.10078276481E+04  0.00000000000E+00 0. -1.
          1   -1    0    0  501    0 -0.00000000000E+00 -0.00000000000E+00 -0.25019158272E+02  0.25019158272E+02  0.00000000000E+00 0. -1.
         25    2    1    2    0    0 -0.84316481094E+02 -0.27946312141E+02  0.48017361477E+03  0.50406552502E+03  0.12500035141E+03 0.  0.
          2    1    1    2  501    0  0.78605846833E+02 -0.85710430966E+00  0.11083369688E+03  0.13588127961E+03  0.00000000000E+00 0. -1.
          1    1    1    2  502    0  0.57106342611E+01  0.28803416450E+02  0.39180117820E+03  0.39290000175E+03  0.00000000000E+00 0. -1.
         22    1    3    3    0    0 -0.61966670901E+02 -0.77109936777E+02  0.32801309135E+03  0.34260531045E+03  0.00000000000E+00 0. -1.
         22    1    3    3    0    0 -0.22349810193E+02  0.49163624637E+02  0.15216052342E+03  0.16146021457E+03  0.00000000000E+00 0. -1.
</event>
<event>
 7    1  0.5194496E-006  0.5428696E+02  0.7818608E-02  0.1481248E+00
          2   -1    0    0  502    0  0.00000000000E+00  0.00000000000E+00  0.10479526272E+03  0.10479526272E+03  0.00000000000E+00 0. -1.
          1   -1    0    0  501    0 -0.00000000000E+00 -0.00000000000E+00 -0.10665593388E+04  0.10665593388E+04  0.00000000000E+00 0. -1.
         25    2    1    2    0    0  0.24201712118E+02  0.26708671308E+02  0.93171142128E+01  0.13042689834E+03  0.12500116480E+03 0.  0.
          2    1    1    2  501    0 -0.21186936629E+01 -0.54530235832E+02 -0.99602819676E+03  0.99752203195E+03  0.00000000000E+00 0. -1.
          1    1    1    2  502    0 -0.22083018456E+02  0.27821564524E+02  0.24947006513E+02  0.43405671181E+02  0.00000000000E+00 0. -1.
         22    1    3    3    0    0  0.45579306593E+01  0.75380544689E+02  0.16925924317E+02  0.77391783566E+02  0.00000000000E+00 0. -1.
         22    1    3    3    0    0  0.19643781459E+02 -0.48671873381E+02 -0.76088101044E+01  0.53035114779E+02  0.00000000000E+00 0. -1.
</event>
<event>
 7    1  0.5194496E-006  0.4095771E+02  0.7818608E-02  0.1591940E+00
          2   -1    0    0  502    0  0.00000000000E+00  0.00000000000E+00  0.41411905169E+04  0.41411905169E+04  0.00000000000E+00 0. -1.
          1   -1    0    0  501    0 -0.00000000000E+00 -0.00000000000E+00 -0.11116912267E+04  0.11116912267E+04  0.00000000000E+00 0. -1.
         25    2    1    2    0    0  0.11079185458E+02 -0.32513487633E+02  0.33654418116E+04  0.33679390815E+04  0.12504077021E+03 0.  0.
          2    1    1    2  501    0  0.22783975832E+02  0.10324358318E+01 -0.11096352561E+04  0.11098696217E+04  0.00000000000E+00 0. -1.
          1    1    1    2  502    0 -0.33863161290E+02  0.31481051802E+02  0.77369273470E+03  0.77507304045E+03  0.00000000000E+00 0. -1.
         22    1    3    3    0    0  0.26199068949E+02 -0.72902889577E+02  0.26940592782E+04  0.26951728362E+04  0.00000000000E+00 0.  1.
         22    1    3    3    0    0 -0.15119883491E+02  0.40389401943E+02  0.67138253333E+03  0.67276624523E+03  0.00000000000E+00 0.  1.
</event>
<event>
 7    1  0.5194496E-006  0.7999990E+02  0.7818608E-02  0.1429208E+00
          2   -1    0    0  502    0  0.00000000000E+00  0.00000000000E+00  0.64934130947E+03  0.64934130947E+03  0.00000000000E+00 0. -1.
          1   -1    0    0  501    0 -0.00000000000E+00 -0.00000000000E+00 -0.28380231799E+03  0.28380231799E+03  0.00000000000E+00 0. -1.
         25    2    1    2    0    0  0.81358989388E+02 -0.14422865790E+02 -0.80604483883E+02  0.17014336145E+03  0.12499750563E+03 0.  0.
          2    1    1    2  501    0 -0.78142331894E+02 -0.20701027295E+02 -0.14755898597E+03  0.16825103537E+03  0.00000000000E+00 0. -1.
          1    1    1    2  502    0 -0.32166574936E+01  0.35123893085E+02  0.59370246133E+03  0.59474923063E+03  0.00000000000E+00 0. -1.
         22    1    3    3    0    0 -0.14665283031E+01  0.70226717028E+01 -0.84205678832E+02  0.84510738789E+02  0.00000000000E+00 0. -1.
         22    1    3    3    0    0  0.82825517691E+02 -0.21445537493E+02  0.36011949491E+01  0.85632622663E+02  0.00000000000E+00 0. -1.
</event>
<event>
 7    1  0.6376707E-006  0.1424750E+03  0.7818608E-02  0.1265142E+00
          2   -1    0    0  502    0  0.00000000000E+00  0.00000000000E+00  0.10950226758E+04  0.10950226758E+04  0.00000000000E+00 0. -1.
          1   -1    0    0  501    0 -0.00000000000E+00 -0.00000000000E+00 -0.19615178693E+04  0.19615178693E+04  0.00000000000E+00 0. -1.
         25    2    1    2    0    0 -0.20875479260E+03  0.31915560990E+02 -0.69643384859E+03  0.73840518271E+03  0.12499976769E+03 0.  0.
          2    1    1    2  501    0  0.12754884436E+03 -0.30873304216E+02 -0.12390931717E+04  0.12460231766E+04  0.00000000000E+00 0. -1.
          1    1    1    2  502    0  0.81205948240E+02 -0.10422567741E+01  0.10690318267E+04  0.10721121858E+04  0.00000000000E+00 0. -1.
         22    1    3    3    0    0  0.17165175962E+02  0.41191349307E-01 -0.44130679934E+02  0.47351471719E+02  0.00000000000E+00 0.  1.
         22    1    3    3    0    0 -0.22591996856E+03  0.31874369641E+02 -0.65230316866E+03  0.69105371099E+03  0.00000000000E+00 0.  1.
</event>
<event>
 7    1  0.5194496E-006  0.2761272E+02  0.7818608E-02  0.1642902E+00
          2   -1    0    0  502    0  0.00000000000E+00  0.00000000000E+00  0.17347841317E+04  0.17347841317E+04  0.00000000000E+00 0. -1.
          1   -1    0    0  501    0 -0.00000000000E+00 -0.00000000000E+00 -0.85520255996E+03  0.85520255996E+03  0.00000000000E+00 0. -1.
         25    2    1    2    0    0  0.48181355148E+02  0.19162820748E+01  0.17186962177E+03  0.21792014743E+03  0.12499963458E+03 0.  0.
          2    1    1    2  501    0 -0.23167845784E+02  0.95631643804E+01 -0.83186555936E+03  0.83224306067E+03  0.00000000000E+00 0. -1.
          1    1    1    2  502    0 -0.25013509364E+02 -0.11479446455E+02  0.15395775093E+04  0.15398234836E+04  0.00000000000E+00 0. -1.
         22    1    3    3    0    0  0.39497444071E+02 -0.38230439443E+01  0.19157115344E+03  0.19563785570E+03  0.00000000000E+00 0. -1.
         22    1    3    3    0    0  0.86839110775E+01  0.57393260191E+01 -0.19701531663E+02  0.22282291727E+02  0.00000000000E+00 0. -1.
</event>
<event>
 7    1  0.5194496E-006  0.3437266E+02  0.7818608E-02  0.1617297E+00
          2   -1    0    0  502    0  0.00000000000E+00  0.00000000000E+00  0.20129391983E+03  0.20129391983E+03  0.00000000000E+00 0. -1.
          1   -1    0    0  501    0 -0.00000000000E+00 -0.00000000000E+00 -0.99597797160E+02  0.99597797160E+02  0.00000000000E+00 0. -1.
         25    2    1    2    0    0  0.10367445971E+02 -0.25621166125E+02  0.15106781372E+03  0.19801666050E+03  0.12500074162E+03 0.  0.
          2    1    1    2  501    0  0.23321633506E+02  0.11978315501E+01 -0.56060785664E+02  0.60730100272E+02  0.00000000000E+00 0. -1.
          1    1    1    2  502    0 -0.33689079478E+02  0.24423334575E+02  0.66890946132E+01  0.42144956217E+02  0.00000000000E+00 0. -1.
         22    1    3    3    0    0 -0.30853795352E+02 -0.48941026787E+02  0.13683618008E+03  0.14856419814E+03  0.00000000000E+00 0. -1.
         22    1    3    3    0    0  0.41221241323E+02  0.23319860662E+02  0.14231633642E+02  0.49452462361E+02  0.00000000000E+00 0. -1.
</event>
<event>
 7    1  0.5194496E-006  0.3503162E+02  0.7818608E-02  0.1611045E+00
          2   -1    0    0  502    0  0.00000000000E+00  0.00000000000E+00  0.11557356070E+04  0.11557356070E+04  0.00000000000E+00 0. -1.
          1   -1    0    0  501    0 -0.00000000000E+00 -0.00000000000E+00 -0.33980615116E+02  0.33980615116E+02  0.00000000000E+00 0. -1.
         25    2    1    2    0    0  0.43076499706E+02  0.37581384100E+02  0.37743600943E+03  0.40168748827E+03  0.12500780681E+03 0.  0.
          2    1    1    2  501    0 -0.28831034229E+02 -0.18546337606E+02 -0.81074400239E+01  0.35226776137E+02  0.00000000000E+00 0. -1.
          1    1    1    2  502    0 -0.14245465477E+02 -0.19035046494E+02  0.75242642245E+03  0.75280195768E+03  0.00000000000E+00 0. -1.
         22    1    3    3    0    0 -0.34382482071E+02  0.38618521111E+02  0.22294696255E+03  0.22886435580E+03  0.00000000000E+00 0. -1.
         22    1    3    3    0    0  0.77458981777E+02 -0.10371370108E+01  0.15448904688E+03  0.17282313247E+03  0.00000000000E+00 0. -1.
</event>
<event>
 7    1  0.5194496E-006  0.1390996E+03  0.7818608E-02  0.1295783E+00
          2   -1    0    0  502    0  0.00000000000E+00  0.00000000000E+00  0.24273927416E+03  0.24273927416E+03  0.00000000000E+00 0. -1.
          1   -1    0    0  501    0 -0.00000000000E+00 -0.00000000000E+00 -0.69991066901E+03  0.69991066901E+03  0.00000000000E+00 0. -1.
         25    2    1    2    0    0 -0.56686900479E+02 -0.12765847879E+03 -0.50192756416E+01  0.18753373271E+03  0.12503445879E+03 0.  0.
          2    1    1    2  501    0  0.10677180385E+03  0.90849227827E+02 -0.58866001176E+03  0.60512346653E+03  0.00000000000E+00 0. -1.
          1    1    1    2  502    0 -0.50084903376E+02  0.36809250960E+02  0.13650789256E+03  0.14999274393E+03  0.00000000000E+00 0. -1.
         22    1    3    3    0    0  0.26189224269E+02 -0.90356229051E+02 -0.17834310197E+02  0.95750646036E+02  0.00000000000E+00 0. -1.
         22    1    3    3    0    0 -0.82876124747E+02 -0.37302249736E+02  0.12815034556E+02  0.91783086673E+02  0.00000000000E+00 0. -1.
</event>
<event>
 7    1  0.5194496E-006  0.1686053E+03  0.7818608E-02  0.1278905E+00
          2   -1    0    0  502    0  0.00000000000E+00  0.00000000000E+00  0.79521188717E+03  0.79521188717E+03  0.00000000000E+00 0. -1.
          1   -1    0    0  501    0 -0.00000000000E+00 -0.00000000000E+00 -0.48414372739E+03  0.48414372739E+03  0.00000000000E+00 0. -1.
         25    2    1    2    0    0  0.13826644957E+02 -0.13969781137E+03 -0.20615690750E+03  0.27898260139E+03  0.12499586697E+03 0.  0.
          2    1    1    2  501    0  0.58391794031E+02 -0.14229463727E+02 -0.22810791465E+03  0.23589256024E+03  0.00000000000E+00 0. -1.
          1    1    1    2  502    0 -0.72218438989E+02  0.15392727510E+03  0.74533298193E+03  0.76448045292E+03  0.00000000000E+00 0. -1.
         22    1    3    3    0    0  0.33344112656E+02  0.89805597196E+01 -0.19871846389E+02  0.39841819494E+02  0.00000000000E+00 0.  1.
         22    1    3    3    0    0 -0.19517467699E+02 -0.14867837109E+03 -0.18628506111E+03  0.23914078190E+03  0.00000000000E+00 0.  1.
</event>
<event>
 7    1  0.5194496E-006  0.8211957E+02  0.7818608E-02  0.1340682E+00
          2   -1    0    0  502    0  0.00000000000E+00  0.00000000000E+00  0.37808625445E+02  0.37808625445E+02  0.00000000000E+00 0. -1.
          1   -1    0    0  501    0 -0.00000000000E+00 -0.00000000000E+00 -0.13162969265E+04  0.13162969265E+04  0.00000000000E+00 0. -1.
         25    2    1    2    0    0 -0.15967589257E+02  0.27247382697E+02 -0.53240208846E+03  0.54778993322E+03  0.12499777346E+03 0.  0.
          2    1    1    2  501    0 -0.70373207968E+02 -0.22612193248E+01 -0.70321584738E+03  0.70673193612E+03  0.00000000000E+00 0. -1.
          1    1    1    2  502    0  0.86340797225E+02 -0.24986163372E+02 -0.42870365179E+02  0.99583682579E+02  0.00000000000E+00 0. -1.
         22    1    3    3    0    0 -0.59427736441E+02 -0.12827787384E+01 -0.14196692207E+03  0.15390876629E+03  0.00000000000E+00 0.  1.
         22    1    3    3    0    0  0.43460147184E+02  0.28530161435E+02 -0.39043516639E+03  0.39388116693E+03  0.00000000000E+00 0.  1.
</event>
<event>
 7    1  0.5194496E-006  0.1081207E+03  0.7818608E-02  0.1350474E+00
          2   -1    0    0  502    0  0.00000000000E+00  0.00000000000E+00  0.23845141847E+04  0.23845141847E+04  0.00000000000E+00 0. -1.
          1   -1    0    0  501    0 -0.00000000000E+00 -0.00000000000E+00 -0.66154846659E+02  0.66154846659E+02  0.00000000000E+00 0. -1.
         25    2    1    2    0    0  0.37118980341E+02 -0.85794665075E+02  0.49250630890E+03  0.51666222723E+03  0.12505538570E+03 0.  0.
          2    1    1    2  501    0  0.47329796769E+02  0.13302112208E+02 -0.40892018658E+02  0.63946954903E+02  0.00000000000E+00 0. -1.
          1    1    1    2  502    0 -0.84448777110E+02  0.72492552866E+02  0.18667450478E+04  0.18700598492E+04  0.00000000000E+00 0. -1.
         22    1    3    3    0    0  0.11226286100E+02 -0.11002790419E+03  0.27710603978E+03  0.29836207280E+03  0.00000000000E+00 0.  1.
         22    1    3    3    0    0  0.25892694241E+02  0.24233239115E+02  0.21540026911E+03  0.21830015444E+03  0.00000000000E+00 0.  1.
</event>
<event>
 7    1  0.5194496E-006  0.7965511E+02  0.7818608E-02  0.1355922E+00
          2   -1    0    0  502    0  0.00000000000E+00  0.00000000000E+00  0.93225092576E+03  0.93225092576E+03  0.00000000000E+00 0. -1.
          1   -1    0    0  501    0 -0.00000000000E+00 -0.00000000000E+00 -0.18090615734E+03  0.18090615734E+03  0.00000000000E+00 0. -1.
         25    2    1    2    0    0 -0.35425136902E+02  0.17156300583E+02  0.11835625616E+03  0.17658383160E+03  0.12499746893E+03 0.  0.
          2    1    1    2  501    0  0.24930970147E+02 -0.80002273802E+02 -0.13881368495E+03  0.16214547855E+03  0.00000000000E+00 0. -1.
          1    1    1    2  502    0  0.10494166755E+02  0.62845973219E+02  0.77180219721E+03  0.77442777294E+03  0.00000000000E+00 0. -1.
         22    1    3    3    0    0 -0.22284312279E+02  0.66557250935E+02  0.34101649941E+02  0.78034484393E+02  0.00000000000E+00 0.  1.
         22    1    3    3    0    0 -0.13140824623E+02 -0.49400950353E+02  0.84254606214E+02  0.98549347211E+02  0.00000000000E+00 0.  1.
</event>
<event>
 7    1  0.6574934E-006  0.6152545E+02  0.7818608E-02  0.1395131E+00
          2   -1    0    0  502    0  0.00000000000E+00  0.00000000000E+00  0.15882295838E+04  0.15882295838E+04  0.00000000000E+00 0. -1.
          1   -1    0    0  501    0 -0.00000000000E+00 -0.00000000000E+00 -0.43437374176E+03  0.43437374176E+03  0.00000000000E+00 0. -1.
         25    2    1    2    0    0  0.11980028174E+02 -0.68208921953E+02 -0.21318427871E+03  0.25664908592E+03  0.12500095401E+03 0.  0.
          2    1    1    2  501    0  0.43346463803E+02  0.41172672408E+02 -0.19435668481E+03  0.20334361511E+03  0.00000000000E+00 0. -1.
          1    1    1    2  502    0 -0.55326491978E+02  0.27036249545E+02  0.15613968056E+04  0.15626106245E+04  0.00000000000E+00 0. -1.
         22    1    3    3    0    0  0.28940049280E+02 -0.64603801869E+02 -0.37495430906E+02  0.80106710125E+02  0.00000000000E+00 0. -1.
         22    1    3    3    0    0 -0.16960021106E+02 -0.36051200844E+01 -0.17568884781E+03  0.17654237579E+03  0.00000000000E+00 0. -1.
</event>
<event>
 7    1  0.5194496E-006  0.7667691E+02  0.7818608E-02  0.1497596E+00
          2   -1    0    0  502    0  0.00000000000E+00  0.00000000000E+00  0.14290015079E+04  0.14290015079E+04  0.00000000000E+00 0. -1.
          1   -1    0    0  501    0 -0.00000000000E+00 -0.00000000000E+00 -0.56491119354E+03  0.56491119354E+03  0.00000000000E+00 0. -1.
         25    2    1    2    0    0 -0.17942507764E+02 -0.72958049029E+02  0.64542591470E+03  0.66169819826E+03  0.12500033485E+03 0.  0.
          2    1    1    2  501    0  0.21961121232E+02 -0.46077041933E+01 -0.55460270560E+03  0.55505646816E+03  0.00000000000E+00 0. -1.
          1    1    1    2  502    0 -0.40186134684E+01  0.77565753222E+02  0.77326710523E+03  0.77715803499E+03  0.00000000000E+00 0. -1.
         22    1    3    3    0    0 -0.22685034272E+02  0.32696773477E+02  0.15858786306E+03  0.16350474025E+03  0.00000000000E+00 0. -1.
         22    1    3    3    0    0  0.47425265080E+01 -0.10565482251E+03  0.48683805164E+03  0.49819345800E+03  0.00000000000E+00 0. -1.
</event>
<event>
 7    1  0.5194496E-006  0.8842083E+02  0.7818608E-02  0.1375230E+00
          2   -1    0    0  502    0  0.00000000000E+00  0.00000000000E+00  0.19789372106E+04  0.19789372106E+04  0.00000000000E+00 0. -1.
          1   -1    0    0  501    0 -0.00000000000E+00 -0.00000000000E+00 -0.37544326958E+02  0.37544326958E+02  0.00000000000E+00 0. -1.
         25    2    1    2    0    0 -0.39593415794E+02 -0.21280077455E+02  0.58969413196E+03  0.60446929812E+03  0.12499393117E+03 0.  0.
          2    1    1    2  501    0  0.82219970256E+02  0.45178439912E+02  0.44383557999E+02  0.10378398317E+03  0.00000000000E+00 0. -1.
          1    1    1    2  502    0 -0.42626554462E+02 -0.23898362457E+02  0.13073151937E+04  0.13082282562E+04  0.00000000000E+00 0. -1.
         22    1    3    3    0    0 -0.42710593730E+01 -0.65220460447E+01 -0.45278013244E+01  0.90155431124E+01  0.00000000000E+00 0.  1.
         22    1    3    3    0    0 -0.35322356421E+02 -0.14758031410E+02  0.59422193329E+03  0.59545375501E+03  0.00000000000E+00 0.  1.
</event>
<event>
 7    1  0.5194496E-006  0.7523142E+02  0.7818608E-02  0.1362231E+00
          2   -1    0    0  502    0  0.00000000000E+00  0.00000000000E+00  0.62349565168E+03  0.62349565168E+03  0.00000000000E+00 0. -1.
          1   -1    0    0  501    0 -0.00000000000E+00 -0.00000000000E+00 -0.16636630779E+03  0.16636630779E+03  0.00000000000E+00 0. -1.
         25    2    1    2    0    0  0.22998690721E+02  0.43233515053E+02  0.39441634772E+03  0.41663828777E+03  0.12500052357E+03 0.  0.
          2    1    1    2  501    0  0.51981140452E+01  0.63763237877E+02 -0.13345746001E+03  0.14799886664E+03  0.00000000000E+00 0. -1.
          1    1    1    2  502    0 -0.28196804766E+02 -0.10699675293E+03  0.19617045618E+03  0.22522480506E+03  0.00000000000E+00 0. -1.
         22    1    3    3    0    0 -0.19682592731E+02  0.41991248582E+02  0.35659270922E+03  0.35959564747E+03  0.00000000000E+00 0.  1.
         22    1    3    3    0    0  0.42681283452E+02  0.12422664712E+01  0.37823638497E+02  0.57042640299E+02  0.00000000000E+00 0.  1.
</event>
<event>
 7    1  0.5194496E-006  0.6307393E+02  0.7818608E-02  0.1438874E+00
          2   -1    0    0  502    0  0.00000000000E+00  0.00000000000E+00  0.24316533814E+04  0.24316533814E+04  0.00000000000E+00 0. -1.
          1   -1    0    0  501    0 -0.00000000000E+00 -0.00000000000E+00 -0.45831141212E+03  0.45831141212E+03  0.00000000000E+00 0. -1.
         25    2    1    2    0    0 -0.51040792567E+02  0.22217201782E+02  0.68785193422E+03  0.70133067901E+03  0.12500268538E+03 0.  0.
          2    1    1    2  501    0  0.21626561662E+02  0.35527969835E+02 -0.45000826082E+03  0.45192629888E+03  0.00000000000E+00 0. -1.
          1    1    1    2  502    0  0.29414230905E+02 -0.57745171618E+02  0.17354982959E+04  0.17367078156E+04  0.00000000000E+00 0. -1.
         22    1    3    3    0    0 -0.12576938969E+01 -0.45611059880E+02  0.14536517382E+03  0.15235807933E+03  0.00000000000E+00 0. -1.
         22    1    3    3    0    0 -0.49783098670E+02  0.67828261662E+02  0.54248676040E+03  0.54897259968E+03  0.00000000000E+00 0. -1.
</event>
<event>
 7    1  0.5194496E-006  0.7428501E+02  0.7818608E-02  0.1392779E+00
          2   -1    0    0  502    0  0.00000000000E+00  0.00000000000E+00  0.77814975600E+02  0.77814975600E+02  0.00000000000E+00 0. -1.
          1   -1    0    0  501    0 -0.00000000000E+00 -0.00000000000E+00 -0.10441465847E+04  0.10441465847E+04  0.00000000000E+00 0. -1.
         25    2    1    2    0    0 -0.98572392111E+02  0.66559935931E+02 -0.27107627533E+03  0.32133214993E+03  0.12500104790E+03 0.  0.
          2    1    1    2  501    0  0.47150410801E+02 -0.17956886639E+02 -0.72290419003E+03  0.72466273464E+03  0.00000000000E+00 0. -1.
          1    1    1    2  502    0  0.51421981310E+02 -0.48603049293E+02  0.27648856289E+02  0.75966675697E+02  0.00000000000E+00 0. -1.
         22    1    3    3    0    0  0.15238883232E+02  0.51635900415E+02 -0.12061780481E+03  0.13208763989E+03  0.00000000000E+00 0.  1.
         22    1    3    3    0    0 -0.11381127534E+03  0.14924035516E+02 -0.15045847052E+03  0.18924451005E+03  0.00000000000E+00 0.  1.
</event>
<event>
 7    1  0.5194496E-006  0.1829305E+03  0.7818608E-02  0.1389254E+00
          2   -1    0    0  502    0  0.00000000000E+00  0.00000000000E+00  0.27848577064E+03  0.27848577064E+03  0.00000000000E+00 0. -1.
          1   -1    0    0  501    0 -0.00000000000E+00 -0.00000000000E+00 -0.36677703846E+03  0.36677703846E+03  0.00000000000E+00 0. -1.
         25    2    1    2    0    0 -0.59797146207E+02  0.18838355845E+03 -0.53751458071E+02  0.23995473782E+03  0.12499997269E+03 0.  0.
          2    1    1    2  501    0 -0.24693351880E+01 -0.20931111236E+02 -0.17610690101E+03  0.17736360849E+03  0.00000000000E+00 0. -1.
          1    1    1    2  502    0  0.62266481395E+02 -0.16745244721E+03  0.14156709126E+03  0.22794446278E+03  0.00000000000E+00 0. -1.
         22    1    3    3    0    0 -0.47000288692E+01  0.39572005265E+02  0.39326148150E+02  0.55987318211E+02  0.00000000000E+00 0. -1.
         22    1    3    3    0    0 -0.55097117338E+02  0.14881155318E+03 -0.93077606221E+02  0.18396741961E+03  0.00000000000E+00 0. -1.
</event>
<event>
 7    1  0.5194496E-006  0.1967119E+03  0.7818608E-02  0.1283463E+00
          2   -1    0    0  502    0  0.00000000000E+00  0.00000000000E+00  0.15029318010E+04  0.15029318010E+04  0.00000000000E+00 0. -1.
          1   -1    0    0  501    0 -0.00000000000E+00 -0.00000000000E+00 -0.91883047216E+03  0.91883047216E+03  0.00000000000E+00 0. -1.
         25    2    1    2    0    0  0.96259991825E+02 -0.21348786866E+03 -0.25027949740E+03  0.36484000228E+03  0.12500137741E+03 0.  0.
          2    1    1    2  501    0 -0.42495753706E+02  0.25053358568E+02 -0.60361958582E+03  0.60563203700E+03  0.00000000000E+00 0. -1.
          1    1    1    2  502    0 -0.53764238119E+02  0.18843451009E+03  0.14380004120E+04  0.14512902339E+04  0.00000000000E+00 0. -1.
         22    1    3    3    0    0 -0.81167984213E+00 -0.14875505341E+03 -0.14278450178E+03  0.20619441963E+03  0.00000000000E+00 0. -1.
         22    1    3    3    0    0  0.97071671667E+02 -0.64732815250E+02 -0.10749499562E+03  0.15864558265E+03  0.00000000000E+00 0. -1.
</event>
<event>
 7    1  0.5194496E-006  0.1983473E+03  0.7818608E-02  0.1240943E+00
          2   -1    0    0  502    0  0.00000000000E+00  0.00000000000E+00  0.22679133482E+04  0.22679133482E+04  0.00000000000E+00 0. -1.
          1   -1    0    0  501    0 -0.00000000000E+00 -0.00000000000E+00 -0.11602785826E+04  0.11602785826E+04  0.00000000000E+00 0. -1.
         25    2    1    2    0    0  0.20569060930E+03  0.13827465751E+03 -0.59799149222E+02  0.28395395681E+03  0.12500161471E+03 0.  0.
          2    1    1    2  501    0 -0.20130613048E+02 -0.71417147997E+02 -0.98248885339E+03  0.98528675909E+03  0.00000000000E+00 0. -1.
          1    1    1    2  502    0 -0.18555999625E+03 -0.66857509508E+02  0.21499227683E+04  0.21589512149E+04  0.00000000000E+00 0. -1.
         22    1    3    3    0    0 -0.89363506796E+01  0.19274678561E+02  0.16562642538E+02  0.26938684544E+02  0.00000000000E+00 0. -1.
         22    1    3    3    0    0  0.21462695998E+03  0.11899997894E+03 -0.76361791760E+02  0.25701527227E+03  0.00000000000E+00 0. -1.
</event>
<event>
 7    1  0.1080439E-005  0.7762954E+02  0.7818608E-02  0.1408083E+00
          2   -1    0    0  502    0  0.00000000000E+00  0.00000000000E+00  0.21731129488E+04  0.21731129488E+04  0.00000000000E+00 0. -1.
          1   -1    0    0  501    0 -0.00000000000E+00 -0.00000000000E+00 -0.59095583892E+03  0.59095583892E+03  0.00000000000E+00 0. -1.
         25    2    1    2    0    0  0.62535166599E+01  0.75826360900E+02 -0.14542098144E+03  0.20629988223E+03  0.12499454422E+03 0.  0.
          2    1    1    2  501    0  0.36168344683E+02 -0.70351152481E+02 -0.41111094548E+03  0.41865217461E+03  0.00000000000E+00 0. -1.
          1    1    1    2  502    0 -0.42421861342E+02 -0.54752084196E+01  0.21386890368E+04  0.21391167309E+04  0.00000000000E+00 0. -1.
         22    1    3    3    0    0  0.62275735067E+02  0.35321775403E+02 -0.10215493245E+03  0.12474584249E+03  0.00000000000E+00 0.  1.
         22    1    3    3    0    0 -0.56022218407E+02  0.40504585497E+02 -0.43266048990E+02  0.81554039733E+02  0.00000000000E+00 0.  1.
</event>
<event>
 7    1  0.5194496E-006  0.8745109E+02  0.7818608E-02  0.1368836E+00
          2   -1    0    0  502    0  0.00000000000E+00  0.00000000000E+00  0.55239196506E+03  0.55239196506E+03  0.00000000000E+00 0. -1.
          1   -1    0    0  501    0 -0.00000000000E+00 -0.00000000000E+00 -0.74698469316E+02  0.74698469316E+02  0.00000000000E+00 0. -1.
         25    2    1    2    0    0 -0.51919131439E+02 -0.48354684358E+02  0.26420188156E+03  0.30076803058E+03  0.12500000915E+03 0.  0.
          2    1    1    2  501    0  0.90350400738E+02  0.13194862981E+02 -0.14502958989E+02  0.92453421473E+02  0.00000000000E+00 0. -1.
          1    1    1    2  502    0 -0.38431269299E+02  0.35159821376E+02  0.22799457317E+03  0.23386898232E+03  0.00000000000E+00 0. -1.
         22    1    3    3    0    0 -0.67892895119E+02  0.19563740453E+02  0.10083314583E+03  0.12312395562E+03  0.00000000000E+00 0. -1.
         22    1    3    3    0    0  0.15973763681E+02 -0.67918424811E+02  0.16336873573E+03  0.17764407496E+03  0.00000000000E+00 0. -1.
</event>
<event>
 7    1  0.5194496E-006  0.1772993E+03  0.7818608E-02  0.1345345E+00
          2   -1    0    0  502    0  0.00000000000E+00  0.00000000000E+00  0.79012618132E+03  0.79012618132E+03  0.00000000000E+00 0. -1.
          1   -1    0    0  501    0 -0.00000000000E+00 -0.00000000000E+00 -0.20242183509E+03  0.20242183509E+03  0.00000000000E+00 0. -1.
         25    2    1    2    0    0 -0.10918616450E+03  0.16663130293E+03  0.15327063873E+03  0.28072098314E+03  0.12499908818E+03 0.  0.
          2    1    1    2  501    0  0.10603356041E+03 -0.13546396108E+03 -0.84699987058E+02  0.19174902475E+03  0.00000000000E+00 0. -1.
          1    1    1    2  502    0  0.31526040893E+01 -0.31167341847E+02  0.51913369456E+03  0.52007800851E+03  0.00000000000E+00 0. -1.
         22    1    3    3    0    0  0.18859377712E+02  0.95385214271E+01 -0.70823043576E+01  0.22289426949E+02  0.00000000000E+00 0. -1.
         22    1    3    3    0    0 -0.12804554221E+03  0.15709278150E+03  0.16035294309E+03  0.25843155620E+03  0.00000000000E+00 0. -1.
</event>
<event>
 7    1  0.5194496E-006  0.1044929E+03  0.7818608E-02  0.1361732E+00
          2   -1    0    0  502    0  0.00000000000E+00  0.00000000000E+00  0.10982988637E+03  0.10982988637E+03  0.00000000000E+00 0. -1.
          1   -1    0    0  501    0 -0.00000000000E+00 -0.00000000000E+00 -0.27181221149E+04  0.27181221149E+04  0.00000000000E+00 0. -1.
         25    2    1    2    0    0 -0.35842611190E+01 -0.14556294538E+03 -0.10777378722E+04  0.10946896597E+04  0.12500044699E+03 0.  0.
          2    1    1    2  501    0 -0.15074378449E+02  0.43727241847E+02 -0.16050493526E+04  0.16057156450E+04  0.00000000000E+00 0. -1.
          1    1    1    2  502    0  0.18658639568E+02  0.10183570353E+03  0.74494996248E+02  0.12754669659E+03  0.00000000000E+00 0. -1.
         22    1    3    3    0    0  0.46931798531E+02 -0.68519286652E+02 -0.29238076888E+03  0.30394736447E+03  0.00000000000E+00 0.  1.
         22    1    3    3    0    0 -0.50516059650E+02 -0.77043658727E+02 -0.78535710335E+03  0.79074229520E+03  0.00000000000E+00 0.  1.
</event>
<event>
 7    1  0.5194496E-006  0.6900219E+02  0.7818608E-02  0.1433634E+00
          2   -1    0    0  502    0  0.00000000000E+00  0.00000000000E+00  0.21053718534E+04  0.21053718534E+04  0.00000000000E+00 0. -1.
          1   -1    0    0  501    0 -0.00000000000E+00 -0.00000000000E+00 -0.45378158912E+03  0.45378158912E+03  0.00000000000E+00 0. -1.
         25    2    1    2    0    0 -0.53349347237E+02  0.46494089339E+02  0.42678105336E+03  0.45030565897E+03  0.12500106317E+03 0.  0.
          2    1    1    2  501    0  0.19150808072E+02 -0.66352065625E+02 -0.43908543379E+03  0.44448325978E+03  0.00000000000E+00 0. -1.
          1    1    1    2  502    0  0.34198539165E+02  0.19857976287E+02  0.16638946447E+04  0.16643645238E+04  0.00000000000E+00 0. -1.
         22    1    3    3    0    0 -0.95338283243E+01 -0.40742104629E+02  0.18261611208E+03  0.18734849176E+03  0.00000000000E+00 0.  1.
         22    1    3    3    0    0 -0.43815518913E+02  0.87236193968E+02  0.24416494128E+03  0.26295716721E+03  0.00000000000E+00 0.  1.
</event>
<event>
 7    1  0.5194496E-006  0.6567341E+02  0.7818608E-02  0.1418625E+00
          2   -1    0    0  502    0  0.00000000000E+00  0.00000000000E+00  0.13251785189E+03  0.13251785189E+03  0.00000000000E+00 0. -1.
          1   -1    0    0  501    0 -0.00000000000E+00 -0.00000000000E+00 -0.16164542500E+04  0.16164542500E+04  0.00000000000E+00 0. -1.
         25    2    1    2    0    0  0.21858331640E+02  0.52482740566E+01  0.36723106976E+02  0.13220699785E+03  0.12499909060E+03 0.  0.
          2    1    1    2  501    0 -0.24500236675E+02  0.60932214742E+02 -0.15448554220E+04  0.15462507143E+04  0.00000000000E+00 0. -1.
          1    1    1    2  502    0  0.26419050352E+01 -0.66180488799E+02  0.24195916996E+02  0.70514389731E+02  0.00000000000E+00 0. -1.
         22    1    3    3    0    0 -0.51949816995E+02  0.34491839044E+01  0.66505031942E+01  0.52487232239E+02  0.00000000000E+00 0.  1.
         22    1    3    3    0    0  0.73808148635E+02  0.17990901522E+01  0.30072603781E+02  0.79719765607E+02  0.00000000000E+00 0.  1.
</event>
